<LesHouchesEvents version="3.0">
<header>
<!--
#*********************************************************************
#                                                                    *
#                        MadGraph5_aMC@NLO                           *
#                                                                    *
#                           Going Beyond                             *
#                                                                    *
#                   http://madgraph.hep.uiuc.edu                     *
#                   http://madgraph.phys.ucl.ac.be                   *
#                   http://amcatnlo.cern.ch                          *
#                                                                    *
#                     The MadGraph5_aMC@NLO team                     *
#                                                                    *
#....................................................................*
#                                                                    *
# This file contains all the information necessary to reproduce      *
# the events generated:                                              *
#                                                                    *
# 1. software version                                                *
# 2. proc_card          : code generation info including model       *
# 3. param_card         : model primary parameters in the LH format  *
# 4. run_card           : running parameters (collider and cuts)     *
# 5. pythia_card        : present only if pythia has been run        *
# 6. pgs_card           : present only if pgs has been run           *
# 7. delphes_cards      : present only if delphes has been run       *
#                                                                    *
#                                                                    *
#*********************************************************************
-->
<MGVersion>
#5.2.2.3
</MGVersion>
<MG5ProcCard>
#************************************************************
#*                     MadGraph5_aMC@NLO                    *
#*                                                          *
#*                *                       *                 *
#*                  *        * *        *                   *
#*                    * * * * 5 * * * *                     *
#*                  *        * *        *                   *
#*                *                       *                 *
#*                                                          *
#*                                                          *
#*         VERSION 2.2.3                 2015-02-10         *
#*                                                          *
#*    The MadGraph5_aMC@NLO Development Team - Find us at   *
#*    https://server06.fynu.ucl.ac.be/projects/madgraph     *
#*                                                          *
#************************************************************
#*                                                          *
#*               Command File for MadGraph5_aMC@NLO         *
#*                                                          *
#*     run as ./bin/mg5_aMC  filename                       *
#*                                                          *
#************************************************************
set group_subprocesses Auto
set ignore_six_quark_processes False
set loop_optimized_output True
set gauge unitary
set complex_mass_scheme False
import model sm
define p = g u c d s u~ c~ d~ s~
define j = g u c d s u~ c~ d~ s~
define l+ = e+ mu+
define l- = e- mu-
define vl = ve vm vt
define vl~ = ve~ vm~ vt~
import model Zprime_UFO
generate p p > zph, zph > j j
add process p p > zph, zph > b b~
output Dijet_signal
</MG5ProcCard>
<MGProcCard>
#*********************************************************************
#                        MadGraph/MadEvent                           *
#                   http://madgraph.hep.uiuc.edu                     *
#                                                                    *
#                          proc_card.dat                             *
#*********************************************************************
#                                                                    *
#            This Files is generated by MADGRAPH 5                   *
#                                                                    *
# WARNING: This Files is generated for MADEVENT (compatibility issue)*
#          This files is NOT a valid MG4 proc_card.dat               *
#          Running this in MG4 will NEVER reproduce the result of MG5*
#                                                                    *
#*********************************************************************
#*********************************************************************
# Process(es) requested : mg2 input                                  *
#*********************************************************************
# Begin PROCESS # This is TAG. Do not modify this line
p p > zph , zph > j j           #Process
# Be carefull the coupling are here in MG5 convention
          
end_coup           # End the couplings input

done               # this tells MG there are no more procs
# End PROCESS  # This is TAG. Do not modify this line
#*********************************************************************
# Model information                                                  *
#*********************************************************************
# Begin MODEL  # This is TAG. Do not modify this line
Zprime_UFO
# End   MODEL  # This is TAG. Do not modify this line
#*********************************************************************
# Start multiparticle definitions                                    *
#*********************************************************************
# Begin MULTIPARTICLES # This is TAG. Do not modify this line

# End  MULTIPARTICLES # This is TAG. Do not modify this line
</MGProcCard>
<MGRunCard>
#*********************************************************************
#                       MadGraph5_aMC@NLO                            *
#                                                                    *
#                     run_card.dat MadEvent                          *
#                                                                    *
#  This file is used to set the parameters of the run.               *
#                                                                    *
#  Some notation/conventions:                                        *
#                                                                    *
#   Lines starting with a '# ' are info or comments                  *
#                                                                    *
#   mind the format:   value    = variable     ! comment             *
#*********************************************************************
#
#*******************                                                 
# Running parameters
#*******************                                                 
#                                                                    
#*********************************************************************
# Tag name for the run (one word)                                    *
#*********************************************************************
  tag_1     = run_tag ! name of the run 
#*********************************************************************
# Run to generate the grid pack                                      *
#*********************************************************************
  .false.     = gridpack  !True = setting up the grid pack
#*********************************************************************
# Number of events and rnd seed                                      *
# Warning: Do not generate more than 1M events in a single run       *
# If you want to run Pythia, avoid more than 50k events in a run.    *
#*********************************************************************
  2000 = nevents ! Number of unweighted events requested 
 2415 = iseed   ! rnd seed (0=assigned automatically=default))
#*********************************************************************
# Collider type and energy                                           *
# lpp: 0=No PDF, 1=proton, -1=antiproton, 2=photon from proton,      *
#                                         3=photon from electron     *
#*********************************************************************
        1     = lpp1    ! beam 1 type 
        1     = lpp2    ! beam 2 type
     4000     = ebeam1  ! beam 1 total energy in GeV
     4000     = ebeam2  ! beam 2 total energy in GeV
#*********************************************************************
# Beam polarization from -100 (left-handed) to 100 (right-handed)    *
#*********************************************************************
        0     = polbeam1 ! beam polarization for beam 1
        0     = polbeam2 ! beam polarization for beam 2
#*********************************************************************
# PDF CHOICE: this automatically fixes also alpha_s and its evol.    *
#*********************************************************************
 'nn23lo1'    = pdlabel     ! PDF set                                     
 230000    = lhaid     ! if pdlabel=lhapdf, this is the lhapdf number
#*********************************************************************
# Renormalization and factorization scales                           *
#*********************************************************************
 F        = fixed_ren_scale  ! if .true. use fixed ren scale
 F        = fixed_fac_scale  ! if .true. use fixed fac scale
 91.1880  = scale            ! fixed ren scale
 91.1880  = dsqrt_q2fact1    ! fixed fact scale for pdf1
 91.1880  = dsqrt_q2fact2    ! fixed fact scale for pdf2
 1        = scalefact        ! scale factor for event-by-event scales
#*********************************************************************
# Matching - Warning! ickkw > 1 is still beta
#*********************************************************************
 0        = ickkw            ! 0 no matching, 1 MLM, 2 CKKW matching
 1        = highestmult      ! for ickkw=2, highest mult group
 1        = ktscheme         ! for ickkw=1, 1 Durham kT, 2 Pythia pTE
 1        = alpsfact         ! scale factor for QCD emission vx
 F        = chcluster        ! cluster only according to channel diag
 T        = pdfwgt           ! for ickkw=1, perform pdf reweighting
 5        = asrwgtflavor     ! highest quark flavor for a_s reweight
 T        = clusinfo         ! include clustering tag in output
 3.0      = lhe_version       ! Change the way clustering information pass to shower.        
#*********************************************************************
#**********************************************************
#
#**********************************************************
# Automatic ptj and mjj cuts if xqcut > 0
# (turn off for VBF and single top processes)
#**********************************************************
   T  = auto_ptj_mjj  ! Automatic setting of ptj and mjj
#**********************************************************
#                                                                    
#**********************************
# BW cutoff (M+/-bwcutoff*Gamma)
#**********************************
  15  = bwcutoff      ! (M+/-bwcutoff*Gamma)
#**********************************************************
# Apply pt/E/eta/dr/mij cuts on decay products or not
# (note that etmiss/ptll/ptheavy/ht/sorted cuts always apply)
#**********************************************************
   T  = cut_decays    ! Cut decay products 
#*************************************************************
# Number of helicities to sum per event (0 = all helicities)
# 0 gives more stable result, but longer run time (needed for
# long decay chains e.g.).
# Use >=2 if most helicities contribute, e.g. pure QCD.
#*************************************************************
   0  = nhel          ! Number of helicities used per event
#*******************                                                 
# Standard Cuts
#*******************                                                 
#                                                                    
#*********************************************************************
# Minimum and maximum pt's (for max, -1 means no cut)                *
#*********************************************************************
 20  = ptj       ! minimum pt for the jets 
  0  = ptb       ! minimum pt for the b 
 10  = pta       ! minimum pt for the photons 
 10  = ptl       ! minimum pt for the charged leptons 
  0  = misset    ! minimum missing Et (sum of neutrino's momenta)
  0  = ptheavy   ! minimum pt for one heavy final state
 1.0 = ptonium   ! minimum pt for the quarkonium states
 -1  = ptjmax    ! maximum pt for the jets
 -1  = ptbmax    ! maximum pt for the b
 -1  = ptamax    ! maximum pt for the photons
 -1  = ptlmax    ! maximum pt for the charged leptons
 -1  = missetmax ! maximum missing Et (sum of neutrino's momenta)
#*********************************************************************
# Minimum and maximum E's (in the center of mass frame)              *
#*********************************************************************
  0  = ej     ! minimum E for the jets 
  0  = eb     ! minimum E for the b 
  0  = ea     ! minimum E for the photons 
  0  = el     ! minimum E for the charged leptons 
 -1   = ejmax ! maximum E for the jets
 -1   = ebmax ! maximum E for the b
 -1   = eamax ! maximum E for the photons
 -1   = elmax ! maximum E for the charged leptons
#*********************************************************************
# Maximum and minimum absolute rapidity (for max, -1 means no cut)   *
#*********************************************************************
   5  = etaj    ! max rap for the jets 
  -1  = etab    ! max rap for the b
 2.5  = etaa    ! max rap for the photons 
 2.5  = etal    ! max rap for the charged leptons 
 0.6  = etaonium ! max rap for the quarkonium states
   0  = etajmin ! min rap for the jets
   0  = etabmin ! min rap for the b
   0  = etaamin ! min rap for the photons
   0  = etalmin ! main rap for the charged leptons
#*********************************************************************
# Minimum and maximum DeltaR distance                                *
#*********************************************************************
 0.4 = drjj    ! min distance between jets 
 0   = drbb    ! min distance between b's 
 0.4 = drll    ! min distance between leptons 
 0.4 = draa    ! min distance between gammas 
 0   = drbj    ! min distance between b and jet 
 0.4 = draj    ! min distance between gamma and jet 
 0.4 = drjl    ! min distance between jet and lepton 
 0   = drab    ! min distance between gamma and b 
 0   = drbl    ! min distance between b and lepton 
 0.4 = dral    ! min distance between gamma and lepton 
 -1  = drjjmax ! max distance between jets
 -1  = drbbmax ! max distance between b's
 -1  = drllmax ! max distance between leptons
 -1  = draamax ! max distance between gammas
 -1  = drbjmax ! max distance between b and jet
 -1  = drajmax ! max distance between gamma and jet
 -1  = drjlmax ! max distance between jet and lepton
 -1  = drabmax ! max distance between gamma and b
 -1  = drblmax ! max distance between b and lepton
 -1  = dralmax ! maxdistance between gamma and lepton
#*********************************************************************
# Minimum and maximum invariant mass for pairs                       *
# WARNING: for four lepton final state mmll cut require to have      *
#          different lepton masses for each flavor!                  *           
#*********************************************************************
 0   = mmjj    ! min invariant mass of a jet pair 
 0   = mmbb    ! min invariant mass of a b pair 
 0   = mmaa    ! min invariant mass of gamma gamma pair
 0   = mmll    ! min invariant mass of l+l- (same flavour) lepton pair
 -1  = mmjjmax ! max invariant mass of a jet pair
 -1  = mmbbmax ! max invariant mass of a b pair
 -1  = mmaamax ! max invariant mass of gamma gamma pair
 -1  = mmllmax ! max invariant mass of l+l- (same flavour) lepton pair
#*********************************************************************
# Minimum and maximum invariant mass for all letpons                 *
#*********************************************************************
 0   = mmnl    ! min invariant mass for all letpons (l+- and vl) 
 -1  = mmnlmax ! max invariant mass for all letpons (l+- and vl) 
#*********************************************************************
# Minimum and maximum pt for 4-momenta sum of leptons                *
#*********************************************************************
 0   = ptllmin  ! Minimum pt for 4-momenta sum of leptons(l and vl)
 -1  = ptllmax  ! Maximum pt for 4-momenta sum of leptons(l and vl)
#*********************************************************************
# Inclusive cuts                                                     *
#*********************************************************************
 0  = xptj ! minimum pt for at least one jet  
 0  = xptb ! minimum pt for at least one b 
 0  = xpta ! minimum pt for at least one photon 
 0  = xptl ! minimum pt for at least one charged lepton 
#*********************************************************************
# Control the pt's of the jets sorted by pt                          *
#*********************************************************************
 0   = ptj1min ! minimum pt for the leading jet in pt
 0   = ptj2min ! minimum pt for the second jet in pt
 0   = ptj3min ! minimum pt for the third jet in pt
 0   = ptj4min ! minimum pt for the fourth jet in pt
 -1  = ptj1max ! maximum pt for the leading jet in pt 
 -1  = ptj2max ! maximum pt for the second jet in pt
 -1  = ptj3max ! maximum pt for the third jet in pt
 -1  = ptj4max ! maximum pt for the fourth jet in pt
 0   = cutuse  ! reject event if fails any (0) / all (1) jet pt cuts
#*********************************************************************
# Control the pt's of leptons sorted by pt                           *
#*********************************************************************
 0   = ptl1min ! minimum pt for the leading lepton in pt
 0   = ptl2min ! minimum pt for the second lepton in pt
 0   = ptl3min ! minimum pt for the third lepton in pt
 0   = ptl4min ! minimum pt for the fourth lepton in pt
 -1  = ptl1max ! maximum pt for the leading lepton in pt 
 -1  = ptl2max ! maximum pt for the second lepton in pt
 -1  = ptl3max ! maximum pt for the third lepton in pt
 -1  = ptl4max ! maximum pt for the fourth lepton in pt
#*********************************************************************
# Control the Ht(k)=Sum of k leading jets                            *
#*********************************************************************
 0   = htjmin ! minimum jet HT=Sum(jet pt)
 -1  = htjmax ! maximum jet HT=Sum(jet pt)
 0   = ihtmin  !inclusive Ht for all partons (including b)
 -1  = ihtmax  !inclusive Ht for all partons (including b)
 0   = ht2min ! minimum Ht for the two leading jets
 0   = ht3min ! minimum Ht for the three leading jets
 0   = ht4min ! minimum Ht for the four leading jets
 -1  = ht2max ! maximum Ht for the two leading jets
 -1  = ht3max ! maximum Ht for the three leading jets
 -1  = ht4max ! maximum Ht for the four leading jets
#***********************************************************************
# Photon-isolation cuts, according to hep-ph/9801442                   *
# When ptgmin=0, all the other parameters are ignored                  *
# When ptgmin>0, pta and draj are not going to be used                 *
#***********************************************************************
   0 = ptgmin ! Min photon transverse momentum
 0.4 = R0gamma ! Radius of isolation code
 1.0 = xn ! n parameter of eq.(3.4) in hep-ph/9801442
 1.0 = epsgamma ! epsilon_gamma parameter of eq.(3.4) in hep-ph/9801442
 .true. = isoEM ! isolate photons from EM energy (photons and leptons)
#*********************************************************************
# WBF cuts                                                           *
#*********************************************************************
 0   = xetamin ! minimum rapidity for two jets in the WBF case  
 0   = deltaeta ! minimum rapidity for two jets in the WBF case 
#*********************************************************************
# KT DURHAM CUT                                                      *
#*********************************************************************
 -1    =  ktdurham        
 0.4  =  dparameter 
#*********************************************************************
# maximal pdg code for quark to be considered as a light jet         *
# (otherwise b cuts are applied)                                     *
#*********************************************************************
 4 = maxjetflavor    ! Maximum jet pdg code
#*********************************************************************
# Jet measure cuts                                                   *
#*********************************************************************
 0   = xqcut   ! minimum kt jet measure between partons
#*********************************************************************
#
#*********************************************************************
# Store info for systematics studies                                 *
# WARNING: If use_syst is T, matched Pythia output is                *
#          meaningful ONLY if plotted taking matchscale              *
#          reweighting into account!                                 *
#*********************************************************************
   F  = use_syst      ! Enable systematics studies
#
#**************************************
# Parameter of the systematics study
#  will be used by SysCalc (if installed)
#**************************************                                  
#
0.5 1 2 = sys_scalefact  # factorization/renormalization scale factor
0.5 1 2 = sys_alpsfact  # \alpha_s emission scale factors
30 50 = sys_matchscale # variation of merging scale
# PDF sets and number of members (0 or none for all members).
CT10nlo.LHgrid = sys_pdf # matching scales
# MSTW2008nlo68cl.LHgrid 1  = sys_pdf
</MGRunCard>
<slha>
######################################################################
## PARAM_CARD AUTOMATICALY GENERATED BY MG5 FOLLOWING UFO MODEL   ####
######################################################################
##                                                                  ##
##  Width set on Auto will be computed following the information    ##
##        present in the decay.py files of the model.               ##
##        See  arXiv:1402.1178 for more details.                    ##
##                                                                  ##
######################################################################

###################################
## INFORMATION FOR CKMBLOCK
###################################
Block ckmblock 
    1 2.277360e-01 # cabi 

###################################
## INFORMATION FOR FRBLOCK
###################################
Block frblock 
    1 1.200000e+00 # gz 

###################################
## INFORMATION FOR MASS
###################################
Block mass 
    1 5.040000e-03 # MD 
    2 2.550000e-03 # MU 
    3 1.010000e-01 # MS 
    4 1.270000e+00 # MC 
    5 4.700000e+00 # MB 
    6 1.720000e+02 # MT 
   11 5.110000e-04 # Me 
   13 1.056600e-01 # MM 
   15 1.777000e+00 # MTA 
   23 9.118760e+01 # MZ 
   25 1.200000e+02 # MH 
  10030 3.800000e+03 # MZph 
  10031 3.000000e+02 # MZpl 
## Dependent parameters, given by model restrictions.
## Those values should be edited following the 
## analytical expression. MG5 ignores those values 
## but they are important for interfacing the output of MG5
## to external program such as Pythia.
  12 0.000000 # ve : 0.0 
  14 0.000000 # vm : 0.0 
  16 0.000000 # vt : 0.0 
  21 0.000000 # g : 0.0 
  22 0.000000 # a : 0.0 
  24 79.824360 # w+ : cmath.sqrt(MZ__exp__2/2. + cmath.sqrt(MZ__exp__4/4. - (aEW*cmath.pi*MZ__exp__2)/(Gf*sqrt__2))) 

###################################
## INFORMATION FOR SMINPUTS
###################################
Block sminputs 
    1 1.279000e+02 # aEWM1 
    2 1.166370e-05 # Gf 
    3 1.184000e-01 # aS 

###################################
## INFORMATION FOR YUKAWA
###################################
Block yukawa 
    1 5.040000e-03 # ymdo 
    2 2.550000e-03 # ymup 
    3 1.010000e-01 # yms 
    4 1.270000e+00 # ymc 
    5 4.700000e+00 # ymb 
    6 1.720000e+02 # ymt 
   11 5.110000e-04 # yme 
   13 1.056600e-01 # ymm 
   15 1.777000e+00 # ymtau 

###################################
## INFORMATION FOR DECAY
###################################
DECAY   6 1.508336e+00 # WT 
DECAY  23 2.495200e+00 # WZ 
DECAY  24 2.085000e+00 # WW 
DECAY  25 5.753088e-03 # WH 
## Dependent parameters, given by model restrictions.
## Those values should be edited following the 
## analytical expression. MG5 ignores those values 
## but they are important for interfacing the output of MG5
## to external program such as Pythia.
DECAY  1 0.000000 # d : 0.0 
DECAY  2 0.000000 # u : 0.0 
DECAY  3 0.000000 # s : 0.0 
DECAY  4 0.000000 # c : 0.0 
DECAY  5 0.000000 # b : 0.0 
DECAY  11 0.000000 # e- : 0.0 
DECAY  12 0.000000 # ve : 0.0 
DECAY  13 0.000000 # mu- : 0.0 
DECAY  14 0.000000 # vm : 0.0 
DECAY  15 0.000000 # ta- : 0.0 
DECAY  16 0.000000 # vt : 0.0 
DECAY  21 0.000000 # g : 0.0 
DECAY  22 0.000000 # a : 0.0 
DECAY  10030 0.308725 # zph : (gz__exp__2*MZph*(5 + cmath.sqrt(1 - (4*MT__exp__2)/MZph__exp__2)))/(144.*cmath.pi) 
DECAY  10031 0.132629 # zpl : (5*gz__exp__2*MZpl)/(144.*cmath.pi) 
#===========================================================
# QUANTUM NUMBERS OF NEW STATE(S) (NON SM PDG CODE)
#===========================================================

Block QNUMBERS 10030  # zph 
        1 0  # 3 times electric charge
        2 3  # number of spin states (2S+1)
        3 1  # colour rep (1: singlet, 3: triplet, 8: octet)
        4 0  # Particle/Antiparticle distinction (0=own anti)
Block QNUMBERS 10031  # zpl 
        1 0  # 3 times electric charge
        2 3  # number of spin states (2S+1)
        3 1  # colour rep (1: singlet, 3: triplet, 8: octet)
        4 0  # Particle/Antiparticle distinction (0=own anti)
</slha>
## END BANNER##
<MGGenerationInfo>
#  Number of Events        :         3883
#  Integrated weight (pb)  :  0.13184E-03
#  Max wgt                 :  0.53254E-07
#  Average wgt             :  0.33953E-07
</MGGenerationInfo>
</header>
<init>
     2212     2212  0.40000000000E+04  0.40000000000E+04 0 0  247000  247000 2   1
  0.13195481824E-03  0.43326699991E-06  0.53253620000E-07   0
</init>
<event>
 5   0  0.5202788E-07  0.3785785E+04  0.7818609E-02  0.8049212E-01
        2   -1    0    0  501    0  0.00000000000E+00  0.00000000000E+00  0.13625472838E+04  0.13625472838E+04  0.25500000920E-02 0. -1.
       -2   -1    0    0    0  501  0.00000000000E+00  0.00000000000E+00 -0.26296640771E+04  0.26296640771E+04  0.25500000920E-02 0.  1.
    10030    2    1    2    0    0  0.00000000000E+00  0.00000000000E+00 -0.12671167933E+04  0.39922113609E+04  0.37857848040E+04 0.  0.
        1    1    3    3  502    0  0.23259606361E+03 -0.18148240706E+04 -0.11451444306E+04  0.21584816661E+04  0.50400001928E-02 0.  1.
       -1    1    3    3    0  502 -0.23259606361E+03  0.18148240706E+04 -0.12197236269E+03  0.18337296947E+04  0.50400001928E-02 0. -1.
</event>
<event>
 5   0  0.5202788E-07  0.3764287E+04  0.7818609E-02  0.8053862E-01
       -2   -1    0    0    0  501  0.00000000000E+00  0.00000000000E+00  0.10432150372E+04  0.10432150372E+04  0.25500000920E-02 0.  1.
        2   -1    0    0  501    0  0.00000000000E+00  0.00000000000E+00 -0.33957183803E+04  0.33957183803E+04  0.25500000920E-02 0. -1.
    10030    2    1    2    0    0  0.00000000000E+00  0.00000000000E+00 -0.23525033431E+04  0.44389334174E+04  0.37642871709E+04 0.  0.
        1    1    3    3  502    0  0.91115663042E+02  0.35722416357E+03 -0.33527256442E+04  0.33729335025E+04  0.50400001928E-02 0. -1.
       -1    1    3    3    0  502 -0.91115663042E+02 -0.35722416357E+03  0.10002223011E+04  0.10659999149E+04  0.50400001928E-02 0.  1.
</event>
<event>
 5   0  0.5132561E-07  0.3861977E+04  0.7818609E-02  0.8032984E-01
        2   -1    0    0  501    0  0.00000000000E+00  0.00000000000E+00  0.16089174128E+04  0.16089174128E+04  0.25500000920E-02 0.  1.
       -2   -1    0    0    0  501  0.00000000000E+00  0.00000000000E+00 -0.23175315677E+04  0.23175315677E+04  0.25500000920E-02 0. -1.
    10030    2    1    2    0    0  0.00000000000E+00  0.00000000000E+00 -0.70861415487E+03  0.39264489805E+04  0.38619771589E+04 0.  0.
        3    1    3    3  502    0  0.37956187890E+03  0.58031936577E+03  0.14779659350E+04  0.16325504897E+04  0.10100000352E+00 0.  1.
       -3    1    3    3    0  502 -0.37956187890E+03 -0.58031936577E+03 -0.21865800899E+04  0.22938984908E+04  0.10100000352E+00 0. -1.
</event>
<event>
 5   0  0.5202788E-07  0.3723672E+04  0.7818609E-02  0.8062736E-01
        2   -1    0    0  501    0  0.00000000000E+00  0.00000000000E+00  0.19629819274E+04  0.19629819274E+04  0.25500000920E-02 0.  1.
       -2   -1    0    0    0  501  0.00000000000E+00  0.00000000000E+00 -0.17659020547E+04  0.17659020547E+04  0.25500000920E-02 0. -1.
    10030    2    1    2    0    0  0.00000000000E+00  0.00000000000E+00  0.19707987265E+03  0.37288839821E+04  0.37236722836E+04 0.  0.
        1    1    3    3  502    0  0.48728130228E+03 -0.15140812673E+04  0.10676488634E+04  0.19156615690E+04  0.50400001928E-02 0.  1.
       -1    1    3    3    0  502 -0.48728130228E+03  0.15140812673E+04 -0.87056899079E+03  0.18132224131E+04  0.50400001928E-02 0. -1.
</event>
<event>
 5   0  0.5132561E-07  0.3633623E+04  0.7818609E-02  0.8082833E-01
       -2   -1    0    0    0  501  0.00000000000E+00  0.00000000000E+00  0.17591653094E+04  0.17591653094E+04  0.25500000920E-02 0. -1.
        2   -1    0    0  501    0  0.00000000000E+00  0.00000000000E+00 -0.18763472130E+04  0.18763472130E+04  0.25500000920E-02 0.  1.
    10030    2    1    2    0    0  0.00000000000E+00  0.00000000000E+00 -0.11718190366E+03  0.36355125224E+04  0.36336234948E+04 0.  0.
        3    1    3    3  502    0 -0.96882931282E+01  0.15464014555E+04  0.89550513120E+03  0.17870032946E+04  0.10100000352E+00 0.  1.
       -3    1    3    3    0  502  0.96882931282E+01 -0.15464014555E+04 -0.10126870349E+04  0.18485092278E+04  0.10100000352E+00 0. -1.
</event>
<event>
 5   0  0.1648000E-07  0.3572394E+04  0.7818609E-02  0.8096845E-01
        1   -1    0    0  501    0  0.00000000000E+00  0.00000000000E+00  0.17106781322E+04  0.17106781322E+04  0.50400001928E-02 0.  1.
       -1   -1    0    0    0  501  0.00000000000E+00  0.00000000000E+00 -0.18650499648E+04  0.18650499648E+04  0.50400001928E-02 0. -1.
    10030    2    1    2    0    0  0.00000000000E+00  0.00000000000E+00 -0.15437183261E+03  0.35757280970E+04  0.35723942617E+04 0.  0.
        1    1    3    3  502    0  0.12994004734E+04  0.10218854843E+04 -0.75443293877E+03  0.18171022515E+04  0.50400001928E-02 0. -1.
       -1    1    3    3    0  502 -0.12994004734E+04 -0.10218854843E+04  0.60006110616E+03  0.17586258455E+04  0.50400001928E-02 0.  1.
</event>
<event>
 5   0  0.1648000E-07  0.3911154E+04  0.7818609E-02  0.8022713E-01
       -1   -1    0    0    0  501  0.00000000000E+00  0.00000000000E+00  0.11709543580E+04  0.11709543580E+04  0.50400001928E-02 0.  1.
        1   -1    0    0  501    0  0.00000000000E+00  0.00000000000E+00 -0.32659523015E+04  0.32659523015E+04  0.50400001928E-02 0. -1.
    10030    2    1    2    0    0  0.00000000000E+00  0.00000000000E+00 -0.20949979435E+04  0.44369066596E+04  0.39111538352E+04 0.  0.
        3    1    3    3  502    0  0.79534754308E+03  0.17650119360E+04 -0.73386362607E+03  0.20703624515E+04  0.10100000352E+00 0. -1.
       -3    1    3    3    0  502 -0.79534754308E+03 -0.17650119360E+04 -0.13611343175E+04  0.23665442081E+04  0.10100000352E+00 0.  1.
</event>
<event>
 5   0  0.5202788E-07  0.3514890E+04  0.7818609E-02  0.8110270E-01
       -2   -1    0    0    0  501  0.00000000000E+00  0.00000000000E+00  0.16133159564E+04  0.16133159564E+04  0.25500000920E-02 0.  1.
        2   -1    0    0  501    0  0.00000000000E+00  0.00000000000E+00 -0.19144506344E+04  0.19144506344E+04  0.25500000920E-02 0. -1.
    10030    2    1    2    0    0  0.00000000000E+00  0.00000000000E+00 -0.30113467792E+03  0.35277665908E+04  0.35148904712E+04 0.  0.
        1    1    3    3  502    0  0.52684937567E+03 -0.22941193722E+03  0.15163641230E+04  0.16215918892E+04  0.50400001928E-02 0.  1.
       -1    1    3    3    0  502 -0.52684937567E+03  0.22941193722E+03 -0.18174988009E+04  0.19061747016E+04  0.50400001928E-02 0. -1.
</event>
<event>
 5   0  0.1648000E-07  0.2981159E+04  0.7818609E-02  0.8249132E-01
       -1   -1    0    0    0  501  0.00000000000E+00  0.00000000000E+00  0.16498413878E+04  0.16498413878E+04  0.50400001928E-02 0. -1.
        1   -1    0    0  501    0  0.00000000000E+00  0.00000000000E+00 -0.13466915523E+04  0.13466915523E+04  0.50400001928E-02 0.  1.
    10030    2    1    2    0    0  0.00000000000E+00  0.00000000000E+00  0.30314983546E+03  0.29965329401E+04  0.29811591435E+04 0.  0.
        2    1    3    3  502    0  0.65798594725E+02  0.54980819238E+03  0.15426224736E+04  0.16389943867E+04  0.25500000920E-02 0. -1.
       -2    1    3    3    0  502 -0.65798594725E+02 -0.54980819238E+03 -0.12394726381E+04  0.13575385535E+04  0.25500000920E-02 0.  1.
</event>
<event>
 5   0  0.5202788E-07  0.2953898E+04  0.7818609E-02  0.8257020E-01
       -2   -1    0    0    0  501  0.00000000000E+00  0.00000000000E+00  0.14099426743E+04  0.14099426743E+04  0.25500000920E-02 0.  1.
        2   -1    0    0  501    0  0.00000000000E+00  0.00000000000E+00 -0.15471393067E+04  0.15471393067E+04  0.25500000920E-02 0. -1.
    10030    2    1    2    0    0  0.00000000000E+00  0.00000000000E+00 -0.13719663244E+03  0.29570819810E+04  0.29538975822E+04 0.  0.
        1    1    3    3  502    0 -0.75373960148E+03  0.81778050133E+03  0.90429781145E+03  0.14334025488E+04  0.50400001928E-02 0.  1.
       -1    1    3    3    0  502  0.75373960148E+03 -0.81778050133E+03 -0.10414944439E+04  0.15236794321E+04  0.50400001928E-02 0. -1.
</event>
<event>
 5   0  0.1648000E-07  0.3826668E+04  0.7818609E-02  0.8040456E-01
       -1   -1    0    0    0  501  0.00000000000E+00  0.00000000000E+00  0.11232205490E+04  0.11232205490E+04  0.50400001928E-02 0.  1.
        1   -1    0    0  501    0  0.00000000000E+00  0.00000000000E+00 -0.32592418674E+04  0.32592418674E+04  0.50400001928E-02 0. -1.
    10030    2    1    2    0    0  0.00000000000E+00  0.00000000000E+00 -0.21360213184E+04  0.43824624164E+04  0.38266682321E+04 0.  0.
        2    1    3    3  502    0  0.23609771150E+03  0.11724148482E+04 -0.27784325550E+04  0.30248944061E+04  0.25500000920E-02 0.  1.
       -2    1    3    3    0  502 -0.23609771150E+03 -0.11724148482E+04  0.64241123657E+03  0.13575680103E+04  0.25500000920E-02 0. -1.
</event>
<event>
 5   0  0.5134434E-07  0.3802338E+04  0.7818609E-02  0.8045653E-01
        2   -1    0    0  501    0  0.00000000000E+00  0.00000000000E+00  0.13046527023E+04  0.13046527023E+04  0.25500000920E-02 0.  1.
       -2   -1    0    0    0  501  0.00000000000E+00  0.00000000000E+00 -0.27704257390E+04  0.27704257390E+04  0.25500000920E-02 0. -1.
    10030    2    1    2    0    0  0.00000000000E+00  0.00000000000E+00 -0.14657730367E+04  0.40750784413E+04  0.38023379266E+04 0.  0.
        5    1    3    3  502    0 -0.83793368509E+03  0.14512991757E+04  0.22929707954E+03  0.16914494964E+04  0.46999998093E+01 0.  1.
       -5    1    3    3    0  502  0.83793368509E+03 -0.14512991757E+04 -0.16950701162E+04  0.23836289449E+04  0.46999998093E+01 0. -1.
</event>
<event>
 5   0  0.1656617E-07  0.3378070E+04  0.7818609E-02  0.8143310E-01
       -1   -1    0    0    0  501  0.00000000000E+00  0.00000000000E+00  0.15052925102E+04  0.15052925103E+04  0.50400001928E-02 0. -1.
        1   -1    0    0  501    0  0.00000000000E+00  0.00000000000E+00 -0.18952061189E+04  0.18952061189E+04  0.50400001928E-02 0.  1.
    10030    2    1    2    0    0  0.00000000000E+00  0.00000000000E+00 -0.38991360867E+03  0.34004986292E+04  0.33780702042E+04 0.  0.
        5    1    3    3  502    0 -0.10224512264E+04 -0.13420460951E+04 -0.27500365734E+03  0.17094277795E+04  0.46999998093E+01 0. -1.
       -5    1    3    3    0  502  0.10224512264E+04  0.13420460951E+04 -0.11490995133E+03  0.16910708497E+04  0.46999998093E+01 0.  1.
</event>
<event>
 5   0  0.1648000E-07  0.3751886E+04  0.7818609E-02  0.8056560E-01
       -1   -1    0    0    0  501  0.00000000000E+00  0.00000000000E+00  0.21930959394E+04  0.21930959395E+04  0.50400001928E-02 0.  1.
        1   -1    0    0  501    0  0.00000000000E+00  0.00000000000E+00 -0.16046550403E+04  0.16046550403E+04  0.50400001928E-02 0. -1.
    10030    2    1    2    0    0  0.00000000000E+00  0.00000000000E+00  0.58844089914E+03  0.37977509798E+04  0.37518861673E+04 0.  0.
        1    1    3    3  502    0 -0.18055912951E+04  0.47098145831E+03  0.99044793099E+02  0.18686340814E+04  0.50400001928E-02 0. -1.
       -1    1    3    3    0  502  0.18055912951E+04 -0.47098145831E+03  0.48939610604E+03  0.19291168984E+04  0.50400001928E-02 0.  1.
</event>
<event>
 5   0  0.1648000E-07  0.3828569E+04  0.7818609E-02  0.8040052E-01
       -1   -1    0    0    0  501  0.00000000000E+00  0.00000000000E+00  0.13104623235E+04  0.13104623235E+04  0.50400001928E-02 0.  1.
        1   -1    0    0  501    0  0.00000000000E+00  0.00000000000E+00 -0.27963304557E+04  0.27963304558E+04  0.50400001928E-02 0. -1.
    10030    2    1    2    0    0  0.00000000000E+00  0.00000000000E+00 -0.14858681323E+04  0.41067927792E+04  0.38285692922E+04 0.  0.
        3    1    3    3  502    0  0.59846573433E+03  0.61657109303E+03 -0.25778477957E+04  0.27172818065E+04  0.10100000352E+00 0. -1.
       -3    1    3    3    0  502 -0.59846573433E+03 -0.61657109303E+03  0.10919796634E+04  0.13895109728E+04  0.10100000352E+00 0.  1.
</event>
<event>
 5   0  0.1648000E-07  0.3838749E+04  0.7818609E-02  0.8037890E-01
        1   -1    0    0  501    0  0.00000000000E+00  0.00000000000E+00  0.21291633761E+04  0.21291633761E+04  0.50400001928E-02 0.  1.
       -1   -1    0    0    0  501  0.00000000000E+00  0.00000000000E+00 -0.17302563598E+04  0.17302563598E+04  0.50400001928E-02 0. -1.
    10030    2    1    2    0    0  0.00000000000E+00  0.00000000000E+00  0.39890701626E+03  0.38594197359E+04  0.38387490007E+04 0.  0.
        3    1    3    3  502    0 -0.59956349400E+03 -0.76902130983E+03  0.18615732460E+04  0.21015054410E+04  0.10100000352E+00 0.  1.
       -3    1    3    3    0  502  0.59956349400E+03  0.76902130983E+03 -0.14626662297E+04  0.17579142949E+04  0.10100000352E+00 0. -1.
</event>
<event>
 5   0  0.5202788E-07  0.3814515E+04  0.7818609E-02  0.8043047E-01
       -2   -1    0    0    0  501  0.00000000000E+00  0.00000000000E+00  0.23246491156E+04  0.23246491156E+04  0.25500000920E-02 0.  1.
        2   -1    0    0  501    0  0.00000000000E+00  0.00000000000E+00 -0.15648085730E+04  0.15648085730E+04  0.25500000920E-02 0. -1.
    10030    2    1    2    0    0  0.00000000000E+00  0.00000000000E+00  0.75984054264E+03  0.38894576886E+04  0.38145148395E+04 0.  0.
        1    1    3    3  502    0 -0.15658824975E+04  0.10879248041E+03  0.14846298056E+04  0.21605437880E+04  0.50400001928E-02 0.  1.
       -1    1    3    3    0  502  0.15658824975E+04 -0.10879248041E+03 -0.72478926299E+03  0.17289139006E+04  0.50400001928E-02 0. -1.
</event>
<event>
 5   0  0.1648000E-07  0.3260920E+04  0.7818609E-02  0.8172911E-01
        1   -1    0    0  501    0  0.00000000000E+00  0.00000000000E+00  0.26329455469E+04  0.26329455469E+04  0.50400001928E-02 0. -1.
       -1   -1    0    0    0  501  0.00000000000E+00  0.00000000000E+00 -0.10096675541E+04  0.10096675541E+04  0.50400001928E-02 0.  1.
    10030    2    1    2    0    0  0.00000000000E+00  0.00000000000E+00  0.16232779928E+04  0.36426131010E+04  0.32609199257E+04 0.  0.
        4    1    3    3  502    0  0.27454173292E+03 -0.15885406603E+04  0.10842622900E+04  0.19427971894E+04  0.12699999809E+01 0. -1.
       -4    1    3    3    0  502 -0.27454173292E+03  0.15885406603E+04  0.53901570280E+03  0.16998159116E+04  0.12699999809E+01 0.  1.
</event>
<event>
 5   0  0.1648000E-07  0.3750266E+04  0.7818609E-02  0.8056913E-01
        1   -1    0    0  501    0  0.00000000000E+00  0.00000000000E+00  0.24339354719E+04  0.24339354719E+04  0.50400001928E-02 0.  1.
       -1   -1    0    0    0  501  0.00000000000E+00  0.00000000000E+00 -0.14446245616E+04  0.14446245616E+04  0.50400001928E-02 0. -1.
    10030    2    1    2    0    0  0.00000000000E+00  0.00000000000E+00  0.98931091027E+03  0.38785600335E+04  0.37502655715E+04 0.  0.
        1    1    3    3  502    0  0.96442591914E+03 -0.72786866723E+03 -0.98834923878E+03  0.15610074849E+04  0.50400001928E-02 0. -1.
       -1    1    3    3    0  502 -0.96442591914E+03  0.72786866723E+03  0.19776601491E+04  0.23175525486E+04  0.50400001928E-02 0.  1.
</event>
<event>
 5   0  0.5158266E-07  0.3713482E+04  0.7818609E-02  0.8064981E-01
       -2   -1    0    0    0  501  0.00000000000E+00  0.00000000000E+00  0.14596398072E+04  0.14596398072E+04  0.25500000920E-02 0. -1.
        2   -1    0    0  501    0  0.00000000000E+00  0.00000000000E+00 -0.23618747333E+04  0.23618747333E+04  0.25500000920E-02 0.  1.
    10030    2    1    2    0    0  0.00000000000E+00  0.00000000000E+00 -0.90223492606E+03  0.38215145404E+04  0.37134815902E+04 0.  0.
        2    1    3    3  502    0 -0.66798918080E+03  0.13602813730E+04 -0.15551330144E+04  0.21714082186E+04  0.25500000920E-02 0.  1.
       -2    1    3    3    0  502  0.66798918080E+03 -0.13602813730E+04  0.65289808834E+03  0.16501063218E+04  0.25500000920E-02 0. -1.
</event>
<event>
 5   0  0.1648000E-07  0.2813012E+04  0.7818609E-02  0.8299240E-01
        1   -1    0    0  501    0  0.00000000000E+00  0.00000000000E+00  0.81926719870E+03  0.81926719872E+03  0.50400001928E-02 0.  1.
       -1   -1    0    0    0  501  0.00000000000E+00  0.00000000000E+00 -0.24146683953E+04  0.24146683953E+04  0.50400001928E-02 0. -1.
    10030    2    1    2    0    0  0.00000000000E+00  0.00000000000E+00 -0.15954011966E+04  0.32339355940E+04  0.28130116331E+04 0.  0.
        3    1    3    3  502    0 -0.17381110087E+03 -0.37620393978E+03 -0.23428877661E+04  0.23792567742E+04  0.10100000352E+00 0. -1.
       -3    1    3    3    0  502  0.17381110087E+03  0.37620393978E+03  0.74748656953E+03  0.85467881974E+03  0.10100000352E+00 0.  1.
</event>
<event>
 5   0  0.5132561E-07  0.3799790E+04  0.7818609E-02  0.8046200E-01
       -2   -1    0    0    0  501  0.00000000000E+00  0.00000000000E+00  0.20690204194E+04  0.20690204194E+04  0.25500000920E-02 0.  1.
        2   -1    0    0  501    0  0.00000000000E+00  0.00000000000E+00 -0.17445938268E+04  0.17445938268E+04  0.25500000920E-02 0. -1.
    10030    2    1    2    0    0  0.00000000000E+00  0.00000000000E+00  0.32442659253E+03  0.38136142462E+04  0.37997896001E+04 0.  0.
        3    1    3    3  502    0  0.11616040990E+04 -0.90775910393E+03 -0.10405832350E+04  0.18044844562E+04  0.10100000352E+00 0. -1.
       -3    1    3    3    0  502 -0.11616040990E+04  0.90775910393E+03  0.13650098275E+04  0.20091297900E+04  0.10100000352E+00 0.  1.
</event>
<event>
 5   0  0.1648000E-07  0.3841107E+04  0.7818609E-02  0.8037391E-01
       -1   -1    0    0    0  501  0.00000000000E+00  0.00000000000E+00  0.12253454692E+04  0.12253454692E+04  0.50400001928E-02 0. -1.
        1   -1    0    0  501    0  0.00000000000E+00  0.00000000000E+00 -0.30101921948E+04  0.30101921948E+04  0.50400001928E-02 0.  1.
    10030    2    1    2    0    0  0.00000000000E+00  0.00000000000E+00 -0.17848467257E+04  0.42355376640E+04  0.38411068026E+04 0.  0.
        1    1    3    3  502    0  0.61531429331E+03 -0.40010707081E+02  0.11132280311E+04  0.12725915234E+04  0.50400001928E-02 0. -1.
       -1    1    3    3    0  502 -0.61531429331E+03  0.40010707081E+02 -0.28980747568E+04  0.29629461406E+04  0.50400001928E-02 0.  1.
</event>
<event>
 5   0  0.5158266E-07  0.3640830E+04  0.7818609E-02  0.8081203E-01
       -2   -1    0    0    0  501  0.00000000000E+00  0.00000000000E+00  0.20524935732E+04  0.20524935732E+04  0.25500000920E-02 0. -1.
        2   -1    0    0  501    0  0.00000000000E+00  0.00000000000E+00 -0.16145776158E+04  0.16145776158E+04  0.25500000920E-02 0.  1.
    10030    2    1    2    0    0  0.00000000000E+00  0.00000000000E+00  0.43791595739E+03  0.36670711890E+04  0.36408296746E+04 0.  0.
        2    1    3    3  502    0  0.15022768581E+04 -0.48146392279E+03  0.11339476580E+04  0.19428022438E+04  0.25500000920E-02 0. -1.
       -2    1    3    3    0  502 -0.15022768581E+04  0.48146392279E+03 -0.69603170057E+03  0.17242689453E+04  0.25500000920E-02 0.  1.
</event>
<event>
 5   0  0.1648000E-07  0.3718252E+04  0.7818609E-02  0.8063929E-01
       -1   -1    0    0    0  501  0.00000000000E+00  0.00000000000E+00  0.24108005977E+04  0.24108005977E+04  0.50400001928E-02 0. -1.
        1   -1    0    0  501    0  0.00000000000E+00  0.00000000000E+00 -0.14336935767E+04  0.14336935767E+04  0.50400001928E-02 0.  1.
    10030    2    1    2    0    0  0.00000000000E+00  0.00000000000E+00  0.97710702099E+03  0.38444941744E+04  0.37182519181E+04 0.  0.
        2    1    3    3  502    0  0.28966339062E+03  0.18012674312E+04  0.11880888610E+03  0.18282737185E+04  0.25500000920E-02 0. -1.
       -2    1    3    3    0  502 -0.28966339062E+03 -0.18012674312E+04  0.85829813490E+03  0.20162204559E+04  0.25500000920E-02 0.  1.
</event>
<event>
 5   0  0.5132561E-07  0.3775942E+04  0.7818609E-02  0.8051337E-01
        2   -1    0    0  501    0  0.00000000000E+00  0.00000000000E+00  0.11273997898E+04  0.11273997898E+04  0.25500000920E-02 0. -1.
       -2   -1    0    0    0  501  0.00000000000E+00  0.00000000000E+00 -0.31616418950E+04  0.31616418950E+04  0.25500000920E-02 0.  1.
    10030    2    1    2    0    0  0.00000000000E+00  0.00000000000E+00 -0.20342421052E+04  0.42890416848E+04  0.37759419528E+04 0.  0.
        3    1    3    3  502    0  0.10538550953E+04  0.32137121767E+03 -0.27586038354E+04  0.29704856762E+04  0.10100000352E+00 0.  1.
       -3    1    3    3    0  502 -0.10538550953E+04 -0.32137121767E+03  0.72436173022E+03  0.13185560086E+04  0.10100000352E+00 0. -1.
</event>
<event>
 5   0  0.5134434E-07  0.3855314E+04  0.7818609E-02  0.8034388E-01
       -2   -1    0    0    0  501  0.00000000000E+00  0.00000000000E+00  0.16156465950E+04  0.16156465950E+04  0.25500000920E-02 0. -1.
        2   -1    0    0  501    0  0.00000000000E+00  0.00000000000E+00 -0.22999221246E+04  0.22999221246E+04  0.25500000920E-02 0.  1.
    10030    2    1    2    0    0  0.00000000000E+00  0.00000000000E+00 -0.68427552963E+03  0.39155687195E+04  0.38553139168E+04 0.  0.
        5    1    3    3  502    0 -0.77637227244E+03 -0.66905603511E+03 -0.20002744337E+04  0.22475564027E+04  0.46999998093E+01 0.  1.
       -5    1    3    3    0  502  0.77637227244E+03  0.66905603511E+03  0.13159989040E+04  0.16680123168E+04  0.46999998093E+01 0. -1.
</event>
<event>
 5   0  0.1648000E-07  0.3774460E+04  0.7818609E-02  0.8051658E-01
        1   -1    0    0  501    0  0.00000000000E+00  0.00000000000E+00  0.13444586178E+04  0.13444586178E+04  0.50400001928E-02 0.  1.
       -1   -1    0    0    0  501  0.00000000000E+00  0.00000000000E+00 -0.26491233541E+04  0.26491233541E+04  0.50400001928E-02 0. -1.
    10030    2    1    2    0    0  0.00000000000E+00  0.00000000000E+00 -0.13046647364E+04  0.39935819719E+04  0.37744598146E+04 0.  0.
        2    1    3    3  502    0  0.66627923175E+03  0.88755415118E+03  0.96270170189E+03  0.14691749225E+04  0.25500000920E-02 0.  1.
       -2    1    3    3    0  502 -0.66627923175E+03 -0.88755415118E+03 -0.22673664383E+04  0.25244070494E+04  0.25500000920E-02 0. -1.
</event>
<event>
 5   0  0.5132561E-07  0.3921839E+04  0.7818609E-02  0.8020502E-01
        2   -1    0    0  501    0  0.00000000000E+00  0.00000000000E+00  0.11887467932E+04  0.11887467932E+04  0.25500000920E-02 0.  1.
       -2   -1    0    0    0  501  0.00000000000E+00  0.00000000000E+00 -0.32346707993E+04  0.32346707993E+04  0.25500000920E-02 0. -1.
    10030    2    1    2    0    0  0.00000000000E+00  0.00000000000E+00 -0.20459240061E+04  0.44234175924E+04  0.39218386196E+04 0.  0.
        3    1    3    3  502    0  0.35487675382E+03  0.19015667735E+04 -0.66043435271E+03  0.20440321057E+04  0.10100000352E+00 0. -1.
       -3    1    3    3    0  502 -0.35487675382E+03 -0.19015667735E+04 -0.13854896534E+04  0.23793854867E+04  0.10100000352E+00 0.  1.
</event>
<event>
 5   0  0.5202788E-07  0.3846830E+04  0.7818609E-02  0.8036179E-01
       -2   -1    0    0    0  501  0.00000000000E+00  0.00000000000E+00  0.25458076700E+04  0.25458076700E+04  0.25500000920E-02 0. -1.
        2   -1    0    0  501    0  0.00000000000E+00  0.00000000000E+00 -0.14531836576E+04  0.14531836576E+04  0.25500000920E-02 0.  1.
    10030    2    1    2    0    0  0.00000000000E+00  0.00000000000E+00  0.10926240123E+04  0.39989913276E+04  0.38468304363E+04 0.  0.
        1    1    3    3  502    0  0.15474698353E+04  0.51453795366E+03  0.16065121769E+04  0.22891687512E+04  0.50400001928E-02 0. -1.
       -1    1    3    3    0  502 -0.15474698353E+04 -0.51453795366E+03 -0.51388816456E+03  0.17098225764E+04  0.50400001928E-02 0.  1.
</event>
<event>
 5   0  0.1656617E-07  0.3818562E+04  0.7818609E-02  0.8042183E-01
       -1   -1    0    0    0  501  0.00000000000E+00  0.00000000000E+00  0.14733548068E+04  0.14733548068E+04  0.50400001928E-02 0. -1.
        1   -1    0    0  501    0  0.00000000000E+00  0.00000000000E+00 -0.24741855601E+04  0.24741855601E+04  0.50400001928E-02 0.  1.
    10030    2    1    2    0    0  0.00000000000E+00  0.00000000000E+00 -0.10008307533E+04  0.39475403669E+04  0.38185616076E+04 0.  0.
        5    1    3    3  502    0  0.90711488197E+03 -0.59806850001E+03  0.11225772324E+04  0.15622884088E+04  0.46999998093E+01 0. -1.
       -5    1    3    3    0  502 -0.90711488197E+03  0.59806850001E+03 -0.21234079856E+04  0.23852519580E+04  0.46999998093E+01 0.  1.
</event>
<event>
 5   0  0.5132561E-07  0.3846399E+04  0.7818609E-02  0.8036270E-01
       -2   -1    0    0    0  501  0.00000000000E+00  0.00000000000E+00  0.25025422812E+04  0.25025422812E+04  0.25500000920E-02 0.  1.
        2   -1    0    0  501    0  0.00000000000E+00  0.00000000000E+00 -0.14779758636E+04  0.14779758636E+04  0.25500000920E-02 0. -1.
    10030    2    1    2    0    0  0.00000000000E+00  0.00000000000E+00  0.10245664175E+04  0.39805181448E+04  0.38463994017E+04 0.  0.
        3    1    3    3  502    0 -0.11884688640E+04 -0.72598417374E+02 -0.10506659647E+04  0.15879633970E+04  0.10100000352E+00 0. -1.
       -3    1    3    3    0  502  0.11884688640E+04  0.72598417374E+02  0.20752323822E+04  0.23925547478E+04  0.10100000352E+00 0.  1.
</event>
<event>
 5   0  0.1648000E-07  0.3776378E+04  0.7818609E-02  0.8051243E-01
       -1   -1    0    0    0  501  0.00000000000E+00  0.00000000000E+00  0.12860696990E+04  0.12860696990E+04  0.50400001928E-02 0.  1.
        1   -1    0    0  501    0  0.00000000000E+00  0.00000000000E+00 -0.27722113470E+04  0.27722113470E+04  0.50400001928E-02 0. -1.
    10030    2    1    2    0    0  0.00000000000E+00  0.00000000000E+00 -0.14861416481E+04  0.40582810460E+04  0.37763776361E+04 0.  0.
        4    1    3    3  502    0 -0.13888059402E+04  0.11969099855E+04 -0.12283078791E+04  0.22068342285E+04  0.12699999809E+01 0. -1.
       -4    1    3    3    0  502  0.13888059402E+04 -0.11969099855E+04 -0.25783376892E+03  0.18514468176E+04  0.12699999809E+01 0.  1.
</event>
<event>
 5   0  0.1648000E-07  0.3747131E+04  0.7818609E-02  0.8057597E-01
       -1   -1    0    0    0  501  0.00000000000E+00  0.00000000000E+00  0.23386310100E+04  0.23386310100E+04  0.50400001928E-02 0.  1.
        1   -1    0    0  501    0  0.00000000000E+00  0.00000000000E+00 -0.15009841305E+04  0.15009841305E+04  0.50400001928E-02 0. -1.
    10030    2    1    2    0    0  0.00000000000E+00  0.00000000000E+00  0.83764687956E+03  0.38396151405E+04  0.37471311870E+04 0.  0.
        1    1    3    3  502    0  0.56296279110E+03  0.23650684425E+03 -0.13961602892E+04  0.15238524025E+04  0.50400001928E-02 0. -1.
       -1    1    3    3    0  502 -0.56296279110E+03 -0.23650684425E+03  0.22338071688E+04  0.23157627380E+04  0.50400001928E-02 0.  1.
</event>
<event>
 5   0  0.1648000E-07  0.3082055E+04  0.7818609E-02  0.8220680E-01
       -1   -1    0    0    0  501  0.00000000000E+00  0.00000000000E+00  0.30719175207E+04  0.30719175207E+04  0.50400001928E-02 0. -1.
        1   -1    0    0  501    0  0.00000000000E+00  0.00000000000E+00 -0.77305628147E+03  0.77305628149E+03  0.50400001928E-02 0.  1.
    10030    2    1    2    0    0  0.00000000000E+00  0.00000000000E+00  0.22988612392E+04  0.38449738021E+04  0.30820545975E+04 0.  0.
        3    1    3    3  502    0 -0.65475096716E+03 -0.13924521808E+04  0.10439919090E+04  0.18594464287E+04  0.10100000352E+00 0.  1.
       -3    1    3    3    0  502  0.65475096716E+03  0.13924521808E+04  0.12548693301E+04  0.19855273735E+04  0.10100000352E+00 0. -1.
</event>
<event>
 5   0  0.5325362E-07  0.3215717E+04  0.7818609E-02  0.8184679E-01
       -2   -1    0    0    0  501  0.00000000000E+00  0.00000000000E+00  0.13097460022E+04  0.13097460022E+04  0.25500000920E-02 0.  1.
        2   -1    0    0  501    0  0.00000000000E+00  0.00000000000E+00 -0.19738250079E+04  0.19738250079E+04  0.25500000920E-02 0. -1.
    10030    2    1    2    0    0  0.00000000000E+00  0.00000000000E+00 -0.66407900571E+03  0.32835710101E+04  0.32157172843E+04 0.  0.
        4    1    3    3  502    0  0.59468908551E+03  0.13785668115E+04 -0.91959951904E+03  0.17606153614E+04  0.12699999809E+01 0.  1.
       -4    1    3    3    0  502 -0.59468908551E+03 -0.13785668115E+04  0.25552051333E+03  0.15229556487E+04  0.12699999809E+01 0. -1.
</event>
<event>
 5   0  0.5325362E-07  0.3600985E+04  0.7818609E-02  0.8090266E-01
        2   -1    0    0  501    0  0.00000000000E+00  0.00000000000E+00  0.19510543622E+04  0.19510543622E+04  0.25500000920E-02 0. -1.
       -2   -1    0    0    0  501  0.00000000000E+00  0.00000000000E+00 -0.16615498549E+04  0.16615498549E+04  0.25500000920E-02 0.  1.
    10030    2    1    2    0    0  0.00000000000E+00  0.00000000000E+00  0.28950450726E+03  0.36126042171E+04  0.36009854720E+04 0.  0.
        4    1    3    3  502    0  0.15729049064E+04 -0.12965708758E+03  0.10141113988E+04  0.18759702415E+04  0.12699999809E+01 0. -1.
       -4    1    3    3    0  502 -0.15729049064E+04  0.12965708758E+03 -0.72460689149E+03  0.17366339756E+04  0.12699999809E+01 0.  1.
</event>
<event>
 5   0  0.1648000E-07  0.3776867E+04  0.7818609E-02  0.8051137E-01
       -1   -1    0    0    0  501  0.00000000000E+00  0.00000000000E+00  0.15675641517E+04  0.15675641517E+04  0.50400001928E-02 0. -1.
        1   -1    0    0  501    0  0.00000000000E+00  0.00000000000E+00 -0.22749824672E+04  0.22749824672E+04  0.50400001928E-02 0.  1.
    10030    2    1    2    0    0  0.00000000000E+00  0.00000000000E+00 -0.70741831553E+03  0.38425466189E+04  0.37768669351E+04 0.  0.
        2    1    3    3  502    0 -0.20548437394E+03 -0.18716162556E+04 -0.50117710839E+03  0.19484223696E+04  0.25500000920E-02 0. -1.
       -2    1    3    3    0  502  0.20548437394E+03  0.18716162556E+04 -0.20624120714E+03  0.18941242493E+04  0.25500000920E-02 0.  1.
</event>
<event>
 5   0  0.1656617E-07  0.3747302E+04  0.7818609E-02  0.8057559E-01
        1   -1    0    0  501    0  0.00000000000E+00  0.00000000000E+00  0.24768404299E+04  0.24768404299E+04  0.50400001928E-02 0.  1.
       -1   -1    0    0    0  501  0.00000000000E+00  0.00000000000E+00 -0.14173570568E+04  0.14173570568E+04  0.50400001928E-02 0. -1.
    10030    2    1    2    0    0  0.00000000000E+00  0.00000000000E+00  0.10594833731E+04  0.38941974867E+04  0.37473015688E+04 0.  0.
        5    1    3    3  502    0  0.14892160866E+04 -0.29255668294E+03 -0.61205126811E+03  0.16364543410E+04  0.46999998093E+01 0.  1.
       -5    1    3    3    0  502 -0.14892160866E+04  0.29255668294E+03  0.16715346412E+04  0.22577431457E+04  0.46999998093E+01 0. -1.
</event>
<event>
 5   0  0.1656617E-07  0.3795227E+04  0.7818609E-02  0.8047180E-01
       -1   -1    0    0    0  501  0.00000000000E+00  0.00000000000E+00  0.27872455185E+04  0.27872455185E+04  0.50400001928E-02 0.  1.
        1   -1    0    0  501    0  0.00000000000E+00  0.00000000000E+00 -0.12919340664E+04  0.12919340664E+04  0.50400001928E-02 0. -1.
    10030    2    1    2    0    0  0.00000000000E+00  0.00000000000E+00  0.14953114521E+04  0.40791795849E+04  0.37952272327E+04 0.  0.
        5    1    3    3  502    0 -0.15701934060E+04 -0.10031032728E+04  0.11339805201E+04  0.21812054965E+04  0.46999998093E+01 0.  1.
       -5    1    3    3    0  502  0.15701934060E+04  0.10031032728E+04  0.36133093194E+03  0.18979740884E+04  0.46999998093E+01 0. -1.
</event>
<event>
 5   0  0.5158266E-07  0.3798779E+04  0.7818609E-02  0.8046417E-01
        2   -1    0    0  501    0  0.00000000000E+00  0.00000000000E+00  0.20697477371E+04  0.20697477371E+04  0.25500000920E-02 0. -1.
       -2   -1    0    0    0  501  0.00000000000E+00  0.00000000000E+00 -0.17430532121E+04  0.17430532121E+04  0.25500000920E-02 0.  1.
    10030    2    1    2    0    0  0.00000000000E+00  0.00000000000E+00  0.32669452493E+03  0.38128009492E+04  0.37987789835E+04 0.  0.
        2    1    3    3  502    0 -0.92937949568E+03  0.46355167244E+02  0.18252929835E+04  0.20488019729E+04  0.25500000920E-02 0. -1.
       -2    1    3    3    0  502  0.92937949568E+03 -0.46355167244E+02 -0.14985984585E+04  0.17639989763E+04  0.25500000920E-02 0.  1.
</event>
<event>
 5   0  0.5132561E-07  0.3842201E+04  0.7818609E-02  0.8037159E-01
       -2   -1    0    0    0  501  0.00000000000E+00  0.00000000000E+00  0.16241112138E+04  0.16241112138E+04  0.25500000920E-02 0.  1.
        2   -1    0    0  501    0  0.00000000000E+00  0.00000000000E+00 -0.22723982683E+04  0.22723982683E+04  0.25500000920E-02 0. -1.
    10030    2    1    2    0    0  0.00000000000E+00  0.00000000000E+00 -0.64828705446E+03  0.38965094821E+04  0.38422011971E+04 0.  0.
        3    1    3    3  502    0 -0.18625164159E+04 -0.18959082697E+03 -0.76118194457E+03  0.20209676010E+04  0.10100000352E+00 0.  1.
       -3    1    3    3    0  502  0.18625164159E+04  0.18959082697E+03  0.11289489010E+03  0.18755418811E+04  0.10100000352E+00 0. -1.
</event>
<event>
 5   0  0.5202788E-07  0.3807932E+04  0.7818609E-02  0.8044455E-01
        2   -1    0    0  501    0  0.00000000000E+00  0.00000000000E+00  0.29500580668E+04  0.29500580668E+04  0.25500000920E-02 0.  1.
       -2   -1    0    0    0  501  0.00000000000E+00  0.00000000000E+00 -0.12288185402E+04  0.12288185402E+04  0.25500000920E-02 0. -1.
    10030    2    1    2    0    0  0.00000000000E+00  0.00000000000E+00  0.17212395266E+04  0.41788766069E+04  0.38079317468E+04 0.  0.
        1    1    3    3  502    0 -0.58491361544E+02 -0.36966687279E+02 -0.12274382879E+04  0.12293870529E+04  0.50400001928E-02 0. -1.
       -1    1    3    3    0  502  0.58491361544E+02  0.36966687279E+02  0.29486778145E+04  0.29494895540E+04  0.50400001928E-02 0.  1.
</event>
<event>
 5   0  0.5158266E-07  0.3769071E+04  0.7818609E-02  0.8052825E-01
       -2   -1    0    0    0  501  0.00000000000E+00  0.00000000000E+00  0.21820883564E+04  0.21820883564E+04  0.25500000920E-02 0.  1.
        2   -1    0    0  501    0  0.00000000000E+00  0.00000000000E+00 -0.16275573853E+04  0.16275573853E+04  0.25500000920E-02 0. -1.
    10030    2    1    2    0    0  0.00000000000E+00  0.00000000000E+00  0.55453097105E+03  0.38096457417E+04  0.37690709836E+04 0.  0.
        2    1    3    3  502    0 -0.16340902637E+04  0.44285975461E+03 -0.55935156336E+03  0.17830451267E+04  0.25500000920E-02 0. -1.
       -2    1    3    3    0  502  0.16340902637E+04 -0.44285975461E+03  0.11138825344E+04  0.20266006150E+04  0.25500000920E-02 0.  1.
</event>
<event>
 5   0  0.5132561E-07  0.3141806E+04  0.7818609E-02  0.8204357E-01
        2   -1    0    0  501    0  0.00000000000E+00  0.00000000000E+00  0.20291303652E+04  0.20291303652E+04  0.25500000920E-02 0.  1.
       -2   -1    0    0    0  501  0.00000000000E+00  0.00000000000E+00 -0.12161545839E+04  0.12161545839E+04  0.25500000920E-02 0. -1.
    10030    2    1    2    0    0  0.00000000000E+00  0.00000000000E+00  0.81297578125E+03  0.32452849491E+04  0.31418059743E+04 0.  0.
        3    1    3    3  502    0 -0.11349870695E+04  0.36840845900E+03 -0.64883509146E+03  0.13582736936E+04  0.10100000352E+00 0. -1.
       -3    1    3    3    0  502  0.11349870695E+04 -0.36840845900E+03  0.14618108727E+04  0.18870112555E+04  0.10100000352E+00 0.  1.
</event>
<event>
 5   0  0.1656617E-07  0.3745502E+04  0.7818609E-02  0.8057952E-01
       -1   -1    0    0    0  501  0.00000000000E+00  0.00000000000E+00  0.18441651209E+04  0.18441651209E+04  0.50400001928E-02 0. -1.
        1   -1    0    0  501    0  0.00000000000E+00  0.00000000000E+00 -0.19017802340E+04  0.19017802340E+04  0.50400001928E-02 0.  1.
    10030    2    1    2    0    0  0.00000000000E+00  0.00000000000E+00 -0.57615113022E+02  0.37459453549E+04  0.37455022495E+04 0.  0.
        5    1    3    3  502    0 -0.12533343452E+04 -0.35800322752E+03 -0.13736455548E+04  0.18936571739E+04  0.46999998093E+01 0.  1.
       -5    1    3    3    0  502  0.12533343452E+04  0.35800322752E+03  0.13160304418E+04  0.18522881810E+04  0.46999998093E+01 0. -1.
</event>
<event>
 5   0  0.5134434E-07  0.2885877E+04  0.7818609E-02  0.8277092E-01
        2   -1    0    0  501    0  0.00000000000E+00  0.00000000000E+00  0.16008968317E+04  0.16008968317E+04  0.25500000920E-02 0.  1.
       -2   -1    0    0    0  501  0.00000000000E+00  0.00000000000E+00 -0.13005661423E+04  0.13005661423E+04  0.25500000920E-02 0. -1.
    10030    2    1    2    0    0  0.00000000000E+00  0.00000000000E+00  0.30033068942E+03  0.29014629741E+04  0.28858774864E+04 0.  0.
        5    1    3    3  502    0 -0.25612191400E+03 -0.57462001127E+03  0.14557404698E+04  0.15858716839E+04  0.46999998093E+01 0.  1.
       -5    1    3    3    0  502  0.25612191400E+03  0.57462001127E+03 -0.11554097804E+04  0.13155912902E+04  0.46999998093E+01 0. -1.
</event>
<event>
 5   0  0.1656617E-07  0.3801522E+04  0.7818609E-02  0.8045828E-01
       -1   -1    0    0    0  501  0.00000000000E+00  0.00000000000E+00  0.24596203059E+04  0.24596203060E+04  0.50400001928E-02 0.  1.
        1   -1    0    0  501    0  0.00000000000E+00  0.00000000000E+00 -0.14688822439E+04  0.14688822439E+04  0.50400001928E-02 0. -1.
    10030    2    1    2    0    0  0.00000000000E+00  0.00000000000E+00  0.99073806204E+03  0.39285025499E+04  0.38015221132E+04 0.  0.
        5    1    3    3  502    0  0.14138196198E+04  0.11876728244E+04  0.29285189026E+02  0.18467085226E+04  0.46999998093E+01 0.  1.
       -5    1    3    3    0  502 -0.14138196198E+04 -0.11876728244E+04  0.96145287301E+03  0.20817940273E+04  0.46999998093E+01 0. -1.
</event>
<event>
 5   0  0.1648000E-07  0.3459770E+04  0.7818609E-02  0.8123391E-01
        1   -1    0    0  501    0  0.00000000000E+00  0.00000000000E+00  0.28956877097E+04  0.28956877097E+04  0.50400001928E-02 0.  1.
       -1   -1    0    0    0  501  0.00000000000E+00  0.00000000000E+00 -0.10334340292E+04  0.10334340292E+04  0.50400001928E-02 0. -1.
    10030    2    1    2    0    0  0.00000000000E+00  0.00000000000E+00  0.18622536805E+04  0.39291217389E+04  0.34597700600E+04 0.  0.
        3    1    3    3  502    0 -0.59437143588E+03  0.92669159023E+03  0.24464849387E+04  0.26827827479E+04  0.10100000352E+00 0.  1.
       -3    1    3    3    0  502  0.59437143588E+03 -0.92669159023E+03 -0.58423125812E+03  0.12463389910E+04  0.10100000352E+00 0. -1.
</event>
<event>
 5   0  0.5132561E-07  0.3769121E+04  0.7818609E-02  0.8052814E-01
        2   -1    0    0  501    0  0.00000000000E+00  0.00000000000E+00  0.24847942508E+04  0.24847942508E+04  0.25500000920E-02 0.  1.
       -2   -1    0    0    0  501  0.00000000000E+00  0.00000000000E+00 -0.14293211082E+04  0.14293211082E+04  0.25500000920E-02 0. -1.
    10030    2    1    2    0    0  0.00000000000E+00  0.00000000000E+00  0.10554731426E+04  0.39141153590E+04  0.37691213153E+04 0.  0.
        3    1    3    3  502    0  0.12787538114E+04 -0.11336227215E+04 -0.29734452180E+03  0.17345678308E+04  0.10100000352E+00 0. -1.
       -3    1    3    3    0  502 -0.12787538114E+04  0.11336227215E+04  0.13528176644E+04  0.21795475283E+04  0.10100000352E+00 0.  1.
</event>
<event>
 5   0  0.1648000E-07  0.3783424E+04  0.7818609E-02  0.8049721E-01
        1   -1    0    0  501    0  0.00000000000E+00  0.00000000000E+00  0.21943257302E+04  0.21943257302E+04  0.50400001928E-02 0.  1.
       -1   -1    0    0    0  501  0.00000000000E+00  0.00000000000E+00 -0.16308307986E+04  0.16308307986E+04  0.50400001928E-02 0. -1.
    10030    2    1    2    0    0  0.00000000000E+00  0.00000000000E+00  0.56349493158E+03  0.38251565288E+04  0.37834238372E+04 0.  0.
        1    1    3    3  502    0  0.18141024658E+03  0.13958769013E+04  0.15594883065E+04  0.21008059832E+04  0.50400001928E-02 0.  1.
       -1    1    3    3    0  502 -0.18141024658E+03 -0.13958769013E+04 -0.99599337493E+03  0.17243505456E+04  0.50400001928E-02 0. -1.
</event>
<event>
 5   0  0.1648000E-07  0.3815649E+04  0.7818609E-02  0.8042805E-01
       -1   -1    0    0    0  501  0.00000000000E+00  0.00000000000E+00  0.16304678399E+04  0.16304678399E+04  0.50400001928E-02 0. -1.
        1   -1    0    0  501    0  0.00000000000E+00  0.00000000000E+00 -0.22323622501E+04  0.22323622501E+04  0.50400001928E-02 0.  1.
    10030    2    1    2    0    0  0.00000000000E+00  0.00000000000E+00 -0.60189441022E+03  0.38628300901E+04  0.38156492794E+04 0.  0.
        3    1    3    3  502    0  0.11355735507E+04 -0.10499382526E+04 -0.14318533548E+04  0.21076293941E+04  0.10100000352E+00 0.  1.
       -3    1    3    3    0  502 -0.11355735507E+04  0.10499382526E+04  0.82995894456E+03  0.17552006959E+04  0.10100000352E+00 0. -1.
</event>
<event>
 5   0  0.1648000E-07  0.2977310E+04  0.7818609E-02  0.8250240E-01
       -1   -1    0    0    0  501  0.00000000000E+00  0.00000000000E+00  0.11370021228E+04  0.11370021229E+04  0.50400001928E-02 0.  1.
        1   -1    0    0  501    0  0.00000000000E+00  0.00000000000E+00 -0.19490673063E+04  0.19490673063E+04  0.50400001928E-02 0. -1.
    10030    2    1    2    0    0  0.00000000000E+00  0.00000000000E+00 -0.81206518349E+03  0.30860694292E+04  0.29773099704E+04 0.  0.
        4    1    3    3  502    0  0.17000736596E+03  0.41460364008E+03 -0.18775004450E+04  0.19302352749E+04  0.12699999809E+01 0. -1.
       -4    1    3    3    0  502 -0.17000736596E+03 -0.41460364008E+03  0.10654352615E+04  0.11558341543E+04  0.12699999809E+01 0.  1.
</event>
<event>
 5   0  0.1656617E-07  0.3236641E+04  0.7818609E-02  0.8179207E-01
       -1   -1    0    0    0  501  0.00000000000E+00  0.00000000000E+00  0.12020821225E+04  0.12020821226E+04  0.50400001928E-02 0. -1.
        1   -1    0    0  501    0  0.00000000000E+00  0.00000000000E+00 -0.21786872624E+04  0.21786872624E+04  0.50400001928E-02 0.  1.
    10030    2    1    2    0    0  0.00000000000E+00  0.00000000000E+00 -0.97660513986E+03  0.33807693850E+04  0.32366408567E+04 0.  0.
        5    1    3    3  502    0  0.95921542849E+02  0.11646347421E+04 -0.16576932406E+04  0.20281873668E+04  0.46999998093E+01 0.  1.
       -5    1    3    3    0  502 -0.95921542849E+02 -0.11646347421E+04  0.68108810070E+03  0.13525820182E+04  0.46999998093E+01 0. -1.
</event>
<event>
 5   0  0.5325362E-07  0.3832483E+04  0.7818609E-02  0.8039220E-01
       -2   -1    0    0    0  501  0.00000000000E+00  0.00000000000E+00  0.17463817788E+04  0.17463817788E+04  0.25500000920E-02 0. -1.
        2   -1    0    0  501    0  0.00000000000E+00  0.00000000000E+00 -0.21026226743E+04  0.21026226743E+04  0.25500000920E-02 0.  1.
    10030    2    1    2    0    0  0.00000000000E+00  0.00000000000E+00 -0.35624089552E+03  0.38490044532E+04  0.38324832295E+04 0.  0.
        4    1    3    3  502    0 -0.16247710466E+04 -0.64195731595E+03 -0.96890932141E+03  0.19976929282E+04  0.12699999809E+01 0.  1.
       -4    1    3    3    0  502  0.16247710466E+04  0.64195731595E+03  0.61266842589E+03  0.18513115249E+04  0.12699999809E+01 0. -1.
</event>
<event>
 5   0  0.5202788E-07  0.3725139E+04  0.7818609E-02  0.8062413E-01
       -2   -1    0    0    0  501  0.00000000000E+00  0.00000000000E+00  0.14654060794E+04  0.14654060794E+04  0.25500000920E-02 0.  1.
        2   -1    0    0  501    0  0.00000000000E+00  0.00000000000E+00 -0.23673751675E+04  0.23673751675E+04  0.25500000920E-02 0. -1.
    10030    2    1    2    0    0  0.00000000000E+00  0.00000000000E+00 -0.90196908810E+03  0.38327812469E+04  0.37251394404E+04 0.  0.
        1    1    3    3  502    0  0.44129203047E+03  0.10058124198E+04  0.10967325476E+04  0.15521660868E+04  0.50400001928E-02 0.  1.
       -1    1    3    3    0  502 -0.44129203047E+03 -0.10058124198E+04 -0.19987016357E+04  0.22806151601E+04  0.50400001928E-02 0. -1.
</event>
<event>
 5   0  0.1648000E-07  0.3828588E+04  0.7818609E-02  0.8040048E-01
        1   -1    0    0  501    0  0.00000000000E+00  0.00000000000E+00  0.24944247532E+04  0.24944247533E+04  0.50400001928E-02 0.  1.
       -1   -1    0    0    0  501  0.00000000000E+00  0.00000000000E+00 -0.14690846837E+04  0.14690846837E+04  0.50400001928E-02 0. -1.
    10030    2    1    2    0    0  0.00000000000E+00  0.00000000000E+00  0.10253400696E+04  0.39635094369E+04  0.38285878334E+04 0.  0.
        4    1    3    3  502    0  0.16736249931E+04 -0.85269194990E+03  0.89503051171E+03  0.20806694616E+04  0.12699999809E+01 0.  1.
       -4    1    3    3    0  502 -0.16736249931E+04  0.85269194990E+03  0.13030955786E+03  0.18828399753E+04  0.12699999809E+01 0. -1.
</event>
<event>
 5   0  0.5158266E-07  0.3785368E+04  0.7818609E-02  0.8049302E-01
       -2   -1    0    0    0  501  0.00000000000E+00  0.00000000000E+00  0.13876012723E+04  0.13876012723E+04  0.25500000920E-02 0.  1.
        2   -1    0    0  501    0  0.00000000000E+00  0.00000000000E+00 -0.25816148177E+04  0.25816148177E+04  0.25500000920E-02 0. -1.
    10030    2    1    2    0    0  0.00000000000E+00  0.00000000000E+00 -0.11940135454E+04  0.39692160901E+04  0.37853676206E+04 0.  0.
        2    1    3    3  502    0  0.10582838913E+04 -0.82300765829E+03  0.80389980111E+03  0.15631894608E+04  0.25500000920E-02 0.  1.
       -2    1    3    3    0  502 -0.10582838913E+04  0.82300765829E+03 -0.19979133465E+04  0.24060266292E+04  0.25500000920E-02 0. -1.
</event>
<event>
 5   0  0.1656617E-07  0.3799026E+04  0.7818609E-02  0.8046364E-01
        1   -1    0    0  501    0  0.00000000000E+00  0.00000000000E+00  0.17631940031E+04  0.17631940031E+04  0.50400001928E-02 0. -1.
       -1   -1    0    0    0  501  0.00000000000E+00  0.00000000000E+00 -0.20463708024E+04  0.20463708024E+04  0.50400001928E-02 0.  1.
    10030    2    1    2    0    0  0.00000000000E+00  0.00000000000E+00 -0.28317679928E+03  0.38095648055E+04  0.37990255208E+04 0.  0.
        5    1    3    3  502    0 -0.15110806686E+04  0.10208870906E+04  0.39144188561E+03  0.18651606040E+04  0.46999998093E+01 0. -1.
       -5    1    3    3    0  502  0.15110806686E+04 -0.10208870906E+04 -0.67461868489E+03  0.19444042015E+04  0.46999998093E+01 0.  1.
</event>
<event>
 5   0  0.5158266E-07  0.3832552E+04  0.7818609E-02  0.8039205E-01
        2   -1    0    0  501    0  0.00000000000E+00  0.00000000000E+00  0.32273735179E+04  0.32273735179E+04  0.25500000920E-02 0.  1.
       -2   -1    0    0    0  501  0.00000000000E+00  0.00000000000E+00 -0.11378024083E+04  0.11378024083E+04  0.25500000920E-02 0. -1.
    10030    2    1    2    0    0  0.00000000000E+00  0.00000000000E+00  0.20895711096E+04  0.43651759262E+04  0.38325518189E+04 0.  0.
        2    1    3    3  502    0  0.99765547980E+03 -0.75727198859E+03 -0.60705470782E+03  0.13918666385E+04  0.25500000920E-02 0. -1.
       -2    1    3    3    0  502 -0.99765547980E+03  0.75727198859E+03  0.26966258174E+04  0.29733092877E+04  0.25500000920E-02 0.  1.
</event>
<event>
 5   0  0.1648000E-07  0.3853971E+04  0.7818609E-02  0.8034671E-01
       -1   -1    0    0    0  501  0.00000000000E+00  0.00000000000E+00  0.16788580921E+04  0.16788580921E+04  0.50400001928E-02 0. -1.
        1   -1    0    0  501    0  0.00000000000E+00  0.00000000000E+00 -0.22117848646E+04  0.22117848646E+04  0.50400001928E-02 0.  1.
    10030    2    1    2    0    0  0.00000000000E+00  0.00000000000E+00 -0.53292677247E+03  0.38906429568E+04  0.38539708966E+04 0.  0.
        4    1    3    3  502    0  0.46666843625E+03  0.18241854802E+04  0.14711673843E+03  0.18886707079E+04  0.12699999809E+01 0. -1.
       -4    1    3    3    0  502 -0.46666843625E+03 -0.18241854802E+04 -0.68004351090E+03  0.20019722488E+04  0.12699999809E+01 0.  1.
</event>
<event>
 5   0  0.1648000E-07  0.3834712E+04  0.7818609E-02  0.8038747E-01
       -1   -1    0    0    0  501  0.00000000000E+00  0.00000000000E+00  0.14482882225E+04  0.14482882225E+04  0.50400001928E-02 0. -1.
        1   -1    0    0  501    0  0.00000000000E+00  0.00000000000E+00 -0.25383436028E+04  0.25383436028E+04  0.50400001928E-02 0.  1.
    10030    2    1    2    0    0  0.00000000000E+00  0.00000000000E+00 -0.10900553803E+04  0.39866318253E+04  0.38347115378E+04 0.  0.
        4    1    3    3  502    0 -0.84825692877E+03  0.13283184627E+04 -0.16802028577E+04  0.23037041936E+04  0.12699999809E+01 0.  1.
       -4    1    3    3    0  502  0.84825692877E+03 -0.13283184627E+04  0.59014747740E+03  0.16829276317E+04  0.12699999809E+01 0. -1.
</event>
<event>
 5   0  0.1648000E-07  0.2839840E+04  0.7818609E-02  0.8291005E-01
        1   -1    0    0  501    0  0.00000000000E+00  0.00000000000E+00  0.14266613355E+04  0.14266613355E+04  0.50400001928E-02 0.  1.
       -1   -1    0    0    0  501  0.00000000000E+00  0.00000000000E+00 -0.14132108775E+04  0.14132108775E+04  0.50400001928E-02 0. -1.
    10030    2    1    2    0    0  0.00000000000E+00  0.00000000000E+00  0.13450457993E+02  0.28398722131E+04  0.28398403603E+04 0.  0.
        2    1    3    3  502    0  0.11020928497E+04 -0.89442429322E+03  0.46347034212E+02  0.14201237669E+04  0.25500000920E-02 0. -1.
       -2    1    3    3    0  502 -0.11020928497E+04  0.89442429322E+03 -0.32896576219E+02  0.14197484462E+04  0.25500000920E-02 0.  1.
</event>
<event>
 5   0  0.5158266E-07  0.3835708E+04  0.7818609E-02  0.8038535E-01
        2   -1    0    0  501    0  0.00000000000E+00  0.00000000000E+00  0.23767074401E+04  0.23767074401E+04  0.25500000920E-02 0. -1.
       -2   -1    0    0    0  501  0.00000000000E+00  0.00000000000E+00 -0.15475877134E+04  0.15475877134E+04  0.25500000920E-02 0.  1.
    10030    2    1    2    0    0  0.00000000000E+00  0.00000000000E+00  0.82911972662E+03  0.39242951535E+04  0.38357076180E+04 0.  0.
        2    1    3    3  502    0 -0.69543802139E+03  0.17452156133E+04  0.80915076851E+03  0.20455162049E+04  0.25500000920E-02 0.  1.
       -2    1    3    3    0  502  0.69543802139E+03 -0.17452156133E+04  0.19968958109E+02  0.18787789486E+04  0.25500000920E-02 0. -1.
</event>
<event>
 5   0  0.1648000E-07  0.3427430E+04  0.7818609E-02  0.8131207E-01
       -3   -1    0    0    0  501  0.00000000000E+00  0.00000000000E+00  0.17905205802E+04  0.17905205831E+04  0.10100000352E+00 0.  1.
        3   -1    0    0  501    0  0.00000000000E+00  0.00000000000E+00 -0.16402045004E+04  0.16402045036E+04  0.10100000352E+00 0. -1.
    10030    2    1    2    0    0  0.00000000000E+00  0.00000000000E+00  0.15031607978E+03  0.34307250866E+04  0.34274304801E+04 0.  0.
        3    1    3    3  502    0 -0.99977952148E+03  0.13780135697E+04  0.27115081224E+03  0.17239499015E+04  0.10100000352E+00 0.  1.
       -3    1    3    3    0  502  0.99977952148E+03 -0.13780135697E+04 -0.12083473246E+03  0.17067751851E+04  0.10100000352E+00 0. -1.
</event>
<event>
 5   0  0.5134434E-07  0.2769484E+04  0.7818609E-02  0.8312805E-01
        2   -1    0    0  501    0  0.00000000000E+00  0.00000000000E+00  0.20173687727E+04  0.20173687727E+04  0.25500000920E-02 0.  1.
       -2   -1    0    0    0  501  0.00000000000E+00  0.00000000000E+00 -0.95050055776E+03  0.95050055776E+03  0.25500000920E-02 0. -1.
    10030    2    1    2    0    0  0.00000000000E+00  0.00000000000E+00  0.10668682149E+04  0.29678693304E+04  0.27694838101E+04 0.  0.
        5    1    3    3  502    0  0.36565092804E+03  0.12186551571E+04 -0.52217863265E+02  0.12734087279E+04  0.46999998093E+01 0. -1.
       -5    1    3    3    0  502 -0.36565092804E+03 -0.12186551571E+04  0.11190860782E+04  0.16944606025E+04  0.46999998093E+01 0.  1.
</event>
<event>
 5   0  0.5134434E-07  0.3753150E+04  0.7818609E-02  0.8056284E-01
        2   -1    0    0  501    0  0.00000000000E+00  0.00000000000E+00  0.22480587555E+04  0.22480587555E+04  0.25500000920E-02 0. -1.
       -2   -1    0    0    0  501  0.00000000000E+00  0.00000000000E+00 -0.15664779960E+04  0.15664779960E+04  0.25500000920E-02 0.  1.
    10030    2    1    2    0    0  0.00000000000E+00  0.00000000000E+00  0.68158075951E+03  0.38145367515E+04  0.37531504495E+04 0.  0.
        5    1    3    3  502    0  0.49752590481E+03  0.12500089740E+04 -0.98883395621E+03  0.16696913320E+04  0.46999998093E+01 0.  1.
       -5    1    3    3    0  502 -0.49752590481E+03 -0.12500089740E+04  0.16704147157E+04  0.21448454195E+04  0.46999998093E+01 0. -1.
</event>
<event>
 5   0  0.5325362E-07  0.3600131E+04  0.7818609E-02  0.8090462E-01
       -2   -1    0    0    0  501  0.00000000000E+00  0.00000000000E+00  0.10868758534E+04  0.10868758534E+04  0.25500000920E-02 0.  1.
        2   -1    0    0  501    0  0.00000000000E+00  0.00000000000E+00 -0.29812377293E+04  0.29812377293E+04  0.25500000920E-02 0. -1.
    10030    2    1    2    0    0  0.00000000000E+00  0.00000000000E+00 -0.18943618759E+04  0.40681135826E+04  0.36001307205E+04 0.  0.
        4    1    3    3  502    0 -0.14799079263E+04 -0.26607410639E+03 -0.20654210563E+04  0.25547776132E+04  0.12699999809E+01 0. -1.
       -4    1    3    3    0  502  0.14799079263E+04  0.26607410639E+03  0.17105918040E+03  0.15133359694E+04  0.12699999809E+01 0.  1.
</event>
<event>
 5   0  0.1648000E-07  0.3786075E+04  0.7818609E-02  0.8049150E-01
       -1   -1    0    0    0  501  0.00000000000E+00  0.00000000000E+00  0.17758127161E+04  0.17758127161E+04  0.50400001928E-02 0.  1.
        1   -1    0    0  501    0  0.00000000000E+00  0.00000000000E+00 -0.20180004982E+04  0.20180004982E+04  0.50400001928E-02 0. -1.
    10030    2    1    2    0    0  0.00000000000E+00  0.00000000000E+00 -0.24218778216E+03  0.37938132143E+04  0.37860749838E+04 0.  0.
        4    1    3    3  502    0 -0.87343910535E+03  0.15816203581E+04 -0.68720034919E+03  0.19330454626E+04  0.12699999809E+01 0. -1.
       -4    1    3    3    0  502  0.87343910535E+03 -0.15816203581E+04  0.44501256704E+03  0.18607677516E+04  0.12699999809E+01 0.  1.
</event>
<event>
 5   0  0.1648000E-07  0.3777562E+04  0.7818609E-02  0.8050987E-01
        1   -1    0    0  501    0  0.00000000000E+00  0.00000000000E+00  0.18895571974E+04  0.18895571974E+04  0.50400001928E-02 0. -1.
       -1   -1    0    0    0  501  0.00000000000E+00  0.00000000000E+00 -0.18880051970E+04  0.18880051970E+04  0.50400001928E-02 0.  1.
    10030    2    1    2    0    0  0.00000000000E+00  0.00000000000E+00  0.15520004012E+01  0.37775623944E+04  0.37775620756E+04 0.  0.
        2    1    3    3  502    0  0.17330476427E+04  0.69751115879E+03  0.27919631824E+03  0.18888955854E+04  0.25500000920E-02 0. -1.
       -2    1    3    3    0  502 -0.17330476427E+04 -0.69751115879E+03 -0.27764431784E+03  0.18886668090E+04  0.25500000920E-02 0.  1.
</event>
<event>
 5   0  0.5158266E-07  0.3805140E+04  0.7818609E-02  0.8045053E-01
        2   -1    0    0  501    0  0.00000000000E+00  0.00000000000E+00  0.22079332410E+04  0.22079332410E+04  0.25500000920E-02 0.  1.
       -2   -1    0    0    0  501  0.00000000000E+00  0.00000000000E+00 -0.16394395434E+04  0.16394395434E+04  0.25500000920E-02 0. -1.
    10030    2    1    2    0    0  0.00000000000E+00  0.00000000000E+00  0.56849369761E+03  0.38473727843E+04  0.38051402415E+04 0.  0.
        2    1    3    3  502    0 -0.30693138809E+03 -0.46089579666E+03  0.21246525791E+04  0.21956275628E+04  0.25500000920E-02 0.  1.
       -2    1    3    3    0  502  0.30693138809E+03  0.46089579666E+03 -0.15561588815E+04  0.16517452216E+04  0.25500000920E-02 0. -1.
</event>
<event>
 5   0  0.1648000E-07  0.2811757E+04  0.7818609E-02  0.8299627E-01
       -1   -1    0    0    0  501  0.00000000000E+00  0.00000000000E+00  0.13107941960E+04  0.13107941960E+04  0.50400001928E-02 0.  1.
        1   -1    0    0  501    0  0.00000000000E+00  0.00000000000E+00 -0.15078605337E+04  0.15078605337E+04  0.50400001928E-02 0. -1.
    10030    2    1    2    0    0  0.00000000000E+00  0.00000000000E+00 -0.19706633766E+03  0.28186547297E+04  0.28117573409E+04 0.  0.
        2    1    3    3  502    0 -0.30300180498E+03 -0.12653416021E+04 -0.63237624261E+03  0.14466510208E+04  0.25500000920E-02 0. -1.
       -2    1    3    3    0  502  0.30300180498E+03  0.12653416021E+04  0.43530990495E+03  0.13720037089E+04  0.25500000920E-02 0.  1.
</event>
<event>
 5   0  0.5132561E-07  0.3856744E+04  0.7818609E-02  0.8034086E-01
        2   -1    0    0  501    0  0.00000000000E+00  0.00000000000E+00  0.20725715249E+04  0.20725715249E+04  0.25500000920E-02 0.  1.
       -2   -1    0    0    0  501  0.00000000000E+00  0.00000000000E+00 -0.17942047218E+04  0.17942047218E+04  0.25500000920E-02 0. -1.
    10030    2    1    2    0    0  0.00000000000E+00  0.00000000000E+00  0.27836680304E+03  0.38667762467E+04  0.38567435052E+04 0.  0.
        3    1    3    3  502    0 -0.11374344465E+04  0.68912209463E+03 -0.12608628610E+04  0.18325996687E+04  0.10100000352E+00 0. -1.
       -3    1    3    3    0  502  0.11374344465E+04 -0.68912209463E+03  0.15392296641E+04  0.20341765780E+04  0.10100000352E+00 0.  1.
</event>
<event>
 5   0  0.5134434E-07  0.3833815E+04  0.7818609E-02  0.8038937E-01
        2   -1    0    0  501    0  0.00000000000E+00  0.00000000000E+00  0.18178431008E+04  0.18178431008E+04  0.25500000920E-02 0.  1.
       -2   -1    0    0    0  501  0.00000000000E+00  0.00000000000E+00 -0.20213706624E+04  0.20213706624E+04  0.25500000920E-02 0. -1.
    10030    2    1    2    0    0  0.00000000000E+00  0.00000000000E+00 -0.20352756160E+03  0.38392137632E+04  0.38338151822E+04 0.  0.
        5    1    3    3  502    0  0.38011514636E+03 -0.47943988598E+03 -0.19209568094E+04  0.20160474405E+04  0.46999998093E+01 0. -1.
       -5    1    3    3    0  502 -0.38011514636E+03  0.47943988598E+03  0.17174292478E+04  0.18231663227E+04  0.46999998093E+01 0.  1.
</event>
<event>
 5   0  0.1656617E-07  0.3796205E+04  0.7818609E-02  0.8046970E-01
       -1   -1    0    0    0  501  0.00000000000E+00  0.00000000000E+00  0.24162369841E+04  0.24162369841E+04  0.50400001928E-02 0. -1.
        1   -1    0    0  501    0  0.00000000000E+00  0.00000000000E+00 -0.14910758574E+04  0.14910758574E+04  0.50400001928E-02 0.  1.
    10030    2    1    2    0    0  0.00000000000E+00  0.00000000000E+00  0.92516112674E+03  0.39073128415E+04  0.37962047535E+04 0.  0.
        5    1    3    3  502    0  0.18361415369E+04 -0.47790386543E+03  0.51860428987E+03  0.19669215408E+04  0.46999998093E+01 0. -1.
       -5    1    3    3    0  502 -0.18361415369E+04  0.47790386543E+03  0.40655683687E+03  0.19403913007E+04  0.46999998093E+01 0.  1.
</event>
<event>
 5   0  0.1648000E-07  0.3797503E+04  0.7818609E-02  0.8046691E-01
        1   -1    0    0  501    0  0.00000000000E+00  0.00000000000E+00  0.10511817855E+04  0.10511817855E+04  0.50400001928E-02 0. -1.
       -1   -1    0    0    0  501  0.00000000000E+00  0.00000000000E+00 -0.34297180932E+04  0.34297180932E+04  0.50400001928E-02 0.  1.
    10030    2    1    2    0    0  0.00000000000E+00  0.00000000000E+00 -0.23785363078E+04  0.44808998787E+04  0.37975029632E+04 0.  0.
        3    1    3    3  502    0 -0.12926964630E+04 -0.12473765882E+04 -0.19149621552E+04  0.26256604054E+04  0.10100000352E+00 0.  1.
       -3    1    3    3    0  502  0.12926964630E+04  0.12473765882E+04 -0.46357415260E+03  0.18552394733E+04  0.10100000352E+00 0. -1.
</event>
<event>
 5   0  0.5132561E-07  0.3807741E+04  0.7818609E-02  0.8044496E-01
       -2   -1    0    0    0  501  0.00000000000E+00  0.00000000000E+00  0.19654282868E+04  0.19654282868E+04  0.25500000920E-02 0. -1.
        2   -1    0    0  501    0  0.00000000000E+00  0.00000000000E+00 -0.18442411754E+04  0.18442411754E+04  0.25500000920E-02 0.  1.
    10030    2    1    2    0    0  0.00000000000E+00  0.00000000000E+00  0.12118711139E+03  0.38096694622E+04  0.38077414690E+04 0.  0.
        3    1    3    3  502    0  0.62344100684E+03  0.10681766062E+04 -0.13875659445E+04  0.18587681974E+04  0.10100000352E+00 0.  1.
       -3    1    3    3    0  502 -0.62344100684E+03 -0.10681766062E+04  0.15087530559E+04  0.19509012648E+04  0.10100000352E+00 0. -1.
</event>
<event>
 5   0  0.5202788E-07  0.3740501E+04  0.7818609E-02  0.8059045E-01
        2   -1    0    0  501    0  0.00000000000E+00  0.00000000000E+00  0.19710053575E+04  0.19710053575E+04  0.25500000920E-02 0.  1.
       -2   -1    0    0    0  501  0.00000000000E+00  0.00000000000E+00 -0.17746461900E+04  0.17746461900E+04  0.25500000920E-02 0. -1.
    10030    2    1    2    0    0  0.00000000000E+00  0.00000000000E+00  0.19635916753E+03  0.37456515476E+04  0.37405011152E+04 0.  0.
        1    1    3    3  502    0 -0.18322611372E+04 -0.36767171940E+03  0.17226645669E+03  0.18767096473E+04  0.50400001928E-02 0. -1.
       -1    1    3    3    0  502  0.18322611372E+04  0.36767171940E+03  0.24092710840E+02  0.18689419003E+04  0.50400001928E-02 0.  1.
</event>
<event>
 5   0  0.5202788E-07  0.3776380E+04  0.7818609E-02  0.8051243E-01
        2   -1    0    0  501    0  0.00000000000E+00  0.00000000000E+00  0.19139313723E+04  0.19139313723E+04  0.25500000920E-02 0.  1.
       -2   -1    0    0    0  501  0.00000000000E+00  0.00000000000E+00 -0.18627950872E+04  0.18627950872E+04  0.25500000920E-02 0. -1.
    10030    2    1    2    0    0  0.00000000000E+00  0.00000000000E+00  0.51136285038E+02  0.37767264595E+04  0.37763802550E+04 0.  0.
        1    1    3    3  502    0  0.14339113693E+04 -0.27451325791E+03 -0.11719566034E+04  0.18721489321E+04  0.50400001928E-02 0. -1.
       -1    1    3    3    0  502 -0.14339113693E+04  0.27451325791E+03  0.12230928884E+04  0.19045775273E+04  0.50400001928E-02 0.  1.
</event>
<event>
 5   0  0.5158266E-07  0.3787759E+04  0.7818609E-02  0.8048787E-01
       -2   -1    0    0    0  501  0.00000000000E+00  0.00000000000E+00  0.12678034863E+04  0.12678034863E+04  0.25500000920E-02 0. -1.
        2   -1    0    0  501    0  0.00000000000E+00  0.00000000000E+00 -0.28291293143E+04  0.28291293143E+04  0.25500000920E-02 0.  1.
    10030    2    1    2    0    0  0.00000000000E+00  0.00000000000E+00 -0.15613258280E+04  0.40969328007E+04  0.37877592363E+04 0.  0.
        2    1    3    3  502    0  0.48461869727E+02 -0.11763886021E+03  0.12631758044E+04  0.12695670786E+04  0.25500000920E-02 0. -1.
       -2    1    3    3    0  502 -0.48461869727E+02  0.11763886021E+03 -0.28245016325E+04  0.28273657220E+04  0.25500000920E-02 0.  1.
</event>
<event>
 5   0  0.1648000E-07  0.3644513E+04  0.7818609E-02  0.8080371E-01
        1   -1    0    0  501    0  0.00000000000E+00  0.00000000000E+00  0.19958454973E+04  0.19958454973E+04  0.50400001928E-02 0.  1.
       -1   -1    0    0    0  501  0.00000000000E+00  0.00000000000E+00 -0.16637656389E+04  0.16637656389E+04  0.50400001928E-02 0. -1.
    10030    2    1    2    0    0  0.00000000000E+00  0.00000000000E+00  0.33207985840E+03  0.36596111362E+04  0.36445132234E+04 0.  0.
        1    1    3    3  502    0 -0.74412719610E+03  0.13641754931E+04  0.11217807112E+04  0.19165312479E+04  0.50400001928E-02 0. -1.
       -1    1    3    3    0  502  0.74412719610E+03 -0.13641754931E+04 -0.78970085279E+03  0.17430798883E+04  0.50400001928E-02 0.  1.
</event>
<event>
 5   0  0.5202788E-07  0.3839308E+04  0.7818609E-02  0.8037772E-01
       -2   -1    0    0    0  501  0.00000000000E+00  0.00000000000E+00  0.13170249037E+04  0.13170249037E+04  0.25500000920E-02 0.  1.
        2   -1    0    0  501    0  0.00000000000E+00  0.00000000000E+00 -0.27980273150E+04  0.27980273150E+04  0.25500000920E-02 0. -1.
    10030    2    1    2    0    0  0.00000000000E+00  0.00000000000E+00 -0.14810024113E+04  0.41150522188E+04  0.38393080914E+04 0.  0.
        1    1    3    3  502    0 -0.18720989928E+04 -0.42302617065E+03 -0.78011331199E+03  0.20717824595E+04  0.50400001928E-02 0. -1.
       -1    1    3    3    0  502  0.18720989928E+04  0.42302617065E+03 -0.70088909933E+03  0.20432697593E+04  0.50400001928E-02 0.  1.
</event>
<event>
 5   0  0.5325362E-07  0.3761774E+04  0.7818609E-02  0.8054408E-01
       -2   -1    0    0    0  501  0.00000000000E+00  0.00000000000E+00  0.15198070044E+04  0.15198070045E+04  0.25500000920E-02 0. -1.
        2   -1    0    0  501    0  0.00000000000E+00  0.00000000000E+00 -0.23277538487E+04  0.23277538487E+04  0.25500000920E-02 0.  1.
    10030    2    1    2    0    0  0.00000000000E+00  0.00000000000E+00 -0.80794684427E+03  0.38475608532E+04  0.37617743707E+04 0.  0.
        4    1    3    3  502    0  0.61164114397E+03 -0.95671872783E+03 -0.19376075205E+04  0.22458272706E+04  0.12699999809E+01 0.  1.
       -4    1    3    3    0  502 -0.61164114397E+03  0.95671872783E+03  0.11296606762E+04  0.16017335825E+04  0.12699999809E+01 0. -1.
</event>
<event>
 5   0  0.5132561E-07  0.3775597E+04  0.7818609E-02  0.8051412E-01
       -2   -1    0    0    0  501  0.00000000000E+00  0.00000000000E+00  0.15727461109E+04  0.15727461109E+04  0.25500000920E-02 0.  1.
        2   -1    0    0  501    0  0.00000000000E+00  0.00000000000E+00 -0.22659623488E+04  0.22659623488E+04  0.25500000920E-02 0. -1.
    10030    2    1    2    0    0  0.00000000000E+00  0.00000000000E+00 -0.69321623786E+03  0.38387084597E+04  0.37755971563E+04 0.  0.
        3    1    3    3  502    0  0.17092040034E+03  0.16954458563E+04  0.47939619049E+03  0.17701895809E+04  0.10100000352E+00 0.  1.
       -3    1    3    3    0  502 -0.17092040034E+03 -0.16954458563E+04 -0.11726124284E+04  0.20685188788E+04  0.10100000352E+00 0. -1.
</event>
<event>
 5   0  0.1656617E-07  0.3886390E+04  0.7818609E-02  0.8027866E-01
        1   -1    0    0  501    0  0.00000000000E+00  0.00000000000E+00  0.24817995077E+04  0.24817995077E+04  0.50400001928E-02 0. -1.
       -1   -1    0    0    0  501  0.00000000000E+00  0.00000000000E+00 -0.15214795332E+04  0.15214795332E+04  0.50400001928E-02 0.  1.
    10030    2    1    2    0    0  0.00000000000E+00  0.00000000000E+00  0.96031997458E+03  0.40032790409E+04  0.38863901793E+04 0.  0.
        5    1    3    3  502    0  0.16038655178E+04 -0.45967300961E+03 -0.54594363138E+03  0.17554943502E+04  0.46999998093E+01 0.  1.
       -5    1    3    3    0  502 -0.16038655178E+04  0.45967300961E+03  0.15062636060E+04  0.22477846907E+04  0.46999998093E+01 0. -1.
</event>
<event>
 5   0  0.1648000E-07  0.3729796E+04  0.7818609E-02  0.8061391E-01
        1   -1    0    0  501    0  0.00000000000E+00  0.00000000000E+00  0.15406781216E+04  0.15406781216E+04  0.50400001928E-02 0.  1.
       -1   -1    0    0    0  501  0.00000000000E+00  0.00000000000E+00 -0.22573468593E+04  0.22573468593E+04  0.50400001928E-02 0. -1.
    10030    2    1    2    0    0  0.00000000000E+00  0.00000000000E+00 -0.71666873772E+03  0.37980249808E+04  0.37297961976E+04 0.  0.
        2    1    3    3  502    0 -0.29184564829E+03 -0.16315274990E+04 -0.12288342830E+04  0.20632715666E+04  0.25500000920E-02 0. -1.
       -2    1    3    3    0  502  0.29184564829E+03  0.16315274990E+04  0.51216554527E+03  0.17347534142E+04  0.25500000920E-02 0.  1.
</event>
<event>
 5   0  0.5202788E-07  0.2846194E+04  0.7818609E-02  0.8289069E-01
       -2   -1    0    0    0  501  0.00000000000E+00  0.00000000000E+00  0.12262389299E+04  0.12262389299E+04  0.25500000920E-02 0.  1.
        2   -1    0    0  501    0  0.00000000000E+00  0.00000000000E+00 -0.16515586021E+04  0.16515586021E+04  0.25500000920E-02 0. -1.
    10030    2    1    2    0    0  0.00000000000E+00  0.00000000000E+00 -0.42531967226E+03  0.28777975320E+04  0.28461942680E+04 0.  0.
        1    1    3    3  502    0  0.29774902396E+03  0.84326206818E+03 -0.13319566720E+04  0.16043235251E+04  0.50400001928E-02 0. -1.
       -1    1    3    3    0  502 -0.29774902396E+03 -0.84326206818E+03  0.90663699977E+03  0.12734740069E+04  0.50400001928E-02 0.  1.
</event>
<event>
 5   0  0.5325362E-07  0.3715132E+04  0.7818609E-02  0.8064617E-01
       -2   -1    0    0    0  501  0.00000000000E+00  0.00000000000E+00  0.17904081611E+04  0.17904081611E+04  0.25500000920E-02 0. -1.
        2   -1    0    0  501    0  0.00000000000E+00  0.00000000000E+00 -0.19272428060E+04  0.19272428060E+04  0.25500000920E-02 0.  1.
    10030    2    1    2    0    0  0.00000000000E+00  0.00000000000E+00 -0.13683464486E+03  0.37176509671E+04  0.37151318945E+04 0.  0.
        4    1    3    3  502    0  0.51676756822E+02 -0.82964393034E+03 -0.17307390902E+04  0.19200101431E+04  0.12699999809E+01 0.  1.
       -4    1    3    3    0  502 -0.51676756822E+02  0.82964393034E+03  0.15939044454E+04  0.17976408240E+04  0.12699999809E+01 0. -1.
</event>
<event>
 5   0  0.5132561E-07  0.3801833E+04  0.7818609E-02  0.8045762E-01
        2   -1    0    0  501    0  0.00000000000E+00  0.00000000000E+00  0.27807057858E+04  0.27807057858E+04  0.25500000920E-02 0. -1.
       -2   -1    0    0    0  501  0.00000000000E+00  0.00000000000E+00 -0.12994844825E+04  0.12994844825E+04  0.25500000920E-02 0.  1.
    10030    2    1    2    0    0  0.00000000000E+00  0.00000000000E+00  0.14812213033E+04  0.40801902683E+04  0.38018332520E+04 0.  0.
        3    1    3    3  502    0 -0.10037409318E+03 -0.51836500193E+03 -0.12192093097E+04  0.13286265784E+04  0.10100000352E+00 0.  1.
       -3    1    3    3    0  502  0.10037409318E+03  0.51836500193E+03  0.27004306130E+04  0.27515636899E+04  0.10100000352E+00 0. -1.
</event>
<event>
 5   0  0.1648000E-07  0.3822973E+04  0.7818609E-02  0.8041243E-01
       -1   -1    0    0    0  501  0.00000000000E+00  0.00000000000E+00  0.13518901196E+04  0.13518901196E+04  0.50400001928E-02 0. -1.
        1   -1    0    0  501    0  0.00000000000E+00  0.00000000000E+00 -0.27027199040E+04  0.27027199040E+04  0.50400001928E-02 0.  1.
    10030    2    1    2    0    0  0.00000000000E+00  0.00000000000E+00 -0.13508297844E+04  0.40546100236E+04  0.38229728402E+04 0.  0.
        1    1    3    3  502    0 -0.59080064726E+03  0.12259289257E+04  0.74824145684E+03  0.15530010990E+04  0.50400001928E-02 0. -1.
       -1    1    3    3    0  502  0.59080064726E+03 -0.12259289257E+04 -0.20990712413E+04  0.25016089246E+04  0.50400001928E-02 0.  1.
</event>
<event>
 5   0  0.5158266E-07  0.3790419E+04  0.7818609E-02  0.8048214E-01
       -2   -1    0    0    0  501  0.00000000000E+00  0.00000000000E+00  0.12193701161E+04  0.12193701161E+04  0.25500000920E-02 0. -1.
        2   -1    0    0  501    0  0.00000000000E+00  0.00000000000E+00 -0.29456342405E+04  0.29456342405E+04  0.25500000920E-02 0.  1.
    10030    2    1    2    0    0  0.00000000000E+00  0.00000000000E+00 -0.17262641244E+04  0.41650043566E+04  0.37904186396E+04 0.  0.
        2    1    3    3  502    0  0.10959873479E+04  0.75396637270E+03  0.62014441110E+03  0.14677304414E+04  0.25500000920E-02 0. -1.
       -2    1    3    3    0  502 -0.10959873479E+04 -0.75396637270E+03 -0.23464085355E+04  0.26972739152E+04  0.25500000920E-02 0.  1.
</event>
<event>
 5   0  0.1648000E-07  0.3719921E+04  0.7818609E-02  0.8063561E-01
        1   -1    0    0  501    0  0.00000000000E+00  0.00000000000E+00  0.20057310259E+04  0.20057310259E+04  0.50400001928E-02 0. -1.
       -1   -1    0    0    0  501  0.00000000000E+00  0.00000000000E+00 -0.17247844207E+04  0.17247844207E+04  0.50400001928E-02 0.  1.
    10030    2    1    2    0    0  0.00000000000E+00  0.00000000000E+00  0.28094660520E+03  0.37305154465E+04  0.37199213032E+04 0.  0.
        1    1    3    3  502    0 -0.15149929380E+04 -0.30264078108E+03  0.11791152204E+04  0.19434782601E+04  0.50400001928E-02 0. -1.
       -1    1    3    3    0  502  0.15149929380E+04  0.30264078108E+03 -0.89816861518E+03  0.17870371865E+04  0.50400001928E-02 0.  1.
</event>
<event>
 5   0  0.1648000E-07  0.3787363E+04  0.7818609E-02  0.8048872E-01
       -1   -1    0    0    0  501  0.00000000000E+00  0.00000000000E+00  0.12584762521E+04  0.12584762521E+04  0.50400001928E-02 0. -1.
        1   -1    0    0  501    0  0.00000000000E+00  0.00000000000E+00 -0.28495005004E+04  0.28495005004E+04  0.50400001928E-02 0.  1.
    10030    2    1    2    0    0  0.00000000000E+00  0.00000000000E+00 -0.15910242484E+04  0.41079767525E+04  0.37873625177E+04 0.  0.
        2    1    3    3  502    0 -0.10856810373E+04  0.14483492340E+04 -0.19198260852E+03  0.18202406820E+04  0.25500000920E-02 0.  1.
       -2    1    3    3    0  502  0.10856810373E+04 -0.14483492340E+04 -0.13990416398E+04  0.22877360705E+04  0.25500000920E-02 0. -1.
</event>
<event>
 5   0  0.5134434E-07  0.3861041E+04  0.7818609E-02  0.8033181E-01
       -2   -1    0    0    0  501  0.00000000000E+00  0.00000000000E+00  0.18486446770E+04  0.18486446770E+04  0.25500000920E-02 0. -1.
        2   -1    0    0  501    0  0.00000000000E+00  0.00000000000E+00 -0.20160224893E+04  0.20160224893E+04  0.25500000920E-02 0.  1.
    10030    2    1    2    0    0  0.00000000000E+00  0.00000000000E+00 -0.16737781230E+03  0.38646671663E+04  0.38610409185E+04 0.  0.
        5    1    3    3  502    0  0.13792155599E+04 -0.13505831123E+04 -0.10772916382E+03  0.19333747610E+04  0.46999998093E+01 0. -1.
       -5    1    3    3    0  502 -0.13792155599E+04  0.13505831123E+04 -0.59648648473E+02  0.19312924053E+04  0.46999998093E+01 0.  1.
</event>
<event>
 5   0  0.1648000E-07  0.3845691E+04  0.7818609E-02  0.8036420E-01
        1   -1    0    0  501    0  0.00000000000E+00  0.00000000000E+00  0.20010441394E+04  0.20010441394E+04  0.50400001928E-02 0. -1.
       -1   -1    0    0    0  501  0.00000000000E+00  0.00000000000E+00 -0.18477024089E+04  0.18477024089E+04  0.50400001928E-02 0.  1.
    10030    2    1    2    0    0  0.00000000000E+00  0.00000000000E+00  0.15334173053E+03  0.38487465483E+04  0.38456906151E+04 0.  0.
        1    1    3    3  502    0 -0.16327283877E+04 -0.11107359869E+03  0.10870248479E+04  0.19646277898E+04  0.50400001928E-02 0. -1.
       -1    1    3    3    0  502  0.16327283877E+04  0.11107359869E+03 -0.93368311739E+03  0.18841187585E+04  0.50400001928E-02 0.  1.
</event>
<event>
 5   0  0.5325362E-07  0.3731184E+04  0.7818609E-02  0.8061086E-01
        2   -1    0    0  501    0  0.00000000000E+00  0.00000000000E+00  0.27903719280E+04  0.27903719280E+04  0.25500000920E-02 0.  1.
       -2   -1    0    0    0  501  0.00000000000E+00  0.00000000000E+00 -0.12473012198E+04  0.12473012198E+04  0.25500000920E-02 0. -1.
    10030    2    1    2    0    0  0.00000000000E+00  0.00000000000E+00  0.15430707082E+04  0.40376731479E+04  0.37311844284E+04 0.  0.
        4    1    3    3  502    0 -0.84874024196E+03 -0.16427490475E+04  0.50328564646E+03  0.19163200375E+04  0.12699999809E+01 0. -1.
       -4    1    3    3    0  502  0.84874024196E+03  0.16427490475E+04  0.10397850617E+04  0.21213531104E+04  0.12699999809E+01 0.  1.
</event>
<event>
 5   0  0.1648000E-07  0.3813146E+04  0.7818609E-02  0.8043340E-01
        3   -1    0    0  501    0  0.00000000000E+00  0.00000000000E+00  0.17606050588E+04  0.17606050617E+04  0.10100000352E+00 0. -1.
       -3   -1    0    0    0  501  0.00000000000E+00  0.00000000000E+00 -0.20646433190E+04  0.20646433215E+04  0.10100000352E+00 0.  1.
    10030    2    1    2    0    0  0.00000000000E+00  0.00000000000E+00 -0.30403826026E+03  0.38252483832E+04  0.38131464605E+04 0.  0.
        5    1    3    3  502    0 -0.56385173753E+03 -0.18077348751E+04 -0.37445519309E+03  0.19303038471E+04  0.46999998093E+01 0.  1.
       -5    1    3    3    0  502  0.56385173753E+03  0.18077348751E+04  0.70416932824E+02  0.18949445361E+04  0.46999998093E+01 0. -1.
</event>
<event>
 5   0  0.5132561E-07  0.2770108E+04  0.7818609E-02  0.8312609E-01
        2   -1    0    0  501    0  0.00000000000E+00  0.00000000000E+00  0.19129914641E+04  0.19129914641E+04  0.25500000920E-02 0. -1.
       -2   -1    0    0    0  501  0.00000000000E+00  0.00000000000E+00 -0.10028141662E+04  0.10028141662E+04  0.25500000920E-02 0.  1.
    10030    2    1    2    0    0  0.00000000000E+00  0.00000000000E+00  0.91017729792E+03  0.29158056302E+04  0.27701082578E+04 0.  0.
        3    1    3    3  502    0  0.22033087360E+02 -0.32345736685E+03  0.18724887007E+04  0.19003484075E+04  0.10100000352E+00 0. -1.
       -3    1    3    3    0  502 -0.22033087360E+02  0.32345736685E+03 -0.96231140282E+03  0.10154572228E+04  0.10100000352E+00 0.  1.
</event>
<event>
 5   0  0.5132561E-07  0.3910281E+04  0.7818609E-02  0.8022894E-01
       -2   -1    0    0    0  501  0.00000000000E+00  0.00000000000E+00  0.18258225897E+04  0.18258225897E+04  0.25500000920E-02 0.  1.
        2   -1    0    0  501    0  0.00000000000E+00  0.00000000000E+00 -0.20936178631E+04  0.20936178631E+04  0.25500000920E-02 0. -1.
    10030    2    1    2    0    0  0.00000000000E+00  0.00000000000E+00 -0.26779527336E+03  0.39194404528E+04  0.39102812117E+04 0.  0.
        3    1    3    3  502    0  0.11396039132E+04  0.92763600824E+03  0.11588400174E+04  0.18713940897E+04  0.10100000352E+00 0.  1.
       -3    1    3    3    0  502 -0.11396039132E+04 -0.92763600824E+03 -0.14266352907E+04  0.20480463632E+04  0.10100000352E+00 0. -1.
</event>
<event>
 5   0  0.1648000E-07  0.3873582E+04  0.7818609E-02  0.8030546E-01
       -1   -1    0    0    0  501  0.00000000000E+00  0.00000000000E+00  0.17375719220E+04  0.17375719220E+04  0.50400001928E-02 0. -1.
        1   -1    0    0  501    0  0.00000000000E+00  0.00000000000E+00 -0.21588517995E+04  0.21588517995E+04  0.50400001928E-02 0.  1.
    10030    2    1    2    0    0  0.00000000000E+00  0.00000000000E+00 -0.42127987748E+03  0.38964237215E+04  0.38735824610E+04 0.  0.
        3    1    3    3  502    0 -0.88717986630E+03 -0.48291948020E+01  0.15211533391E+04  0.17609710184E+04  0.10100000352E+00 0. -1.
       -3    1    3    3    0  502  0.88717986630E+03  0.48291948020E+01 -0.19424332166E+04  0.21354527031E+04  0.10100000352E+00 0.  1.
</event>
<event>
 5   0  0.5158266E-07  0.3774633E+04  0.7818609E-02  0.8051621E-01
       -2   -1    0    0    0  501  0.00000000000E+00  0.00000000000E+00  0.17650128353E+04  0.17650128354E+04  0.25500000920E-02 0.  1.
        2   -1    0    0  501    0  0.00000000000E+00  0.00000000000E+00 -0.20180949779E+04  0.20180949779E+04  0.25500000920E-02 0. -1.
    10030    2    1    2    0    0  0.00000000000E+00  0.00000000000E+00 -0.25308214252E+03  0.37831078132E+04  0.37746329829E+04 0.  0.
        2    1    3    3  502    0  0.17961174905E+04  0.46031903736E+03  0.22643125430E+03  0.18679407830E+04  0.25500000920E-02 0.  1.
       -2    1    3    3    0  502 -0.17961174905E+04 -0.46031903736E+03 -0.47951339682E+03  0.19151670302E+04  0.25500000920E-02 0. -1.
</event>
<event>
 5   0  0.5325362E-07  0.3885852E+04  0.7818609E-02  0.8027978E-01
        2   -1    0    0  501    0  0.00000000000E+00  0.00000000000E+00  0.20562620150E+04  0.20562620150E+04  0.25500000920E-02 0.  1.
       -2   -1    0    0    0  501  0.00000000000E+00  0.00000000000E+00 -0.18358370128E+04  0.18358370128E+04  0.25500000920E-02 0. -1.
    10030    2    1    2    0    0  0.00000000000E+00  0.00000000000E+00  0.22042500226E+03  0.38920990278E+04  0.38858522438E+04 0.  0.
        4    1    3    3  502    0  0.10590899092E+04 -0.12298630128E+04 -0.95955213659E+03  0.18854645003E+04  0.12699999809E+01 0. -1.
       -4    1    3    3    0  502 -0.10590899092E+04  0.12298630128E+04  0.11799771389E+04  0.20066345276E+04  0.12699999809E+01 0.  1.
</event>
<event>
 5   0  0.5325362E-07  0.3742321E+04  0.7818609E-02  0.8058647E-01
        2   -1    0    0  501    0  0.00000000000E+00  0.00000000000E+00  0.22747135284E+04  0.22747135284E+04  0.25500000920E-02 0.  1.
       -2   -1    0    0    0  501  0.00000000000E+00  0.00000000000E+00 -0.15392014574E+04  0.15392014574E+04  0.25500000920E-02 0. -1.
    10030    2    1    2    0    0  0.00000000000E+00  0.00000000000E+00  0.73551207097E+03  0.38139149859E+04  0.37423214069E+04 0.  0.
        4    1    3    3  502    0  0.18143586968E+04  0.21604622226E+03 -0.43280165342E+02  0.18276893161E+04  0.12699999809E+01 0.  1.
       -4    1    3    3    0  502 -0.18143586968E+04 -0.21604622226E+03  0.77879223631E+03  0.19862256697E+04  0.12699999809E+01 0. -1.
</event>
<event>
 5   0  0.1648000E-07  0.3766359E+04  0.7818609E-02  0.8053413E-01
        1   -1    0    0  501    0  0.00000000000E+00  0.00000000000E+00  0.18422214274E+04  0.18422214274E+04  0.50400001928E-02 0. -1.
       -1   -1    0    0    0  501  0.00000000000E+00  0.00000000000E+00 -0.19250482727E+04  0.19250482727E+04  0.50400001928E-02 0.  1.
    10030    2    1    2    0    0  0.00000000000E+00  0.00000000000E+00 -0.82826845331E+02  0.37672697001E+04  0.37663590784E+04 0.  0.
        4    1    3    3  502    0 -0.16790091984E+04  0.36552190602E+03  0.72928270825E+03  0.18666903958E+04  0.12699999809E+01 0. -1.
       -4    1    3    3    0  502  0.16790091984E+04 -0.36552190602E+03 -0.81210955358E+03  0.19005793044E+04  0.12699999809E+01 0.  1.
</event>
<event>
 5   0  0.1656617E-07  0.3839481E+04  0.7818609E-02  0.8037735E-01
       -1   -1    0    0    0  501  0.00000000000E+00  0.00000000000E+00  0.18249697712E+04  0.18249697712E+04  0.50400001928E-02 0. -1.
        1   -1    0    0  501    0  0.00000000000E+00  0.00000000000E+00 -0.20194329147E+04  0.20194329147E+04  0.50400001928E-02 0.  1.
    10030    2    1    2    0    0  0.00000000000E+00  0.00000000000E+00 -0.19446314354E+03  0.38444026859E+04  0.38394812276E+04 0.  0.
        5    1    3    3  502    0 -0.95049830366E+03  0.12925719086E+04 -0.11527140472E+04  0.19755912859E+04  0.46999998093E+01 0.  1.
       -5    1    3    3    0  502  0.95049830366E+03 -0.12925719086E+04  0.95825090370E+03  0.18688114000E+04  0.46999998093E+01 0. -1.
</event>
<event>
 5   0  0.1648000E-07  0.3744993E+04  0.7818609E-02  0.8058063E-01
        1   -1    0    0  501    0  0.00000000000E+00  0.00000000000E+00  0.25791011500E+04  0.25791011500E+04  0.50400001928E-02 0. -1.
       -1   -1    0    0    0  501  0.00000000000E+00  0.00000000000E+00 -0.13594828131E+04  0.13594828131E+04  0.50400001928E-02 0.  1.
    10030    2    1    2    0    0  0.00000000000E+00  0.00000000000E+00  0.12196183369E+04  0.39385839631E+04  0.37449932906E+04 0.  0.
        1    1    3    3  502    0  0.11719989286E+04 -0.61043021605E+03 -0.78543424683E+03  0.15372421714E+04  0.50400001928E-02 0.  1.
       -1    1    3    3    0  502 -0.11719989286E+04  0.61043021605E+03  0.20050525838E+04  0.24013417918E+04  0.50400001928E-02 0. -1.
</event>
<event>
 5   0  0.1648000E-07  0.3261862E+04  0.7818609E-02  0.8172668E-01
        1   -1    0    0  501    0  0.00000000000E+00  0.00000000000E+00  0.13703459856E+04  0.13703459856E+04  0.50400001928E-02 0. -1.
       -1   -1    0    0    0  501  0.00000000000E+00  0.00000000000E+00 -0.19410688340E+04  0.19410688340E+04  0.50400001928E-02 0.  1.
    10030    2    1    2    0    0  0.00000000000E+00  0.00000000000E+00 -0.57072284840E+03  0.33114148195E+04  0.32618619740E+04 0.  0.
        4    1    3    3  502    0  0.87968916140E+03 -0.13381796364E+04 -0.59885105857E+03  0.17097373960E+04  0.12699999809E+01 0.  1.
       -4    1    3    3    0  502 -0.87968916140E+03  0.13381796364E+04  0.28128210170E+02  0.16016774236E+04  0.12699999809E+01 0. -1.
</event>
<event>
 5   0  0.1648000E-07  0.3874717E+04  0.7818609E-02  0.8030308E-01
       -1   -1    0    0    0  501  0.00000000000E+00  0.00000000000E+00  0.20716747873E+04  0.20716747873E+04  0.50400001928E-02 0.  1.
        1   -1    0    0  501    0  0.00000000000E+00  0.00000000000E+00 -0.18117501467E+04  0.18117501467E+04  0.50400001928E-02 0. -1.
    10030    2    1    2    0    0  0.00000000000E+00  0.00000000000E+00  0.25992464057E+03  0.38834249340E+04  0.38747165573E+04 0.  0.
        1    1    3    3  502    0  0.16428469636E+04 -0.30405917281E+03 -0.85303707642E+03  0.18759185430E+04  0.50400001928E-02 0. -1.
       -1    1    3    3    0  502 -0.16428469636E+04  0.30405917281E+03  0.11129617170E+04  0.20075063910E+04  0.50400001928E-02 0.  1.
</event>
<event>
 5   0  0.5158266E-07  0.3704763E+04  0.7818609E-02  0.8066907E-01
        2   -1    0    0  501    0  0.00000000000E+00  0.00000000000E+00  0.26648580237E+04  0.26648580237E+04  0.25500000920E-02 0. -1.
       -2   -1    0    0    0  501  0.00000000000E+00  0.00000000000E+00 -0.12876175875E+04  0.12876175875E+04  0.25500000920E-02 0.  1.
    10030    2    1    2    0    0  0.00000000000E+00  0.00000000000E+00  0.13772404362E+04  0.39524756111E+04  0.37047634523E+04 0.  0.
        2    1    3    3  502    0 -0.43338994335E+03  0.66432846705E+03 -0.10972713832E+04  0.13539437372E+04  0.25500000920E-02 0.  1.
       -2    1    3    3    0  502  0.43338994335E+03 -0.66432846705E+03  0.24745118194E+04  0.25985318739E+04  0.25500000920E-02 0. -1.
</event>
<event>
 5   0  0.1648000E-07  0.3785482E+04  0.7818609E-02  0.8049278E-01
       -1   -1    0    0    0  501  0.00000000000E+00  0.00000000000E+00  0.19895152353E+04  0.19895152354E+04  0.50400001928E-02 0.  1.
        1   -1    0    0  501    0  0.00000000000E+00  0.00000000000E+00 -0.18006737317E+04  0.18006737317E+04  0.50400001928E-02 0. -1.
    10030    2    1    2    0    0  0.00000000000E+00  0.00000000000E+00  0.18884150366E+03  0.37901889670E+04  0.37854816460E+04 0.  0.
        4    1    3    3  502    0  0.16921167004E+04 -0.24809718449E+03 -0.71754704348E+03  0.18546391868E+04  0.12699999809E+01 0. -1.
       -4    1    3    3    0  502 -0.16921167004E+04  0.24809718449E+03  0.90638854714E+03  0.19355497803E+04  0.12699999809E+01 0.  1.
</event>
<event>
 5   0  0.5158266E-07  0.3771918E+04  0.7818609E-02  0.8052208E-01
       -2   -1    0    0    0  501  0.00000000000E+00  0.00000000000E+00  0.20472660972E+04  0.20472660972E+04  0.25500000920E-02 0.  1.
        2   -1    0    0  501    0  0.00000000000E+00  0.00000000000E+00 -0.17373617348E+04  0.17373617348E+04  0.25500000920E-02 0. -1.
    10030    2    1    2    0    0  0.00000000000E+00  0.00000000000E+00  0.30990436245E+03  0.37846278320E+04  0.37719182273E+04 0.  0.
        2    1    3    3  502    0  0.88091817417E+03  0.15895746258E+04  0.66071159772E+03  0.19337280409E+04  0.25500000920E-02 0.  1.
       -2    1    3    3    0  502 -0.88091817417E+03 -0.15895746258E+04 -0.35080723527E+03  0.18508997912E+04  0.25500000920E-02 0. -1.
</event>
<event>
 5   0  0.1648000E-07  0.3861468E+04  0.7818609E-02  0.8033091E-01
        1   -1    0    0  501    0  0.00000000000E+00  0.00000000000E+00  0.13746769706E+04  0.13746769706E+04  0.50400001928E-02 0.  1.
       -1   -1    0    0    0  501  0.00000000000E+00  0.00000000000E+00 -0.27117164445E+04  0.27117164445E+04  0.50400001928E-02 0. -1.
    10030    2    1    2    0    0  0.00000000000E+00  0.00000000000E+00 -0.13370394739E+04  0.40863934151E+04  0.38614681907E+04 0.  0.
        1    1    3    3  502    0  0.43876297147E+03 -0.15147120901E+04  0.51030866687E+03  0.16574922614E+04  0.50400001928E-02 0.  1.
       -1    1    3    3    0  502 -0.43876297147E+03  0.15147120901E+04 -0.18473481407E+04  0.24289011537E+04  0.50400001928E-02 0. -1.
</event>
<event>
 5   0  0.1648000E-07  0.3797188E+04  0.7818609E-02  0.8046759E-01
       -1   -1    0    0    0  501  0.00000000000E+00  0.00000000000E+00  0.26511180851E+04  0.26511180851E+04  0.50400001928E-02 0. -1.
        1   -1    0    0  501    0  0.00000000000E+00  0.00000000000E+00 -0.13596752994E+04  0.13596752994E+04  0.50400001928E-02 0.  1.
    10030    2    1    2    0    0  0.00000000000E+00  0.00000000000E+00  0.12914427857E+04  0.40107933845E+04  0.37971883156E+04 0.  0.
        3    1    3    3  502    0  0.56037161011E+03 -0.40401302592E+03  0.25136533121E+04  0.26068555484E+04  0.10100000352E+00 0. -1.
       -3    1    3    3    0  502 -0.56037161011E+03  0.40401302592E+03 -0.12222105264E+04  0.14039378361E+04  0.10100000352E+00 0.  1.
</event>
<event>
 5   0  0.5158266E-07  0.3802858E+04  0.7818609E-02  0.8045542E-01
       -2   -1    0    0    0  501  0.00000000000E+00  0.00000000000E+00  0.13137540168E+04  0.13137540168E+04  0.25500000920E-02 0.  1.
        2   -1    0    0  501    0  0.00000000000E+00  0.00000000000E+00 -0.27519859771E+04  0.27519859771E+04  0.25500000920E-02 0. -1.
    10030    2    1    2    0    0  0.00000000000E+00  0.00000000000E+00 -0.14382319603E+04  0.40657399938E+04  0.38028582048E+04 0.  0.
        2    1    3    3  502    0  0.16725484829E+04  0.52991768105E+03  0.64490573740E+02  0.17556737198E+04  0.25500000920E-02 0.  1.
       -2    1    3    3    0  502 -0.16725484829E+04 -0.52991768105E+03 -0.15027225340E+04  0.23100662740E+04  0.25500000920E-02 0. -1.
</event>
<event>
 5   0  0.5202788E-07  0.3797367E+04  0.7818609E-02  0.8046720E-01
       -2   -1    0    0    0  501  0.00000000000E+00  0.00000000000E+00  0.16391161198E+04  0.16391161198E+04  0.25500000920E-02 0. -1.
        2   -1    0    0  501    0  0.00000000000E+00  0.00000000000E+00 -0.21993555510E+04  0.21993555510E+04  0.25500000920E-02 0.  1.
    10030    2    1    2    0    0  0.00000000000E+00  0.00000000000E+00 -0.56023943120E+03  0.38384716708E+04  0.37973670546E+04 0.  0.
        1    1    3    3  502    0 -0.72594343402E+03 -0.15863521379E+04 -0.10375586244E+04  0.20297869036E+04  0.50400001928E-02 0.  1.
       -1    1    3    3    0  502  0.72594343402E+03  0.15863521379E+04  0.47731919316E+03  0.18086847672E+04  0.50400001928E-02 0. -1.
</event>
<event>
 5   0  0.5134434E-07  0.3798051E+04  0.7818609E-02  0.8046573E-01
       -2   -1    0    0    0  501  0.00000000000E+00  0.00000000000E+00  0.18265510629E+04  0.18265510629E+04  0.25500000920E-02 0.  1.
        2   -1    0    0  501    0  0.00000000000E+00  0.00000000000E+00 -0.19743753306E+04  0.19743753306E+04  0.25500000920E-02 0. -1.
    10030    2    1    2    0    0  0.00000000000E+00  0.00000000000E+00 -0.14782426765E+03  0.38009263935E+04  0.37980507414E+04 0.  0.
        5    1    3    3  502    0 -0.86668146527E+03 -0.12784469319E+04  0.10317827362E+04  0.18574609080E+04  0.46999998093E+01 0.  1.
       -5    1    3    3    0  502  0.86668146527E+03  0.12784469319E+04 -0.11796070038E+04  0.19434654855E+04  0.46999998093E+01 0. -1.
</event>
<event>
 5   0  0.1648000E-07  0.3825478E+04  0.7818609E-02  0.8040709E-01
        1   -1    0    0  501    0  0.00000000000E+00  0.00000000000E+00  0.22565728912E+04  0.22565728912E+04  0.50400001928E-02 0.  1.
       -1   -1    0    0    0  501  0.00000000000E+00  0.00000000000E+00 -0.16212952923E+04  0.16212952923E+04  0.50400001928E-02 0. -1.
    10030    2    1    2    0    0  0.00000000000E+00  0.00000000000E+00  0.63527759893E+03  0.38778681835E+04  0.38254782735E+04 0.  0.
        4    1    3    3  502    0 -0.33851782395E+03 -0.12224244232E+04  0.17689065279E+04  0.21766827295E+04  0.12699999809E+01 0.  1.
       -4    1    3    3    0  502  0.33851782395E+03  0.12224244232E+04 -0.11336289289E+04  0.17011854540E+04  0.12699999809E+01 0. -1.
</event>
<event>
 5   0  0.1648000E-07  0.3846070E+04  0.7818609E-02  0.8036340E-01
        1   -1    0    0  501    0  0.00000000000E+00  0.00000000000E+00  0.19953865448E+04  0.19953865448E+04  0.50400001928E-02 0.  1.
       -1   -1    0    0    0  501  0.00000000000E+00  0.00000000000E+00 -0.18533069845E+04  0.18533069845E+04  0.50400001928E-02 0. -1.
    10030    2    1    2    0    0  0.00000000000E+00  0.00000000000E+00  0.14207956029E+03  0.38486935294E+04  0.38460701088E+04 0.  0.
        1    1    3    3  502    0  0.30607923775E+03 -0.93231954728E+03  0.17259996536E+04  0.19854417751E+04  0.50400001928E-02 0.  1.
       -1    1    3    3    0  502 -0.30607923775E+03  0.93231954728E+03 -0.15839200933E+04  0.18632517543E+04  0.50400001928E-02 0. -1.
</event>
<event>
 5   0  0.1656617E-07  0.3012178E+04  0.7818609E-02  0.8240262E-01
        1   -1    0    0  501    0  0.00000000000E+00  0.00000000000E+00  0.18395887331E+04  0.18395887331E+04  0.50400001928E-02 0. -1.
       -1   -1    0    0    0  501  0.00000000000E+00  0.00000000000E+00 -0.12330499471E+04  0.12330499471E+04  0.50400001928E-02 0.  1.
    10030    2    1    2    0    0  0.00000000000E+00  0.00000000000E+00  0.60653878600E+03  0.30726386803E+04  0.30121784742E+04 0.  0.
        5    1    3    3  502    0  0.88036683397E+03 -0.41872559543E+03  0.14743127631E+04  0.17674832673E+04  0.46999998093E+01 0. -1.
       -5    1    3    3    0  502 -0.88036683397E+03  0.41872559543E+03 -0.86777397713E+03  0.13051554130E+04  0.46999998093E+01 0.  1.
</event>
<event>
 5   0  0.5132561E-07  0.3820366E+04  0.7818609E-02  0.8041798E-01
       -2   -1    0    0    0  501  0.00000000000E+00  0.00000000000E+00  0.13773533812E+04  0.13773533812E+04  0.25500000920E-02 0. -1.
        2   -1    0    0  501    0  0.00000000000E+00  0.00000000000E+00 -0.26491381896E+04  0.26491381896E+04  0.25500000920E-02 0.  1.
    10030    2    1    2    0    0  0.00000000000E+00  0.00000000000E+00 -0.12717848084E+04  0.40264915708E+04  0.38203661828E+04 0.  0.
        3    1    3    3  502    0 -0.61008389389E+03  0.11520426419E+04  0.83564635877E+03  0.15484538913E+04  0.10100000352E+00 0. -1.
       -3    1    3    3    0  502  0.61008389389E+03 -0.11520426419E+04 -0.21074311671E+04  0.24780376794E+04  0.10100000352E+00 0.  1.
</event>
<event>
 5   0  0.5158266E-07  0.3824102E+04  0.7818609E-02  0.8041002E-01
       -2   -1    0    0    0  501  0.00000000000E+00  0.00000000000E+00  0.23521119390E+04  0.23521119390E+04  0.25500000920E-02 0.  1.
        2   -1    0    0  501    0  0.00000000000E+00  0.00000000000E+00 -0.15543215564E+04  0.15543215564E+04  0.25500000920E-02 0. -1.
    10030    2    1    2    0    0  0.00000000000E+00  0.00000000000E+00  0.79779038269E+03  0.39064334954E+04  0.38241016147E+04 0.  0.
        2    1    3    3  502    0  0.17676850053E+04 -0.55999059369E+03 -0.77666271167E+02  0.18558911048E+04  0.25500000920E-02 0.  1.
       -2    1    3    3    0  502 -0.17676850053E+04  0.55999059369E+03  0.87545665386E+03  0.20505423906E+04  0.25500000920E-02 0. -1.
</event>
<event>
 5   0  0.1648000E-07  0.3794649E+04  0.7818609E-02  0.8047304E-01
        1   -1    0    0  501    0  0.00000000000E+00  0.00000000000E+00  0.15552021228E+04  0.15552021228E+04  0.50400001928E-02 0.  1.
       -1   -1    0    0    0  501  0.00000000000E+00  0.00000000000E+00 -0.23147084936E+04  0.23147084936E+04  0.50400001928E-02 0. -1.
    10030    2    1    2    0    0  0.00000000000E+00  0.00000000000E+00 -0.75950637078E+03  0.38699106164E+04  0.37946486335E+04 0.  0.
        2    1    3    3  502    0  0.16072111745E+02  0.97589210471E+02  0.15525713744E+04  0.15557184319E+04  0.25500000920E-02 0.  1.
       -2    1    3    3    0  502 -0.16072111745E+02 -0.97589210471E+02 -0.23120777452E+04  0.23141921845E+04  0.25500000920E-02 0. -1.
</event>
<event>
 5   0  0.1648000E-07  0.3700612E+04  0.7818609E-02  0.8067826E-01
        1   -1    0    0  501    0  0.00000000000E+00  0.00000000000E+00  0.13146245649E+04  0.13146245649E+04  0.50400001928E-02 0.  1.
       -1   -1    0    0    0  501  0.00000000000E+00  0.00000000000E+00 -0.26042655260E+04  0.26042655260E+04  0.50400001928E-02 0. -1.
    10030    2    1    2    0    0  0.00000000000E+00  0.00000000000E+00 -0.12896409611E+04  0.39188900909E+04  0.37006115354E+04 0.  0.
        2    1    3    3  502    0  0.12559607556E+03  0.25632087175E+03 -0.25808099354E+04  0.25965466848E+04  0.25500000920E-02 0. -1.
       -2    1    3    3    0  502 -0.12559607556E+03 -0.25632087175E+03  0.12911689743E+04  0.13223434061E+04  0.25500000920E-02 0.  1.
</event>
<event>
 5   0  0.5202788E-07  0.3791694E+04  0.7818609E-02  0.8047940E-01
        2   -1    0    0  501    0  0.00000000000E+00  0.00000000000E+00  0.17509358322E+04  0.17509358322E+04  0.25500000920E-02 0. -1.
       -2   -1    0    0    0  501  0.00000000000E+00  0.00000000000E+00 -0.20527511930E+04  0.20527511930E+04  0.25500000920E-02 0.  1.
    10030    2    1    2    0    0  0.00000000000E+00  0.00000000000E+00 -0.30181536079E+03  0.38036870252E+04  0.37916938792E+04 0.  0.
        1    1    3    3  502    0  0.93682017921E+03  0.33891257824E+03  0.14671857989E+04  0.17734508599E+04  0.50400001928E-02 0. -1.
       -1    1    3    3    0  502 -0.93682017921E+03 -0.33891257824E+03 -0.17690011597E+04  0.20302361653E+04  0.50400001928E-02 0.  1.
</event>
<event>
 5   0  0.1648000E-07  0.3820904E+04  0.7818609E-02  0.8041684E-01
        1   -1    0    0  501    0  0.00000000000E+00  0.00000000000E+00  0.25185116086E+04  0.25185116086E+04  0.50400001928E-02 0.  1.
       -1   -1    0    0    0  501  0.00000000000E+00  0.00000000000E+00 -0.14491997301E+04  0.14491997302E+04  0.50400001928E-02 0. -1.
    10030    2    1    2    0    0  0.00000000000E+00  0.00000000000E+00  0.10693118785E+04  0.39677113388E+04  0.38209037379E+04 0.  0.
        3    1    3    3  502    0  0.14965250315E+04 -0.89594988947E+03 -0.27472271287E+03  0.17657253335E+04  0.10100000352E+00 0. -1.
       -3    1    3    3    0  502 -0.14965250315E+04  0.89594988947E+03  0.13440345913E+04  0.22019860052E+04  0.10100000352E+00 0.  1.
</event>
<event>
 5   0  0.5202788E-07  0.3798071E+04  0.7818609E-02  0.8046569E-01
        2   -1    0    0  501    0  0.00000000000E+00  0.00000000000E+00  0.19741241937E+04  0.19741241937E+04  0.25500000920E-02 0.  1.
       -2   -1    0    0    0  501  0.00000000000E+00  0.00000000000E+00 -0.18268033051E+04  0.18268033051E+04  0.25500000920E-02 0. -1.
    10030    2    1    2    0    0  0.00000000000E+00  0.00000000000E+00  0.14732088858E+03  0.38009274988E+04  0.37980714062E+04 0.  0.
        1    1    3    3  502    0  0.18200389098E+04  0.10763556343E+03  0.60529391602E+03  0.19210694346E+04  0.50400001928E-02 0.  1.
       -1    1    3    3    0  502 -0.18200389098E+04 -0.10763556343E+03 -0.45797302744E+03  0.18798580642E+04  0.50400001928E-02 0. -1.
</event>
<event>
 5   0  0.1648000E-07  0.3735362E+04  0.7818609E-02  0.8060170E-01
       -1   -1    0    0    0  501  0.00000000000E+00  0.00000000000E+00  0.20172902458E+04  0.20172902458E+04  0.50400001928E-02 0.  1.
        1   -1    0    0  501    0  0.00000000000E+00  0.00000000000E+00 -0.17291677223E+04  0.17291677223E+04  0.50400001928E-02 0. -1.
    10030    2    1    2    0    0  0.00000000000E+00  0.00000000000E+00  0.28812252345E+03  0.37464579681E+04  0.37353624614E+04 0.  0.
        2    1    3    3  502    0 -0.14268194918E+04 -0.11961523335E+04 -0.34773968980E+01  0.18618824773E+04  0.25500000920E-02 0.  1.
       -2    1    3    3    0  502  0.14268194918E+04  0.11961523335E+04  0.29159992035E+03  0.18845754908E+04  0.25500000920E-02 0. -1.
</event>
<event>
 5   0  0.1648000E-07  0.3826567E+04  0.7818609E-02  0.8040478E-01
       -1   -1    0    0    0  501  0.00000000000E+00  0.00000000000E+00  0.15543767040E+04  0.15543767040E+04  0.50400001928E-02 0. -1.
        1   -1    0    0  501    0  0.00000000000E+00  0.00000000000E+00 -0.23550621277E+04  0.23550621277E+04  0.50400001928E-02 0.  1.
    10030    2    1    2    0    0  0.00000000000E+00  0.00000000000E+00 -0.80068542370E+03  0.39094388316E+04  0.38265669771E+04 0.  0.
        4    1    3    3  502    0  0.58145261394E+03  0.15955670753E+04 -0.13007527490E+04  0.21391308424E+04  0.12699999809E+01 0.  1.
       -4    1    3    3    0  502 -0.58145261394E+03 -0.15955670753E+04  0.50006732532E+03  0.17703079892E+04  0.12699999809E+01 0. -1.
</event>
<event>
 5   0  0.5325362E-07  0.3766006E+04  0.7818609E-02  0.8053490E-01
       -2   -1    0    0    0  501  0.00000000000E+00  0.00000000000E+00  0.24660455911E+04  0.24660455911E+04  0.25500000920E-02 0. -1.
        2   -1    0    0  501    0  0.00000000000E+00  0.00000000000E+00 -0.14378079832E+04  0.14378079832E+04  0.25500000920E-02 0.  1.
    10030    2    1    2    0    0  0.00000000000E+00  0.00000000000E+00  0.10282376079E+04  0.39038535743E+04  0.37660058618E+04 0.  0.
        4    1    3    3  502    0 -0.54768047693E+03  0.45450528802E+03  0.23212512628E+04  0.24279081531E+04  0.12699999809E+01 0. -1.
       -4    1    3    3    0  502  0.54768047693E+03 -0.45450528802E+03 -0.12930136550E+04  0.14759454212E+04  0.12699999809E+01 0.  1.
</event>
<event>
 5   0  0.5158266E-07  0.3745660E+04  0.7818609E-02  0.8057918E-01
        2   -1    0    0  501    0  0.00000000000E+00  0.00000000000E+00  0.19307356341E+04  0.19307356341E+04  0.25500000920E-02 0. -1.
       -2   -1    0    0    0  501  0.00000000000E+00  0.00000000000E+00 -0.18166608189E+04  0.18166608189E+04  0.25500000920E-02 0.  1.
    10030    2    1    2    0    0  0.00000000000E+00  0.00000000000E+00  0.11407481526E+03  0.37473964530E+04  0.37456597700E+04 0.  0.
        2    1    3    3  502    0 -0.66466141491E+03 -0.46206936016E+03 -0.16325940216E+04  0.18222640120E+04  0.25500000920E-02 0.  1.
       -2    1    3    3    0  502  0.66466141491E+03  0.46206936016E+03  0.17466688368E+04  0.19251324411E+04  0.25500000920E-02 0. -1.
</event>
<event>
 5   0  0.1656617E-07  0.3775898E+04  0.7818609E-02  0.8051347E-01
       -1   -1    0    0    0  501  0.00000000000E+00  0.00000000000E+00  0.13196541821E+04  0.13196541821E+04  0.50400001928E-02 0.  1.
        1   -1    0    0  501    0  0.00000000000E+00  0.00000000000E+00 -0.27009736624E+04  0.27009736624E+04  0.50400001928E-02 0. -1.
    10030    2    1    2    0    0  0.00000000000E+00  0.00000000000E+00 -0.13813194803E+04  0.40206278445E+04  0.37758978743E+04 0.  0.
        5    1    3    3  502    0  0.13696483479E+04 -0.99229073624E+03 -0.15839309424E+04  0.23172045275E+04  0.46999998093E+01 0. -1.
       -5    1    3    3    0  502 -0.13696483479E+04  0.99229073624E+03  0.20261146215E+03  0.17034233169E+04  0.46999998093E+01 0.  1.
</event>
<event>
 5   0  0.5134434E-07  0.3573307E+04  0.7818609E-02  0.8096634E-01
       -2   -1    0    0    0  501  0.00000000000E+00  0.00000000000E+00  0.14372871170E+04  0.14372871170E+04  0.25500000920E-02 0. -1.
        2   -1    0    0  501    0  0.00000000000E+00  0.00000000000E+00 -0.22209412680E+04  0.22209412680E+04  0.25500000920E-02 0.  1.
    10030    2    1    2    0    0  0.00000000000E+00  0.00000000000E+00 -0.78365415097E+03  0.36582283849E+04  0.35733067442E+04 0.  0.
        5    1    3    3  502    0  0.14993343835E+04  0.63301890129E+03 -0.11464969261E+04  0.19907771886E+04  0.46999998093E+01 0.  1.
       -5    1    3    3    0  502 -0.14993343835E+04 -0.63301890129E+03  0.36284277515E+03  0.16674511964E+04  0.46999998093E+01 0. -1.
</event>
<event>
 5   0  0.5158266E-07  0.3740151E+04  0.7818609E-02  0.8059122E-01
        2   -1    0    0  501    0  0.00000000000E+00  0.00000000000E+00  0.24785458286E+04  0.24785458286E+04  0.25500000920E-02 0. -1.
       -2   -1    0    0    0  501  0.00000000000E+00  0.00000000000E+00 -0.14109815844E+04  0.14109815844E+04  0.25500000920E-02 0.  1.
    10030    2    1    2    0    0  0.00000000000E+00  0.00000000000E+00  0.10675642441E+04  0.38895274130E+04  0.37401510773E+04 0.  0.
        2    1    3    3  502    0  0.71235323759E+03 -0.15513961521E+04  0.13277569203E+04  0.21626871237E+04  0.25500000920E-02 0. -1.
       -2    1    3    3    0  502 -0.71235323759E+03  0.15513961521E+04 -0.26019267614E+03  0.17268402892E+04  0.25500000920E-02 0.  1.
</event>
<event>
 5   0  0.5134434E-07  0.3464352E+04  0.7818609E-02  0.8122290E-01
       -2   -1    0    0    0  501  0.00000000000E+00  0.00000000000E+00  0.12851400367E+04  0.12851400367E+04  0.25500000920E-02 0. -1.
        2   -1    0    0  501    0  0.00000000000E+00  0.00000000000E+00 -0.23347139014E+04  0.23347139014E+04  0.25500000920E-02 0.  1.
    10030    2    1    2    0    0  0.00000000000E+00  0.00000000000E+00 -0.10495738647E+04  0.36198539380E+04  0.34643523544E+04 0.  0.
        5    1    3    3  502    0  0.89860655160E+03  0.17850893799E+03  0.10112501605E+04  0.13645541956E+04  0.46999998093E+01 0. -1.
       -5    1    3    3    0  502 -0.89860655160E+03 -0.17850893799E+03 -0.20608240252E+04  0.22552997425E+04  0.46999998093E+01 0.  1.
</event>
<event>
 5   0  0.1648000E-07  0.3705299E+04  0.7818609E-02  0.8066789E-01
       -1   -1    0    0    0  501  0.00000000000E+00  0.00000000000E+00  0.16363641462E+04  0.16363641462E+04  0.50400001928E-02 0. -1.
        1   -1    0    0  501    0  0.00000000000E+00  0.00000000000E+00 -0.20975220391E+04  0.20975220391E+04  0.50400001928E-02 0.  1.
    10030    2    1    2    0    0  0.00000000000E+00  0.00000000000E+00 -0.46115789296E+03  0.37338861853E+04  0.37052988331E+04 0.  0.
        3    1    3    3  502    0 -0.64708876005E+03 -0.11849971835E+04  0.10478172547E+04  0.17090533046E+04  0.10100000352E+00 0. -1.
       -3    1    3    3    0  502  0.64708876005E+03  0.11849971835E+04 -0.15089751477E+04  0.20248328807E+04  0.10100000352E+00 0.  1.
</event>
<event>
 5   0  0.5202788E-07  0.3799850E+04  0.7818609E-02  0.8046187E-01
       -2   -1    0    0    0  501  0.00000000000E+00  0.00000000000E+00  0.17422480794E+04  0.17422480794E+04  0.25500000920E-02 0. -1.
        2   -1    0    0  501    0  0.00000000000E+00  0.00000000000E+00 -0.20718725119E+04  0.20718725119E+04  0.25500000920E-02 0.  1.
    10030    2    1    2    0    0  0.00000000000E+00  0.00000000000E+00 -0.32962443246E+03  0.38141205913E+04  0.37998504732E+04 0.  0.
        1    1    3    3  502    0  0.11598649976E+04  0.12498489931E+04  0.67637232632E+03  0.18343633343E+04  0.50400001928E-02 0. -1.
       -1    1    3    3    0  502 -0.11598649976E+04 -0.12498489931E+04 -0.10059967588E+04  0.19797572571E+04  0.50400001928E-02 0.  1.
</event>
<event>
 5   0  0.1648000E-07  0.3119669E+04  0.7818609E-02  0.8210361E-01
        1   -1    0    0  501    0  0.00000000000E+00  0.00000000000E+00  0.11979159750E+04  0.11979159750E+04  0.50400001928E-02 0. -1.
       -1   -1    0    0    0  501  0.00000000000E+00  0.00000000000E+00 -0.20310965863E+04  0.20310965863E+04  0.50400001928E-02 0.  1.
    10030    2    1    2    0    0  0.00000000000E+00  0.00000000000E+00 -0.83318061122E+03  0.32290125613E+04  0.31196686026E+04 0.  0.
        3    1    3    3  502    0 -0.11652420798E+04 -0.44602404431E+02 -0.14889062395E+04  0.18911954629E+04  0.10100000352E+00 0.  1.
       -3    1    3    3    0  502  0.11652420798E+04  0.44602404431E+02  0.65572562825E+03  0.13378170984E+04  0.10100000352E+00 0. -1.
</event>
<event>
 5   0  0.5158266E-07  0.3904166E+04  0.7818609E-02  0.8024163E-01
        2   -1    0    0  501    0  0.00000000000E+00  0.00000000000E+00  0.11841316558E+04  0.11841316558E+04  0.25500000920E-02 0.  1.
       -2   -1    0    0    0  501  0.00000000000E+00  0.00000000000E+00 -0.32180773922E+04  0.32180773922E+04  0.25500000920E-02 0. -1.
    10030    2    1    2    0    0  0.00000000000E+00  0.00000000000E+00 -0.20339457364E+04  0.44022090480E+04  0.39041656270E+04 0.  0.
        2    1    3    3  502    0 -0.17399494481E+04  0.62897101080E+02 -0.20123325593E+04  0.26609889997E+04  0.25500000920E-02 0.  1.
       -2    1    3    3    0  502  0.17399494481E+04 -0.62897101080E+02 -0.21613177140E+02  0.17412200483E+04  0.25500000920E-02 0. -1.
</event>
<event>
 5   0  0.5132561E-07  0.3661801E+04  0.7818609E-02  0.8076480E-01
        2   -1    0    0  501    0  0.00000000000E+00  0.00000000000E+00  0.22443824323E+04  0.22443824323E+04  0.25500000920E-02 0. -1.
       -2   -1    0    0    0  501  0.00000000000E+00  0.00000000000E+00 -0.14935945127E+04  0.14935945127E+04  0.25500000920E-02 0.  1.
    10030    2    1    2    0    0  0.00000000000E+00  0.00000000000E+00  0.75078791960E+03  0.37379769449E+04  0.36618013519E+04 0.  0.
        3    1    3    3  502    0  0.13208179483E+03  0.17939315125E+04  0.72390715077E+03  0.19389887687E+04  0.10100000352E+00 0.  1.
       -3    1    3    3    0  502 -0.13208179483E+03 -0.17939315125E+04  0.26880768834E+02  0.17989881762E+04  0.10100000352E+00 0. -1.
</event>
<event>
 5   0  0.5202788E-07  0.3772314E+04  0.7818609E-02  0.8052122E-01
       -2   -1    0    0    0  501  0.00000000000E+00  0.00000000000E+00  0.14415446381E+04  0.14415446381E+04  0.25500000920E-02 0.  1.
        2   -1    0    0  501    0  0.00000000000E+00  0.00000000000E+00 -0.24679004797E+04  0.24679004797E+04  0.25500000920E-02 0. -1.
    10030    2    1    2    0    0  0.00000000000E+00  0.00000000000E+00 -0.10263558416E+04  0.39094451178E+04  0.37723142520E+04 0.  0.
        1    1    3    3  502    0  0.14392931716E+03  0.50987875047E+03 -0.23892029698E+04  0.24472398370E+04  0.50400001928E-02 0. -1.
       -1    1    3    3    0  502 -0.14392931716E+03 -0.50987875047E+03  0.13628471282E+04  0.14622052809E+04  0.50400001928E-02 0.  1.
</event>
<event>
 5   0  0.5134434E-07  0.3603642E+04  0.7818609E-02  0.8089658E-01
       -2   -1    0    0    0  501  0.00000000000E+00  0.00000000000E+00  0.14704267612E+04  0.14704267612E+04  0.25500000920E-02 0.  1.
        2   -1    0    0  501    0  0.00000000000E+00  0.00000000000E+00 -0.22079027653E+04  0.22079027653E+04  0.25500000920E-02 0. -1.
    10030    2    1    2    0    0  0.00000000000E+00  0.00000000000E+00 -0.73747600404E+03  0.36783295265E+04  0.36036422199E+04 0.  0.
        5    1    3    3  502    0  0.12618252103E+03 -0.44916719051E+02 -0.22028081078E+04  0.22068813267E+04  0.46999998093E+01 0. -1.
       -5    1    3    3    0  502 -0.12618252103E+03  0.44916719051E+02  0.14653321038E+04  0.14714481998E+04  0.46999998093E+01 0.  1.
</event>
<event>
 5   0  0.1648000E-07  0.3820051E+04  0.7818609E-02  0.8041866E-01
        1   -1    0    0  501    0  0.00000000000E+00  0.00000000000E+00  0.26106638042E+04  0.26106638042E+04  0.50400001928E-02 0.  1.
       -1   -1    0    0    0  501  0.00000000000E+00  0.00000000000E+00 -0.13974210241E+04  0.13974210241E+04  0.50400001928E-02 0. -1.
    10030    2    1    2    0    0  0.00000000000E+00  0.00000000000E+00  0.12132427802E+04  0.40080848283E+04  0.38200505163E+04 0.  0.
        4    1    3    3  502    0  0.30809267645E+03  0.69964764393E+03  0.24431413890E+04  0.25599549571E+04  0.12699999809E+01 0.  1.
       -4    1    3    3    0  502 -0.30809267645E+03 -0.69964764393E+03 -0.12298986088E+04  0.14481298712E+04  0.12699999809E+01 0. -1.
</event>
<event>
 5   0  0.1656617E-07  0.3766787E+04  0.7818609E-02  0.8053320E-01
        1   -1    0    0  501    0  0.00000000000E+00  0.00000000000E+00  0.27331900576E+04  0.27331900576E+04  0.50400001928E-02 0.  1.
       -1   -1    0    0    0  501  0.00000000000E+00  0.00000000000E+00 -0.12978134982E+04  0.12978134982E+04  0.50400001928E-02 0. -1.
    10030    2    1    2    0    0  0.00000000000E+00  0.00000000000E+00  0.14353765594E+04  0.40310035558E+04  0.37667869331E+04 0.  0.
        5    1    3    3  502    0 -0.46791089241E+03  0.17916321528E+04  0.34967318888E+03  0.18844574294E+04  0.46999998093E+01 0. -1.
       -5    1    3    3    0  502  0.46791089241E+03 -0.17916321528E+04  0.10857033705E+04  0.21465461264E+04  0.46999998093E+01 0.  1.
</event>
<event>
 5   0  0.5325362E-07  0.3453302E+04  0.7818609E-02  0.8124947E-01
       -2   -1    0    0    0  501  0.00000000000E+00  0.00000000000E+00  0.32378815585E+04  0.32378815585E+04  0.25500000920E-02 0.  1.
        2   -1    0    0  501    0  0.00000000000E+00  0.00000000000E+00 -0.92076365185E+03  0.92076365185E+03  0.25500000920E-02 0. -1.
    10030    2    1    2    0    0  0.00000000000E+00  0.00000000000E+00  0.23171179067E+04  0.41586452104E+04  0.34533019840E+04 0.  0.
        4    1    3    3  502    0 -0.15682353255E+04  0.60202508564E+03  0.67757258083E+03  0.18113261592E+04  0.12699999809E+01 0. -1.
       -4    1    3    3    0  502  0.15682353255E+04 -0.60202508564E+03  0.16395453259E+04  0.23473190512E+04  0.12699999809E+01 0.  1.
</event>
<event>
 5   0  0.1648000E-07  0.3446475E+04  0.7818609E-02  0.8126593E-01
       -1   -1    0    0    0  501  0.00000000000E+00  0.00000000000E+00  0.11436901227E+04  0.11436901227E+04  0.50400001928E-02 0. -1.
        1   -1    0    0  501    0  0.00000000000E+00  0.00000000000E+00 -0.25964618641E+04  0.25964618641E+04  0.50400001928E-02 0.  1.
    10030    2    1    2    0    0  0.00000000000E+00  0.00000000000E+00 -0.14527717415E+04  0.37401519868E+04  0.34464751779E+04 0.  0.
        4    1    3    3  502    0 -0.25632645963E+03 -0.52335152867E+02 -0.25747849402E+04  0.25880419864E+04  0.12699999809E+01 0.  1.
       -4    1    3    3    0  502  0.25632645963E+03  0.52335152867E+02  0.11220131987E+04  0.11521100005E+04  0.12699999809E+01 0. -1.
</event>
<event>
 5   0  0.1648000E-07  0.3788323E+04  0.7818609E-02  0.8048665E-01
       -1   -1    0    0    0  501  0.00000000000E+00  0.00000000000E+00  0.22521857582E+04  0.22521857582E+04  0.50400001928E-02 0. -1.
        1   -1    0    0  501    0  0.00000000000E+00  0.00000000000E+00 -0.15930517998E+04  0.15930517998E+04  0.50400001928E-02 0.  1.
    10030    2    1    2    0    0  0.00000000000E+00  0.00000000000E+00  0.65913395842E+03  0.38452375579E+04  0.37883234157E+04 0.  0.
        1    1    3    3  502    0  0.16968331022E+04  0.83867810224E+03  0.25619657466E+03  0.19100419422E+04  0.50400001928E-02 0.  1.
       -1    1    3    3    0  502 -0.16968331022E+04 -0.83867810224E+03  0.40293738376E+03  0.19351956158E+04  0.50400001928E-02 0. -1.
</event>
<event>
 5   0  0.5202788E-07  0.3306158E+04  0.7818609E-02  0.8161330E-01
       -2   -1    0    0    0  501  0.00000000000E+00  0.00000000000E+00  0.19645121896E+04  0.19645121896E+04  0.25500000920E-02 0.  1.
        2   -1    0    0  501    0  0.00000000000E+00  0.00000000000E+00 -0.13910170986E+04  0.13910170986E+04  0.25500000920E-02 0. -1.
    10030    2    1    2    0    0  0.00000000000E+00  0.00000000000E+00  0.57349509095E+03  0.33555292882E+04  0.33061579189E+04 0.  0.
        1    1    3    3  502    0  0.11213881218E+03  0.10099643888E+03 -0.13840108186E+04  0.13922145452E+04  0.50400001928E-02 0. -1.
       -1    1    3    3    0  502 -0.11213881218E+03 -0.10099643888E+03  0.19575059096E+04  0.19633147430E+04  0.50400001928E-02 0.  1.
</event>
<event>
 5   0  0.1656617E-07  0.3814929E+04  0.7818609E-02  0.8042959E-01
       -1   -1    0    0    0  501  0.00000000000E+00  0.00000000000E+00  0.14462850591E+04  0.14462850591E+04  0.50400001928E-02 0. -1.
        1   -1    0    0  501    0  0.00000000000E+00  0.00000000000E+00 -0.25157006812E+04  0.25157006812E+04  0.50400001928E-02 0.  1.
    10030    2    1    2    0    0  0.00000000000E+00  0.00000000000E+00 -0.10694156221E+04  0.39619857403E+04  0.38149287325E+04 0.  0.
        5    1    3    3  502    0  0.97956722396E+03  0.13519078073E+04 -0.14928724328E+04  0.22396198018E+04  0.46999998093E+01 0. -1.
       -5    1    3    3    0  502 -0.97956722396E+03 -0.13519078073E+04  0.42345681078E+03  0.17223659386E+04  0.46999998093E+01 0.  1.
</event>
<event>
 5   0  0.5325362E-07  0.2734068E+04  0.7818609E-02  0.8324035E-01
        2   -1    0    0  501    0  0.00000000000E+00  0.00000000000E+00  0.21797802944E+04  0.21797802944E+04  0.25500000920E-02 0.  1.
       -2   -1    0    0    0  501  0.00000000000E+00  0.00000000000E+00 -0.85732568280E+03  0.85732568280E+03  0.25500000920E-02 0. -1.
    10030    2    1    2    0    0  0.00000000000E+00  0.00000000000E+00  0.13224546116E+04  0.30371059772E+04  0.27340677601E+04 0.  0.
        4    1    3    3  502    0 -0.16601515637E+03 -0.84386098023E+03  0.18416030244E+04  0.20325269244E+04  0.12699999809E+01 0.  1.
       -4    1    3    3    0  502  0.16601515637E+03  0.84386098023E+03 -0.51914841273E+03  0.10045790529E+04  0.12699999809E+01 0. -1.
</event>
<event>
 5   0  0.5202788E-07  0.3748768E+04  0.7818609E-02  0.8057239E-01
       -2   -1    0    0    0  501  0.00000000000E+00  0.00000000000E+00  0.31909065381E+04  0.31909065381E+04  0.25500000920E-02 0. -1.
        2   -1    0    0  501    0  0.00000000000E+00  0.00000000000E+00 -0.11010397967E+04  0.11010397967E+04  0.25500000920E-02 0.  1.
    10030    2    1    2    0    0  0.00000000000E+00  0.00000000000E+00  0.20898667414E+04  0.42919463347E+04  0.37487678434E+04 0.  0.
        1    1    3    3  502    0  0.15792316970E+04 -0.98041627476E+03  0.76890613818E+03  0.20115679144E+04  0.50400001928E-02 0.  1.
       -1    1    3    3    0  502 -0.15792316970E+04  0.98041627476E+03  0.13209606032E+04  0.22803784204E+04  0.50400001928E-02 0. -1.
</event>
<event>
 5   0  0.5132561E-07  0.3762818E+04  0.7818609E-02  0.8054181E-01
        2   -1    0    0  501    0  0.00000000000E+00  0.00000000000E+00  0.19988167332E+04  0.19988167332E+04  0.25500000920E-02 0.  1.
       -2   -1    0    0    0  501  0.00000000000E+00  0.00000000000E+00 -0.17708973422E+04  0.17708973422E+04  0.25500000920E-02 0. -1.
    10030    2    1    2    0    0  0.00000000000E+00  0.00000000000E+00  0.22791939101E+03  0.37697140754E+04  0.37628176891E+04 0.  0.
        3    1    3    3  502    0 -0.59364962069E+03 -0.15270186249E+04 -0.81266439200E+03  0.18288327363E+04  0.10100000352E+00 0. -1.
       -3    1    3    3    0  502  0.59364962069E+03  0.15270186249E+04  0.10405837830E+04  0.19408813392E+04  0.10100000352E+00 0.  1.
</event>
<event>
 5   0  0.5158266E-07  0.3866514E+04  0.7818609E-02  0.8032030E-01
       -2   -1    0    0    0  501  0.00000000000E+00  0.00000000000E+00  0.18455213690E+04  0.18455213690E+04  0.25500000920E-02 0.  1.
        2   -1    0    0  501    0  0.00000000000E+00  0.00000000000E+00 -0.20251631393E+04  0.20251631393E+04  0.25500000920E-02 0. -1.
    10030    2    1    2    0    0  0.00000000000E+00  0.00000000000E+00 -0.17964177026E+03  0.38706845084E+04  0.38665135972E+04 0.  0.
        2    1    3    3  502    0 -0.52018001119E+03  0.12736201856E+04  0.12698733507E+04  0.18722376847E+04  0.25500000920E-02 0.  1.
       -2    1    3    3    0  502  0.52018001119E+03 -0.12736201856E+04 -0.14495151209E+04  0.19984468237E+04  0.25500000920E-02 0. -1.
</event>
<event>
 5   0  0.5202788E-07  0.3790780E+04  0.7818609E-02  0.8048136E-01
       -2   -1    0    0    0  501  0.00000000000E+00  0.00000000000E+00  0.25114474278E+04  0.25114474278E+04  0.25500000920E-02 0.  1.
        2   -1    0    0  501    0  0.00000000000E+00  0.00000000000E+00 -0.14304512480E+04  0.14304512480E+04  0.25500000920E-02 0. -1.
    10030    2    1    2    0    0  0.00000000000E+00  0.00000000000E+00  0.10809961798E+04  0.39418986758E+04  0.37907799236E+04 0.  0.
        1    1    3    3  502    0  0.84336322452E+03 -0.13381798924E+03 -0.12190977018E+04  0.14884112299E+04  0.50400001928E-02 0. -1.
       -1    1    3    3    0  502 -0.84336322452E+03  0.13381798924E+03  0.23000938816E+04  0.24534874459E+04  0.50400001928E-02 0.  1.
</event>
<event>
 5   0  0.5134434E-07  0.3800415E+04  0.7818609E-02  0.8046066E-01
        2   -1    0    0  501    0  0.00000000000E+00  0.00000000000E+00  0.16895050280E+04  0.16895050280E+04  0.25500000920E-02 0. -1.
       -2   -1    0    0    0  501  0.00000000000E+00  0.00000000000E+00 -0.21371876267E+04  0.21371876267E+04  0.25500000920E-02 0.  1.
    10030    2    1    2    0    0  0.00000000000E+00  0.00000000000E+00 -0.44768259879E+03  0.38266926547E+04  0.38004153673E+04 0.  0.
        5    1    3    3  502    0  0.31490593901E+03 -0.96671103694E+03 -0.18402669131E+04  0.21024510412E+04  0.46999998093E+01 0.  1.
       -5    1    3    3    0  502 -0.31490593901E+03  0.96671103694E+03  0.13925843143E+04  0.17242416135E+04  0.46999998093E+01 0. -1.
</event>
<event>
 5   0  0.5158266E-07  0.3214675E+04  0.7818609E-02  0.8184952E-01
       -2   -1    0    0    0  501  0.00000000000E+00  0.00000000000E+00  0.14038494780E+04  0.14038494780E+04  0.25500000920E-02 0.  1.
        2   -1    0    0  501    0  0.00000000000E+00  0.00000000000E+00 -0.18403209606E+04  0.18403209606E+04  0.25500000920E-02 0. -1.
    10030    2    1    2    0    0  0.00000000000E+00  0.00000000000E+00 -0.43647148258E+03  0.32441704386E+04  0.32146748637E+04 0.  0.
        2    1    3    3  502    0 -0.10902621046E+04 -0.10441409492E+04  0.33876305412E+03  0.15471464654E+04  0.25500000920E-02 0.  1.
       -2    1    3    3    0  502  0.10902621046E+04  0.10441409492E+04 -0.77523453670E+03  0.16970239732E+04  0.25500000920E-02 0. -1.
</event>
<event>
 5   0  0.1648000E-07  0.3707012E+04  0.7818609E-02  0.8066410E-01
        1   -1    0    0  501    0  0.00000000000E+00  0.00000000000E+00  0.28033356860E+04  0.28033356860E+04  0.50400001928E-02 0. -1.
       -1   -1    0    0    0  501  0.00000000000E+00  0.00000000000E+00 -0.12254989072E+04  0.12254989072E+04  0.50400001928E-02 0.  1.
    10030    2    1    2    0    0  0.00000000000E+00  0.00000000000E+00  0.15778367789E+04  0.40288345932E+04  0.37070121768E+04 0.  0.
        3    1    3    3  502    0  0.34459431344E+03  0.13852228791E+03  0.27624823003E+04  0.27873360283E+04  0.10100000352E+00 0. -1.
       -3    1    3    3    0  502 -0.34459431344E+03 -0.13852228791E+03 -0.11846455214E+04  0.12414985649E+04  0.10100000352E+00 0.  1.
</event>
<event>
 5   0  0.1648000E-07  0.3789964E+04  0.7818609E-02  0.8048312E-01
       -1   -1    0    0    0  501  0.00000000000E+00  0.00000000000E+00  0.25114660273E+04  0.25114660273E+04  0.50400001928E-02 0. -1.
        1   -1    0    0  501    0  0.00000000000E+00  0.00000000000E+00 -0.14298251815E+04  0.14298251815E+04  0.50400001928E-02 0.  1.
    10030    2    1    2    0    0  0.00000000000E+00  0.00000000000E+00  0.10816408458E+04  0.39412912089E+04  0.37899643103E+04 0.  0.
        1    1    3    3  502    0  0.10469942874E+04  0.16750390310E+03 -0.10924639822E+04  0.15224099802E+04  0.50400001928E-02 0.  1.
       -1    1    3    3    0  502 -0.10469942874E+04 -0.16750390310E+03  0.21741048280E+04  0.24188812287E+04  0.50400001928E-02 0. -1.
</event>
<event>
 5   0  0.5158266E-07  0.3808024E+04  0.7818609E-02  0.8044435E-01
       -2   -1    0    0    0  501  0.00000000000E+00  0.00000000000E+00  0.16197679884E+04  0.16197679884E+04  0.25500000920E-02 0.  1.
        2   -1    0    0  501    0  0.00000000000E+00  0.00000000000E+00 -0.22381360780E+04  0.22381360780E+04  0.25500000920E-02 0. -1.
    10030    2    1    2    0    0  0.00000000000E+00  0.00000000000E+00 -0.61836808963E+03  0.38579040663E+04  0.38080237251E+04 0.  0.
        2    1    3    3  502    0 -0.16567311831E+04  0.64058514582E+03  0.38547496902E+03  0.18176079044E+04  0.25500000920E-02 0.  1.
       -2    1    3    3    0  502  0.16567311831E+04 -0.64058514582E+03 -0.10038430587E+04  0.20402961620E+04  0.25500000920E-02 0. -1.
</event>
<event>
 5   0  0.5134434E-07  0.3788291E+04  0.7818609E-02  0.8048672E-01
        2   -1    0    0  501    0  0.00000000000E+00  0.00000000000E+00  0.22382629650E+04  0.22382629650E+04  0.25500000920E-02 0.  1.
       -2   -1    0    0    0  501  0.00000000000E+00  0.00000000000E+00 -0.16029333197E+04  0.16029333197E+04  0.25500000920E-02 0. -1.
    10030    2    1    2    0    0  0.00000000000E+00  0.00000000000E+00  0.63532964530E+03  0.38411962847E+04  0.37882905299E+04 0.  0.
        5    1    3    3  502    0 -0.82328464843E+03  0.13120391675E+04 -0.78775292607E+03  0.17377632612E+04  0.46999998093E+01 0. -1.
       -5    1    3    3    0  502  0.82328464843E+03 -0.13120391675E+04  0.14230825714E+04  0.21034330235E+04  0.46999998093E+01 0.  1.
</event>
<event>
 5   0  0.5134434E-07  0.3852445E+04  0.7818609E-02  0.8034993E-01
       -2   -1    0    0    0  501  0.00000000000E+00  0.00000000000E+00  0.20054844986E+04  0.20054844986E+04  0.25500000920E-02 0. -1.
        2   -1    0    0  501    0  0.00000000000E+00  0.00000000000E+00 -0.18500936106E+04  0.18500936106E+04  0.25500000920E-02 0.  1.
    10030    2    1    2    0    0  0.00000000000E+00  0.00000000000E+00  0.15539088791E+03  0.38555781092E+04  0.38524454867E+04 0.  0.
        5    1    3    3  502    0 -0.15018374000E+04 -0.38529419481E+03 -0.10661883575E+04  0.18816872472E+04  0.46999998093E+01 0.  1.
       -5    1    3    3    0  502  0.15018374000E+04  0.38529419481E+03  0.12215792454E+04  0.19738908620E+04  0.46999998093E+01 0. -1.
</event>
<event>
 5   0  0.1648000E-07  0.2732463E+04  0.7818609E-02  0.8324548E-01
        1   -1    0    0  501    0  0.00000000000E+00  0.00000000000E+00  0.13849839148E+04  0.13849839148E+04  0.50400001928E-02 0. -1.
       -1   -1    0    0    0  501  0.00000000000E+00  0.00000000000E+00 -0.13477329834E+04  0.13477329834E+04  0.50400001928E-02 0.  1.
    10030    2    1    2    0    0  0.00000000000E+00  0.00000000000E+00  0.37250931440E+02  0.27327168982E+04  0.27324629940E+04 0.  0.
        4    1    3    3  502    0  0.11826770996E+04  0.37761318170E+03  0.58900297703E+03  0.13741335295E+04  0.12699999809E+01 0. -1.
       -4    1    3    3    0  502 -0.11826770996E+04 -0.37761318170E+03 -0.55175204559E+03  0.13585833687E+04  0.12699999809E+01 0.  1.
</event>
<event>
 5   0  0.1656617E-07  0.3866349E+04  0.7818609E-02  0.8032065E-01
        1   -1    0    0  501    0  0.00000000000E+00  0.00000000000E+00  0.22006520642E+04  0.22006520642E+04  0.50400001928E-02 0.  1.
       -1   -1    0    0    0  501  0.00000000000E+00  0.00000000000E+00 -0.16982076454E+04  0.16982076454E+04  0.50400001928E-02 0. -1.
    10030    2    1    2    0    0  0.00000000000E+00  0.00000000000E+00  0.50244441881E+03  0.38988597096E+04  0.38663492653E+04 0.  0.
        5    1    3    3  502    0 -0.51626803682E+03 -0.10504963987E+04 -0.13002420423E+04  0.17494933061E+04  0.46999998093E+01 0. -1.
       -5    1    3    3    0  502  0.51626803682E+03  0.10504963987E+04  0.18026864611E+04  0.21493664035E+04  0.46999998093E+01 0.  1.
</event>
<event>
 5   0  0.5202788E-07  0.3280274E+04  0.7818609E-02  0.8167933E-01
        2   -1    0    0  501    0  0.00000000000E+00  0.00000000000E+00  0.10844670459E+04  0.10844670459E+04  0.25500000920E-02 0. -1.
       -2   -1    0    0    0  501  0.00000000000E+00  0.00000000000E+00 -0.24805267606E+04  0.24805267606E+04  0.25500000920E-02 0.  1.
    10030    2    1    2    0    0  0.00000000000E+00  0.00000000000E+00 -0.13960597147E+04  0.35649938065E+04  0.32802740912E+04 0.  0.
        1    1    3    3  502    0  0.29927742421E+03  0.13884074047E+04 -0.15894737941E+04  0.21315883843E+04  0.50400001928E-02 0.  1.
       -1    1    3    3    0  502 -0.29927742421E+03 -0.13884074047E+04  0.19341407939E+03  0.14334054222E+04  0.50400001928E-02 0. -1.
</event>
<event>
 5   0  0.5325362E-07  0.3321328E+04  0.7818609E-02  0.8157490E-01
       -2   -1    0    0    0  501  0.00000000000E+00  0.00000000000E+00  0.14306018472E+04  0.14306018472E+04  0.25500000920E-02 0. -1.
        2   -1    0    0  501    0  0.00000000000E+00  0.00000000000E+00 -0.19277231228E+04  0.19277231228E+04  0.25500000920E-02 0.  1.
    10030    2    1    2    0    0  0.00000000000E+00  0.00000000000E+00 -0.49712127552E+03  0.33583249700E+04  0.33213276023E+04 0.  0.
        4    1    3    3  502    0  0.16742339117E+02  0.26048487389E+03 -0.19068507111E+04  0.19246334516E+04  0.12699999809E+01 0.  1.
       -4    1    3    3    0  502 -0.16742339117E+02 -0.26048487389E+03  0.14097294356E+04  0.14336915184E+04  0.12699999809E+01 0. -1.
</event>
<event>
 5   0  0.5158266E-07  0.3794795E+04  0.7818609E-02  0.8047273E-01
        2   -1    0    0  501    0  0.00000000000E+00  0.00000000000E+00  0.23390421461E+04  0.23390421461E+04  0.25500000920E-02 0. -1.
       -2   -1    0    0    0  501  0.00000000000E+00  0.00000000000E+00 -0.15391420331E+04  0.15391420331E+04  0.25500000920E-02 0.  1.
    10030    2    1    2    0    0  0.00000000000E+00  0.00000000000E+00  0.79990011301E+03  0.38781841792E+04  0.37947954276E+04 0.  0.
        2    1    3    3  502    0 -0.11205941975E+04  0.85352291596E+03  0.16990582891E+04  0.22070414118E+04  0.25500000920E-02 0. -1.
       -2    1    3    3    0  502  0.11205941975E+04 -0.85352291596E+03 -0.89915817607E+03  0.16711427675E+04  0.25500000920E-02 0.  1.
</event>
<event>
 5   0  0.5158266E-07  0.3814444E+04  0.7818609E-02  0.8043062E-01
       -2   -1    0    0    0  501  0.00000000000E+00  0.00000000000E+00  0.24994499784E+04  0.24994499784E+04  0.25500000920E-02 0.  1.
        2   -1    0    0  501    0  0.00000000000E+00  0.00000000000E+00 -0.14553184113E+04  0.14553184113E+04  0.25500000920E-02 0. -1.
    10030    2    1    2    0    0  0.00000000000E+00  0.00000000000E+00  0.10441315671E+04  0.39547683897E+04  0.38144439026E+04 0.  0.
        2    1    3    3  502    0  0.14534693015E+04  0.63447913845E+03  0.16204535238E+04  0.22673787532E+04  0.25500000920E-02 0.  1.
       -2    1    3    3    0  502 -0.14534693015E+04 -0.63447913845E+03 -0.57632195673E+03  0.16873896365E+04  0.25500000920E-02 0. -1.
</event>
<event>
 5   0  0.1648000E-07  0.3791434E+04  0.7818609E-02  0.8047996E-01
       -1   -1    0    0    0  501  0.00000000000E+00  0.00000000000E+00  0.14101972742E+04  0.14101972742E+04  0.50400001928E-02 0.  1.
        1   -1    0    0  501    0  0.00000000000E+00  0.00000000000E+00 -0.25483973707E+04  0.25483973707E+04  0.50400001928E-02 0. -1.
    10030    2    1    2    0    0  0.00000000000E+00  0.00000000000E+00 -0.11382000965E+04  0.39585946449E+04  0.37914340431E+04 0.  0.
        2    1    3    3  502    0 -0.24695582231E+03  0.18729028428E+04 -0.73415460274E+03  0.20267548489E+04  0.25500000920E-02 0. -1.
       -2    1    3    3    0  502  0.24695582231E+03 -0.18729028428E+04 -0.40404549377E+03  0.19318397961E+04  0.25500000920E-02 0.  1.
</event>
<event>
 5   0  0.1648000E-07  0.3542550E+04  0.7818609E-02  0.8103780E-01
        1   -1    0    0  501    0  0.00000000000E+00  0.00000000000E+00  0.22755884162E+04  0.22755884162E+04  0.50400001928E-02 0. -1.
       -1   -1    0    0    0  501  0.00000000000E+00  0.00000000000E+00 -0.13787266919E+04  0.13787266919E+04  0.50400001928E-02 0.  1.
    10030    2    1    2    0    0  0.00000000000E+00  0.00000000000E+00  0.89686172430E+03  0.36543151082E+04  0.35425496408E+04 0.  0.
        3    1    3    3  502    0  0.12729161750E+03  0.64494202469E+03  0.21450901674E+04  0.22435608321E+04  0.10100000352E+00 0. -1.
       -3    1    3    3    0  502 -0.12729161750E+03 -0.64494202469E+03 -0.12482284431E+04  0.14107542760E+04  0.10100000352E+00 0.  1.
</event>
<event>
 5   0  0.5134434E-07  0.3819911E+04  0.7818609E-02  0.8041895E-01
        2   -1    0    0  501    0  0.00000000000E+00  0.00000000000E+00  0.25420987497E+04  0.25420987497E+04  0.25500000920E-02 0.  1.
       -2   -1    0    0    0  501  0.00000000000E+00  0.00000000000E+00 -0.14350073789E+04  0.14350073789E+04  0.25500000920E-02 0. -1.
    10030    2    1    2    0    0  0.00000000000E+00  0.00000000000E+00  0.11070913708E+04  0.39771061287E+04  0.38199112366E+04 0.  0.
        5    1    3    3  502    0 -0.18628880070E+04 -0.27400643735E+03  0.22025178626E+03  0.18957753542E+04  0.46999998093E+01 0. -1.
       -5    1    3    3    0  502  0.18628880070E+04  0.27400643735E+03  0.88683958455E+03  0.20813307745E+04  0.46999998093E+01 0.  1.
</event>
<event>
 5   0  0.5202788E-07  0.3804625E+04  0.7818609E-02  0.8045163E-01
        2   -1    0    0  501    0  0.00000000000E+00  0.00000000000E+00  0.28612462624E+04  0.28612462624E+04  0.25500000920E-02 0.  1.
       -2   -1    0    0    0  501  0.00000000000E+00  0.00000000000E+00 -0.12647607801E+04  0.12647607802E+04  0.25500000920E-02 0. -1.
    10030    2    1    2    0    0  0.00000000000E+00  0.00000000000E+00  0.15964854822E+04  0.41260070425E+04  0.38046245833E+04 0.  0.
        1    1    3    3  502    0 -0.13397164980E+04  0.40124627791E+03 -0.60024339946E+03  0.15218840327E+04  0.50400001928E-02 0. -1.
       -1    1    3    3    0  502  0.13397164980E+04 -0.40124627791E+03  0.21967288817E+04  0.26041230098E+04  0.50400001928E-02 0.  1.
</event>
<event>
 5   0  0.1648000E-07  0.2895805E+04  0.7818609E-02  0.8274127E-01
       -1   -1    0    0    0  501  0.00000000000E+00  0.00000000000E+00  0.13365069160E+04  0.13365069160E+04  0.50400001928E-02 0.  1.
        1   -1    0    0  501    0  0.00000000000E+00  0.00000000000E+00 -0.15685823434E+04  0.15685823434E+04  0.50400001928E-02 0. -1.
    10030    2    1    2    0    0  0.00000000000E+00  0.00000000000E+00 -0.23207542732E+03  0.29050892594E+04  0.28958046552E+04 0.  0.
        4    1    3    3  502    0  0.47361761893E+03 -0.75330152231E+03 -0.12619094671E+04  0.15440835303E+04  0.12699999809E+01 0. -1.
       -4    1    3    3    0  502 -0.47361761893E+03  0.75330152231E+03  0.10298340397E+04  0.13610057292E+04  0.12699999809E+01 0.  1.
</event>
<event>
 5   0  0.1648000E-07  0.3588797E+04  0.7818609E-02  0.8093063E-01
       -1   -1    0    0    0  501  0.00000000000E+00  0.00000000000E+00  0.23852721592E+04  0.23852721592E+04  0.50400001928E-02 0. -1.
        1   -1    0    0  501    0  0.00000000000E+00  0.00000000000E+00 -0.13498943718E+04  0.13498943719E+04  0.50400001928E-02 0.  1.
    10030    2    1    2    0    0  0.00000000000E+00  0.00000000000E+00  0.10353777873E+04  0.37351665310E+04  0.35887967137E+04 0.  0.
        3    1    3    3  502    0  0.37233568460E+03 -0.13077839303E+04 -0.70093360429E+03  0.15297844940E+04  0.10100000352E+00 0.  1.
       -3    1    3    3    0  502 -0.37233568460E+03  0.13077839303E+04  0.17363113916E+04  0.22053820370E+04  0.10100000352E+00 0. -1.
</event>
<event>
 5   0  0.5134434E-07  0.3838581E+04  0.7818609E-02  0.8037926E-01
        2   -1    0    0  501    0  0.00000000000E+00  0.00000000000E+00  0.13353280725E+04  0.13353280725E+04  0.25500000920E-02 0.  1.
       -2   -1    0    0    0  501  0.00000000000E+00  0.00000000000E+00 -0.27586295124E+04  0.27586295124E+04  0.25500000920E-02 0. -1.
    10030    2    1    2    0    0  0.00000000000E+00  0.00000000000E+00 -0.14233014399E+04  0.40939575848E+04  0.38385806905E+04 0.  0.
        5    1    3    3  502    0  0.12522619133E+04  0.57764824357E+03 -0.21353035155E+04  0.25419245831E+04  0.46999998093E+01 0. -1.
       -5    1    3    3    0  502 -0.12522619133E+04 -0.57764824357E+03  0.71200207556E+03  0.15520330018E+04  0.46999998093E+01 0.  1.
</event>
<event>
 5   0  0.5134434E-07  0.3745160E+04  0.7818609E-02  0.8058027E-01
        2   -1    0    0  501    0  0.00000000000E+00  0.00000000000E+00  0.24799196419E+04  0.24799196420E+04  0.25500000920E-02 0. -1.
       -2   -1    0    0    0  501  0.00000000000E+00  0.00000000000E+00 -0.14139798132E+04  0.14139798132E+04  0.25500000920E-02 0.  1.
    10030    2    1    2    0    0  0.00000000000E+00  0.00000000000E+00  0.10659398287E+04  0.38938994552E+04  0.37451602434E+04 0.  0.
        5    1    3    3  502    0  0.65237084829E+02  0.18537006632E+03  0.24691628504E+04  0.24769750121E+04  0.46999998093E+01 0. -1.
       -5    1    3    3    0  502 -0.65237084829E+02 -0.18537006632E+03 -0.14032230217E+04  0.14169244431E+04  0.46999998093E+01 0.  1.
</event>
<event>
 5   0  0.5158266E-07  0.3768688E+04  0.7818609E-02  0.8052908E-01
        2   -1    0    0  501    0  0.00000000000E+00  0.00000000000E+00  0.30687348244E+04  0.30687348244E+04  0.25500000920E-02 0.  1.
       -2   -1    0    0    0  501  0.00000000000E+00  0.00000000000E+00 -0.11570737245E+04  0.11570737245E+04  0.25500000920E-02 0. -1.
    10030    2    1    2    0    0  0.00000000000E+00  0.00000000000E+00  0.19116610999E+04  0.42258085490E+04  0.37686880650E+04 0.  0.
        2    1    3    3  502    0 -0.11504544790E+04 -0.79892410262E+03 -0.45759072880E+03  0.14735041585E+04  0.25500000920E-02 0. -1.
       -2    1    3    3    0  502  0.11504544790E+04  0.79892410262E+03  0.23692518287E+04  0.27523043905E+04  0.25500000920E-02 0.  1.
</event>
<event>
 5   0  0.5325362E-07  0.4175379E+04  0.7818609E-02  0.7970072E-01
       -2   -1    0    0    0  501  0.00000000000E+00  0.00000000000E+00  0.17612484416E+04  0.17612484416E+04  0.25500000920E-02 0. -1.
        2   -1    0    0  501    0  0.00000000000E+00  0.00000000000E+00 -0.24746347093E+04  0.24746347093E+04  0.25500000920E-02 0.  1.
    10030    2    1    2    0    0  0.00000000000E+00  0.00000000000E+00 -0.71338626773E+03  0.42358831509E+04  0.41753785578E+04 0.  0.
        4    1    3    3  502    0  0.10572983170E+04  0.12450600641E+04 -0.16756835853E+04  0.23400793545E+04  0.12699999809E+01 0.  1.
       -4    1    3    3    0  502 -0.10572983170E+04 -0.12450600641E+04  0.96229731752E+03  0.18958037964E+04  0.12699999809E+01 0. -1.
</event>
<event>
 5   0  0.1648000E-07  0.3773356E+04  0.7818609E-02  0.8051897E-01
       -1   -1    0    0    0  501  0.00000000000E+00  0.00000000000E+00  0.15449506833E+04  0.15449506833E+04  0.50400001928E-02 0.  1.
        1   -1    0    0  501    0  0.00000000000E+00  0.00000000000E+00 -0.23039924291E+04  0.23039924291E+04  0.50400001928E-02 0. -1.
    10030    2    1    2    0    0  0.00000000000E+00  0.00000000000E+00 -0.75904174585E+03  0.38489431124E+04  0.37733564251E+04 0.  0.
        1    1    3    3  502    0  0.16749970102E+04 -0.84714174574E+03 -0.57383772876E+03  0.19627923630E+04  0.50400001928E-02 0. -1.
       -1    1    3    3    0  502 -0.16749970102E+04  0.84714174574E+03 -0.18520401708E+03  0.18861507494E+04  0.50400001928E-02 0.  1.
</event>
<event>
 5   0  0.1648000E-07  0.3781306E+04  0.7818609E-02  0.8050178E-01
       -1   -1    0    0    0  501  0.00000000000E+00  0.00000000000E+00  0.21857630537E+04  0.21857630537E+04  0.50400001928E-02 0.  1.
        1   -1    0    0  501    0  0.00000000000E+00  0.00000000000E+00 -0.16353874875E+04  0.16353874875E+04  0.50400001928E-02 0. -1.
    10030    2    1    2    0    0  0.00000000000E+00  0.00000000000E+00  0.55037556623E+03  0.38211505411E+04  0.37813064137E+04 0.  0.
        1    1    3    3  502    0  0.76400512638E+03 -0.12409783754E+04  0.14923873677E+04  0.20858933857E+04  0.50400001928E-02 0.  1.
       -1    1    3    3    0  502 -0.76400512638E+03  0.12409783754E+04 -0.94201180150E+03  0.17352571554E+04  0.50400001928E-02 0. -1.
</event>
<event>
 5   0  0.1656617E-07  0.3806438E+04  0.7818609E-02  0.8044775E-01
       -1   -1    0    0    0  501  0.00000000000E+00  0.00000000000E+00  0.17366018139E+04  0.17366018139E+04  0.50400001928E-02 0. -1.
        1   -1    0    0  501    0  0.00000000000E+00  0.00000000000E+00 -0.20858221634E+04  0.20858221635E+04  0.50400001928E-02 0.  1.
    10030    2    1    2    0    0  0.00000000000E+00  0.00000000000E+00 -0.34922034957E+03  0.38224239773E+04  0.38064379950E+04 0.  0.
        5    1    3    3  502    0 -0.97445506910E+03 -0.16009659444E+04 -0.50700760291E+03  0.19415801390E+04  0.46999998093E+01 0.  1.
       -5    1    3    3    0  502  0.97445506910E+03  0.16009659444E+04  0.15778725334E+03  0.18808438383E+04  0.46999998093E+01 0. -1.
</event>
<event>
 5   0  0.5202788E-07  0.3827730E+04  0.7818609E-02  0.8040230E-01
        2   -1    0    0  501    0  0.00000000000E+00  0.00000000000E+00  0.20478339059E+04  0.20478339059E+04  0.25500000920E-02 0.  1.
       -2   -1    0    0    0  501  0.00000000000E+00  0.00000000000E+00 -0.17886602396E+04  0.17886602396E+04  0.25500000920E-02 0. -1.
    10030    2    1    2    0    0  0.00000000000E+00  0.00000000000E+00  0.25917366635E+03  0.38364941455E+04  0.38277299198E+04 0.  0.
        1    1    3    3  502    0 -0.11400128063E+04 -0.62535499652E+00  0.16703931129E+04  0.20223359616E+04  0.50400001928E-02 0.  1.
       -1    1    3    3    0  502  0.11400128063E+04  0.62535499652E+00 -0.14112194466E+04  0.18141581839E+04  0.50400001928E-02 0. -1.
</event>
<event>
 5   0  0.5325362E-07  0.3572072E+04  0.7818609E-02  0.8096919E-01
        2   -1    0    0  501    0  0.00000000000E+00  0.00000000000E+00  0.21278987600E+04  0.21278987600E+04  0.25500000920E-02 0. -1.
       -2   -1    0    0    0  501  0.00000000000E+00  0.00000000000E+00 -0.14990963389E+04  0.14990963389E+04  0.25500000920E-02 0.  1.
    10030    2    1    2    0    0  0.00000000000E+00  0.00000000000E+00  0.62880242114E+03  0.36269950989E+04  0.35720723625E+04 0.  0.
        4    1    3    3  502    0  0.81126191011E+02 -0.88439221569E+03 -0.12590026690E+04  0.15407207351E+04  0.12699999809E+01 0.  1.
       -4    1    3    3    0  502 -0.81126191011E+02  0.88439221569E+03  0.18878050901E+04  0.20862743639E+04  0.12699999809E+01 0. -1.
</event>
<event>
 5   0  0.1648000E-07  0.3784203E+04  0.7818609E-02  0.8049553E-01
        1   -1    0    0  501    0  0.00000000000E+00  0.00000000000E+00  0.10615944358E+04  0.10615944358E+04  0.50400001928E-02 0. -1.
       -1   -1    0    0    0  501  0.00000000000E+00  0.00000000000E+00 -0.33723319924E+04  0.33723319924E+04  0.50400001928E-02 0.  1.
    10030    2    1    2    0    0  0.00000000000E+00  0.00000000000E+00 -0.23107375567E+04  0.44339264282E+04  0.37842034188E+04 0.  0.
        4    1    3    3  502    0 -0.64493391963E+03 -0.16330492431E+04 -0.32913155602E+03  0.17863702822E+04  0.12699999809E+01 0. -1.
       -4    1    3    3    0  502  0.64493391963E+03  0.16330492431E+04 -0.19816060006E+04  0.26475561459E+04  0.12699999809E+01 0.  1.
</event>
<event>
 5   0  0.1656617E-07  0.3562202E+04  0.7818609E-02  0.8099205E-01
       -1   -1    0    0    0  501  0.00000000000E+00  0.00000000000E+00  0.28719859112E+04  0.28719859112E+04  0.50400001928E-02 0.  1.
        1   -1    0    0  501    0  0.00000000000E+00  0.00000000000E+00 -0.11045740216E+04  0.11045740216E+04  0.50400001928E-02 0. -1.
    10030    2    1    2    0    0  0.00000000000E+00  0.00000000000E+00  0.17674118896E+04  0.39765599328E+04  0.35622021435E+04 0.  0.
        5    1    3    3  502    0 -0.11142239149E+04 -0.10744507663E+04  0.18673102551E+04  0.24254502799E+04  0.46999998093E+01 0.  1.
       -5    1    3    3    0  502  0.11142239149E+04  0.10744507663E+04 -0.99898365542E+02  0.15511096528E+04  0.46999998093E+01 0. -1.
</event>
<event>
 5   0  0.5202788E-07  0.3749426E+04  0.7818609E-02  0.8057096E-01
        2   -1    0    0  501    0  0.00000000000E+00  0.00000000000E+00  0.27175947155E+04  0.27175947155E+04  0.25500000920E-02 0. -1.
       -2   -1    0    0    0  501  0.00000000000E+00  0.00000000000E+00 -0.12932569907E+04  0.12932569907E+04  0.25500000920E-02 0.  1.
    10030    2    1    2    0    0  0.00000000000E+00  0.00000000000E+00  0.14243377248E+04  0.40108517062E+04  0.37494257500E+04 0.  0.
        1    1    3    3  502    0  0.77417298851E+03  0.11319480185E+04  0.20795335142E+04  0.24910057747E+04  0.50400001928E-02 0. -1.
       -1    1    3    3    0  502 -0.77417298851E+03 -0.11319480185E+04 -0.65519578947E+03  0.15198459315E+04  0.50400001928E-02 0.  1.
</event>
<event>
 5   0  0.1648000E-07  0.3793431E+04  0.7818609E-02  0.8047566E-01
        1   -1    0    0  501    0  0.00000000000E+00  0.00000000000E+00  0.15923382359E+04  0.15923382360E+04  0.50400001928E-02 0.  1.
       -1   -1    0    0    0  501  0.00000000000E+00  0.00000000000E+00 -0.22592750939E+04  0.22592750939E+04  0.50400001928E-02 0. -1.
    10030    2    1    2    0    0  0.00000000000E+00  0.00000000000E+00 -0.66693685794E+03  0.38516133298E+04  0.37934312265E+04 0.  0.
        3    1    3    3  502    0 -0.18263494148E+04 -0.50512756690E+03 -0.41734332504E+03  0.19403302567E+04  0.10100000352E+00 0. -1.
       -3    1    3    3    0  502  0.18263494148E+04  0.50512756690E+03 -0.24959353290E+03  0.19112830732E+04  0.10100000352E+00 0.  1.
</event>
<event>
 5   0  0.5158266E-07  0.3343879E+04  0.7818609E-02  0.8151819E-01
        2   -1    0    0  501    0  0.00000000000E+00  0.00000000000E+00  0.15054667478E+04  0.15054667478E+04  0.25500000920E-02 0.  1.
       -2   -1    0    0    0  501  0.00000000000E+00  0.00000000000E+00 -0.18568211137E+04  0.18568211137E+04  0.25500000920E-02 0. -1.
    10030    2    1    2    0    0  0.00000000000E+00  0.00000000000E+00 -0.35135436584E+03  0.33622878615E+04  0.33438794496E+04 0.  0.
        2    1    3    3  502    0  0.12579044499E+04  0.94011190213E+03 -0.75263777380E+03  0.17414355033E+04  0.25500000920E-02 0. -1.
       -2    1    3    3    0  502 -0.12579044499E+04 -0.94011190213E+03  0.40128340796E+03  0.16208523582E+04  0.25500000920E-02 0.  1.
</event>
<event>
 5   0  0.5158266E-07  0.3829689E+04  0.7818609E-02  0.8039814E-01
        2   -1    0    0  501    0  0.00000000000E+00  0.00000000000E+00  0.17814534297E+04  0.17814534297E+04  0.25500000920E-02 0.  1.
       -2   -1    0    0    0  501  0.00000000000E+00  0.00000000000E+00 -0.20582233532E+04  0.20582233532E+04  0.25500000920E-02 0. -1.
    10030    2    1    2    0    0  0.00000000000E+00  0.00000000000E+00 -0.27676992346E+03  0.38396767829E+04  0.38296887872E+04 0.  0.
        2    1    3    3  502    0  0.51303620109E+03  0.18116180092E+04  0.21103954401E+03  0.18946513252E+04  0.25500000920E-02 0.  1.
       -2    1    3    3    0  502 -0.51303620109E+03 -0.18116180092E+04 -0.48780946746E+03  0.19450254578E+04  0.25500000920E-02 0. -1.
</event>
<event>
 5   0  0.5325362E-07  0.3791980E+04  0.7818609E-02  0.8047878E-01
        2   -1    0    0  501    0  0.00000000000E+00  0.00000000000E+00  0.16074449254E+04  0.16074449254E+04  0.25500000920E-02 0.  1.
       -2   -1    0    0    0  501  0.00000000000E+00  0.00000000000E+00 -0.22363299420E+04  0.22363299420E+04  0.25500000920E-02 0. -1.
    10030    2    1    2    0    0  0.00000000000E+00  0.00000000000E+00 -0.62888501658E+03  0.38437748675E+04  0.37919795447E+04 0.  0.
        4    1    3    3  502    0 -0.51825043008E+03 -0.35319183879E+03  0.14992562565E+04  0.16251458146E+04  0.12699999809E+01 0.  1.
       -4    1    3    3    0  502  0.51825043008E+03  0.35319183879E+03 -0.21281412731E+04  0.22186290529E+04  0.12699999809E+01 0. -1.
</event>
<event>
 5   0  0.5132561E-07  0.3802413E+04  0.7818609E-02  0.8045637E-01
       -2   -1    0    0    0  501  0.00000000000E+00  0.00000000000E+00  0.13884868472E+04  0.13884868472E+04  0.25500000920E-02 0. -1.
        2   -1    0    0  501    0  0.00000000000E+00  0.00000000000E+00 -0.26032549578E+04  0.26032549578E+04  0.25500000920E-02 0.  1.
    10030    2    1    2    0    0  0.00000000000E+00  0.00000000000E+00 -0.12147681105E+04  0.39917418050E+04  0.38024125336E+04 0.  0.
        3    1    3    3  502    0 -0.94290559452E+03 -0.81919014454E+03 -0.21120847846E+04  0.24537818976E+04  0.10100000352E+00 0.  1.
       -3    1    3    3    0  502  0.94290559452E+03  0.81919014454E+03  0.89731667409E+03  0.15379599074E+04  0.10100000352E+00 0. -1.
</event>
<event>
 5   0  0.5202788E-07  0.3848724E+04  0.7818609E-02  0.8035779E-01
       -2   -1    0    0    0  501  0.00000000000E+00  0.00000000000E+00  0.21399639234E+04  0.21399639234E+04  0.25500000920E-02 0. -1.
        2   -1    0    0  501    0  0.00000000000E+00  0.00000000000E+00 -0.17304821277E+04  0.17304821277E+04  0.25500000920E-02 0.  1.
    10030    2    1    2    0    0  0.00000000000E+00  0.00000000000E+00  0.40948179565E+03  0.38704460511E+04  0.38487241124E+04 0.  0.
        1    1    3    3  502    0 -0.15810758211E+04 -0.40012661788E+03  0.12319101892E+04  0.20438945121E+04  0.50400001928E-02 0. -1.
       -1    1    3    3    0  502  0.15810758211E+04  0.40012661788E+03 -0.82242839352E+03  0.18265515390E+04  0.50400001928E-02 0.  1.
</event>
<event>
 5   0  0.5134434E-07  0.3836837E+04  0.7818609E-02  0.8038296E-01
       -2   -1    0    0    0  501  0.00000000000E+00  0.00000000000E+00  0.15476696591E+04  0.15476696591E+04  0.25500000920E-02 0.  1.
        2   -1    0    0  501    0  0.00000000000E+00  0.00000000000E+00 -0.23779818793E+04  0.23779818793E+04  0.25500000920E-02 0. -1.
    10030    2    1    2    0    0  0.00000000000E+00  0.00000000000E+00 -0.83031222020E+03  0.39256515385E+04  0.38368374501E+04 0.  0.
        5    1    3    3  502    0  0.16832888071E+04  0.89326899082E+03 -0.18886317751E+03  0.19149626858E+04  0.46999998093E+01 0.  1.
       -5    1    3    3    0  502 -0.16832888071E+04 -0.89326899082E+03 -0.64144904269E+03  0.20106888527E+04  0.46999998093E+01 0. -1.
</event>
<event>
 5   0  0.1648000E-07  0.3787694E+04  0.7818609E-02  0.8048801E-01
        1   -1    0    0  501    0  0.00000000000E+00  0.00000000000E+00  0.12781408972E+04  0.12781408972E+04  0.50400001928E-02 0.  1.
       -1   -1    0    0    0  501  0.00000000000E+00  0.00000000000E+00 -0.28061510738E+04  0.28061510738E+04  0.50400001928E-02 0. -1.
    10030    2    1    2    0    0  0.00000000000E+00  0.00000000000E+00 -0.15280101766E+04  0.40842919710E+04  0.37876939956E+04 0.  0.
        4    1    3    3  502    0  0.59013090943E+03  0.33022620315E+03 -0.26715247992E+04  0.27557848612E+04  0.12699999809E+01 0. -1.
       -4    1    3    3    0  502 -0.59013090943E+03 -0.33022620315E+03  0.11435146227E+04  0.13285071098E+04  0.12699999809E+01 0.  1.
</event>
<event>
 5   0  0.1656617E-07  0.3713552E+04  0.7818609E-02  0.8064965E-01
        1   -1    0    0  501    0  0.00000000000E+00  0.00000000000E+00  0.16624004809E+04  0.16624004809E+04  0.50400001928E-02 0.  1.
       -1   -1    0    0    0  501  0.00000000000E+00  0.00000000000E+00 -0.20738786694E+04  0.20738786694E+04  0.50400001928E-02 0. -1.
    10030    2    1    2    0    0  0.00000000000E+00  0.00000000000E+00 -0.41147818852E+03  0.37362791503E+04  0.37135518833E+04 0.  0.
        5    1    3    3  502    0 -0.12561725241E+04  0.78364389805E+03 -0.13330999707E+04  0.19922963613E+04  0.46999998093E+01 0. -1.
       -5    1    3    3    0  502  0.12561725241E+04 -0.78364389805E+03  0.92162178219E+03  0.17439827891E+04  0.46999998093E+01 0.  1.
</event>
<event>
 5   0  0.5325362E-07  0.3631609E+04  0.7818609E-02  0.8083290E-01
       -2   -1    0    0    0  501  0.00000000000E+00  0.00000000000E+00  0.15171454903E+04  0.15171454903E+04  0.25500000920E-02 0.  1.
        2   -1    0    0  501    0  0.00000000000E+00  0.00000000000E+00 -0.21732557881E+04  0.21732557881E+04  0.25500000920E-02 0. -1.
    10030    2    1    2    0    0  0.00000000000E+00  0.00000000000E+00 -0.65611029779E+03  0.36904012785E+04  0.36316085793E+04 0.  0.
        4    1    3    3  502    0  0.37347291104E+03  0.76812575472E+03 -0.19563835520E+04  0.21346984344E+04  0.12699999809E+01 0. -1.
       -4    1    3    3    0  502 -0.37347291104E+03 -0.76812575472E+03  0.13002732543E+04  0.15557028440E+04  0.12699999809E+01 0.  1.
</event>
<event>
 5   0  0.5158266E-07  0.3810176E+04  0.7818609E-02  0.8043975E-01
        2   -1    0    0  501    0  0.00000000000E+00  0.00000000000E+00  0.22770467674E+04  0.22770467674E+04  0.25500000920E-02 0. -1.
       -2   -1    0    0    0  501  0.00000000000E+00  0.00000000000E+00 -0.15938889116E+04  0.15938889116E+04  0.25500000920E-02 0.  1.
    10030    2    1    2    0    0  0.00000000000E+00  0.00000000000E+00  0.68315785581E+03  0.38709356791E+04  0.38101756358E+04 0.  0.
        2    1    3    3  502    0 -0.15372582715E+04 -0.11104915342E+04  0.52614923514E+03  0.19680415286E+04  0.25500000920E-02 0. -1.
       -2    1    3    3    0  502  0.15372582715E+04  0.11104915342E+04  0.15700862068E+03  0.19028941504E+04  0.25500000920E-02 0.  1.
</event>
<event>
 5   0  0.1656617E-07  0.3839343E+04  0.7818609E-02  0.8037764E-01
        1   -1    0    0  501    0  0.00000000000E+00  0.00000000000E+00  0.20317856308E+04  0.20317856309E+04  0.50400001928E-02 0. -1.
       -1   -1    0    0    0  501  0.00000000000E+00  0.00000000000E+00 -0.18137440220E+04  0.18137440220E+04  0.50400001928E-02 0.  1.
    10030    2    1    2    0    0  0.00000000000E+00  0.00000000000E+00  0.21804160885E+03  0.38455296529E+04  0.38393431948E+04 0.  0.
        5    1    3    3  502    0 -0.11965084995E+04 -0.14606561030E+04 -0.23790143446E+03  0.19030943285E+04  0.46999998093E+01 0.  1.
       -5    1    3    3    0  502  0.11965084995E+04  0.14606561030E+04  0.45594304331E+03  0.19424353244E+04  0.46999998093E+01 0. -1.
</event>
<event>
 5   0  0.1648000E-07  0.3823224E+04  0.7818609E-02  0.8041189E-01
        1   -1    0    0  501    0  0.00000000000E+00  0.00000000000E+00  0.22934010921E+04  0.22934010921E+04  0.50400001928E-02 0. -1.
       -1   -1    0    0    0  501  0.00000000000E+00  0.00000000000E+00 -0.15933806076E+04  0.15933806076E+04  0.50400001928E-02 0.  1.
    10030    2    1    2    0    0  0.00000000000E+00  0.00000000000E+00  0.70002048456E+03  0.38867816997E+04  0.38232242025E+04 0.  0.
        4    1    3    3  502    0  0.10855850920E+04  0.12343403477E+04  0.13420228741E+04  0.21220551580E+04  0.12699999809E+01 0. -1.
       -4    1    3    3    0  502 -0.10855850920E+04 -0.12343403477E+04 -0.64200238956E+03  0.17647265417E+04  0.12699999809E+01 0.  1.
</event>
<event>
 5   0  0.5134434E-07  0.3570113E+04  0.7818609E-02  0.8097372E-01
       -2   -1    0    0    0  501  0.00000000000E+00  0.00000000000E+00  0.16780718420E+04  0.16780718420E+04  0.25500000920E-02 0. -1.
        2   -1    0    0  501    0  0.00000000000E+00  0.00000000000E+00 -0.18988618346E+04  0.18988618346E+04  0.25500000920E-02 0.  1.
    10030    2    1    2    0    0  0.00000000000E+00  0.00000000000E+00 -0.22078999263E+03  0.35769336766E+04  0.35701129262E+04 0.  0.
        5    1    3    3  502    0 -0.83862789684E+03 -0.13940423521E+04 -0.84647790024E+03  0.18339023296E+04  0.46999998093E+01 0.  1.
       -5    1    3    3    0  502  0.83862789684E+03  0.13940423521E+04  0.62568790760E+03  0.17430313470E+04  0.46999998093E+01 0. -1.
</event>
<event>
 5   0  0.1648000E-07  0.3852179E+04  0.7818609E-02  0.8035049E-01
        1   -1    0    0  501    0  0.00000000000E+00  0.00000000000E+00  0.21921823338E+04  0.21921823339E+04  0.50400001928E-02 0. -1.
       -1   -1    0    0    0  501  0.00000000000E+00  0.00000000000E+00 -0.16922961229E+04  0.16922961229E+04  0.50400001928E-02 0.  1.
    10030    2    1    2    0    0  0.00000000000E+00  0.00000000000E+00  0.49988621092E+03  0.38844784568E+04  0.38521794685E+04 0.  0.
        2    1    3    3  502    0 -0.94699017819E+03  0.13346327287E+03  0.19358520352E+04  0.21591956709E+04  0.25500000920E-02 0. -1.
       -2    1    3    3    0  502  0.94699017819E+03 -0.13346327287E+03 -0.14359658243E+04  0.17252827859E+04  0.25500000920E-02 0.  1.
</event>
<event>
 5   0  0.1648000E-07  0.2747840E+04  0.7818609E-02  0.8319647E-01
        1   -1    0    0  501    0  0.00000000000E+00  0.00000000000E+00  0.17627857797E+04  0.17627857798E+04  0.50400001928E-02 0.  1.
       -1   -1    0    0    0  501  0.00000000000E+00  0.00000000000E+00 -0.10708369077E+04  0.10708369077E+04  0.50400001928E-02 0. -1.
    10030    2    1    2    0    0  0.00000000000E+00  0.00000000000E+00  0.69194887204E+03  0.28336226875E+04  0.27478399323E+04 0.  0.
        3    1    3    3  502    0 -0.33379686231E+03 -0.59684441553E+03  0.15748181956E+04  0.17168855410E+04  0.10100000352E+00 0.  1.
       -3    1    3    3    0  502  0.33379686231E+03  0.59684441553E+03 -0.88286932354E+03  0.11167371465E+04  0.10100000352E+00 0. -1.
</event>
<event>
 5   0  0.1648000E-07  0.3773790E+04  0.7818609E-02  0.8051803E-01
        1   -1    0    0  501    0  0.00000000000E+00  0.00000000000E+00  0.14264159092E+04  0.14264159092E+04  0.50400001928E-02 0. -1.
       -1   -1    0    0    0  501  0.00000000000E+00  0.00000000000E+00 -0.24960269964E+04  0.24960269964E+04  0.50400001928E-02 0.  1.
    10030    2    1    2    0    0  0.00000000000E+00  0.00000000000E+00 -0.10696110872E+04  0.39224429056E+04  0.37737899345E+04 0.  0.
        1    1    3    3  502    0  0.12913158718E+04  0.44865715109E+03  0.81703518283E+03  0.15925879599E+04  0.50400001928E-02 0. -1.
       -1    1    3    3    0  502 -0.12913158718E+04 -0.44865715109E+03 -0.18866462700E+04  0.23298549457E+04  0.50400001928E-02 0.  1.
</event>
<event>
 5   0  0.5202788E-07  0.3764964E+04  0.7818609E-02  0.8053716E-01
        2   -1    0    0  501    0  0.00000000000E+00  0.00000000000E+00  0.27798856966E+04  0.27798856966E+04  0.25500000920E-02 0.  1.
       -2   -1    0    0    0  501  0.00000000000E+00  0.00000000000E+00 -0.12747786048E+04  0.12747786048E+04  0.25500000920E-02 0. -1.
    10030    2    1    2    0    0  0.00000000000E+00  0.00000000000E+00  0.15051070918E+04  0.40546643014E+04  0.37649641750E+04 0.  0.
        1    1    3    3  502    0  0.94095688568E+03 -0.12241525097E+04 -0.40724792973E+03  0.15968093512E+04  0.50400001928E-02 0. -1.
       -1    1    3    3    0  502 -0.94095688568E+03  0.12241525097E+04  0.19123550215E+04  0.24578549502E+04  0.50400001928E-02 0.  1.
</event>
<event>
 5   0  0.5132561E-07  0.3760435E+04  0.7818609E-02  0.8054699E-01
       -2   -1    0    0    0  501  0.00000000000E+00  0.00000000000E+00  0.20669148354E+04  0.20669148354E+04  0.25500000920E-02 0. -1.
        2   -1    0    0  501    0  0.00000000000E+00  0.00000000000E+00 -0.17103835926E+04  0.17103835926E+04  0.25500000920E-02 0.  1.
    10030    2    1    2    0    0  0.00000000000E+00  0.00000000000E+00  0.35653124277E+03  0.37772984280E+04  0.37604346673E+04 0.  0.
        3    1    3    3  502    0  0.15112767527E+04  0.60053108274E+03  0.11262256165E+04  0.19781251613E+04  0.10100000352E+00 0. -1.
       -3    1    3    3    0  502 -0.15112767527E+04 -0.60053108274E+03 -0.76969437372E+03  0.17991732667E+04  0.10100000352E+00 0.  1.
</event>
<event>
 5   0  0.5134434E-07  0.3848641E+04  0.7818609E-02  0.8035797E-01
       -2   -1    0    0    0  501  0.00000000000E+00  0.00000000000E+00  0.13910262563E+04  0.13910262563E+04  0.25500000920E-02 0.  1.
        2   -1    0    0  501    0  0.00000000000E+00  0.00000000000E+00 -0.26620699090E+04  0.26620699090E+04  0.25500000920E-02 0. -1.
    10030    2    1    2    0    0  0.00000000000E+00  0.00000000000E+00 -0.12710436528E+04  0.40530961653E+04  0.38486408715E+04 0.  0.
        5    1    3    3  502    0 -0.10390918507E+04 -0.15442273227E+04 -0.12106545732E+03  0.18652154925E+04  0.46999998093E+01 0.  1.
       -5    1    3    3    0  502  0.10390918507E+04  0.15442273227E+04 -0.11499781954E+04  0.21878806728E+04  0.46999998093E+01 0. -1.
</event>
<event>
 5   0  0.5325362E-07  0.3770000E+04  0.7818609E-02  0.8052624E-01
       -2   -1    0    0    0  501  0.00000000000E+00  0.00000000000E+00  0.18197483602E+04  0.18197483602E+04  0.25500000920E-02 0. -1.
        2   -1    0    0  501    0  0.00000000000E+00  0.00000000000E+00 -0.19525914196E+04  0.19525914196E+04  0.25500000920E-02 0.  1.
    10030    2    1    2    0    0  0.00000000000E+00  0.00000000000E+00 -0.13284305935E+03  0.37723397798E+04  0.37700000180E+04 0.  0.
        4    1    3    3  502    0 -0.15578341377E+04  0.57445285627E+03 -0.95937670905E+03  0.19176153335E+04  0.12699999809E+01 0.  1.
       -4    1    3    3    0  502  0.15578341377E+04 -0.57445285627E+03  0.82653364970E+03  0.18547244463E+04  0.12699999809E+01 0. -1.
</event>
<event>
 5   0  0.5202788E-07  0.3781196E+04  0.7818609E-02  0.8050202E-01
       -2   -1    0    0    0  501  0.00000000000E+00  0.00000000000E+00  0.15369692443E+04  0.15369692443E+04  0.25500000920E-02 0. -1.
        2   -1    0    0  501    0  0.00000000000E+00  0.00000000000E+00 -0.23255899728E+04  0.23255899728E+04  0.25500000920E-02 0.  1.
    10030    2    1    2    0    0  0.00000000000E+00  0.00000000000E+00 -0.78862072854E+03  0.38625592172E+04  0.37811957173E+04 0.  0.
        1    1    3    3  502    0 -0.16965287616E+04  0.72634442827E+03  0.25102301484E+02  0.18456479060E+04  0.50400001928E-02 0. -1.
       -1    1    3    3    0  502  0.16965287616E+04 -0.72634442827E+03 -0.81372303002E+03  0.20169113111E+04  0.50400001928E-02 0.  1.
</event>
<event>
 5   0  0.1648000E-07  0.3750197E+04  0.7818609E-02  0.8056928E-01
       -1   -1    0    0    0  501  0.00000000000E+00  0.00000000000E+00  0.22978281904E+04  0.22978281904E+04  0.50400001928E-02 0.  1.
        1   -1    0    0  501    0  0.00000000000E+00  0.00000000000E+00 -0.15301377548E+04  0.15301377548E+04  0.50400001928E-02 0. -1.
    10030    2    1    2    0    0  0.00000000000E+00  0.00000000000E+00  0.76769043555E+03  0.38279659452E+04  0.37501966179E+04 0.  0.
        2    1    3    3  502    0 -0.10926844342E+04 -0.95415143531E+03  0.15966038661E+04  0.21571991423E+04  0.25500000920E-02 0.  1.
       -2    1    3    3    0  502  0.10926844342E+04  0.95415143531E+03 -0.82891343057E+03  0.16707668029E+04  0.25500000920E-02 0. -1.
</event>
<event>
 5   0  0.1648000E-07  0.3743271E+04  0.7818609E-02  0.8058440E-01
        1   -1    0    0  501    0  0.00000000000E+00  0.00000000000E+00  0.28222874272E+04  0.28222874272E+04  0.50400001928E-02 0.  1.
       -1   -1    0    0    0  501  0.00000000000E+00  0.00000000000E+00 -0.12411987020E+04  0.12411987020E+04  0.50400001928E-02 0. -1.
    10030    2    1    2    0    0  0.00000000000E+00  0.00000000000E+00  0.15810887252E+04  0.40634861292E+04  0.37432710249E+04 0.  0.
        3    1    3    3  502    0  0.64839351974E+03  0.30805334366E+03  0.26669063133E+04  0.27618291607E+04  0.10100000352E+00 0.  1.
       -3    1    3    3    0  502 -0.64839351974E+03 -0.30805334366E+03 -0.10858175881E+04  0.13016569685E+04  0.10100000352E+00 0. -1.
</event>
<event>
 5   0  0.5132561E-07  0.3817100E+04  0.7818609E-02  0.8042495E-01
       -2   -1    0    0    0  501  0.00000000000E+00  0.00000000000E+00  0.13407782731E+04  0.13407782732E+04  0.25500000920E-02 0.  1.
        2   -1    0    0  501    0  0.00000000000E+00  0.00000000000E+00 -0.27167527351E+04  0.27167527351E+04  0.25500000920E-02 0. -1.
    10030    2    1    2    0    0  0.00000000000E+00  0.00000000000E+00 -0.13759744619E+04  0.40575310082E+04  0.38170999676E+04 0.  0.
        3    1    3    3  502    0  0.18053932632E+04  0.35453855771E+03 -0.14866295600E+03  0.18458719101E+04  0.10100000352E+00 0.  1.
       -3    1    3    3    0  502 -0.18053932632E+04 -0.35453855771E+03 -0.12273115059E+04  0.22116590982E+04  0.10100000352E+00 0. -1.
</event>
<event>
 5   0  0.5132561E-07  0.3809709E+04  0.7818609E-02  0.8044075E-01
       -2   -1    0    0    0  501  0.00000000000E+00  0.00000000000E+00  0.12196234427E+04  0.12196234427E+04  0.25500000920E-02 0. -1.
        2   -1    0    0  501    0  0.00000000000E+00  0.00000000000E+00 -0.29750749644E+04  0.29750749644E+04  0.25500000920E-02 0.  1.
    10030    2    1    2    0    0  0.00000000000E+00  0.00000000000E+00 -0.17554515217E+04  0.41946984071E+04  0.38097092647E+04 0.  0.
        3    1    3    3  502    0  0.31575403623E+03  0.15099750899E+04 -0.21081246299E+04  0.26122624005E+04  0.10100000352E+00 0.  1.
       -3    1    3    3    0  502 -0.31575403623E+03 -0.15099750899E+04  0.35267310819E+03  0.15824360066E+04  0.10100000352E+00 0. -1.
</event>
<event>
 5   0  0.1648000E-07  0.3200082E+04  0.7818609E-02  0.8188795E-01
       -1   -1    0    0    0  501  0.00000000000E+00  0.00000000000E+00  0.16464793488E+04  0.16464793489E+04  0.50400001928E-02 0. -1.
        1   -1    0    0  501    0  0.00000000000E+00  0.00000000000E+00 -0.15549125031E+04  0.15549125031E+04  0.50400001928E-02 0.  1.
    10030    2    1    2    0    0  0.00000000000E+00  0.00000000000E+00  0.91566845761E+02  0.32013918519E+04  0.32000820775E+04 0.  0.
        4    1    3    3  502    0 -0.14034815317E+04 -0.39612847578E+03  0.70442325198E+03  0.16195344732E+04  0.12699999809E+01 0. -1.
       -4    1    3    3    0  502  0.14034815317E+04  0.39612847578E+03 -0.61285640622E+03  0.15818573787E+04  0.12699999809E+01 0.  1.
</event>
<event>
 5   0  0.1648000E-07  0.3826146E+04  0.7818609E-02  0.8040567E-01
       -1   -1    0    0    0  501  0.00000000000E+00  0.00000000000E+00  0.14075388363E+04  0.14075388363E+04  0.50400001928E-02 0. -1.
        1   -1    0    0  501    0  0.00000000000E+00  0.00000000000E+00 -0.26001750947E+04  0.26001750947E+04  0.50400001928E-02 0.  1.
    10030    2    1    2    0    0  0.00000000000E+00  0.00000000000E+00 -0.11926362584E+04  0.40077139310E+04  0.38261455419E+04 0.  0.
        1    1    3    3  502    0 -0.13322673644E+04 -0.10307876088E+04  0.35357251694E+03  0.17211835897E+04  0.50400001928E-02 0. -1.
       -1    1    3    3    0  502  0.13322673644E+04  0.10307876088E+04 -0.15462087754E+04  0.22865303413E+04  0.50400001928E-02 0.  1.
</event>
<event>
 5   0  0.5134434E-07  0.3820779E+04  0.7818609E-02  0.8041710E-01
        2   -1    0    0  501    0  0.00000000000E+00  0.00000000000E+00  0.17551857875E+04  0.17551857875E+04  0.25500000920E-02 0.  1.
       -2   -1    0    0    0  501  0.00000000000E+00  0.00000000000E+00 -0.20793172432E+04  0.20793172432E+04  0.25500000920E-02 0. -1.
    10030    2    1    2    0    0  0.00000000000E+00  0.00000000000E+00 -0.32413145574E+03  0.38345030306E+04  0.38207790163E+04 0.  0.
        5    1    3    3  502    0  0.13759678762E+04 -0.80517661726E+03 -0.12184476739E+04  0.20065477332E+04  0.46999998093E+01 0. -1.
       -5    1    3    3    0  502 -0.13759678762E+04  0.80517661726E+03  0.89431621820E+03  0.18279552975E+04  0.46999998093E+01 0.  1.
</event>
<event>
 5   0  0.1648000E-07  0.3824536E+04  0.7818609E-02  0.8040910E-01
       -1   -1    0    0    0  501  0.00000000000E+00  0.00000000000E+00  0.25324701295E+04  0.25324701295E+04  0.50400001928E-02 0.  1.
        1   -1    0    0  501    0  0.00000000000E+00  0.00000000000E+00 -0.14439536153E+04  0.14439536153E+04  0.50400001928E-02 0. -1.
    10030    2    1    2    0    0  0.00000000000E+00  0.00000000000E+00  0.10885165141E+04  0.39764237448E+04  0.38245362590E+04 0.  0.
        4    1    3    3  502    0  0.38017913761E+03 -0.18599502456E+04  0.78320410084E+03  0.20536215253E+04  0.12699999809E+01 0. -1.
       -4    1    3    3    0  502 -0.38017913761E+03  0.18599502456E+04  0.30531241329E+03  0.19228022195E+04  0.12699999809E+01 0.  1.
</event>
<event>
 5   0  0.1648000E-07  0.3326668E+04  0.7818609E-02  0.8156143E-01
        1   -1    0    0  501    0  0.00000000000E+00  0.00000000000E+00  0.20883575360E+04  0.20883575360E+04  0.50400001928E-02 0.  1.
       -1   -1    0    0    0  501  0.00000000000E+00  0.00000000000E+00 -0.13248117966E+04  0.13248117966E+04  0.50400001928E-02 0. -1.
    10030    2    1    2    0    0  0.00000000000E+00  0.00000000000E+00  0.76354573938E+03  0.34131693326E+04  0.33266684231E+04 0.  0.
        1    1    3    3  502    0 -0.63646957678E+03  0.11210344312E+04  0.14602320445E+04  0.19478422272E+04  0.50400001928E-02 0.  1.
       -1    1    3    3    0  502  0.63646957678E+03 -0.11210344312E+04 -0.69668630511E+03  0.14653271055E+04  0.50400001928E-02 0. -1.
</event>
<event>
 5   0  0.5325362E-07  0.3838318E+04  0.7818609E-02  0.8037981E-01
        2   -1    0    0  501    0  0.00000000000E+00  0.00000000000E+00  0.18731629458E+04  0.18731629458E+04  0.25500000920E-02 0. -1.
       -2   -1    0    0    0  501  0.00000000000E+00  0.00000000000E+00 -0.19662849901E+04  0.19662849901E+04  0.25500000920E-02 0.  1.
    10030    2    1    2    0    0  0.00000000000E+00  0.00000000000E+00 -0.93122044313E+02  0.38394479359E+04  0.38383184778E+04 0.  0.
        4    1    3    3  502    0  0.96347574308E+03 -0.39268009325E+03 -0.16597002544E+04  0.19588490780E+04  0.12699999809E+01 0.  1.
       -4    1    3    3    0  502 -0.96347574308E+03  0.39268009325E+03  0.15665782100E+04  0.18805988579E+04  0.12699999809E+01 0. -1.
</event>
<event>
 5   0  0.1648000E-07  0.3686792E+04  0.7818609E-02  0.8070895E-01
        1   -1    0    0  501    0  0.00000000000E+00  0.00000000000E+00  0.21366013799E+04  0.21366013800E+04  0.50400001928E-02 0. -1.
       -1   -1    0    0    0  501  0.00000000000E+00  0.00000000000E+00 -0.15904273337E+04  0.15904273337E+04  0.50400001928E-02 0.  1.
    10030    2    1    2    0    0  0.00000000000E+00  0.00000000000E+00  0.54617404628E+03  0.37270287136E+04  0.36867922295E+04 0.  0.
        3    1    3    3  502    0 -0.13198425409E+03 -0.19697643660E+03 -0.15749477077E+04  0.15926957814E+04  0.10100000352E+00 0.  1.
       -3    1    3    3    0  502  0.13198425409E+03  0.19697643660E+03  0.21211217540E+04  0.21343329322E+04  0.10100000352E+00 0. -1.
</event>
<event>
 5   0  0.1648000E-07  0.3616810E+04  0.7818609E-02  0.8086652E-01
       -1   -1    0    0    0  501  0.00000000000E+00  0.00000000000E+00  0.13628081602E+04  0.13628081602E+04  0.50400001928E-02 0.  1.
        1   -1    0    0  501    0  0.00000000000E+00  0.00000000000E+00 -0.23996981255E+04  0.23996981255E+04  0.50400001928E-02 0. -1.
    10030    2    1    2    0    0  0.00000000000E+00  0.00000000000E+00 -0.10368899653E+04  0.37625062857E+04  0.36168097475E+04 0.  0.
        3    1    3    3  502    0 -0.13187615486E+04 -0.38633317182E+03  0.70447096641E+03  0.15442359581E+04  0.10100000352E+00 0.  1.
       -3    1    3    3    0  502  0.13187615486E+04  0.38633317182E+03 -0.17413609317E+04  0.22182703276E+04  0.10100000352E+00 0. -1.
</event>
<event>
 5   0  0.1648000E-07  0.3777388E+04  0.7818609E-02  0.8051025E-01
       -1   -1    0    0    0  501  0.00000000000E+00  0.00000000000E+00  0.34040493550E+04  0.34040493550E+04  0.50400001928E-02 0.  1.
        1   -1    0    0  501    0  0.00000000000E+00  0.00000000000E+00 -0.10479181250E+04  0.10479181250E+04  0.50400001928E-02 0. -1.
    10030    2    1    2    0    0  0.00000000000E+00  0.00000000000E+00  0.23561312300E+04  0.44519674800E+04  0.37773879957E+04 0.  0.
        1    1    3    3  502    0  0.36183662362E+03 -0.27474788097E+03 -0.98255580374E+03  0.10825100682E+04  0.50400001928E-02 0. -1.
       -1    1    3    3    0  502 -0.36183662362E+03  0.27474788097E+03  0.33386870338E+04  0.33694574118E+04  0.50400001928E-02 0.  1.
</event>
<event>
 5   0  0.1656617E-07  0.3782267E+04  0.7818609E-02  0.8049971E-01
       -1   -1    0    0    0  501  0.00000000000E+00  0.00000000000E+00  0.15393919869E+04  0.15393919869E+04  0.50400001928E-02 0. -1.
        1   -1    0    0  501    0  0.00000000000E+00  0.00000000000E+00 -0.23232452824E+04  0.23232452824E+04  0.50400001928E-02 0.  1.
    10030    2    1    2    0    0  0.00000000000E+00  0.00000000000E+00 -0.78385329542E+03  0.38626372693E+04  0.37822666069E+04 0.  0.
        5    1    3    3  502    0  0.78201672196E+03  0.10307676859E+04 -0.18004849245E+04  0.22171603977E+04  0.46999998093E+01 0.  1.
       -5    1    3    3    0  502 -0.78201672196E+03 -0.10307676859E+04  0.10166316291E+04  0.16454768716E+04  0.46999998093E+01 0. -1.
</event>
<event>
 5   0  0.1656617E-07  0.3237687E+04  0.7818609E-02  0.8178934E-01
       -1   -1    0    0    0  501  0.00000000000E+00  0.00000000000E+00  0.85926314076E+03  0.85926314078E+03  0.50400001928E-02 0. -1.
        1   -1    0    0  501    0  0.00000000000E+00  0.00000000000E+00 -0.30498859673E+04  0.30498859673E+04  0.50400001928E-02 0.  1.
    10030    2    1    2    0    0  0.00000000000E+00  0.00000000000E+00 -0.21906228265E+04  0.39091491081E+04  0.32376871963E+04 0.  0.
        5    1    3    3  502    0  0.49600502922E+03 -0.62560140407E+03 -0.27956459327E+04  0.29074140360E+04  0.46999998093E+01 0.  1.
       -5    1    3    3    0  502 -0.49600502922E+03  0.62560140407E+03  0.60502310611E+03  0.10017350721E+04  0.46999998093E+01 0. -1.
</event>
<event>
 5   0  0.1648000E-07  0.3494799E+04  0.7818609E-02  0.8115024E-01
       -1   -1    0    0    0  501  0.00000000000E+00  0.00000000000E+00  0.16911155202E+04  0.16911155202E+04  0.50400001928E-02 0.  1.
        1   -1    0    0  501    0  0.00000000000E+00  0.00000000000E+00 -0.18055572134E+04  0.18055572135E+04  0.50400001928E-02 0. -1.
    10030    2    1    2    0    0  0.00000000000E+00  0.00000000000E+00 -0.11444169324E+03  0.34966727337E+04  0.34947994657E+04 0.  0.
        2    1    3    3  502    0 -0.53927250149E+03  0.69846053684E+03  0.14518129917E+04  0.16989475905E+04  0.25500000920E-02 0.  1.
       -2    1    3    3    0  502  0.53927250149E+03 -0.69846053684E+03 -0.15662546849E+04  0.17977251432E+04  0.25500000920E-02 0. -1.
</event>
<event>
 5   0  0.1648000E-07  0.3822660E+04  0.7818609E-02  0.8041309E-01
       -1   -1    0    0    0  501  0.00000000000E+00  0.00000000000E+00  0.15199462025E+04  0.15199462025E+04  0.50400001928E-02 0. -1.
        1   -1    0    0  501    0  0.00000000000E+00  0.00000000000E+00 -0.24034950196E+04  0.24034950196E+04  0.50400001928E-02 0.  1.
    10030    2    1    2    0    0  0.00000000000E+00  0.00000000000E+00 -0.88354881708E+03  0.39234412221E+04  0.38226603970E+04 0.  0.
        2    1    3    3  502    0  0.17740508461E+04  0.61232190738E+03 -0.81323965810E+03  0.20453736246E+04  0.25500000920E-02 0. -1.
       -2    1    3    3    0  502 -0.17740508461E+04 -0.61232190738E+03 -0.70309158979E+02  0.18780675974E+04  0.25500000920E-02 0.  1.
</event>
<event>
 5   0  0.1648000E-07  0.3306588E+04  0.7818609E-02  0.8161221E-01
        1   -1    0    0  501    0  0.00000000000E+00  0.00000000000E+00  0.30938878325E+04  0.30938878325E+04  0.50400001928E-02 0. -1.
       -1   -1    0    0    0  501  0.00000000000E+00  0.00000000000E+00 -0.88347770432E+03  0.88347770433E+03  0.50400001928E-02 0.  1.
    10030    2    1    2    0    0  0.00000000000E+00  0.00000000000E+00  0.22104101282E+04  0.39773655368E+04  0.33065879209E+04 0.  0.
        2    1    3    3  502    0 -0.13276311331E+03  0.87638018269E+03 -0.57351342606E+03  0.10557395127E+04  0.25500000920E-02 0.  1.
       -2    1    3    3    0  502  0.13276311331E+03 -0.87638018269E+03  0.27839235542E+04  0.29216260241E+04  0.25500000920E-02 0. -1.
</event>
<event>
 5   0  0.5134434E-07  0.3769341E+04  0.7818609E-02  0.8052766E-01
        2   -1    0    0  501    0  0.00000000000E+00  0.00000000000E+00  0.15796455123E+04  0.15796455123E+04  0.25500000920E-02 0.  1.
       -2   -1    0    0    0  501  0.00000000000E+00  0.00000000000E+00 -0.22485947687E+04  0.22485947687E+04  0.25500000920E-02 0. -1.
    10030    2    1    2    0    0  0.00000000000E+00  0.00000000000E+00 -0.66894925635E+03  0.38282402810E+04  0.37693408630E+04 0.  0.
        5    1    3    3  502    0  0.13286681644E+04 -0.48330160526E+02 -0.16911112400E+04  0.21511797256E+04  0.46999998093E+01 0. -1.
       -5    1    3    3    0  502 -0.13286681644E+04  0.48330160526E+02  0.10221619837E+04  0.16770605554E+04  0.46999998093E+01 0.  1.
</event>
<event>
 5   0  0.1648000E-07  0.3808657E+04  0.7818609E-02  0.8044300E-01
        1   -1    0    0  501    0  0.00000000000E+00  0.00000000000E+00  0.20757334161E+04  0.20757334161E+04  0.50400001928E-02 0. -1.
       -1   -1    0    0    0  501  0.00000000000E+00  0.00000000000E+00 -0.17470778194E+04  0.17470778194E+04  0.50400001928E-02 0.  1.
    10030    2    1    2    0    0  0.00000000000E+00  0.00000000000E+00  0.32865559676E+03  0.38228112355E+04  0.38086574066E+04 0.  0.
        1    1    3    3  502    0 -0.38498008455E+01  0.58692575734E+03  0.19826813278E+04  0.20677335208E+04  0.50400001928E-02 0. -1.
       -1    1    3    3    0  502  0.38498008455E+01 -0.58692575734E+03 -0.16540257310E+04  0.17550777147E+04  0.50400001928E-02 0.  1.
</event>
<event>
 5   0  0.5132561E-07  0.3852067E+04  0.7818609E-02  0.8035073E-01
        2   -1    0    0  501    0  0.00000000000E+00  0.00000000000E+00  0.24687805635E+04  0.24687805635E+04  0.25500000920E-02 0. -1.
       -2   -1    0    0    0  501  0.00000000000E+00  0.00000000000E+00 -0.15026063811E+04  0.15026063811E+04  0.25500000920E-02 0.  1.
    10030    2    1    2    0    0  0.00000000000E+00  0.00000000000E+00  0.96617418244E+03  0.39713869446E+04  0.38520672000E+04 0.  0.
        3    1    3    3  502    0 -0.72654385153E+03  0.14885822252E+04  0.14963122870E+04  0.22321947674E+04  0.10100000352E+00 0.  1.
       -3    1    3    3    0  502  0.72654385153E+03 -0.14885822252E+04 -0.53013810453E+03  0.17391921772E+04  0.10100000352E+00 0. -1.
</event>
<event>
 5   0  0.1648000E-07  0.3821056E+04  0.7818609E-02  0.8041651E-01
        1   -1    0    0  501    0  0.00000000000E+00  0.00000000000E+00  0.21040747983E+04  0.21040747983E+04  0.50400001928E-02 0. -1.
       -1   -1    0    0    0  501  0.00000000000E+00  0.00000000000E+00 -0.17347850395E+04  0.17347850395E+04  0.50400001928E-02 0.  1.
    10030    2    1    2    0    0  0.00000000000E+00  0.00000000000E+00  0.36928975887E+03  0.38388598378E+04  0.38210561273E+04 0.  0.
        4    1    3    3  502    0  0.86143595823E+03  0.16885376308E+04  0.42426114853E+03  0.19424804698E+04  0.12699999809E+01 0.  1.
       -4    1    3    3    0  502 -0.86143595823E+03 -0.16885376308E+04 -0.54971389660E+02  0.18963793680E+04  0.12699999809E+01 0. -1.
</event>
<event>
 5   0  0.5325362E-07  0.3559019E+04  0.7818609E-02  0.8099944E-01
        2   -1    0    0  501    0  0.00000000000E+00  0.00000000000E+00  0.14566954618E+04  0.14566954618E+04  0.25500000920E-02 0. -1.
       -2   -1    0    0    0  501  0.00000000000E+00  0.00000000000E+00 -0.21738609367E+04  0.21738609367E+04  0.25500000920E-02 0.  1.
    10030    2    1    2    0    0  0.00000000000E+00  0.00000000000E+00 -0.71716547494E+03  0.36305563986E+04  0.35590186070E+04 0.  0.
        4    1    3    3  502    0 -0.10277438059E+04 -0.34161728186E+03 -0.17989457740E+04  0.20998017069E+04  0.12699999809E+01 0.  1.
       -4    1    3    3    0  502  0.10277438059E+04  0.34161728186E+03  0.10817802990E+04  0.15307546917E+04  0.12699999809E+01 0. -1.
</event>
<event>
 5   0  0.5202788E-07  0.3798014E+04  0.7818609E-02  0.8046581E-01
        2   -1    0    0  501    0  0.00000000000E+00  0.00000000000E+00  0.11234021949E+04  0.11234021949E+04  0.25500000920E-02 0.  1.
       -2   -1    0    0    0  501  0.00000000000E+00  0.00000000000E+00 -0.32100952280E+04  0.32100952280E+04  0.25500000920E-02 0. -1.
    10030    2    1    2    0    0  0.00000000000E+00  0.00000000000E+00 -0.20866930331E+04  0.43334974229E+04  0.37980142311E+04 0.  0.
        1    1    3    3  502    0  0.23697910313E+03  0.11133384908E+04 -0.27777067051E+04  0.30018887771E+04  0.50400001928E-02 0. -1.
       -1    1    3    3    0  502 -0.23697910313E+03 -0.11133384908E+04  0.69101367204E+03  0.13316086458E+04  0.50400001928E-02 0.  1.
</event>
<event>
 5   0  0.1648000E-07  0.3751786E+04  0.7818609E-02  0.8056581E-01
        1   -1    0    0  501    0  0.00000000000E+00  0.00000000000E+00  0.29903554811E+04  0.29903554811E+04  0.50400001928E-02 0. -1.
       -1   -1    0    0    0  501  0.00000000000E+00  0.00000000000E+00 -0.11767745711E+04  0.11767745711E+04  0.50400001928E-02 0.  1.
    10030    2    1    2    0    0  0.00000000000E+00  0.00000000000E+00  0.18135809101E+04  0.41671300522E+04  0.37517858621E+04 0.  0.
        3    1    3    3  502    0 -0.46458684307E+03  0.82437684998E+03  0.27058375764E+04  0.28665301543E+04  0.10100000352E+00 0. -1.
       -3    1    3    3    0  502  0.46458684307E+03 -0.82437684998E+03 -0.89225666635E+03  0.13005998979E+04  0.10100000352E+00 0.  1.
</event>
<event>
 5   0  0.5132561E-07  0.3078750E+04  0.7818609E-02  0.8221594E-01
       -2   -1    0    0    0  501  0.00000000000E+00  0.00000000000E+00  0.10115316013E+04  0.10115316013E+04  0.25500000920E-02 0. -1.
        2   -1    0    0  501    0  0.00000000000E+00  0.00000000000E+00 -0.23426608953E+04  0.23426608953E+04  0.25500000920E-02 0.  1.
    10030    2    1    2    0    0  0.00000000000E+00  0.00000000000E+00 -0.13311292940E+04  0.33541924966E+04  0.30787500884E+04 0.  0.
        3    1    3    3  502    0  0.80649098320E+03  0.56003585975E+03  0.62608759248E+03  0.11644971249E+04  0.10100000352E+00 0. -1.
       -3    1    3    3    0  502 -0.80649098320E+03 -0.56003585975E+03 -0.19572168865E+04  0.21896953718E+04  0.10100000352E+00 0.  1.
</event>
<event>
 5   0  0.1648000E-07  0.3316502E+04  0.7818609E-02  0.8158709E-01
        1   -1    0    0  501    0  0.00000000000E+00  0.00000000000E+00  0.21406343684E+04  0.21406343684E+04  0.50400001928E-02 0.  1.
       -1   -1    0    0    0  501  0.00000000000E+00  0.00000000000E+00 -0.12845710996E+04  0.12845710996E+04  0.50400001928E-02 0. -1.
    10030    2    1    2    0    0  0.00000000000E+00  0.00000000000E+00  0.85606326876E+03  0.34252054680E+04  0.33165024013E+04 0.  0.
        4    1    3    3  502    0 -0.49484868468E+03  0.32243966720E+03 -0.11722562980E+04  0.13126419926E+04  0.12699999809E+01 0. -1.
       -4    1    3    3    0  502  0.49484868468E+03 -0.32243966720E+03  0.20283195668E+04  0.21125634754E+04  0.12699999809E+01 0.  1.
</event>
<event>
 5   0  0.5158266E-07  0.3755884E+04  0.7818609E-02  0.8055689E-01
        2   -1    0    0  501    0  0.00000000000E+00  0.00000000000E+00  0.21475023359E+04  0.21475023359E+04  0.25500000920E-02 0.  1.
       -2   -1    0    0    0  501  0.00000000000E+00  0.00000000000E+00 -0.16422175272E+04  0.16422175272E+04  0.25500000920E-02 0. -1.
    10030    2    1    2    0    0  0.00000000000E+00  0.00000000000E+00  0.50528480865E+03  0.37897198631E+04  0.37558839044E+04 0.  0.
        2    1    3    3  502    0 -0.53196670099E+03 -0.60658576558E+03 -0.14584327554E+04  0.16667216216E+04  0.25500000920E-02 0. -1.
       -2    1    3    3    0  502  0.53196670099E+03  0.60658576558E+03  0.19637175641E+04  0.21229982415E+04  0.25500000920E-02 0.  1.
</event>
<event>
 5   0  0.1648000E-07  0.3801763E+04  0.7818609E-02  0.8045777E-01
        1   -1    0    0  501    0  0.00000000000E+00  0.00000000000E+00  0.24791310205E+04  0.24791310205E+04  0.50400001928E-02 0.  1.
       -1   -1    0    0    0  501  0.00000000000E+00  0.00000000000E+00 -0.14575068275E+04  0.14575068275E+04  0.50400001928E-02 0. -1.
    10030    2    1    2    0    0  0.00000000000E+00  0.00000000000E+00  0.10216241930E+04  0.39366378480E+04  0.38017629535E+04 0.  0.
        4    1    3    3  502    0  0.17513694931E+04 -0.71903864518E+03  0.33436396775E+03  0.19225276462E+04  0.12699999809E+01 0. -1.
       -4    1    3    3    0  502 -0.17513694931E+04  0.71903864518E+03  0.68726022529E+03  0.20141102018E+04  0.12699999809E+01 0.  1.
</event>
<event>
 5   0  0.1648000E-07  0.3749972E+04  0.7818609E-02  0.8056977E-01
        1   -1    0    0  501    0  0.00000000000E+00  0.00000000000E+00  0.21517389526E+04  0.21517389526E+04  0.50400001928E-02 0. -1.
       -1   -1    0    0    0  501  0.00000000000E+00  0.00000000000E+00 -0.16338288543E+04  0.16338288543E+04  0.50400001928E-02 0.  1.
    10030    2    1    2    0    0  0.00000000000E+00  0.00000000000E+00  0.51791009833E+03  0.37855678069E+04  0.37499723666E+04 0.  0.
        4    1    3    3  502    0 -0.12522752302E+04  0.87617127346E+03  0.13554058799E+04  0.20427912436E+04  0.12699999809E+01 0. -1.
       -4    1    3    3    0  502  0.12522752302E+04 -0.87617127346E+03 -0.83749578159E+03  0.17427765633E+04  0.12699999809E+01 0.  1.
</event>
<event>
 5   0  0.1648000E-07  0.3787821E+04  0.7818609E-02  0.8048774E-01
        1   -1    0    0  501    0  0.00000000000E+00  0.00000000000E+00  0.24068933905E+04  0.24068933905E+04  0.50400001928E-02 0.  1.
       -1   -1    0    0    0  501  0.00000000000E+00  0.00000000000E+00 -0.14902597119E+04  0.14902597119E+04  0.50400001928E-02 0. -1.
    10030    2    1    2    0    0  0.00000000000E+00  0.00000000000E+00  0.91663367856E+03  0.38971531024E+04  0.37878206138E+04 0.  0.
        2    1    3    3  502    0 -0.32577705530E+03  0.55216729745E+03  0.22918547347E+04  0.23798356118E+04  0.25500000920E-02 0.  1.
       -2    1    3    3    0  502  0.32577705530E+03 -0.55216729745E+03 -0.13752210561E+04  0.15173174906E+04  0.25500000920E-02 0. -1.
</event>
<event>
 5   0  0.5158266E-07  0.3805398E+04  0.7818609E-02  0.8044997E-01
        2   -1    0    0  501    0  0.00000000000E+00  0.00000000000E+00  0.26028135060E+04  0.26028135060E+04  0.25500000920E-02 0.  1.
       -2   -1    0    0    0  501  0.00000000000E+00  0.00000000000E+00 -0.13909041283E+04  0.13909041283E+04  0.25500000920E-02 0. -1.
    10030    2    1    2    0    0  0.00000000000E+00  0.00000000000E+00  0.12119093777E+04  0.39937176343E+04  0.38053982975E+04 0.  0.
        2    1    3    3  502    0 -0.79235777421E+03  0.14691714371E+03 -0.12029575348E+04  0.14479372638E+04  0.25500000920E-02 0. -1.
       -2    1    3    3    0  502  0.79235777421E+03 -0.14691714371E+03  0.24148669125E+04  0.25457803704E+04  0.25500000920E-02 0.  1.
</event>
<event>
 5   0  0.5202788E-07  0.3898851E+04  0.7818609E-02  0.8025268E-01
       -2   -1    0    0    0  501  0.00000000000E+00  0.00000000000E+00  0.17378833092E+04  0.17378833092E+04  0.25500000920E-02 0. -1.
        2   -1    0    0  501    0  0.00000000000E+00  0.00000000000E+00 -0.21867171902E+04  0.21867171902E+04  0.25500000920E-02 0.  1.
    10030    2    1    2    0    0  0.00000000000E+00  0.00000000000E+00 -0.44883388099E+03  0.39246004993E+04  0.38988507571E+04 0.  0.
        1    1    3    3  502    0 -0.54512595234E+03 -0.33675607575E+03 -0.20776881753E+04  0.21742481717E+04  0.50400001928E-02 0.  1.
       -1    1    3    3    0  502  0.54512595234E+03  0.33675607575E+03  0.16288542943E+04  0.17503523276E+04  0.50400001928E-02 0. -1.
</event>
<event>
 5   0  0.5134434E-07  0.3777297E+04  0.7818609E-02  0.8051045E-01
       -2   -1    0    0    0  501  0.00000000000E+00  0.00000000000E+00  0.14884497932E+04  0.14884497932E+04  0.25500000920E-02 0.  1.
        2   -1    0    0  501    0  0.00000000000E+00  0.00000000000E+00 -0.23964479131E+04  0.23964479131E+04  0.25500000920E-02 0. -1.
    10030    2    1    2    0    0  0.00000000000E+00  0.00000000000E+00 -0.90799811984E+03  0.38848977063E+04  0.37772965998E+04 0.  0.
        5    1    3    3  502    0  0.88883703127E+03 -0.15588586364E+04 -0.10597580878E+04  0.20840299448E+04  0.46999998093E+01 0. -1.
       -5    1    3    3    0  502 -0.88883703127E+03  0.15588586364E+04  0.15175996800E+03  0.18008677614E+04  0.46999998093E+01 0.  1.
</event>
<event>
 5   0  0.5202788E-07  0.3756312E+04  0.7818609E-02  0.8055596E-01
       -2   -1    0    0    0  501  0.00000000000E+00  0.00000000000E+00  0.14748645346E+04  0.14748645346E+04  0.25500000920E-02 0. -1.
        2   -1    0    0  501    0  0.00000000000E+00  0.00000000000E+00 -0.23917241842E+04  0.23917241842E+04  0.25500000920E-02 0.  1.
    10030    2    1    2    0    0  0.00000000000E+00  0.00000000000E+00 -0.91685964959E+03  0.38665887188E+04  0.37563115823E+04 0.  0.
        1    1    3    3  502    0 -0.10692195966E+04 -0.14706168712E+04 -0.94291154758E+03  0.20481764363E+04  0.50400001928E-02 0. -1.
       -1    1    3    3    0  502  0.10692195966E+04  0.14706168712E+04  0.26051897996E+02  0.18184122825E+04  0.50400001928E-02 0.  1.
</event>
<event>
 5   0  0.1648000E-07  0.3818720E+04  0.7818609E-02  0.8042150E-01
       -1   -1    0    0    0  501  0.00000000000E+00  0.00000000000E+00  0.15232478243E+04  0.15232478243E+04  0.50400001928E-02 0.  1.
        1   -1    0    0  501    0  0.00000000000E+00  0.00000000000E+00 -0.23933432607E+04  0.23933432607E+04  0.50400001928E-02 0. -1.
    10030    2    1    2    0    0  0.00000000000E+00  0.00000000000E+00 -0.87009543639E+03  0.39165910851E+04  0.38187196361E+04 0.  0.
        1    1    3    3  502    0 -0.29984300045E+03  0.17340857322E+04 -0.11947724423E+04  0.21270731864E+04  0.50400001928E-02 0. -1.
       -1    1    3    3    0  502  0.29984300045E+03 -0.17340857322E+04  0.32467700592E+03  0.17895178987E+04  0.50400001928E-02 0.  1.
</event>
<event>
 5   0  0.5134434E-07  0.3797580E+04  0.7818609E-02  0.8046674E-01
       -2   -1    0    0    0  501  0.00000000000E+00  0.00000000000E+00  0.23636287091E+04  0.23636287091E+04  0.25500000920E-02 0. -1.
        2   -1    0    0  501    0  0.00000000000E+00  0.00000000000E+00 -0.15253678604E+04  0.15253678604E+04  0.25500000920E-02 0.  1.
    10030    2    1    2    0    0  0.00000000000E+00  0.00000000000E+00  0.83826084875E+03  0.38889965695E+04  0.37975798961E+04 0.  0.
        5    1    3    3  502    0  0.10238174694E+04  0.15241353344E+04  0.91471208872E+03  0.20513193372E+04  0.46999998093E+01 0. -1.
       -5    1    3    3    0  502 -0.10238174694E+04 -0.15241353344E+04 -0.76451239968E+02  0.18376772323E+04  0.46999998093E+01 0.  1.
</event>
<event>
 5   0  0.5325362E-07  0.3565445E+04  0.7818609E-02  0.8098453E-01
        2   -1    0    0  501    0  0.00000000000E+00  0.00000000000E+00  0.17180250961E+04  0.17180250961E+04  0.25500000920E-02 0.  1.
       -2   -1    0    0    0  501  0.00000000000E+00  0.00000000000E+00 -0.18498561936E+04  0.18498561936E+04  0.25500000920E-02 0. -1.
    10030    2    1    2    0    0  0.00000000000E+00  0.00000000000E+00 -0.13183109757E+03  0.35678812897E+04  0.35654449174E+04 0.  0.
        4    1    3    3  502    0  0.68550474007E+03  0.10610199905E+04  0.11928858437E+04  0.17374286800E+04  0.12699999809E+01 0.  1.
       -4    1    3    3    0  502 -0.68550474007E+03 -0.10610199905E+04 -0.13247169413E+04  0.18304526097E+04  0.12699999809E+01 0. -1.
</event>
<event>
 5   0  0.5325362E-07  0.3800196E+04  0.7818609E-02  0.8046113E-01
       -2   -1    0    0    0  501  0.00000000000E+00  0.00000000000E+00  0.14860775728E+04  0.14860775728E+04  0.25500000920E-02 0.  1.
        2   -1    0    0  501    0  0.00000000000E+00  0.00000000000E+00 -0.24294642309E+04  0.24294642309E+04  0.25500000920E-02 0. -1.
    10030    2    1    2    0    0  0.00000000000E+00  0.00000000000E+00 -0.94338665815E+03  0.39155418037E+04  0.38001959463E+04 0.  0.
        4    1    3    3  502    0 -0.91813227063E+03 -0.75232594709E+03  0.10570560462E+04  0.15894433915E+04  0.12699999809E+01 0.  1.
       -4    1    3    3    0  502  0.91813227063E+03  0.75232594709E+03 -0.20004427044E+04  0.23260984122E+04  0.12699999809E+01 0. -1.
</event>
<event>
 5   0  0.1648000E-07  0.3420719E+04  0.7818609E-02  0.8132840E-01
        1   -1    0    0  501    0  0.00000000000E+00  0.00000000000E+00  0.18231626123E+04  0.18231626123E+04  0.50400001928E-02 0. -1.
       -1   -1    0    0    0  501  0.00000000000E+00  0.00000000000E+00 -0.16045362186E+04  0.16045362186E+04  0.50400001928E-02 0.  1.
    10030    2    1    2    0    0  0.00000000000E+00  0.00000000000E+00  0.21862639370E+03  0.34276988310E+04  0.34207194822E+04 0.  0.
        2    1    3    3  502    0  0.46140986196E+03  0.16225688251E+04 -0.17357787133E+03  0.16958059825E+04  0.25500000920E-02 0.  1.
       -2    1    3    3    0  502 -0.46140986196E+03 -0.16225688251E+04  0.39220426503E+03  0.17318928485E+04  0.25500000920E-02 0. -1.
</event>
<event>
 5   0  0.1648000E-07  0.3805148E+04  0.7818609E-02  0.8045051E-01
        1   -1    0    0  501    0  0.00000000000E+00  0.00000000000E+00  0.25072205590E+04  0.25072205590E+04  0.50400001928E-02 0. -1.
       -1   -1    0    0    0  501  0.00000000000E+00  0.00000000000E+00 -0.14437450537E+04  0.14437450537E+04  0.50400001928E-02 0.  1.
    10030    2    1    2    0    0  0.00000000000E+00  0.00000000000E+00  0.10634755053E+04  0.39509656127E+04  0.38051477137E+04 0.  0.
        3    1    3    3  502    0 -0.18183628520E+04  0.43533514073E+03  0.89711342100E+03  0.20738304286E+04  0.10100000352E+00 0. -1.
       -3    1    3    3    0  502  0.18183628520E+04 -0.43533514073E+03  0.16636208427E+03  0.18771351841E+04  0.10100000352E+00 0.  1.
</event>
<event>
 5   0  0.1656617E-07  0.3851166E+04  0.7818609E-02  0.8035263E-01
        1   -1    0    0  501    0  0.00000000000E+00  0.00000000000E+00  0.22198322820E+04  0.22198322820E+04  0.50400001928E-02 0.  1.
       -1   -1    0    0    0  501  0.00000000000E+00  0.00000000000E+00 -0.16703376135E+04  0.16703376135E+04  0.50400001928E-02 0. -1.
    10030    2    1    2    0    0  0.00000000000E+00  0.00000000000E+00  0.54949466852E+03  0.38901698956E+04  0.38511657229E+04 0.  0.
        5    1    3    3  502    0  0.10667353372E+04  0.76807459448E+03 -0.11466229965E+04  0.17443134032E+04  0.46999998093E+01 0. -1.
       -5    1    3    3    0  502 -0.10667353372E+04 -0.76807459448E+03  0.16961176650E+04  0.21458564924E+04  0.46999998093E+01 0.  1.
</event>
<event>
 5   0  0.5325362E-07  0.3516993E+04  0.7818609E-02  0.8109775E-01
       -2   -1    0    0    0  501  0.00000000000E+00  0.00000000000E+00  0.29745481643E+04  0.29745481643E+04  0.25500000920E-02 0. -1.
        2   -1    0    0  501    0  0.00000000000E+00  0.00000000000E+00 -0.10395898067E+04  0.10395898067E+04  0.25500000920E-02 0.  1.
    10030    2    1    2    0    0  0.00000000000E+00  0.00000000000E+00  0.19349583576E+04  0.40141379710E+04  0.35169930060E+04 0.  0.
        4    1    3    3  502    0 -0.39689822353E+03 -0.11365710314E+04 -0.49549876644E+03  0.13018611868E+04  0.12699999809E+01 0.  1.
       -4    1    3    3    0  502  0.39689822353E+03  0.11365710314E+04  0.24304571241E+04  0.27122767842E+04  0.12699999809E+01 0. -1.
</event>
<event>
 5   0  0.5134434E-07  0.3826309E+04  0.7818609E-02  0.8040533E-01
        2   -1    0    0  501    0  0.00000000000E+00  0.00000000000E+00  0.20405298188E+04  0.20405298188E+04  0.25500000920E-02 0.  1.
       -2   -1    0    0    0  501  0.00000000000E+00  0.00000000000E+00 -0.17937301918E+04  0.17937301918E+04  0.25500000920E-02 0. -1.
    10030    2    1    2    0    0  0.00000000000E+00  0.00000000000E+00  0.24679962706E+03  0.38342600106E+04  0.38263088967E+04 0.  0.
        5    1    3    3  502    0 -0.15188197328E+04  0.25778322935E+03  0.12601610492E+04  0.19902998603E+04  0.46999998093E+01 0.  1.
       -5    1    3    3    0  502  0.15188197328E+04 -0.25778322935E+03 -0.10133614221E+04  0.18439601503E+04  0.46999998093E+01 0. -1.
</event>
<event>
 5   0  0.5202788E-07  0.3807100E+04  0.7818609E-02  0.8044633E-01
       -2   -1    0    0    0  501  0.00000000000E+00  0.00000000000E+00  0.13936207981E+04  0.13936207982E+04  0.25500000920E-02 0.  1.
        2   -1    0    0  501    0  0.00000000000E+00  0.00000000000E+00 -0.26000634454E+04  0.26000634454E+04  0.25500000920E-02 0. -1.
    10030    2    1    2    0    0  0.00000000000E+00  0.00000000000E+00 -0.12064426472E+04  0.39936842435E+04  0.38070999430E+04 0.  0.
        1    1    3    3  502    0  0.19677649330E+03  0.81397914104E+03  0.11900081215E+04  0.14551296711E+04  0.50400001928E-02 0.  1.
       -1    1    3    3    0  502 -0.19677649330E+03 -0.81397914104E+03 -0.23964507687E+04  0.25385545725E+04  0.50400001928E-02 0. -1.
</event>
<event>
 5   0  0.5202788E-07  0.3816409E+04  0.7818609E-02  0.8042643E-01
       -2   -1    0    0    0  501  0.00000000000E+00  0.00000000000E+00  0.27147040643E+04  0.27147040643E+04  0.25500000920E-02 0. -1.
        2   -1    0    0  501    0  0.00000000000E+00  0.00000000000E+00 -0.13413043257E+04  0.13413043257E+04  0.25500000920E-02 0.  1.
    10030    2    1    2    0    0  0.00000000000E+00  0.00000000000E+00  0.13733997386E+04  0.40560083900E+04  0.38164089427E+04 0.  0.
        1    1    3    3  502    0 -0.13335197718E+04  0.11613098822E+04 -0.75491999032E+02  0.17699193953E+04  0.50400001928E-02 0. -1.
       -1    1    3    3    0  502  0.13335197718E+04 -0.11613098822E+04  0.14488917376E+04  0.22860889946E+04  0.50400001928E-02 0.  1.
</event>
<event>
 5   0  0.1648000E-07  0.3392893E+04  0.7818609E-02  0.8139653E-01
        3   -1    0    0  501    0  0.00000000000E+00  0.00000000000E+00  0.17661290590E+04  0.17661290618E+04  0.10100000352E+00 0.  1.
       -3   -1    0    0    0  501  0.00000000000E+00  0.00000000000E+00 -0.16295136426E+04  0.16295136457E+04  0.10100000352E+00 0. -1.
    10030    2    1    2    0    0  0.00000000000E+00  0.00000000000E+00  0.13661541637E+03  0.33956427076E+04  0.33928934002E+04 0.  0.
        1    1    3    3  502    0  0.78215588687E+03  0.10286105430E+04 -0.10317298536E+04  0.16535640209E+04  0.50400001928E-02 0. -1.
       -1    1    3    3    0  502 -0.78215588687E+03 -0.10286105430E+04  0.11683452700E+04  0.17420786866E+04  0.50400001928E-02 0.  1.
</event>
<event>
 5   0  0.1648000E-07  0.3694678E+04  0.7818609E-02  0.8069142E-01
        3   -1    0    0  501    0  0.00000000000E+00  0.00000000000E+00  0.16015580523E+04  0.16015580555E+04  0.10100000352E+00 0. -1.
       -3   -1    0    0    0  501  0.00000000000E+00  0.00000000000E+00 -0.21308378969E+04  0.21308378993E+04  0.10100000352E+00 0.  1.
    10030    2    1    2    0    0  0.00000000000E+00  0.00000000000E+00 -0.52927984459E+03  0.37323959547E+04  0.36946775785E+04 0.  0.
        3    1    3    3  502    0  0.90361047636E+03  0.14618438489E+04  0.41989212452E+03  0.17691265466E+04  0.10100000352E+00 0. -1.
       -3    1    3    3    0  502 -0.90361047636E+03 -0.14618438489E+04 -0.94917196911E+03  0.19632694081E+04  0.10100000352E+00 0.  1.
</event>
<event>
 5   0  0.5325362E-07  0.3748363E+04  0.7818609E-02  0.8057328E-01
       -2   -1    0    0    0  501  0.00000000000E+00  0.00000000000E+00  0.15038905136E+04  0.15038905136E+04  0.25500000920E-02 0. -1.
        2   -1    0    0  501    0  0.00000000000E+00  0.00000000000E+00 -0.23356464728E+04  0.23356464728E+04  0.25500000920E-02 0.  1.
    10030    2    1    2    0    0  0.00000000000E+00  0.00000000000E+00 -0.83175595923E+03  0.38395369864E+04  0.37483631486E+04 0.  0.
        4    1    3    3  502    0  0.45209159001E+03  0.18050955431E+04 -0.64446110753E+03  0.19692862813E+04  0.12699999809E+01 0. -1.
       -4    1    3    3    0  502 -0.45209159001E+03 -0.18050955431E+04 -0.18729485169E+03  0.18702507051E+04  0.12699999809E+01 0.  1.
</event>
<event>
 5   0  0.1648000E-07  0.3768375E+04  0.7818609E-02  0.8052976E-01
        1   -1    0    0  501    0  0.00000000000E+00  0.00000000000E+00  0.22748594411E+04  0.22748594411E+04  0.50400001928E-02 0. -1.
       -1   -1    0    0    0  501  0.00000000000E+00  0.00000000000E+00 -0.15606077471E+04  0.15606077471E+04  0.50400001928E-02 0.  1.
    10030    2    1    2    0    0  0.00000000000E+00  0.00000000000E+00  0.71425169399E+03  0.38354671883E+04  0.37683753887E+04 0.  0.
        4    1    3    3  502    0 -0.19961132927E+03  0.49333521091E+03 -0.14825212333E+04  0.15751492416E+04  0.12699999809E+01 0.  1.
       -4    1    3    3    0  502  0.19961132927E+03 -0.49333521091E+03  0.21967729273E+04  0.22603179467E+04  0.12699999809E+01 0. -1.
</event>
<event>
 5   0  0.5325362E-07  0.3644099E+04  0.7818609E-02  0.8080464E-01
       -2   -1    0    0    0  501  0.00000000000E+00  0.00000000000E+00  0.21096991965E+04  0.21096991965E+04  0.25500000920E-02 0. -1.
        2   -1    0    0  501    0  0.00000000000E+00  0.00000000000E+00 -0.15736194613E+04  0.15736194613E+04  0.25500000920E-02 0.  1.
    10030    2    1    2    0    0  0.00000000000E+00  0.00000000000E+00  0.53607973514E+03  0.36833186578E+04  0.36440986338E+04 0.  0.
        4    1    3    3  502    0  0.16591634147E+04  0.46743339652E+03 -0.32869102997E+03  0.17548095689E+04  0.12699999809E+01 0.  1.
       -4    1    3    3    0  502 -0.16591634147E+04 -0.46743339652E+03  0.86477076510E+03  0.19285090889E+04  0.12699999809E+01 0. -1.
</event>
<event>
 5   0  0.1648000E-07  0.2876877E+04  0.7818609E-02  0.8279791E-01
       -1   -1    0    0    0  501  0.00000000000E+00  0.00000000000E+00  0.22670556023E+04  0.22670556023E+04  0.50400001928E-02 0. -1.
        1   -1    0    0  501    0  0.00000000000E+00  0.00000000000E+00 -0.91268388721E+03  0.91268388723E+03  0.50400001928E-02 0.  1.
    10030    2    1    2    0    0  0.00000000000E+00  0.00000000000E+00  0.13543717151E+04  0.31797394896E+04  0.28768768619E+04 0.  0.
        3    1    3    3  502    0 -0.24187716348E+02  0.10695917667E+04  0.17399140505E+04  0.20425260111E+04  0.10100000352E+00 0. -1.
       -3    1    3    3    0  502  0.24187716348E+02 -0.10695917667E+04 -0.38554233533E+03  0.11372134784E+04  0.10100000352E+00 0.  1.
</event>
<event>
 5   0  0.1648000E-07  0.3192706E+04  0.7818609E-02  0.8190746E-01
       -1   -1    0    0    0  501  0.00000000000E+00  0.00000000000E+00  0.14978992505E+04  0.14978992505E+04  0.50400001928E-02 0.  1.
        1   -1    0    0  501    0  0.00000000000E+00  0.00000000000E+00 -0.17012783378E+04  0.17012783378E+04  0.50400001928E-02 0. -1.
    10030    2    1    2    0    0  0.00000000000E+00  0.00000000000E+00 -0.20337908728E+03  0.31991775882E+04  0.31927064049E+04 0.  0.
        4    1    3    3  502    0  0.73363754999E+03 -0.10351283137E+04  0.86910191183E+03  0.15378733455E+04  0.12699999809E+01 0.  1.
       -4    1    3    3    0  502 -0.73363754999E+03  0.10351283137E+04 -0.10724809991E+04  0.16613042428E+04  0.12699999809E+01 0. -1.
</event>
<event>
 5   0  0.1648000E-07  0.3656511E+04  0.7818609E-02  0.8077668E-01
       -1   -1    0    0    0  501  0.00000000000E+00  0.00000000000E+00  0.16081251050E+04  0.16081251050E+04  0.50400001928E-02 0. -1.
        1   -1    0    0  501    0  0.00000000000E+00  0.00000000000E+00 -0.20785189035E+04  0.20785189035E+04  0.50400001928E-02 0.  1.
    10030    2    1    2    0    0  0.00000000000E+00  0.00000000000E+00 -0.47039379851E+03  0.36866440085E+04  0.36565111404E+04 0.  0.
        2    1    3    3  502    0 -0.11616740133E+04  0.12570320108E+04  0.41267333480E+03  0.17606576245E+04  0.25500000920E-02 0. -1.
       -2    1    3    3    0  502  0.11616740133E+04 -0.12570320108E+04 -0.88306713331E+03  0.19259863840E+04  0.25500000920E-02 0.  1.
</event>
<event>
 5   0  0.5202788E-07  0.3786698E+04  0.7818609E-02  0.8049016E-01
       -2   -1    0    0    0  501  0.00000000000E+00  0.00000000000E+00  0.24723222796E+04  0.24723222796E+04  0.25500000920E-02 0. -1.
        2   -1    0    0  501    0  0.00000000000E+00  0.00000000000E+00 -0.14499606737E+04  0.14499606737E+04  0.25500000920E-02 0.  1.
    10030    2    1    2    0    0  0.00000000000E+00  0.00000000000E+00  0.10223616058E+04  0.39222829533E+04  0.37866978111E+04 0.  0.
        1    1    3    3  502    0 -0.49346346373E+03 -0.14686332000E+04  0.16384402403E+04  0.22549669814E+04  0.50400001928E-02 0. -1.
       -1    1    3    3    0  502  0.49346346373E+03  0.14686332000E+04 -0.61607863448E+03  0.16673159719E+04  0.50400001928E-02 0.  1.
</event>
<event>
 5   0  0.1648000E-07  0.3805936E+04  0.7818609E-02  0.8044882E-01
       -1   -1    0    0    0  501  0.00000000000E+00  0.00000000000E+00  0.16736219722E+04  0.16736219722E+04  0.50400001928E-02 0. -1.
        1   -1    0    0  501    0  0.00000000000E+00  0.00000000000E+00 -0.21637422168E+04  0.21637422168E+04  0.50400001928E-02 0.  1.
    10030    2    1    2    0    0  0.00000000000E+00  0.00000000000E+00 -0.49012024464E+03  0.38373641891E+04  0.38059356360E+04 0.  0.
        3    1    3    3  502    0  0.75410522232E+03  0.17031827231E+04  0.14774710561E+03  0.18685115178E+04  0.10100000352E+00 0. -1.
       -3    1    3    3    0  502 -0.75410522232E+03 -0.17031827231E+04 -0.63786735025E+03  0.19688526713E+04  0.10100000352E+00 0.  1.
</event>
<event>
 5   0  0.5202788E-07  0.3702074E+04  0.7818609E-02  0.8067502E-01
       -2   -1    0    0    0  501  0.00000000000E+00  0.00000000000E+00  0.14409484461E+04  0.14409484461E+04  0.25500000920E-02 0.  1.
        2   -1    0    0  501    0  0.00000000000E+00  0.00000000000E+00 -0.23778356149E+04  0.23778356149E+04  0.25500000920E-02 0. -1.
    10030    2    1    2    0    0  0.00000000000E+00  0.00000000000E+00 -0.93688716883E+03  0.38187840611E+04  0.37020743020E+04 0.  0.
        1    1    3    3  502    0 -0.72605732545E+03 -0.16882736978E+04 -0.69657452932E+03  0.19653608813E+04  0.50400001928E-02 0. -1.
       -1    1    3    3    0  502  0.72605732545E+03  0.16882736978E+04 -0.24031263951E+03  0.18534231798E+04  0.50400001928E-02 0.  1.
</event>
<event>
 5   0  0.5158266E-07  0.3856443E+04  0.7818609E-02  0.8034150E-01
        2   -1    0    0  501    0  0.00000000000E+00  0.00000000000E+00  0.20207129199E+04  0.20207129199E+04  0.25500000920E-02 0.  1.
       -2   -1    0    0    0  501  0.00000000000E+00  0.00000000000E+00 -0.18399637026E+04  0.18399637026E+04  0.25500000920E-02 0. -1.
    10030    2    1    2    0    0  0.00000000000E+00  0.00000000000E+00  0.18074921733E+03  0.38606766225E+04  0.38564431415E+04 0.  0.
        2    1    3    3  502    0  0.14736833902E+04  0.48843106046E+03  0.12351905491E+04  0.19839363215E+04  0.25500000920E-02 0.  1.
       -2    1    3    3    0  502 -0.14736833902E+04 -0.48843106046E+03 -0.10544413317E+04  0.18767403010E+04  0.25500000920E-02 0. -1.
</event>
<event>
 5   0  0.5325362E-07  0.3816195E+04  0.7818609E-02  0.8042688E-01
       -2   -1    0    0    0  501  0.00000000000E+00  0.00000000000E+00  0.17790955686E+04  0.17790955686E+04  0.25500000920E-02 0.  1.
        2   -1    0    0  501    0  0.00000000000E+00  0.00000000000E+00 -0.20464533438E+04  0.20464533438E+04  0.25500000920E-02 0. -1.
    10030    2    1    2    0    0  0.00000000000E+00  0.00000000000E+00 -0.26735777522E+03  0.38255489123E+04  0.38161950030E+04 0.  0.
        4    1    3    3  502    0  0.25724422806E+03  0.18665607309E+04  0.16807539330E+03  0.18916856255E+04  0.12699999809E+01 0.  1.
       -4    1    3    3    0  502 -0.25724422806E+03 -0.18665607309E+04 -0.43543316852E+03  0.19338632868E+04  0.12699999809E+01 0. -1.
</event>
<event>
 5   0  0.1648000E-07  0.3861145E+04  0.7818609E-02  0.8033159E-01
        1   -1    0    0  501    0  0.00000000000E+00  0.00000000000E+00  0.14761955062E+04  0.14761955062E+04  0.50400001928E-02 0.  1.
       -1   -1    0    0    0  501  0.00000000000E+00  0.00000000000E+00 -0.25248085658E+04  0.25248085658E+04  0.50400001928E-02 0. -1.
    10030    2    1    2    0    0  0.00000000000E+00  0.00000000000E+00 -0.10486130596E+04  0.40010040720E+04  0.38611454564E+04 0.  0.
        4    1    3    3  502    0 -0.45588960619E+03  0.57264321679E+03 -0.23754509897E+04  0.24856638156E+04  0.12699999809E+01 0. -1.
       -4    1    3    3    0  502  0.45588960619E+03 -0.57264321679E+03  0.13268379302E+04  0.15153402564E+04  0.12699999809E+01 0.  1.
</event>
<event>
 5   0  0.1648000E-07  0.3767774E+04  0.7818609E-02  0.8053106E-01
        1   -1    0    0  501    0  0.00000000000E+00  0.00000000000E+00  0.14274920473E+04  0.14274920473E+04  0.50400001928E-02 0. -1.
       -1   -1    0    0    0  501  0.00000000000E+00  0.00000000000E+00 -0.24862002856E+04  0.24862002856E+04  0.50400001928E-02 0.  1.
    10030    2    1    2    0    0  0.00000000000E+00  0.00000000000E+00 -0.10587082383E+04  0.39136923328E+04  0.37677744813E+04 0.  0.
        1    1    3    3  502    0  0.43278456722E+03  0.12878693450E+04  0.82622402796E+03  0.15901434136E+04  0.50400001928E-02 0. -1.
       -1    1    3    3    0  502 -0.43278456722E+03 -0.12878693450E+04 -0.18849322663E+04  0.23235489192E+04  0.50400001928E-02 0.  1.
</event>
<event>
 5   0  0.5325362E-07  0.3742954E+04  0.7818609E-02  0.8058509E-01
       -2   -1    0    0    0  501  0.00000000000E+00  0.00000000000E+00  0.20921671325E+04  0.20921671325E+04  0.25500000920E-02 0.  1.
        2   -1    0    0  501    0  0.00000000000E+00  0.00000000000E+00 -0.16740659142E+04  0.16740659142E+04  0.25500000920E-02 0. -1.
    10030    2    1    2    0    0  0.00000000000E+00  0.00000000000E+00  0.41810121829E+03  0.37662330467E+04  0.37429537444E+04 0.  0.
        4    1    3    3  502    0 -0.14942480120E+04  0.57097893816E+03 -0.76839724991E+03  0.17746070032E+04  0.12699999809E+01 0. -1.
       -4    1    3    3    0  502  0.14942480120E+04 -0.57097893816E+03  0.11864984682E+04  0.19916260435E+04  0.12699999809E+01 0.  1.
</event>
<event>
 5   0  0.5134434E-07  0.3790505E+04  0.7818609E-02  0.8048195E-01
       -2   -1    0    0    0  501  0.00000000000E+00  0.00000000000E+00  0.18777485541E+04  0.18777485541E+04  0.25500000920E-02 0. -1.
        2   -1    0    0  501    0  0.00000000000E+00  0.00000000000E+00 -0.19129200839E+04  0.19129200839E+04  0.25500000920E-02 0.  1.
    10030    2    1    2    0    0  0.00000000000E+00  0.00000000000E+00 -0.35171529802E+02  0.37906686380E+04  0.37905054658E+04 0.  0.
        5    1    3    3  502    0 -0.17834444581E+04 -0.29908306152E+03  0.54974458664E+03  0.18900703726E+04  0.46999998093E+01 0. -1.
       -5    1    3    3    0  502  0.17834444581E+04  0.29908306152E+03 -0.58491611644E+03  0.19005982654E+04  0.46999998093E+01 0.  1.
</event>
<event>
 5   0  0.1648000E-07  0.3824168E+04  0.7818609E-02  0.8040988E-01
        1   -1    0    0  501    0  0.00000000000E+00  0.00000000000E+00  0.22633166316E+04  0.22633166316E+04  0.50400001928E-02 0.  1.
       -1   -1    0    0    0  501  0.00000000000E+00  0.00000000000E+00 -0.16153577714E+04  0.16153577714E+04  0.50400001928E-02 0. -1.
    10030    2    1    2    0    0  0.00000000000E+00  0.00000000000E+00  0.64795886024E+03  0.38786744030E+04  0.38241684638E+04 0.  0.
        2    1    3    3  502    0  0.72110243192E+03  0.89059552609E+03 -0.12284960881E+04  0.16799856389E+04  0.25500000920E-02 0. -1.
       -2    1    3    3    0  502 -0.72110243192E+03 -0.89059552609E+03  0.18764549483E+04  0.21986887641E+04  0.25500000920E-02 0.  1.
</event>
<event>
 5   0  0.1648000E-07  0.3841141E+04  0.7818609E-02  0.8037383E-01
        1   -1    0    0  501    0  0.00000000000E+00  0.00000000000E+00  0.17659498495E+04  0.17659498495E+04  0.50400001928E-02 0.  1.
       -1   -1    0    0    0  501  0.00000000000E+00  0.00000000000E+00 -0.20887288517E+04  0.20887288517E+04  0.50400001928E-02 0. -1.
    10030    2    1    2    0    0  0.00000000000E+00  0.00000000000E+00 -0.32277900220E+03  0.38546787011E+04  0.38411406645E+04 0.  0.
        3    1    3    3  502    0 -0.40079422468E+03 -0.11167013258E+04 -0.16769880894E+04  0.20542509398E+04  0.10100000352E+00 0. -1.
       -3    1    3    3    0  502  0.40079422468E+03  0.11167013258E+04  0.13542090872E+04  0.18004277613E+04  0.10100000352E+00 0.  1.
</event>
<event>
 5   0  0.5158266E-07  0.3784042E+04  0.7818609E-02  0.8049588E-01
       -2   -1    0    0    0  501  0.00000000000E+00  0.00000000000E+00  0.14623699391E+04  0.14623699391E+04  0.25500000920E-02 0. -1.
        2   -1    0    0  501    0  0.00000000000E+00  0.00000000000E+00 -0.24479051840E+04  0.24479051840E+04  0.25500000920E-02 0.  1.
    10030    2    1    2    0    0  0.00000000000E+00  0.00000000000E+00 -0.98553524490E+03  0.39102751230E+04  0.37840417306E+04 0.  0.
        2    1    3    3  502    0 -0.79691374775E+03  0.16075157231E+04 -0.11132693010E+04  0.21115271389E+04  0.25500000920E-02 0. -1.
       -2    1    3    3    0  502  0.79691374775E+03 -0.16075157231E+04  0.12773405612E+03  0.17987479842E+04  0.25500000920E-02 0.  1.
</event>
<event>
 5   0  0.5325362E-07  0.3801523E+04  0.7818609E-02  0.8045828E-01
       -2   -1    0    0    0  501  0.00000000000E+00  0.00000000000E+00  0.15350760426E+04  0.15350760426E+04  0.25500000920E-02 0. -1.
        2   -1    0    0  501    0  0.00000000000E+00  0.00000000000E+00 -0.23535604232E+04  0.23535604232E+04  0.25500000920E-02 0.  1.
    10030    2    1    2    0    0  0.00000000000E+00  0.00000000000E+00 -0.81848438059E+03  0.38886364659E+04  0.38015229688E+04 0.  0.
        4    1    3    3  502    0  0.55973831324E+03 -0.15060639329E+04  0.62958724812E+03  0.17256642968E+04  0.12699999809E+01 0. -1.
       -4    1    3    3    0  502 -0.55973831324E+03  0.15060639329E+04 -0.14480716287E+04  0.21629721691E+04  0.12699999809E+01 0.  1.
</event>
<event>
 5   0  0.1648000E-07  0.3800568E+04  0.7818609E-02  0.8046033E-01
        1   -1    0    0  501    0  0.00000000000E+00  0.00000000000E+00  0.32533866535E+04  0.32533866535E+04  0.50400001928E-02 0. -1.
       -1   -1    0    0    0  501  0.00000000000E+00  0.00000000000E+00 -0.11099449907E+04  0.11099449907E+04  0.50400001928E-02 0.  1.
    10030    2    1    2    0    0  0.00000000000E+00  0.00000000000E+00  0.21434416628E+04  0.43633316443E+04  0.38005684938E+04 0.  0.
        1    1    3    3  502    0 -0.17102845794E+03 -0.87093890990E+03 -0.85734825652E+03  0.12340305309E+04  0.50400001928E-02 0.  1.
       -1    1    3    3    0  502  0.17102845794E+03  0.87093890990E+03  0.30007899193E+04  0.31293011134E+04  0.50400001928E-02 0. -1.
</event>
<event>
 5   0  0.1648000E-07  0.3781769E+04  0.7818609E-02  0.8050079E-01
        1   -1    0    0  501    0  0.00000000000E+00  0.00000000000E+00  0.23651717952E+04  0.23651717952E+04  0.50400001928E-02 0. -1.
       -1   -1    0    0    0  501  0.00000000000E+00  0.00000000000E+00 -0.15117059359E+04  0.15117059359E+04  0.50400001928E-02 0.  1.
    10030    2    1    2    0    0  0.00000000000E+00  0.00000000000E+00  0.85346585932E+03  0.38768777312E+04  0.37817690264E+04 0.  0.
        1    1    3    3  502    0 -0.14256838332E+04  0.29876554626E+03 -0.80924553932E+03  0.16663473788E+04  0.50400001928E-02 0.  1.
       -1    1    3    3    0  502  0.14256838332E+04 -0.29876554626E+03  0.16627113986E+04  0.22105303524E+04  0.50400001928E-02 0. -1.
</event>
<event>
 5   0  0.5132561E-07  0.3835691E+04  0.7818609E-02  0.8038539E-01
        2   -1    0    0  501    0  0.00000000000E+00  0.00000000000E+00  0.25473455167E+04  0.25473455167E+04  0.25500000920E-02 0.  1.
       -2   -1    0    0    0  501  0.00000000000E+00  0.00000000000E+00 -0.14439076332E+04  0.14439076332E+04  0.25500000920E-02 0. -1.
    10030    2    1    2    0    0  0.00000000000E+00  0.00000000000E+00  0.11034378835E+04  0.39912531500E+04  0.38356911430E+04 0.  0.
        3    1    3    3  502    0 -0.27960247341E+03 -0.12561087934E+04  0.20314124489E+04  0.24047085877E+04  0.10100000352E+00 0.  1.
       -3    1    3    3    0  502  0.27960247341E+03  0.12561087934E+04 -0.92797456542E+03  0.15865445623E+04  0.10100000352E+00 0. -1.
</event>
<event>
 5   0  0.1648000E-07  0.3802826E+04  0.7818609E-02  0.8045549E-01
       -1   -1    0    0    0  501  0.00000000000E+00  0.00000000000E+00  0.14847803028E+04  0.14847803028E+04  0.50400001928E-02 0. -1.
        1   -1    0    0  501    0  0.00000000000E+00  0.00000000000E+00 -0.24349532800E+04  0.24349532800E+04  0.50400001928E-02 0.  1.
    10030    2    1    2    0    0  0.00000000000E+00  0.00000000000E+00 -0.95017297715E+03  0.39197335828E+04  0.38028256170E+04 0.  0.
        4    1    3    3  502    0  0.29958475837E+03 -0.48513898341E+03 -0.23447572169E+04  0.24130890742E+04  0.12699999809E+01 0.  1.
       -4    1    3    3    0  502 -0.29958475837E+03  0.48513898341E+03  0.13945842398E+04  0.15066445086E+04  0.12699999809E+01 0. -1.
</event>
<event>
 5   0  0.1648000E-07  0.3348832E+04  0.7818609E-02  0.8150580E-01
       -1   -1    0    0    0  501  0.00000000000E+00  0.00000000000E+00  0.15313307297E+04  0.15313307297E+04  0.50400001928E-02 0. -1.
        1   -1    0    0  501    0  0.00000000000E+00  0.00000000000E+00 -0.18308713154E+04  0.18308713155E+04  0.50400001928E-02 0.  1.
    10030    2    1    2    0    0  0.00000000000E+00  0.00000000000E+00 -0.29954058572E+03  0.33622020452E+04  0.33488323383E+04 0.  0.
        3    1    3    3  502    0  0.13150758357E+03  0.12569052491E+04 -0.12525929128E+04  0.17793521476E+04  0.10100000352E+00 0.  1.
       -3    1    3    3    0  502 -0.13150758357E+03 -0.12569052491E+04  0.95305232709E+03  0.15828498976E+04  0.10100000352E+00 0. -1.
</event>
<event>
 5   0  0.1648000E-07  0.3813978E+04  0.7818609E-02  0.8043162E-01
       -1   -1    0    0    0  501  0.00000000000E+00  0.00000000000E+00  0.18201497892E+04  0.18201497892E+04  0.50400001928E-02 0.  1.
        1   -1    0    0  501    0  0.00000000000E+00  0.00000000000E+00 -0.19979714438E+04  0.19979714438E+04  0.50400001928E-02 0. -1.
    10030    2    1    2    0    0  0.00000000000E+00  0.00000000000E+00 -0.17782165466E+03  0.38181212330E+04  0.38139781343E+04 0.  0.
        1    1    3    3  502    0  0.83335714714E+03  0.11840141683E+04 -0.13313204719E+04  0.19669234567E+04  0.50400001928E-02 0. -1.
       -1    1    3    3    0  502 -0.83335714714E+03 -0.11840141683E+04  0.11534988173E+04  0.18511977763E+04  0.50400001928E-02 0.  1.
</event>
<event>
 5   0  0.1648000E-07  0.3777440E+04  0.7818609E-02  0.8051014E-01
       -1   -1    0    0    0  501  0.00000000000E+00  0.00000000000E+00  0.13298641630E+04  0.13298641630E+04  0.50400001928E-02 0.  1.
        1   -1    0    0  501    0  0.00000000000E+00  0.00000000000E+00 -0.26824272495E+04  0.26824272495E+04  0.50400001928E-02 0. -1.
    10030    2    1    2    0    0  0.00000000000E+00  0.00000000000E+00 -0.13525630865E+04  0.40122914125E+04  0.37774403339E+04 0.  0.
        3    1    3    3  502    0 -0.81333974209E+03  0.15459557794E+04  0.86534763169E+02  0.17489965933E+04  0.10100000352E+00 0.  1.
       -3    1    3    3    0  502  0.81333974209E+03 -0.15459557794E+04 -0.14390978496E+04  0.22632948193E+04  0.10100000352E+00 0. -1.
</event>
<event>
 5   0  0.5134434E-07  0.3853289E+04  0.7818609E-02  0.8034815E-01
       -2   -1    0    0    0  501  0.00000000000E+00  0.00000000000E+00  0.17477850219E+04  0.17477850219E+04  0.25500000920E-02 0.  1.
        2   -1    0    0  501    0  0.00000000000E+00  0.00000000000E+00 -0.21238080678E+04  0.21238080678E+04  0.25500000920E-02 0. -1.
    10030    2    1    2    0    0  0.00000000000E+00  0.00000000000E+00 -0.37602304588E+03  0.38715930898E+04  0.38532894677E+04 0.  0.
        5    1    3    3  502    0  0.22404326216E+03  0.10744515653E+04 -0.17789775271E+04  0.20903168855E+04  0.46999998093E+01 0. -1.
       -5    1    3    3    0  502 -0.22404326216E+03 -0.10744515653E+04  0.14029544813E+04  0.17812762043E+04  0.46999998093E+01 0.  1.
</event>
<event>
 5   0  0.1648000E-07  0.3764262E+04  0.7818609E-02  0.8053868E-01
        1   -1    0    0  501    0  0.00000000000E+00  0.00000000000E+00  0.15478920561E+04  0.15478920561E+04  0.50400001928E-02 0. -1.
       -1   -1    0    0    0  501  0.00000000000E+00  0.00000000000E+00 -0.22885430041E+04  0.22885430041E+04  0.50400001928E-02 0.  1.
    10030    2    1    2    0    0  0.00000000000E+00  0.00000000000E+00 -0.74065094795E+03  0.38364350602E+04  0.37642622311E+04 0.  0.
        4    1    3    3  502    0  0.18027338089E+03  0.18532958868E+02  0.15389789578E+04  0.15496127929E+04  0.12699999809E+01 0. -1.
       -4    1    3    3    0  502 -0.18027338089E+03 -0.18532958868E+02 -0.22796299057E+04  0.22868222673E+04  0.12699999809E+01 0.  1.
</event>
<event>
 5   0  0.1648000E-07  0.3626967E+04  0.7818609E-02  0.8084342E-01
        1   -1    0    0  501    0  0.00000000000E+00  0.00000000000E+00  0.22274614987E+04  0.22274614987E+04  0.50400001928E-02 0.  1.
       -1   -1    0    0    0  501  0.00000000000E+00  0.00000000000E+00 -0.14764441899E+04  0.14764441899E+04  0.50400001928E-02 0. -1.
    10030    2    1    2    0    0  0.00000000000E+00  0.00000000000E+00  0.75101730882E+03  0.37039056885E+04  0.36269671010E+04 0.  0.
        1    1    3    3  502    0  0.15438018401E+04  0.67045312347E+03  0.10650286245E+04  0.19917624063E+04  0.50400001928E-02 0.  1.
       -1    1    3    3    0  502 -0.15438018401E+04 -0.67045312347E+03 -0.31401131564E+03  0.17121432822E+04  0.50400001928E-02 0. -1.
</event>
<event>
 5   0  0.1648000E-07  0.3840783E+04  0.7818609E-02  0.8037459E-01
        1   -1    0    0  501    0  0.00000000000E+00  0.00000000000E+00  0.18503891526E+04  0.18503891526E+04  0.50400001928E-02 0.  1.
       -1   -1    0    0    0  501  0.00000000000E+00  0.00000000000E+00 -0.19930421960E+04  0.19930421960E+04  0.50400001928E-02 0. -1.
    10030    2    1    2    0    0  0.00000000000E+00  0.00000000000E+00 -0.14265304337E+03  0.38434313487E+04  0.38407830766E+04 0.  0.
        3    1    3    3  502    0  0.13872663572E+04  0.12731658136E+04 -0.44900497992E+03  0.19357336121E+04  0.10100000352E+00 0. -1.
       -3    1    3    3    0  502 -0.13872663572E+04 -0.12731658136E+04  0.30635193655E+03  0.19076977366E+04  0.10100000352E+00 0.  1.
</event>
<event>
 5   0  0.5134434E-07  0.3761078E+04  0.7818609E-02  0.8054559E-01
        2   -1    0    0  501    0  0.00000000000E+00  0.00000000000E+00  0.18047292637E+04  0.18047292637E+04  0.25500000920E-02 0. -1.
       -2   -1    0    0    0  501  0.00000000000E+00  0.00000000000E+00 -0.19595335180E+04  0.19595335180E+04  0.25500000920E-02 0.  1.
    10030    2    1    2    0    0  0.00000000000E+00  0.00000000000E+00 -0.15480425432E+03  0.37642627817E+04  0.37610782938E+04 0.  0.
        5    1    3    3  502    0 -0.15285518290E+04 -0.94619398259E+03 -0.62982203909E+03  0.19048495052E+04  0.46999998093E+01 0.  1.
       -5    1    3    3    0  502  0.15285518290E+04  0.94619398259E+03  0.47501778477E+03  0.18594132764E+04  0.46999998093E+01 0. -1.
</event>
<event>
 5   0  0.5325362E-07  0.3794942E+04  0.7818609E-02  0.8047241E-01
        2   -1    0    0  501    0  0.00000000000E+00  0.00000000000E+00  0.18282304732E+04  0.18282304733E+04  0.25500000920E-02 0. -1.
       -2   -1    0    0    0  501  0.00000000000E+00  0.00000000000E+00 -0.19693340625E+04  0.19693340625E+04  0.25500000920E-02 0.  1.
    10030    2    1    2    0    0  0.00000000000E+00  0.00000000000E+00 -0.14110358923E+03  0.37975645357E+04  0.37949421840E+04 0.  0.
        4    1    3    3  502    0 -0.13493244642E+04 -0.43938617227E+03 -0.13310484318E+04  0.19456177062E+04  0.12699999809E+01 0.  1.
       -4    1    3    3    0  502  0.13493244642E+04  0.43938617227E+03  0.11899448426E+04  0.18519468295E+04  0.12699999809E+01 0. -1.
</event>
<event>
 5   0  0.1656617E-07  0.3829551E+04  0.7818609E-02  0.8039843E-01
        1   -1    0    0  501    0  0.00000000000E+00  0.00000000000E+00  0.24625376730E+04  0.24625376731E+04  0.50400001928E-02 0.  1.
       -1   -1    0    0    0  501  0.00000000000E+00  0.00000000000E+00 -0.14888567643E+04  0.14888567643E+04  0.50400001928E-02 0. -1.
    10030    2    1    2    0    0  0.00000000000E+00  0.00000000000E+00  0.97368090878E+03  0.39513944373E+04  0.38295513428E+04 0.  0.
        5    1    3    3  502    0 -0.18954025851E+04 -0.14427920737E+03  0.72432941775E+03  0.20342179443E+04  0.46999998093E+01 0.  1.
       -5    1    3    3    0  502  0.18954025851E+04  0.14427920737E+03  0.24935149102E+03  0.19171764930E+04  0.46999998093E+01 0. -1.
</event>
<event>
 5   0  0.5325362E-07  0.2950297E+04  0.7818609E-02  0.8258068E-01
        2   -1    0    0  501    0  0.00000000000E+00  0.00000000000E+00  0.18517737117E+04  0.18517737117E+04  0.25500000920E-02 0.  1.
       -2   -1    0    0    0  501  0.00000000000E+00  0.00000000000E+00 -0.11751239275E+04  0.11751239275E+04  0.25500000920E-02 0. -1.
    10030    2    1    2    0    0  0.00000000000E+00  0.00000000000E+00  0.67664978420E+03  0.30268976391E+04  0.29502973388E+04 0.  0.
        4    1    3    3  502    0  0.21844369356E+02 -0.58080329541E+03 -0.10526987480E+04  0.12024915431E+04  0.12699999809E+01 0. -1.
       -4    1    3    3    0  502 -0.21844369356E+02  0.58080329541E+03  0.17293485322E+04  0.18244060960E+04  0.12699999809E+01 0.  1.
</event>
<event>
 5   0  0.1648000E-07  0.3770304E+04  0.7818609E-02  0.8052558E-01
        1   -1    0    0  501    0  0.00000000000E+00  0.00000000000E+00  0.23878454309E+04  0.23878454310E+04  0.50400001928E-02 0.  1.
       -1   -1    0    0    0  501  0.00000000000E+00  0.00000000000E+00 -0.14882864191E+04  0.14882864191E+04  0.50400001928E-02 0. -1.
    10030    2    1    2    0    0  0.00000000000E+00  0.00000000000E+00  0.89955901184E+03  0.38761318501E+04  0.37703039272E+04 0.  0.
        3    1    3    3  502    0  0.31224939434E+03 -0.14582262771E+04 -0.73579127390E+03  0.16629228390E+04  0.10100000352E+00 0. -1.
       -3    1    3    3    0  502 -0.31224939434E+03  0.14582262771E+04  0.16353502857E+04  0.22132090111E+04  0.10100000352E+00 0.  1.
</event>
<event>
 5   0  0.5158266E-07  0.3633890E+04  0.7818609E-02  0.8082773E-01
       -2   -1    0    0    0  501  0.00000000000E+00  0.00000000000E+00  0.16640967086E+04  0.16640967086E+04  0.25500000920E-02 0. -1.
        2   -1    0    0  501    0  0.00000000000E+00  0.00000000000E+00 -0.19838321798E+04  0.19838321798E+04  0.25500000920E-02 0.  1.
    10030    2    1    2    0    0  0.00000000000E+00  0.00000000000E+00 -0.31973547128E+03  0.36479288884E+04  0.36338897071E+04 0.  0.
        2    1    3    3  502    0 -0.13590144539E+04  0.51643955199E+03 -0.12538755228E+04  0.19198525786E+04  0.25500000920E-02 0.  1.
       -2    1    3    3    0  502  0.13590144539E+04 -0.51643955199E+03  0.93414005156E+03  0.17280763098E+04  0.25500000920E-02 0. -1.
</event>
<event>
 5   0  0.5202788E-07  0.3732854E+04  0.7818609E-02  0.8060720E-01
        2   -1    0    0  501    0  0.00000000000E+00  0.00000000000E+00  0.23156746146E+04  0.23156746146E+04  0.25500000920E-02 0.  1.
       -2   -1    0    0    0  501  0.00000000000E+00  0.00000000000E+00 -0.15043345173E+04  0.15043345173E+04  0.25500000920E-02 0. -1.
    10030    2    1    2    0    0  0.00000000000E+00  0.00000000000E+00  0.81134009735E+03  0.38200091319E+04  0.37328537360E+04 0.  0.
        1    1    3    3  502    0  0.84189709777E+03  0.72533629183E+03  0.19402303298E+04  0.22359331816E+04  0.50400001928E-02 0.  1.
       -1    1    3    3    0  502 -0.84189709777E+03 -0.72533629183E+03 -0.11288902325E+04  0.15840759504E+04  0.50400001928E-02 0. -1.
</event>
<event>
 5   0  0.1648000E-07  0.2826682E+04  0.7818609E-02  0.8295032E-01
       -1   -1    0    0    0  501  0.00000000000E+00  0.00000000000E+00  0.78198690928E+03  0.78198690930E+03  0.50400001928E-02 0. -1.
        1   -1    0    0  501    0  0.00000000000E+00  0.00000000000E+00 -0.25544327844E+04  0.25544327844E+04  0.50400001928E-02 0.  1.
    10030    2    1    2    0    0  0.00000000000E+00  0.00000000000E+00 -0.17724458751E+04  0.33364196937E+04  0.28266821527E+04 0.  0.
        4    1    3    3  502    0  0.66237368192E+03 -0.18103956215E+03 -0.23443098402E+04  0.24428066762E+04  0.12699999809E+01 0.  1.
       -4    1    3    3    0  502 -0.66237368192E+03  0.18103956215E+03  0.57186396509E+03  0.89361301749E+03  0.12699999809E+01 0. -1.
</event>
<event>
 5   0  0.5202788E-07  0.3722223E+04  0.7818609E-02  0.8063055E-01
       -2   -1    0    0    0  501  0.00000000000E+00  0.00000000000E+00  0.23085518026E+04  0.23085518026E+04  0.25500000920E-02 0.  1.
        2   -1    0    0  501    0  0.00000000000E+00  0.00000000000E+00 -0.15003934425E+04  0.15003934426E+04  0.25500000920E-02 0. -1.
    10030    2    1    2    0    0  0.00000000000E+00  0.00000000000E+00  0.80815836002E+03  0.38089452451E+04  0.37222229844E+04 0.  0.
        1    1    3    3  502    0 -0.61820680829E+03  0.13697294457E+04 -0.71940639230E+03  0.16660984273E+04  0.50400001928E-02 0. -1.
       -1    1    3    3    0  502  0.61820680829E+03 -0.13697294457E+04  0.15275647523E+04  0.21428468178E+04  0.50400001928E-02 0.  1.
</event>
<event>
 5   0  0.1648000E-07  0.3388924E+04  0.7818609E-02  0.8140630E-01
       -1   -1    0    0    0  501  0.00000000000E+00  0.00000000000E+00  0.14023182817E+04  0.14023182817E+04  0.50400001928E-02 0.  1.
        1   -1    0    0  501    0  0.00000000000E+00  0.00000000000E+00 -0.20474680034E+04  0.20474680034E+04  0.50400001928E-02 0. -1.
    10030    2    1    2    0    0  0.00000000000E+00  0.00000000000E+00 -0.64514972168E+03  0.34497862851E+04  0.33889242024E+04 0.  0.
        2    1    3    3  502    0 -0.71214878590E+03  0.79941614866E+02 -0.18856162806E+04  0.20171998693E+04  0.25500000920E-02 0. -1.
       -2    1    3    3    0  502  0.71214878590E+03 -0.79941614866E+02  0.12404665589E+04  0.14325864158E+04  0.25500000920E-02 0.  1.
</event>
<event>
 5   0  0.5325362E-07  0.3818625E+04  0.7818609E-02  0.8042170E-01
        2   -1    0    0  501    0  0.00000000000E+00  0.00000000000E+00  0.30240902276E+04  0.30240902276E+04  0.25500000920E-02 0.  1.
       -2   -1    0    0    0  501  0.00000000000E+00  0.00000000000E+00 -0.12054778257E+04  0.12054778257E+04  0.25500000920E-02 0. -1.
    10030    2    1    2    0    0  0.00000000000E+00  0.00000000000E+00  0.18186124018E+04  0.42295680533E+04  0.38186247327E+04 0.  0.
        4    1    3    3  502    0 -0.15863089654E+04 -0.96339866473E+03  0.41277934506E+03  0.19012894365E+04  0.12699999809E+01 0.  1.
       -4    1    3    3    0  502  0.15863089654E+04  0.96339866473E+03  0.14058330568E+04  0.23282786168E+04  0.12699999809E+01 0. -1.
</event>
<event>
 5   0  0.5132561E-07  0.3792758E+04  0.7818609E-02  0.8047711E-01
       -2   -1    0    0    0  501  0.00000000000E+00  0.00000000000E+00  0.19942513191E+04  0.19942513191E+04  0.25500000920E-02 0.  1.
        2   -1    0    0  501    0  0.00000000000E+00  0.00000000000E+00 -0.18033097879E+04  0.18033097879E+04  0.25500000920E-02 0. -1.
    10030    2    1    2    0    0  0.00000000000E+00  0.00000000000E+00  0.19094153123E+03  0.37975611070E+04  0.37927577952E+04 0.  0.
        3    1    3    3  502    0  0.66208804076E+03  0.16874367064E+04  0.65335653604E+03  0.19268310733E+04  0.10100000352E+00 0.  1.
       -3    1    3    3    0  502 -0.66208804076E+03 -0.16874367064E+04 -0.46241500481E+03  0.18707300336E+04  0.10100000352E+00 0. -1.
</event>
<event>
 5   0  0.1648000E-07  0.3765102E+04  0.7818609E-02  0.8053686E-01
        1   -1    0    0  501    0  0.00000000000E+00  0.00000000000E+00  0.14028806553E+04  0.14028806553E+04  0.50400001928E-02 0. -1.
       -1   -1    0    0    0  501  0.00000000000E+00  0.00000000000E+00 -0.25262296677E+04  0.25262296678E+04  0.50400001928E-02 0.  1.
    10030    2    1    2    0    0  0.00000000000E+00  0.00000000000E+00 -0.11233490125E+04  0.39291103230E+04  0.37651022465E+04 0.  0.
        2    1    3    3  502    0 -0.63185068052E+03 -0.96490670138E+03 -0.21143426642E+04  0.24084694573E+04  0.25500000920E-02 0.  1.
       -2    1    3    3    0  502  0.63185068052E+03  0.96490670138E+03  0.99099365174E+03  0.15206408658E+04  0.25500000920E-02 0. -1.
</event>
<event>
 5   0  0.1648000E-07  0.3790746E+04  0.7818609E-02  0.8048144E-01
        1   -1    0    0  501    0  0.00000000000E+00  0.00000000000E+00  0.28507411254E+04  0.28507411254E+04  0.50400001928E-02 0. -1.
       -1   -1    0    0    0  501  0.00000000000E+00  0.00000000000E+00 -0.12601769399E+04  0.12601769400E+04  0.50400001928E-02 0.  1.
    10030    2    1    2    0    0  0.00000000000E+00  0.00000000000E+00  0.15905641854E+04  0.41109180653E+04  0.37907456934E+04 0.  0.
        4    1    3    3  502    0 -0.15038948646E+04 -0.82119119554E+03  0.16738846434E+04  0.23954010427E+04  0.12699999809E+01 0. -1.
       -4    1    3    3    0  502  0.15038948646E+04  0.82119119554E+03 -0.83320457931E+02  0.17155170226E+04  0.12699999809E+01 0.  1.
</event>
<event>
 5   0  0.1648000E-07  0.3957198E+04  0.7818609E-02  0.8013237E-01
        1   -1    0    0  501    0  0.00000000000E+00  0.00000000000E+00  0.14460324119E+04  0.14460324120E+04  0.50400001928E-02 0. -1.
       -1   -1    0    0    0  501  0.00000000000E+00  0.00000000000E+00 -0.27073067192E+04  0.27073067192E+04  0.50400001928E-02 0.  1.
    10030    2    1    2    0    0  0.00000000000E+00  0.00000000000E+00 -0.12612743073E+04  0.41533391312E+04  0.39571976272E+04 0.  0.
        3    1    3    3  502    0 -0.13669550675E+04 -0.12800852380E+04 -0.13007739033E+04  0.22801748027E+04  0.10100000352E+00 0.  1.
       -3    1    3    3    0  502  0.13669550675E+04  0.12800852380E+04  0.39499596067E+02  0.18731643285E+04  0.10100000352E+00 0. -1.
</event>
<event>
 5   0  0.1648000E-07  0.3768005E+04  0.7818609E-02  0.8053056E-01
        1   -1    0    0  501    0  0.00000000000E+00  0.00000000000E+00  0.20878358886E+04  0.20878358886E+04  0.50400001928E-02 0.  1.
       -1   -1    0    0    0  501  0.00000000000E+00  0.00000000000E+00 -0.17000689564E+04  0.17000689564E+04  0.50400001928E-02 0. -1.
    10030    2    1    2    0    0  0.00000000000E+00  0.00000000000E+00  0.38776693226E+03  0.37879048450E+04  0.37680047666E+04 0.  0.
        3    1    3    3  502    0 -0.14866508980E+04  0.71298439923E+02 -0.96731464890E+03  0.17750808433E+04  0.10100000352E+00 0. -1.
       -3    1    3    3    0  502  0.14866508980E+04 -0.71298439923E+02  0.13550815812E+04  0.20128240017E+04  0.10100000352E+00 0.  1.
</event>
<event>
 5   0  0.5202788E-07  0.4050637E+04  0.7818609E-02  0.7994409E-01
        2   -1    0    0  501    0  0.00000000000E+00  0.00000000000E+00  0.21382807765E+04  0.21382807765E+04  0.25500000920E-02 0.  1.
       -2   -1    0    0    0  501  0.00000000000E+00  0.00000000000E+00 -0.19183237153E+04  0.19183237154E+04  0.25500000920E-02 0. -1.
    10030    2    1    2    0    0  0.00000000000E+00  0.00000000000E+00  0.21995706119E+03  0.40566044919E+04  0.40506368505E+04 0.  0.
        1    1    3    3  502    0  0.11351532796E+04  0.16642429495E+04  0.31918138239E+03  0.20396456354E+04  0.50400001928E-02 0. -1.
       -1    1    3    3    0  502 -0.11351532796E+04 -0.16642429495E+04 -0.99224321200E+02  0.20169588565E+04  0.50400001928E-02 0.  1.
</event>
<event>
 5   0  0.5134434E-07  0.3188826E+04  0.7818609E-02  0.8191774E-01
        2   -1    0    0  501    0  0.00000000000E+00  0.00000000000E+00  0.19452630820E+04  0.19452630820E+04  0.25500000920E-02 0.  1.
       -2   -1    0    0    0  501  0.00000000000E+00  0.00000000000E+00 -0.13068424959E+04  0.13068424959E+04  0.25500000920E-02 0. -1.
    10030    2    1    2    0    0  0.00000000000E+00  0.00000000000E+00  0.63842058605E+03  0.32521055779E+04  0.31888257784E+04 0.  0.
        5    1    3    3  502    0  0.50567705483E+03 -0.12811462525E+04 -0.49990010571E+03  0.14652532921E+04  0.46999998093E+01 0. -1.
       -5    1    3    3    0  502 -0.50567705483E+03  0.12811462525E+04  0.11383206918E+04  0.17868522859E+04  0.46999998093E+01 0.  1.
</event>
<event>
 5   0  0.5158266E-07  0.3823586E+04  0.7818609E-02  0.8041112E-01
       -2   -1    0    0    0  501  0.00000000000E+00  0.00000000000E+00  0.15457362906E+04  0.15457362906E+04  0.25500000920E-02 0. -1.
        2   -1    0    0  501    0  0.00000000000E+00  0.00000000000E+00 -0.23645380538E+04  0.23645380538E+04  0.25500000920E-02 0.  1.
    10030    2    1    2    0    0  0.00000000000E+00  0.00000000000E+00 -0.81880176321E+03  0.39102743444E+04  0.38235858983E+04 0.  0.
        2    1    3    3  502    0 -0.16732897184E+04 -0.82108207508E+03 -0.84434081194E+03  0.20462125164E+04  0.25500000920E-02 0.  1.
       -2    1    3    3    0  502  0.16732897184E+04  0.82108207508E+03  0.25539048733E+02  0.18640618280E+04  0.25500000920E-02 0. -1.
</event>
<event>
 5   0  0.1648000E-07  0.2976119E+04  0.7818609E-02  0.8250583E-01
        1   -1    0    0  501    0  0.00000000000E+00  0.00000000000E+00  0.17157199880E+04  0.17157199880E+04  0.50400001928E-02 0. -1.
       -1   -1    0    0    0  501  0.00000000000E+00  0.00000000000E+00 -0.12906071923E+04  0.12906071923E+04  0.50400001928E-02 0.  1.
    10030    2    1    2    0    0  0.00000000000E+00  0.00000000000E+00  0.42511279568E+03  0.30063271803E+04  0.29761186512E+04 0.  0.
        1    1    3    3  502    0  0.60607887798E+03 -0.47041609731E+03  0.15005268213E+04  0.16852903763E+04  0.50400001928E-02 0. -1.
       -1    1    3    3    0  502 -0.60607887798E+03  0.47041609731E+03 -0.10754140256E+04  0.13210368040E+04  0.50400001928E-02 0.  1.
</event>
<event>
 5   0  0.5158266E-07  0.3797891E+04  0.7818609E-02  0.8046608E-01
       -2   -1    0    0    0  501  0.00000000000E+00  0.00000000000E+00  0.13295685939E+04  0.13295685939E+04  0.25500000920E-02 0. -1.
        2   -1    0    0  501    0  0.00000000000E+00  0.00000000000E+00 -0.27121534508E+04  0.27121534508E+04  0.25500000920E-02 0.  1.
    10030    2    1    2    0    0  0.00000000000E+00  0.00000000000E+00 -0.13825848569E+04  0.40417220447E+04  0.37978910200E+04 0.  0.
        2    1    3    3  502    0  0.18614541025E+03 -0.99886114201E+03 -0.23985387513E+04  0.26048727101E+04  0.25500000920E-02 0.  1.
       -2    1    3    3    0  502 -0.18614541025E+03  0.99886114201E+03  0.10159538943E+04  0.14368493346E+04  0.25500000920E-02 0. -1.
</event>
<event>
 5   0  0.1648000E-07  0.3740902E+04  0.7818609E-02  0.8058957E-01
        1   -1    0    0  501    0  0.00000000000E+00  0.00000000000E+00  0.17124274283E+04  0.17124274283E+04  0.50400001928E-02 0. -1.
       -1   -1    0    0    0  501  0.00000000000E+00  0.00000000000E+00 -0.20430569558E+04  0.20430569558E+04  0.50400001928E-02 0.  1.
    10030    2    1    2    0    0  0.00000000000E+00  0.00000000000E+00 -0.33062952750E+03  0.37554843841E+04  0.37409019066E+04 0.  0.
        1    1    3    3  502    0 -0.84714080986E+03 -0.14063031844E+03  0.15028371961E+04  0.17308795672E+04  0.50400001928E-02 0. -1.
       -1    1    3    3    0  502  0.84714080986E+03  0.14063031844E+03 -0.18334667236E+04  0.20246048169E+04  0.50400001928E-02 0.  1.
</event>
<event>
 5   0  0.1656617E-07  0.3711525E+04  0.7818609E-02  0.8065412E-01
        1   -1    0    0  501    0  0.00000000000E+00  0.00000000000E+00  0.19611416518E+04  0.19611416518E+04  0.50400001928E-02 0.  1.
       -1   -1    0    0    0  501  0.00000000000E+00  0.00000000000E+00 -0.17560459872E+04  0.17560459872E+04  0.50400001928E-02 0. -1.
    10030    2    1    2    0    0  0.00000000000E+00  0.00000000000E+00  0.20509566462E+03  0.37171876391E+04  0.37115252542E+04 0.  0.
        5    1    3    3  502    0 -0.11135223433E+03  0.68066034469E+03 -0.16229081730E+04  0.17633918603E+04  0.46999998093E+01 0. -1.
       -5    1    3    3    0  502  0.11135223433E+03 -0.68066034469E+03  0.18280038376E+04  0.19537957788E+04  0.46999998093E+01 0.  1.
</event>
<event>
 5   0  0.5325362E-07  0.3688452E+04  0.7818609E-02  0.8070526E-01
        2   -1    0    0  501    0  0.00000000000E+00  0.00000000000E+00  0.21818847402E+04  0.21818847402E+04  0.25500000920E-02 0.  1.
       -2   -1    0    0    0  501  0.00000000000E+00  0.00000000000E+00 -0.15588217177E+04  0.15588217177E+04  0.25500000920E-02 0. -1.
    10030    2    1    2    0    0  0.00000000000E+00  0.00000000000E+00  0.62306302249E+03  0.37407064579E+04  0.36884518804E+04 0.  0.
        4    1    3    3  502    0 -0.17228087866E+03  0.14842660375E+04  0.14077899852E+04  0.20529492508E+04  0.12699999809E+01 0.  1.
       -4    1    3    3    0  502  0.17228087866E+03 -0.14842660375E+04 -0.78472696273E+03  0.16877572071E+04  0.12699999809E+01 0. -1.
</event>
<event>
 5   0  0.1648000E-07  0.3836407E+04  0.7818609E-02  0.8038387E-01
        1   -1    0    0  501    0  0.00000000000E+00  0.00000000000E+00  0.22099136652E+04  0.22099136652E+04  0.50400001928E-02 0. -1.
       -1   -1    0    0    0  501  0.00000000000E+00  0.00000000000E+00 -0.16649991070E+04  0.16649991070E+04  0.50400001928E-02 0.  1.
    10030    2    1    2    0    0  0.00000000000E+00  0.00000000000E+00  0.54491455818E+03  0.38749127723E+04  0.38364067976E+04 0.  0.
        3    1    3    3  502    0 -0.14177819142E+04  0.29532832655E+03  0.15429296042E+04  0.21161181797E+04  0.10100000352E+00 0. -1.
       -3    1    3    3    0  502  0.14177819142E+04 -0.29532832655E+03 -0.99801504605E+03  0.17587945926E+04  0.10100000352E+00 0.  1.
</event>
<event>
 5   0  0.1648000E-07  0.3855896E+04  0.7818609E-02  0.8034265E-01
       -1   -1    0    0    0  501  0.00000000000E+00  0.00000000000E+00  0.24733519983E+04  0.24733519983E+04  0.50400001928E-02 0. -1.
        1   -1    0    0  501    0  0.00000000000E+00  0.00000000000E+00 -0.15028121287E+04  0.15028121288E+04  0.50400001928E-02 0.  1.
    10030    2    1    2    0    0  0.00000000000E+00  0.00000000000E+00  0.97053986959E+03  0.39761641271E+04  0.38558959435E+04 0.  0.
        1    1    3    3  502    0 -0.16579750751E+04  0.46199243703E+03  0.13810803502E+04  0.22067399700E+04  0.50400001928E-02 0. -1.
       -1    1    3    3    0  502  0.16579750751E+04 -0.46199243703E+03 -0.41054048063E+03  0.17694241571E+04  0.50400001928E-02 0.  1.
</event>
<event>
 5   0  0.1648000E-07  0.3817814E+04  0.7818609E-02  0.8042343E-01
        1   -1    0    0  501    0  0.00000000000E+00  0.00000000000E+00  0.20145643180E+04  0.20145643181E+04  0.50400001928E-02 0. -1.
       -1   -1    0    0    0  501  0.00000000000E+00  0.00000000000E+00 -0.18087910855E+04  0.18087910855E+04  0.50400001928E-02 0.  1.
    10030    2    1    2    0    0  0.00000000000E+00  0.00000000000E+00  0.20577323260E+03  0.38233554035E+04  0.38178140235E+04 0.  0.
        2    1    3    3  502    0 -0.64168983212E+03 -0.15026858829E+04 -0.88550856615E+03  0.18584822098E+04  0.25500000920E-02 0.  1.
       -2    1    3    3    0  502  0.64168983212E+03  0.15026858829E+04  0.10912817987E+04  0.19648731938E+04  0.25500000920E-02 0. -1.
</event>
<event>
 5   0  0.1648000E-07  0.3769066E+04  0.7818609E-02  0.8052826E-01
        1   -1    0    0  501    0  0.00000000000E+00  0.00000000000E+00  0.16467605618E+04  0.16467605618E+04  0.50400001928E-02 0.  1.
       -1   -1    0    0    0  501  0.00000000000E+00  0.00000000000E+00 -0.21566368389E+04  0.21566368389E+04  0.50400001928E-02 0. -1.
    10030    2    1    2    0    0  0.00000000000E+00  0.00000000000E+00 -0.50987627713E+03  0.38033974006E+04  0.37690659280E+04 0.  0.
        4    1    3    3  502    0 -0.18601803743E+04 -0.28018179412E+03 -0.36861421271E+03  0.19169379003E+04  0.12699999809E+01 0.  1.
       -4    1    3    3    0  502  0.18601803743E+04  0.28018179412E+03 -0.14126206441E+03  0.18864595004E+04  0.12699999809E+01 0. -1.
</event>
<event>
 5   0  0.1648000E-07  0.3749327E+04  0.7818609E-02  0.8057118E-01
       -3   -1    0    0    0  501  0.00000000000E+00  0.00000000000E+00  0.21230671973E+04  0.21230671997E+04  0.10100000352E+00 0.  1.
        3   -1    0    0  501    0  0.00000000000E+00  0.00000000000E+00 -0.16553232621E+04  0.16553232652E+04  0.10100000352E+00 0. -1.
    10030    2    1    2    0    0  0.00000000000E+00  0.00000000000E+00  0.46774393520E+03  0.37783904649E+04  0.37493266217E+04 0.  0.
        1    1    3    3  502    0  0.11810704124E+04 -0.16538218236E+03  0.16914879254E+04  0.20696400622E+04  0.50400001928E-02 0.  1.
       -1    1    3    3    0  502 -0.11810704124E+04  0.16538218236E+03 -0.12237439902E+04  0.17087504027E+04  0.50400001928E-02 0. -1.
</event>
<event>
 5   0  0.5202788E-07  0.3892131E+04  0.7818609E-02  0.8026668E-01
        2   -1    0    0  501    0  0.00000000000E+00  0.00000000000E+00  0.16623939427E+04  0.16623939427E+04  0.25500000920E-02 0.  1.
       -2   -1    0    0    0  501  0.00000000000E+00  0.00000000000E+00 -0.22781424228E+04  0.22781424228E+04  0.25500000920E-02 0. -1.
    10030    2    1    2    0    0  0.00000000000E+00  0.00000000000E+00 -0.61574848012E+03  0.39405363655E+04  0.38921306063E+04 0.  0.
        1    1    3    3  502    0  0.65357400105E+03  0.93913414658E+03 -0.19016306220E+04  0.22193086632E+04  0.50400001928E-02 0. -1.
       -1    1    3    3    0  502 -0.65357400105E+03 -0.93913414658E+03  0.12858821419E+04  0.17212277022E+04  0.50400001928E-02 0.  1.
</event>
<event>
 5   0  0.1648000E-07  0.3777415E+04  0.7818609E-02  0.8051019E-01
        1   -1    0    0  501    0  0.00000000000E+00  0.00000000000E+00  0.13690013805E+04  0.13690013805E+04  0.50400001928E-02 0. -1.
       -1   -1    0    0    0  501  0.00000000000E+00  0.00000000000E+00 -0.26057061110E+04  0.26057061110E+04  0.50400001928E-02 0.  1.
    10030    2    1    2    0    0  0.00000000000E+00  0.00000000000E+00 -0.12367047304E+04  0.39747074915E+04  0.37774145990E+04 0.  0.
        2    1    3    3  502    0  0.14462675618E+04 -0.85384555203E+02  0.65664206503E+03  0.15906474104E+04  0.25500000920E-02 0. -1.
       -2    1    3    3    0  502 -0.14462675618E+04  0.85384555203E+02 -0.18933467955E+04  0.23840600811E+04  0.25500000920E-02 0.  1.
</event>
<event>
 5   0  0.5132561E-07  0.3716847E+04  0.7818609E-02  0.8064239E-01
        2   -1    0    0  501    0  0.00000000000E+00  0.00000000000E+00  0.25441972458E+04  0.25441972458E+04  0.25500000920E-02 0.  1.
       -2   -1    0    0    0  501  0.00000000000E+00  0.00000000000E+00 -0.13574961213E+04  0.13574961213E+04  0.25500000920E-02 0. -1.
    10030    2    1    2    0    0  0.00000000000E+00  0.00000000000E+00  0.11867011245E+04  0.39016933670E+04  0.37168469933E+04 0.  0.
        3    1    3    3  502    0  0.77110447151E+03  0.72433640584E+03  0.21972341285E+04  0.24386683170E+04  0.10100000352E+00 0.  1.
       -3    1    3    3    0  502 -0.77110447151E+03 -0.72433640584E+03 -0.10105330040E+04  0.14630250501E+04  0.10100000352E+00 0. -1.
</event>
<event>
 5   0  0.1648000E-07  0.3794108E+04  0.7818609E-02  0.8047421E-01
        1   -1    0    0  501    0  0.00000000000E+00  0.00000000000E+00  0.17935828964E+04  0.17935828964E+04  0.50400001928E-02 0.  1.
       -1   -1    0    0    0  501  0.00000000000E+00  0.00000000000E+00 -0.20064941468E+04  0.20064941468E+04  0.50400001928E-02 0. -1.
    10030    2    1    2    0    0  0.00000000000E+00  0.00000000000E+00 -0.21291125041E+03  0.38000770432E+04  0.37941078443E+04 0.  0.
        4    1    3    3  502    0 -0.15942503897E+03  0.81034817864E+03  0.16040753902E+04  0.18042006496E+04  0.12699999809E+01 0.  1.
       -4    1    3    3    0  502  0.15942503897E+03 -0.81034817864E+03 -0.18169866406E+04  0.19958763936E+04  0.12699999809E+01 0. -1.
</event>
<event>
 5   0  0.5202788E-07  0.3784165E+04  0.7818609E-02  0.8049562E-01
       -2   -1    0    0    0  501  0.00000000000E+00  0.00000000000E+00  0.15281379112E+04  0.15281379112E+04  0.25500000920E-02 0. -1.
        2   -1    0    0  501    0  0.00000000000E+00  0.00000000000E+00 -0.23427048313E+04  0.23427048313E+04  0.25500000920E-02 0.  1.
    10030    2    1    2    0    0  0.00000000000E+00  0.00000000000E+00 -0.81456692007E+03  0.38708427426E+04  0.37841649370E+04 0.  0.
        1    1    3    3  502    0  0.86343740475E+03 -0.11620292764E+04  0.83887390227E+03  0.16731842741E+04  0.50400001928E-02 0. -1.
       -1    1    3    3    0  502 -0.86343740475E+03  0.11620292764E+04 -0.16534408223E+04  0.21976584685E+04  0.50400001928E-02 0.  1.
</event>
<event>
 5   0  0.1648000E-07  0.3812735E+04  0.7818609E-02  0.8043428E-01
       -1   -1    0    0    0  501  0.00000000000E+00  0.00000000000E+00  0.18063982356E+04  0.18063982356E+04  0.50400001928E-02 0.  1.
        1   -1    0    0  501    0  0.00000000000E+00  0.00000000000E+00 -0.20118691668E+04  0.20118691668E+04  0.50400001928E-02 0. -1.
    10030    2    1    2    0    0  0.00000000000E+00  0.00000000000E+00 -0.20547093125E+03  0.38182674024E+04  0.38127349308E+04 0.  0.
        3    1    3    3  502    0  0.16047908248E+04  0.50297393618E+02  0.92654649427E+03  0.18537453534E+04  0.10100000352E+00 0. -1.
       -3    1    3    3    0  502 -0.16047908248E+04 -0.50297393618E+02 -0.11320174255E+04  0.19645220490E+04  0.10100000352E+00 0.  1.
</event>
<event>
 5   0  0.5325362E-07  0.3834905E+04  0.7818609E-02  0.8038706E-01
       -2   -1    0    0    0  501  0.00000000000E+00  0.00000000000E+00  0.13329198322E+04  0.13329198322E+04  0.25500000920E-02 0.  1.
        2   -1    0    0  501    0  0.00000000000E+00  0.00000000000E+00 -0.27583232473E+04  0.27583232473E+04  0.25500000920E-02 0. -1.
    10030    2    1    2    0    0  0.00000000000E+00  0.00000000000E+00 -0.14254034151E+04  0.40912430795E+04  0.38349048280E+04 0.  0.
        4    1    3    3  502    0 -0.99856214068E+03  0.54747175245E+03  0.93306483698E+03  0.14722307127E+04  0.12699999809E+01 0.  1.
       -4    1    3    3    0  502  0.99856214068E+03 -0.54747175245E+03 -0.23584682521E+04  0.26190123668E+04  0.12699999809E+01 0. -1.
</event>
<event>
 5   0  0.5325362E-07  0.3671695E+04  0.7818609E-02  0.8074264E-01
        2   -1    0    0  501    0  0.00000000000E+00  0.00000000000E+00  0.21310714382E+04  0.21310714382E+04  0.25500000920E-02 0.  1.
       -2   -1    0    0    0  501  0.00000000000E+00  0.00000000000E+00 -0.15815214383E+04  0.15815214383E+04  0.25500000920E-02 0. -1.
    10030    2    1    2    0    0  0.00000000000E+00  0.00000000000E+00  0.54954999996E+03  0.37125928765E+04  0.36716945222E+04 0.  0.
        4    1    3    3  502    0  0.15720224277E+04 -0.35146103225E+03  0.11652400074E+04  0.19881059474E+04  0.12699999809E+01 0.  1.
       -4    1    3    3    0  502 -0.15720224277E+04  0.35146103225E+03 -0.61569000740E+03  0.17244869291E+04  0.12699999809E+01 0. -1.
</event>
<event>
 5   0  0.5134434E-07  0.3766910E+04  0.7818609E-02  0.8053293E-01
        2   -1    0    0  501    0  0.00000000000E+00  0.00000000000E+00  0.19347219182E+04  0.19347219182E+04  0.25500000920E-02 0. -1.
       -2   -1    0    0    0  501  0.00000000000E+00  0.00000000000E+00 -0.18335465055E+04  0.18335465055E+04  0.25500000920E-02 0.  1.
    10030    2    1    2    0    0  0.00000000000E+00  0.00000000000E+00  0.10117541266E+03  0.37682684237E+04  0.37669099338E+04 0.  0.
        5    1    3    3  502    0  0.83661604467E+03 -0.16264718452E+04  0.50024224942E+03  0.18962071268E+04  0.46999998093E+01 0. -1.
       -5    1    3    3    0  502 -0.83661604467E+03  0.16264718452E+04 -0.39906683677E+03  0.18720612970E+04  0.46999998093E+01 0.  1.
</event>
<event>
 5   0  0.5158266E-07  0.3810521E+04  0.7818609E-02  0.8043901E-01
       -2   -1    0    0    0  501  0.00000000000E+00  0.00000000000E+00  0.15626171401E+04  0.15626171401E+04  0.25500000920E-02 0.  1.
        2   -1    0    0  501    0  0.00000000000E+00  0.00000000000E+00 -0.23230365294E+04  0.23230365294E+04  0.25500000920E-02 0. -1.
    10030    2    1    2    0    0  0.00000000000E+00  0.00000000000E+00 -0.76041938934E+03  0.38856536695E+04  0.38105205408E+04 0.  0.
        2    1    3    3  502    0  0.17878269486E+04  0.53147690446E+03  0.16332910109E+02  0.18652237566E+04  0.25500000920E-02 0.  1.
       -2    1    3    3    0  502 -0.17878269486E+04 -0.53147690446E+03 -0.77675229945E+03  0.20204299129E+04  0.25500000920E-02 0. -1.
</event>
<event>
 5   0  0.5132561E-07  0.3816711E+04  0.7818609E-02  0.8042578E-01
        2   -1    0    0  501    0  0.00000000000E+00  0.00000000000E+00  0.19854253444E+04  0.19854253444E+04  0.25500000920E-02 0.  1.
       -2   -1    0    0    0  501  0.00000000000E+00  0.00000000000E+00 -0.18342776825E+04  0.18342776825E+04  0.25500000920E-02 0. -1.
    10030    2    1    2    0    0  0.00000000000E+00  0.00000000000E+00  0.15114766195E+03  0.38197030269E+04  0.38167113590E+04 0.  0.
        3    1    3    3  502    0  0.14359951357E+04 -0.80566443900E+02 -0.11797013203E+04  0.18601796141E+04  0.10100000352E+00 0. -1.
       -3    1    3    3    0  502 -0.14359951357E+04  0.80566443900E+02  0.13308489822E+04  0.19595234128E+04  0.10100000352E+00 0.  1.
</event>
<event>
 5   0  0.5132561E-07  0.3843498E+04  0.7818609E-02  0.8036884E-01
        2   -1    0    0  501    0  0.00000000000E+00  0.00000000000E+00  0.30938111810E+04  0.30938111810E+04  0.25500000920E-02 0.  1.
       -2   -1    0    0    0  501  0.00000000000E+00  0.00000000000E+00 -0.11937117323E+04  0.11937117323E+04  0.25500000920E-02 0. -1.
    10030    2    1    2    0    0  0.00000000000E+00  0.00000000000E+00  0.19000994487E+04  0.42875229133E+04  0.38434977322E+04 0.  0.
        3    1    3    3  502    0 -0.23952211439E+02 -0.15726435523E+04  0.21818541054E+04  0.26896596064E+04  0.10100000352E+00 0.  1.
       -3    1    3    3    0  502  0.23952211439E+02  0.15726435523E+04 -0.28175465665E+03  0.15978633069E+04  0.10100000352E+00 0. -1.
</event>
<event>
 5   0  0.5158266E-07  0.3315999E+04  0.7818609E-02  0.8158836E-01
        2   -1    0    0  501    0  0.00000000000E+00  0.00000000000E+00  0.20276306447E+04  0.20276306447E+04  0.25500000920E-02 0. -1.
       -2   -1    0    0    0  501  0.00000000000E+00  0.00000000000E+00 -0.13557509528E+04  0.13557509528E+04  0.25500000920E-02 0.  1.
    10030    2    1    2    0    0  0.00000000000E+00  0.00000000000E+00  0.67187969186E+03  0.33833815975E+04  0.33159989014E+04 0.  0.
        2    1    3    3  502    0  0.21618877770E+03 -0.13418150155E+04 -0.63296556037E+03  0.14992833368E+04  0.25500000920E-02 0.  1.
       -2    1    3    3    0  502 -0.21618877770E+03  0.13418150155E+04  0.13048452522E+04  0.18840982607E+04  0.25500000920E-02 0. -1.
</event>
<event>
 5   0  0.5134434E-07  0.3827031E+04  0.7818609E-02  0.8040379E-01
       -2   -1    0    0    0  501  0.00000000000E+00  0.00000000000E+00  0.19129114780E+04  0.19129114780E+04  0.25500000920E-02 0. -1.
        2   -1    0    0  501    0  0.00000000000E+00  0.00000000000E+00 -0.19141195803E+04  0.19141195803E+04  0.25500000920E-02 0.  1.
    10030    2    1    2    0    0  0.00000000000E+00  0.00000000000E+00 -0.12081023610E+01  0.38270310583E+04  0.38270308676E+04 0.  0.
        5    1    3    3  502    0  0.69574527358E+03 -0.98238729531E+03  0.14868007902E+04  0.19130459910E+04  0.46999998093E+01 0. -1.
       -5    1    3    3    0  502 -0.69574527358E+03  0.98238729531E+03 -0.14880088926E+04  0.19139850674E+04  0.46999998093E+01 0.  1.
</event>
<event>
 5   0  0.5132561E-07  0.3830588E+04  0.7818609E-02  0.8039623E-01
       -2   -1    0    0    0  501  0.00000000000E+00  0.00000000000E+00  0.16064359068E+04  0.16064359068E+04  0.25500000920E-02 0. -1.
        2   -1    0    0  501    0  0.00000000000E+00  0.00000000000E+00 -0.22835338670E+04  0.22835338670E+04  0.25500000920E-02 0.  1.
    10030    2    1    2    0    0  0.00000000000E+00  0.00000000000E+00 -0.67709796023E+03  0.38899697738E+04  0.38305878392E+04 0.  0.
        3    1    3    3  502    0  0.12833143019E+04 -0.14084860081E+04 -0.14157729798E+03  0.19106994986E+04  0.10100000352E+00 0. -1.
       -3    1    3    3    0  502 -0.12833143019E+04  0.14084860081E+04 -0.53552066225E+03  0.19792702752E+04  0.10100000352E+00 0.  1.
</event>
<event>
 5   0  0.1648000E-07  0.3832011E+04  0.7818609E-02  0.8039320E-01
        1   -1    0    0  501    0  0.00000000000E+00  0.00000000000E+00  0.26067335023E+04  0.26067335023E+04  0.50400001928E-02 0. -1.
       -1   -1    0    0    0  501  0.00000000000E+00  0.00000000000E+00 -0.14083058035E+04  0.14083058035E+04  0.50400001928E-02 0.  1.
    10030    2    1    2    0    0  0.00000000000E+00  0.00000000000E+00  0.11984276988E+04  0.40150393059E+04  0.38320114403E+04 0.  0.
        4    1    3    3  502    0 -0.64779587589E+03 -0.17639480688E+04  0.20728327701E+03  0.18905343837E+04  0.12699999809E+01 0.  1.
       -4    1    3    3    0  502  0.64779587589E+03  0.17639480688E+04  0.99114442181E+03  0.21245049221E+04  0.12699999809E+01 0. -1.
</event>
<event>
 5   0  0.5202788E-07  0.3676874E+04  0.7818609E-02  0.8073106E-01
       -2   -1    0    0    0  501  0.00000000000E+00  0.00000000000E+00  0.16839144724E+04  0.16839144724E+04  0.25500000920E-02 0. -1.
        2   -1    0    0  501    0  0.00000000000E+00  0.00000000000E+00 -0.20071390364E+04  0.20071390364E+04  0.25500000920E-02 0.  1.
    10030    2    1    2    0    0  0.00000000000E+00  0.00000000000E+00 -0.32322456397E+03  0.36910535088E+04  0.36768739285E+04 0.  0.
        1    1    3    3  502    0  0.36231128648E+03 -0.14703456730E+04 -0.12080644033E+04  0.19371642855E+04  0.50400001928E-02 0.  1.
       -1    1    3    3    0  502 -0.36231128648E+03  0.14703456730E+04  0.88483983931E+03  0.17538892233E+04  0.50400001928E-02 0. -1.
</event>
<event>
 5   0  0.5158266E-07  0.3785130E+04  0.7818609E-02  0.8049354E-01
        2   -1    0    0  501    0  0.00000000000E+00  0.00000000000E+00  0.15367056045E+04  0.15367056045E+04  0.25500000920E-02 0.  1.
       -2   -1    0    0    0  501  0.00000000000E+00  0.00000000000E+00 -0.23308313633E+04  0.23308313633E+04  0.25500000920E-02 0. -1.
    10030    2    1    2    0    0  0.00000000000E+00  0.00000000000E+00 -0.79412575879E+03  0.38675369678E+04  0.37851296512E+04 0.  0.
        2    1    3    3  502    0  0.60507723314E+03 -0.25383135208E+03  0.14167619239E+04  0.15613337767E+04  0.25500000920E-02 0.  1.
       -2    1    3    3    0  502 -0.60507723314E+03  0.25383135208E+03 -0.22108876827E+04  0.23062031911E+04  0.25500000920E-02 0. -1.
</event>
<event>
 5   0  0.1648000E-07  0.3778343E+04  0.7818609E-02  0.8050818E-01
       -1   -1    0    0    0  501  0.00000000000E+00  0.00000000000E+00  0.29258897688E+04  0.29258897688E+04  0.50400001928E-02 0.  1.
        1   -1    0    0  501    0  0.00000000000E+00  0.00000000000E+00 -0.12197894163E+04  0.12197894163E+04  0.50400001928E-02 0. -1.
    10030    2    1    2    0    0  0.00000000000E+00  0.00000000000E+00  0.17061003524E+04  0.41456791851E+04  0.37783432207E+04 0.  0.
        2    1    3    3  502    0 -0.54036670350E+03  0.11204671322E+04 -0.70698365072E+03  0.14308279599E+04  0.25500000920E-02 0. -1.
       -2    1    3    3    0  502  0.54036670350E+03 -0.11204671322E+04  0.24130840032E+04  0.27148512252E+04  0.25500000920E-02 0.  1.
</event>
<event>
 5   0  0.5134434E-07  0.3797003E+04  0.7818609E-02  0.8046798E-01
        2   -1    0    0  501    0  0.00000000000E+00  0.00000000000E+00  0.24607031362E+04  0.24607031362E+04  0.25500000920E-02 0.  1.
       -2   -1    0    0    0  501  0.00000000000E+00  0.00000000000E+00 -0.14647472664E+04  0.14647472664E+04  0.25500000920E-02 0. -1.
    10030    2    1    2    0    0  0.00000000000E+00  0.00000000000E+00  0.99595586978E+03  0.39254504026E+04  0.37970031300E+04 0.  0.
        5    1    3    3  502    0 -0.15927938657E+04 -0.98715530336E+03  0.81294499419E+03  0.20426378889E+04  0.46999998093E+01 0. -1.
       -5    1    3    3    0  502  0.15927938657E+04  0.98715530336E+03  0.18301087558E+03  0.18828125138E+04  0.46999998093E+01 0.  1.
</event>
<event>
 5   0  0.1648000E-07  0.3641594E+04  0.7818609E-02  0.8081030E-01
        1   -1    0    0  501    0  0.00000000000E+00  0.00000000000E+00  0.20704876176E+04  0.20704876176E+04  0.50400001928E-02 0.  1.
       -1   -1    0    0    0  501  0.00000000000E+00  0.00000000000E+00 -0.16012180403E+04  0.16012180403E+04  0.50400001928E-02 0. -1.
    10030    2    1    2    0    0  0.00000000000E+00  0.00000000000E+00  0.46926957730E+03  0.36717056579E+04  0.36415942254E+04 0.  0.
        3    1    3    3  502    0  0.13702451775E+04  0.30187303282E+03  0.14046623343E+04  0.19853905052E+04  0.10100000352E+00 0. -1.
       -3    1    3    3    0  502 -0.13702451775E+04 -0.30187303282E+03 -0.93539275702E+03  0.16863151528E+04  0.10100000352E+00 0.  1.
</event>
<event>
 5   0  0.1648000E-07  0.3860814E+04  0.7818609E-02  0.8033229E-01
        1   -1    0    0  501    0  0.00000000000E+00  0.00000000000E+00  0.26809163856E+04  0.26809163856E+04  0.50400001928E-02 0.  1.
       -1   -1    0    0    0  501  0.00000000000E+00  0.00000000000E+00 -0.13899993230E+04  0.13899993230E+04  0.50400001928E-02 0. -1.
    10030    2    1    2    0    0  0.00000000000E+00  0.00000000000E+00  0.12909170626E+04  0.40709157086E+04  0.38608144017E+04 0.  0.
        3    1    3    3  502    0  0.16467528409E+04 -0.99068400530E+03  0.83764712076E+03  0.20964022578E+04  0.10100000352E+00 0. -1.
       -3    1    3    3    0  502 -0.16467528409E+04  0.99068400530E+03  0.45326994181E+03  0.19745134508E+04  0.10100000352E+00 0.  1.
</event>
<event>
 5   0  0.1648000E-07  0.3775687E+04  0.7818609E-02  0.8051393E-01
        1   -1    0    0  501    0  0.00000000000E+00  0.00000000000E+00  0.17592410714E+04  0.17592410714E+04  0.50400001928E-02 0.  1.
       -1   -1    0    0    0  501  0.00000000000E+00  0.00000000000E+00 -0.20258468598E+04  0.20258468598E+04  0.50400001928E-02 0. -1.
    10030    2    1    2    0    0  0.00000000000E+00  0.00000000000E+00 -0.26660578844E+03  0.37850879312E+04  0.37756869574E+04 0.  0.
        4    1    3    3  502    0 -0.61772592580E+03 -0.13972833928E+04 -0.12451022118E+04  0.19708544670E+04  0.12699999809E+01 0. -1.
       -4    1    3    3    0  502  0.61772592580E+03  0.13972833928E+04  0.97849642331E+03  0.18142334642E+04  0.12699999809E+01 0.  1.
</event>
<event>
 5   0  0.5325362E-07  0.3805165E+04  0.7818609E-02  0.8045047E-01
       -2   -1    0    0    0  501  0.00000000000E+00  0.00000000000E+00  0.16364655383E+04  0.16364655383E+04  0.25500000920E-02 0. -1.
        2   -1    0    0  501    0  0.00000000000E+00  0.00000000000E+00 -0.22119741062E+04  0.22119741062E+04  0.25500000920E-02 0.  1.
    10030    2    1    2    0    0  0.00000000000E+00  0.00000000000E+00 -0.57550856787E+03  0.38484396445E+04  0.38051645938E+04 0.  0.
        4    1    3    3  502    0  0.32360239388E+03 -0.69036456808E+02  0.16071418344E+04  0.16408507033E+04  0.12699999809E+01 0. -1.
       -4    1    3    3    0  502 -0.32360239388E+03  0.69036456808E+02 -0.21826504023E+04  0.22075889412E+04  0.12699999809E+01 0.  1.
</event>
<event>
 5   0  0.5158266E-07  0.3725425E+04  0.7818609E-02  0.8062351E-01
       -2   -1    0    0    0  501  0.00000000000E+00  0.00000000000E+00  0.19214378391E+04  0.19214378391E+04  0.25500000920E-02 0. -1.
        2   -1    0    0  501    0  0.00000000000E+00  0.00000000000E+00 -0.18057823064E+04  0.18057823064E+04  0.25500000920E-02 0.  1.
    10030    2    1    2    0    0  0.00000000000E+00  0.00000000000E+00  0.11565553261E+03  0.37272201455E+04  0.37254253194E+04 0.  0.
        2    1    3    3  502    0 -0.20994188914E+03  0.15004962943E+04  0.11419243217E+04  0.18972495573E+04  0.25500000920E-02 0. -1.
       -2    1    3    3    0  502  0.20994188914E+03 -0.15004962943E+04 -0.10262687891E+04  0.18299705882E+04  0.25500000920E-02 0.  1.
</event>
<event>
 5   0  0.5325362E-07  0.4422712E+04  0.7818609E-02  0.7924309E-01
        2   -1    0    0  501    0  0.00000000000E+00  0.00000000000E+00  0.33436784132E+04  0.33436784132E+04  0.25500000920E-02 0.  1.
       -2   -1    0    0    0  501  0.00000000000E+00  0.00000000000E+00 -0.14624900374E+04  0.14624900374E+04  0.25500000920E-02 0. -1.
    10030    2    1    2    0    0  0.00000000000E+00  0.00000000000E+00  0.18811883759E+04  0.48061684506E+04  0.44227124562E+04 0.  0.
        4    1    3    3  502    0  0.11416570836E+04 -0.16810821698E+04  0.18883802354E+04  0.27740583419E+04  0.12699999809E+01 0. -1.
       -4    1    3    3    0  502 -0.11416570836E+04  0.16810821698E+04 -0.71918594955E+01  0.20321101087E+04  0.12699999809E+01 0.  1.
</event>
<event>
 5   0  0.5202788E-07  0.3123236E+04  0.7818609E-02  0.8209390E-01
        2   -1    0    0  501    0  0.00000000000E+00  0.00000000000E+00  0.14388363626E+04  0.14388363627E+04  0.25500000920E-02 0.  1.
       -2   -1    0    0    0  501  0.00000000000E+00  0.00000000000E+00 -0.16948765653E+04  0.16948765653E+04  0.25500000920E-02 0. -1.
    10030    2    1    2    0    0  0.00000000000E+00  0.00000000000E+00 -0.25604020264E+03  0.31337129279E+04  0.31232355226E+04 0.  0.
        1    1    3    3  502    0  0.16619765306E+03 -0.31043576998E+03  0.13984836992E+04  0.14421333794E+04  0.50400001928E-02 0.  1.
       -1    1    3    3    0  502 -0.16619765306E+03  0.31043576998E+03 -0.16545239018E+04  0.16915795485E+04  0.50400001928E-02 0. -1.
</event>
<event>
 5   0  0.5132561E-07  0.3535250E+04  0.7818609E-02  0.8105487E-01
       -2   -1    0    0    0  501  0.00000000000E+00  0.00000000000E+00  0.13815260314E+04  0.13815260314E+04  0.25500000920E-02 0. -1.
        2   -1    0    0  501    0  0.00000000000E+00  0.00000000000E+00 -0.22616285548E+04  0.22616285548E+04  0.25500000920E-02 0.  1.
    10030    2    1    2    0    0  0.00000000000E+00  0.00000000000E+00 -0.88010252338E+03  0.36431545861E+04  0.35352503287E+04 0.  0.
        3    1    3    3  502    0 -0.72455334059E+03 -0.15083132761E+04  0.14699585879E+03  0.16797601838E+04  0.10100000352E+00 0. -1.
       -3    1    3    3    0  502  0.72455334059E+03  0.15083132761E+04 -0.10270983822E+04  0.19633944023E+04  0.10100000352E+00 0.  1.
</event>
<event>
 5   0  0.1648000E-07  0.3759807E+04  0.7818609E-02  0.8054836E-01
       -1   -1    0    0    0  501  0.00000000000E+00  0.00000000000E+00  0.15398392937E+04  0.15398392937E+04  0.50400001928E-02 0.  1.
        1   -1    0    0  501    0  0.00000000000E+00  0.00000000000E+00 -0.22950685824E+04  0.22950685824E+04  0.50400001928E-02 0. -1.
    10030    2    1    2    0    0  0.00000000000E+00  0.00000000000E+00 -0.75522928871E+03  0.38349078761E+04  0.37598067955E+04 0.  0.
        1    1    3    3  502    0  0.18997222249E+03  0.13246705264E+04  0.96905922968E+03  0.16522461195E+04  0.50400001928E-02 0.  1.
       -1    1    3    3    0  502 -0.18997222249E+03 -0.13246705264E+04 -0.17242885184E+04  0.21826617566E+04  0.50400001928E-02 0. -1.
</event>
<event>
 5   0  0.5158266E-07  0.3670102E+04  0.7818609E-02  0.8074620E-01
        2   -1    0    0  501    0  0.00000000000E+00  0.00000000000E+00  0.18150362036E+04  0.18150362036E+04  0.25500000920E-02 0.  1.
       -2   -1    0    0    0  501  0.00000000000E+00  0.00000000000E+00 -0.18552868674E+04  0.18552868674E+04  0.25500000920E-02 0. -1.
    10030    2    1    2    0    0  0.00000000000E+00  0.00000000000E+00 -0.40250663783E+02  0.36703230711E+04  0.36701023596E+04 0.  0.
        2    1    3    3  502    0  0.15397235499E+04 -0.99636088700E+03  0.42561809508E+02  0.18344740759E+04  0.25500000920E-02 0. -1.
       -2    1    3    3    0  502 -0.15397235499E+04  0.99636088700E+03 -0.82812473291E+02  0.18358489952E+04  0.25500000920E-02 0.  1.
</event>
<event>
 5   0  0.1648000E-07  0.3618526E+04  0.7818609E-02  0.8086261E-01
        1   -1    0    0  501    0  0.00000000000E+00  0.00000000000E+00  0.15333196798E+04  0.15333196799E+04  0.50400001928E-02 0. -1.
       -1   -1    0    0    0  501  0.00000000000E+00  0.00000000000E+00 -0.21348659808E+04  0.21348659808E+04  0.50400001928E-02 0.  1.
    10030    2    1    2    0    0  0.00000000000E+00  0.00000000000E+00 -0.60154630099E+03  0.36681856607E+04  0.36185256789E+04 0.  0.
        2    1    3    3  502    0 -0.46177441446E+03  0.10580402282E+04 -0.17129989585E+04  0.20656839464E+04  0.25500000920E-02 0.  1.
       -2    1    3    3    0  502  0.46177441446E+03 -0.10580402282E+04  0.11114526576E+04  0.16025017143E+04  0.25500000920E-02 0. -1.
</event>
<event>
 5   0  0.5158266E-07  0.3544959E+04  0.7818609E-02  0.8103217E-01
       -2   -1    0    0    0  501  0.00000000000E+00  0.00000000000E+00  0.10802029266E+04  0.10802029266E+04  0.25500000920E-02 0.  1.
        2   -1    0    0  501    0  0.00000000000E+00  0.00000000000E+00 -0.29084205814E+04  0.29084205814E+04  0.25500000920E-02 0. -1.
    10030    2    1    2    0    0  0.00000000000E+00  0.00000000000E+00 -0.18282176548E+04  0.39886235080E+04  0.35449594772E+04 0.  0.
        2    1    3    3  502    0 -0.57152433085E+03 -0.71889520045E+03 -0.26198333657E+04  0.27761443108E+04  0.25500000920E-02 0. -1.
       -2    1    3    3    0  502  0.57152433085E+03  0.71889520045E+03  0.79161571090E+03  0.12124791972E+04  0.25500000920E-02 0.  1.
</event>
<event>
 5   0  0.5325362E-07  0.3818975E+04  0.7818609E-02  0.8042095E-01
        2   -1    0    0  501    0  0.00000000000E+00  0.00000000000E+00  0.29038849731E+04  0.29038849731E+04  0.25500000920E-02 0. -1.
       -2   -1    0    0    0  501  0.00000000000E+00  0.00000000000E+00 -0.12556086778E+04  0.12556086778E+04  0.25500000920E-02 0.  1.
    10030    2    1    2    0    0  0.00000000000E+00  0.00000000000E+00  0.16482762953E+04  0.41594936508E+04  0.38189753450E+04 0.  0.
        4    1    3    3  502    0 -0.14645179819E+03  0.59333989710E+03 -0.11462092634E+04  0.12989602192E+04  0.12699999809E+01 0.  1.
       -4    1    3    3    0  502  0.14645179819E+03 -0.59333989710E+03  0.27944855587E+04  0.28605334316E+04  0.12699999809E+01 0. -1.
</event>
<event>
 5   0  0.1648000E-07  0.3862181E+04  0.7818609E-02  0.8032941E-01
        1   -1    0    0  501    0  0.00000000000E+00  0.00000000000E+00  0.12970805473E+04  0.12970805474E+04  0.50400001928E-02 0.  1.
       -1   -1    0    0    0  501  0.00000000000E+00  0.00000000000E+00 -0.28750035280E+04  0.28750035280E+04  0.50400001928E-02 0. -1.
    10030    2    1    2    0    0  0.00000000000E+00  0.00000000000E+00 -0.15779229807E+04  0.41720840754E+04  0.38621813265E+04 0.  0.
        1    1    3    3  502    0 -0.13315441506E+04 -0.10429467730E+04  0.21767144477E+03  0.17053236215E+04  0.50400001928E-02 0.  1.
       -1    1    3    3    0  502  0.13315441506E+04  0.10429467730E+04 -0.17955944254E+04  0.24667604539E+04  0.50400001928E-02 0. -1.
</event>
<event>
 5   0  0.1648000E-07  0.3778652E+04  0.7818609E-02  0.8050752E-01
       -1   -1    0    0    0  501  0.00000000000E+00  0.00000000000E+00  0.28580603643E+04  0.28580603643E+04  0.50400001928E-02 0. -1.
        1   -1    0    0  501    0  0.00000000000E+00  0.00000000000E+00 -0.12489423920E+04  0.12489423920E+04  0.50400001928E-02 0.  1.
    10030    2    1    2    0    0  0.00000000000E+00  0.00000000000E+00  0.16091179723E+04  0.41070027563E+04  0.37786520072E+04 0.  0.
        3    1    3    3  502    0 -0.12709111449E+04 -0.13863024108E+04  0.60860625288E+03  0.19767273696E+04  0.10100000352E+00 0. -1.
       -3    1    3    3    0  502  0.12709111449E+04  0.13863024108E+04  0.10005117194E+04  0.21302753867E+04  0.10100000352E+00 0.  1.
</event>
<event>
 5   0  0.5132561E-07  0.3776861E+04  0.7818609E-02  0.8051139E-01
       -2   -1    0    0    0  501  0.00000000000E+00  0.00000000000E+00  0.29354408498E+04  0.29354408498E+04  0.25500000920E-02 0. -1.
        2   -1    0    0  501    0  0.00000000000E+00  0.00000000000E+00 -0.12148670771E+04  0.12148670771E+04  0.25500000920E-02 0.  1.
    10030    2    1    2    0    0  0.00000000000E+00  0.00000000000E+00  0.17205737727E+04  0.41503079269E+04  0.37768613664E+04 0.  0.
        3    1    3    3  502    0  0.35521832245E+03 -0.17201827155E+04  0.98199857332E+02  0.17592191033E+04  0.10100000352E+00 0.  1.
       -3    1    3    3    0  502 -0.35521832245E+03  0.17201827155E+04  0.16223739154E+04  0.23910888237E+04  0.10100000352E+00 0. -1.
</event>
<event>
 5   0  0.1656617E-07  0.3714255E+04  0.7818609E-02  0.8064810E-01
        1   -1    0    0  501    0  0.00000000000E+00  0.00000000000E+00  0.28084822677E+04  0.28084822677E+04  0.50400001928E-02 0. -1.
       -1   -1    0    0    0  501  0.00000000000E+00  0.00000000000E+00 -0.12280380925E+04  0.12280380925E+04  0.50400001928E-02 0.  1.
    10030    2    1    2    0    0  0.00000000000E+00  0.00000000000E+00  0.15804441752E+04  0.40365203601E+04  0.37142553530E+04 0.  0.
        5    1    3    3  502    0  0.12326844848E+04  0.21775532732E+03  0.22810998898E+04  0.26019929321E+04  0.46999998093E+01 0. -1.
       -5    1    3    3    0  502 -0.12326844848E+04 -0.21775532732E+03 -0.70065571455E+03  0.14345274281E+04  0.46999998093E+01 0.  1.
</event>
<event>
 5   0  0.1648000E-07  0.3802903E+04  0.7818609E-02  0.8045532E-01
       -1   -1    0    0    0  501  0.00000000000E+00  0.00000000000E+00  0.22358100886E+04  0.22358100886E+04  0.50400001928E-02 0. -1.
        1   -1    0    0  501    0  0.00000000000E+00  0.00000000000E+00 -0.16170955282E+04  0.16170955282E+04  0.50400001928E-02 0.  1.
    10030    2    1    2    0    0  0.00000000000E+00  0.00000000000E+00  0.61871456042E+03  0.38529056168E+04  0.38029033625E+04 0.  0.
        4    1    3    3  502    0  0.40955298695E+03  0.13758422477E+04  0.15726852778E+04  0.21293229289E+04  0.12699999809E+01 0. -1.
       -4    1    3    3    0  502 -0.40955298695E+03 -0.13758422477E+04 -0.95397071738E+03  0.17235826879E+04  0.12699999809E+01 0.  1.
</event>
<event>
 5   0  0.5325362E-07  0.2895494E+04  0.7818609E-02  0.8274219E-01
       -2   -1    0    0    0  501  0.00000000000E+00  0.00000000000E+00  0.13887524449E+04  0.13887524449E+04  0.25500000920E-02 0. -1.
        2   -1    0    0  501    0  0.00000000000E+00  0.00000000000E+00 -0.15092475647E+04  0.15092475647E+04  0.25500000920E-02 0.  1.
    10030    2    1    2    0    0  0.00000000000E+00  0.00000000000E+00 -0.12049511979E+03  0.28980000096E+04  0.28954939098E+04 0.  0.
        4    1    3    3  502    0 -0.83251241714E+03  0.24734872663E+03 -0.12195727381E+04  0.14972032573E+04  0.12699999809E+01 0.  1.
       -4    1    3    3    0  502  0.83251241714E+03 -0.24734872663E+03  0.10990776183E+04  0.14007967523E+04  0.12699999809E+01 0. -1.
</event>
<event>
 5   0  0.5202788E-07  0.3761346E+04  0.7818609E-02  0.8054501E-01
       -2   -1    0    0    0  501  0.00000000000E+00  0.00000000000E+00  0.33847554279E+04  0.33847554279E+04  0.25500000920E-02 0.  1.
        2   -1    0    0  501    0  0.00000000000E+00  0.00000000000E+00 -0.10449593174E+04  0.10449593174E+04  0.25500000920E-02 0. -1.
    10030    2    1    2    0    0  0.00000000000E+00  0.00000000000E+00  0.23397961106E+04  0.44297147453E+04  0.37613464193E+04 0.  0.
        1    1    3    3  502    0  0.12770897625E+04  0.11702678069E+04  0.30732532540E+03  0.17592424100E+04  0.50400001928E-02 0. -1.
       -1    1    3    3    0  502 -0.12770897625E+04 -0.11702678069E+04  0.20324707852E+04  0.26704723354E+04  0.50400001928E-02 0.  1.
</event>
<event>
 5   0  0.1648000E-07  0.3624678E+04  0.7818609E-02  0.8084862E-01
       -1   -1    0    0    0  501  0.00000000000E+00  0.00000000000E+00  0.16413076725E+04  0.16413076725E+04  0.50400001928E-02 0.  1.
        1   -1    0    0  501    0  0.00000000000E+00  0.00000000000E+00 -0.20011930581E+04  0.20011930581E+04  0.50400001928E-02 0. -1.
    10030    2    1    2    0    0  0.00000000000E+00  0.00000000000E+00 -0.35988538560E+03  0.36425007306E+04  0.36246784798E+04 0.  0.
        2    1    3    3  502    0 -0.46520771835E+03  0.27026248169E+03  0.15592063410E+04  0.16494194264E+04  0.25500000920E-02 0.  1.
       -2    1    3    3    0  502  0.46520771835E+03 -0.27026248169E+03 -0.19190917266E+04  0.19930813042E+04  0.25500000920E-02 0. -1.
</event>
<event>
 5   0  0.5158266E-07  0.3722061E+04  0.7818609E-02  0.8063090E-01
        2   -1    0    0  501    0  0.00000000000E+00  0.00000000000E+00  0.29416147252E+04  0.29416147252E+04  0.25500000920E-02 0.  1.
       -2   -1    0    0    0  501  0.00000000000E+00  0.00000000000E+00 -0.11773920791E+04  0.11773920791E+04  0.25500000920E-02 0. -1.
    10030    2    1    2    0    0  0.00000000000E+00  0.00000000000E+00  0.17642226461E+04  0.41190068043E+04  0.37220606536E+04 0.  0.
        2    1    3    3  502    0  0.10747247068E+04 -0.10724387148E+04 -0.30889775194E+03  0.15493791704E+04  0.25500000920E-02 0. -1.
       -2    1    3    3    0  502 -0.10747247068E+04  0.10724387148E+04  0.20731203980E+04  0.25696276339E+04  0.25500000920E-02 0.  1.
</event>
<event>
 5   0  0.5202788E-07  0.3793070E+04  0.7818609E-02  0.8047644E-01
       -2   -1    0    0    0  501  0.00000000000E+00  0.00000000000E+00  0.25302747543E+04  0.25302747543E+04  0.25500000920E-02 0.  1.
        2   -1    0    0  501    0  0.00000000000E+00  0.00000000000E+00 -0.14215234330E+04  0.14215234330E+04  0.25500000920E-02 0. -1.
    10030    2    1    2    0    0  0.00000000000E+00  0.00000000000E+00  0.11087513213E+04  0.39517981873E+04  0.37930699203E+04 0.  0.
        1    1    3    3  502    0  0.41734789050E+03  0.69958120421E+03 -0.12299683077E+04  0.14752678269E+04  0.50400001928E-02 0. -1.
       -1    1    3    3    0  502 -0.41734789050E+03 -0.69958120421E+03  0.23387196290E+04  0.24765303604E+04  0.50400001928E-02 0.  1.
</event>
<event>
 5   0  0.5132561E-07  0.3801822E+04  0.7818609E-02  0.8045764E-01
        2   -1    0    0  501    0  0.00000000000E+00  0.00000000000E+00  0.21594946664E+04  0.21594946664E+04  0.25500000920E-02 0. -1.
       -2   -1    0    0    0  501  0.00000000000E+00  0.00000000000E+00 -0.16732911716E+04  0.16732911716E+04  0.25500000920E-02 0.  1.
    10030    2    1    2    0    0  0.00000000000E+00  0.00000000000E+00  0.48620349479E+03  0.38327858379E+04  0.38018223842E+04 0.  0.
        3    1    3    3  502    0  0.38682861531E+03  0.15769989020E+04 -0.75333125607E+03  0.17899915939E+04  0.10100000352E+00 0.  1.
       -3    1    3    3    0  502 -0.38682861531E+03 -0.15769989020E+04  0.12395347509E+04  0.20427942440E+04  0.10100000352E+00 0. -1.
</event>
<event>
 5   0  0.5158266E-07  0.3810350E+04  0.7818609E-02  0.8043938E-01
       -2   -1    0    0    0  501  0.00000000000E+00  0.00000000000E+00  0.27580977108E+04  0.27580977108E+04  0.25500000920E-02 0.  1.
        2   -1    0    0  501    0  0.00000000000E+00  0.00000000000E+00 -0.13160124227E+04  0.13160124227E+04  0.25500000920E-02 0. -1.
    10030    2    1    2    0    0  0.00000000000E+00  0.00000000000E+00  0.14420852881E+04  0.40741101335E+04  0.38103495118E+04 0.  0.
        2    1    3    3  502    0  0.28355746969E+03 -0.18815890933E+04  0.62012429311E+03  0.20013336787E+04  0.25500000920E-02 0. -1.
       -2    1    3    3    0  502 -0.28355746969E+03  0.18815890933E+04  0.82196099497E+03  0.20727764548E+04  0.25500000920E-02 0.  1.
</event>
<event>
 5   0  0.1656617E-07  0.3788868E+04  0.7818609E-02  0.8048548E-01
       -1   -1    0    0    0  501  0.00000000000E+00  0.00000000000E+00  0.30631821382E+04  0.30631821382E+04  0.50400001928E-02 0. -1.
        1   -1    0    0  501    0  0.00000000000E+00  0.00000000000E+00 -0.11716185696E+04  0.11716185696E+04  0.50400001928E-02 0.  1.
    10030    2    1    2    0    0  0.00000000000E+00  0.00000000000E+00  0.18915635686E+04  0.42348007078E+04  0.37888684723E+04 0.  0.
        5    1    3    3  502    0  0.47070461392E+03  0.16897330418E+04  0.17456163280E+04  0.24746634197E+04  0.46999998093E+01 0. -1.
       -5    1    3    3    0  502 -0.47070461392E+03 -0.16897330418E+04  0.14594724057E+03  0.17601372881E+04  0.46999998093E+01 0.  1.
</event>
<event>
 5   0  0.5325362E-07  0.3730063E+04  0.7818609E-02  0.8061332E-01
       -2   -1    0    0    0  501  0.00000000000E+00  0.00000000000E+00  0.20015089774E+04  0.20015089774E+04  0.25500000920E-02 0. -1.
        2   -1    0    0  501    0  0.00000000000E+00  0.00000000000E+00 -0.17378600186E+04  0.17378600186E+04  0.25500000920E-02 0.  1.
    10030    2    1    2    0    0  0.00000000000E+00  0.00000000000E+00  0.26364895880E+03  0.37393689961E+04  0.37300629640E+04 0.  0.
        4    1    3    3  502    0  0.17842290878E+04 -0.43262277029E+03  0.46082753016E+03  0.18928812758E+04  0.12699999809E+01 0. -1.
       -4    1    3    3    0  502 -0.17842290878E+04  0.43262277029E+03 -0.19717857136E+03  0.18464877202E+04  0.12699999809E+01 0.  1.
</event>
<event>
 5   0  0.1648000E-07  0.3800858E+04  0.7818609E-02  0.8045971E-01
        1   -1    0    0  501    0  0.00000000000E+00  0.00000000000E+00  0.23510917960E+04  0.23510917960E+04  0.50400001928E-02 0. -1.
       -1   -1    0    0    0  501  0.00000000000E+00  0.00000000000E+00 -0.15361502976E+04  0.15361502976E+04  0.50400001928E-02 0.  1.
    10030    2    1    2    0    0  0.00000000000E+00  0.00000000000E+00  0.81494149837E+03  0.38872420936E+04  0.38008579884E+04 0.  0.
        3    1    3    3  502    0 -0.29090995693E+03  0.14465927051E+04 -0.81740133880E+03  0.16868325395E+04  0.10100000352E+00 0.  1.
       -3    1    3    3    0  502  0.29090995693E+03 -0.14465927051E+04  0.16323428372E+04  0.22004095541E+04  0.10100000352E+00 0. -1.
</event>
<event>
 5   0  0.1648000E-07  0.2963909E+04  0.7818609E-02  0.8254113E-01
       -1   -1    0    0    0  501  0.00000000000E+00  0.00000000000E+00  0.14633377896E+04  0.14633377896E+04  0.50400001928E-02 0.  1.
        1   -1    0    0  501    0  0.00000000000E+00  0.00000000000E+00 -0.15008078375E+04  0.15008078375E+04  0.50400001928E-02 0. -1.
    10030    2    1    2    0    0  0.00000000000E+00  0.00000000000E+00 -0.37470047836E+02  0.29641456271E+04  0.29639087864E+04 0.  0.
        3    1    3    3  502    0 -0.78138949468E+03  0.99721481253E+03  0.75020995003E+03  0.14723525067E+04  0.10100000352E+00 0.  1.
       -3    1    3    3    0  502  0.78138949468E+03 -0.99721481253E+03 -0.78767999787E+03  0.14917931204E+04  0.10100000352E+00 0. -1.
</event>
<event>
 5   0  0.5132561E-07  0.2966337E+04  0.7818609E-02  0.8253409E-01
       -2   -1    0    0    0  501  0.00000000000E+00  0.00000000000E+00  0.16474794250E+04  0.16474794250E+04  0.25500000920E-02 0.  1.
        2   -1    0    0  501    0  0.00000000000E+00  0.00000000000E+00 -0.13352452904E+04  0.13352452904E+04  0.25500000920E-02 0. -1.
    10030    2    1    2    0    0  0.00000000000E+00  0.00000000000E+00  0.31223413459E+03  0.29827247154E+04  0.29663372318E+04 0.  0.
        3    1    3    3  502    0 -0.89822542083E+03 -0.11678651791E+04  0.32756164528E+03  0.15093093205E+04  0.10100000352E+00 0.  1.
       -3    1    3    3    0  502  0.89822542083E+03  0.11678651791E+04 -0.15327510686E+02  0.14734153949E+04  0.10100000352E+00 0. -1.
</event>
<event>
 5   0  0.1648000E-07  0.3755941E+04  0.7818609E-02  0.8055676E-01
        1   -1    0    0  501    0  0.00000000000E+00  0.00000000000E+00  0.21251029282E+04  0.21251029282E+04  0.50400001928E-02 0.  1.
       -1   -1    0    0    0  501  0.00000000000E+00  0.00000000000E+00 -0.16595779634E+04  0.16595779634E+04  0.50400001928E-02 0. -1.
    10030    2    1    2    0    0  0.00000000000E+00  0.00000000000E+00  0.46552496478E+03  0.37846808916E+04  0.37559414211E+04 0.  0.
        3    1    3    3  502    0  0.12854598160E+04 -0.10688217293E+04 -0.62934653221E+03  0.17862989379E+04  0.10100000352E+00 0. -1.
       -3    1    3    3    0  502 -0.12854598160E+04  0.10688217293E+04  0.10948714970E+04  0.19983819537E+04  0.10100000352E+00 0.  1.
</event>
<event>
 5   0  0.1648000E-07  0.3803297E+04  0.7818609E-02  0.8045448E-01
       -1   -1    0    0    0  501  0.00000000000E+00  0.00000000000E+00  0.15442446865E+04  0.15442446865E+04  0.50400001928E-02 0. -1.
        1   -1    0    0  501    0  0.00000000000E+00  0.00000000000E+00 -0.23417703934E+04  0.23417703934E+04  0.50400001928E-02 0.  1.
    10030    2    1    2    0    0  0.00000000000E+00  0.00000000000E+00 -0.79752570685E+03  0.38860150799E+04  0.38032967210E+04 0.  0.
        4    1    3    3  502    0  0.14724494015E+04 -0.11942831900E+04 -0.54977895045E+03  0.19740005282E+04  0.12699999809E+01 0.  1.
       -4    1    3    3    0  502 -0.14724494015E+04  0.11942831900E+04 -0.24774675639E+03  0.19120145517E+04  0.12699999809E+01 0. -1.
</event>
<event>
 5   0  0.1656617E-07  0.3368361E+04  0.7818609E-02  0.8145716E-01
        1   -1    0    0  501    0  0.00000000000E+00  0.00000000000E+00  0.22068363711E+04  0.22068363711E+04  0.50400001928E-02 0.  1.
       -1   -1    0    0    0  501  0.00000000000E+00  0.00000000000E+00 -0.12853076970E+04  0.12853076970E+04  0.50400001928E-02 0. -1.
    10030    2    1    2    0    0  0.00000000000E+00  0.00000000000E+00  0.92152867409E+03  0.34921440680E+04  0.33683608914E+04 0.  0.
        5    1    3    3  502    0 -0.49267866064E+03 -0.15926071557E+04  0.70896093298E+03  0.18115676938E+04  0.46999998093E+01 0. -1.
       -5    1    3    3    0  502  0.49267866064E+03  0.15926071557E+04  0.21256774111E+03  0.16805763742E+04  0.46999998093E+01 0.  1.
</event>
<event>
 5   0  0.1648000E-07  0.3722973E+04  0.7818609E-02  0.8062890E-01
       -1   -1    0    0    0  501  0.00000000000E+00  0.00000000000E+00  0.12544680629E+04  0.12544680629E+04  0.50400001928E-02 0. -1.
        1   -1    0    0  501    0  0.00000000000E+00  0.00000000000E+00 -0.27622317133E+04  0.27622317133E+04  0.50400001928E-02 0.  1.
    10030    2    1    2    0    0  0.00000000000E+00  0.00000000000E+00 -0.15077636504E+04  0.40166997761E+04  0.37229727190E+04 0.  0.
        4    1    3    3  502    0  0.98024200495E+03  0.41215324492E+03  0.89453020681E+03  0.13895792850E+04  0.12699999809E+01 0. -1.
       -4    1    3    3    0  502 -0.98024200495E+03 -0.41215324492E+03 -0.24022938572E+04  0.26271204911E+04  0.12699999809E+01 0.  1.
</event>
<event>
 5   0  0.5132561E-07  0.3794238E+04  0.7818609E-02  0.8047392E-01
       -2   -1    0    0    0  501  0.00000000000E+00  0.00000000000E+00  0.19534197343E+04  0.19534197343E+04  0.25500000920E-02 0.  1.
        2   -1    0    0  501    0  0.00000000000E+00  0.00000000000E+00 -0.18424413193E+04  0.18424413193E+04  0.25500000920E-02 0. -1.
    10030    2    1    2    0    0  0.00000000000E+00  0.00000000000E+00  0.11097841497E+03  0.37958610537E+04  0.37942383860E+04 0.  0.
        3    1    3    3  502    0  0.56822472631E+03  0.13149145257E+04 -0.11889003258E+04  0.18615486951E+04  0.10100000352E+00 0. -1.
       -3    1    3    3    0  502 -0.56822472631E+03 -0.13149145257E+04  0.12998787408E+04  0.19343123585E+04  0.10100000352E+00 0.  1.
</event>
<event>
 5   0  0.1648000E-07  0.3832366E+04  0.7818609E-02  0.8039245E-01
       -1   -1    0    0    0  501  0.00000000000E+00  0.00000000000E+00  0.22409730748E+04  0.22409730748E+04  0.50400001928E-02 0.  1.
        1   -1    0    0  501    0  0.00000000000E+00  0.00000000000E+00 -0.16384655651E+04  0.16384655651E+04  0.50400001928E-02 0. -1.
    10030    2    1    2    0    0  0.00000000000E+00  0.00000000000E+00  0.60250750974E+03  0.38794386399E+04  0.38323659614E+04 0.  0.
        1    1    3    3  502    0 -0.13123518620E+04 -0.12033627300E+04 -0.41554545675E+03  0.18283947320E+04  0.50400001928E-02 0. -1.
       -1    1    3    3    0  502  0.13123518620E+04  0.12033627300E+04  0.10180529665E+04  0.20510439079E+04  0.50400001928E-02 0.  1.
</event>
<event>
 5   0  0.5132561E-07  0.3818652E+04  0.7818609E-02  0.8042164E-01
       -2   -1    0    0    0  501  0.00000000000E+00  0.00000000000E+00  0.13447982707E+04  0.13447982707E+04  0.25500000920E-02 0. -1.
        2   -1    0    0  501    0  0.00000000000E+00  0.00000000000E+00 -0.27108341001E+04  0.27108341001E+04  0.25500000920E-02 0.  1.
    10030    2    1    2    0    0  0.00000000000E+00  0.00000000000E+00 -0.13660358293E+04  0.40556323708E+04  0.38186515997E+04 0.  0.
        3    1    3    3  502    0 -0.35318100227E+03 -0.50842205984E+03  0.12352540157E+04  0.13816954457E+04  0.10100000352E+00 0. -1.
       -3    1    3    3    0  502  0.35318100227E+03  0.50842205984E+03 -0.26012898450E+04  0.26739369251E+04  0.10100000352E+00 0.  1.
</event>
<event>
 5   0  0.5325362E-07  0.3738374E+04  0.7818609E-02  0.8059511E-01
       -2   -1    0    0    0  501  0.00000000000E+00  0.00000000000E+00  0.22758888358E+04  0.22758888358E+04  0.25500000920E-02 0.  1.
        2   -1    0    0  501    0  0.00000000000E+00  0.00000000000E+00 -0.15351626617E+04  0.15351626617E+04  0.25500000920E-02 0. -1.
    10030    2    1    2    0    0  0.00000000000E+00  0.00000000000E+00  0.74072617414E+03  0.38110514975E+04  0.37383737442E+04 0.  0.
        4    1    3    3  502    0  0.25081867428E+03  0.85387066541E+03 -0.13053240813E+04  0.15798347036E+04  0.12699999809E+01 0. -1.
       -4    1    3    3    0  502 -0.25081867428E+03 -0.85387066541E+03  0.20460502554E+04  0.22312167939E+04  0.12699999809E+01 0.  1.
</event>
<event>
 5   0  0.1648000E-07  0.3802210E+04  0.7818609E-02  0.8045681E-01
       -1   -1    0    0    0  501  0.00000000000E+00  0.00000000000E+00  0.18367067347E+04  0.18367067347E+04  0.50400001928E-02 0. -1.
        1   -1    0    0  501    0  0.00000000000E+00  0.00000000000E+00 -0.19677612522E+04  0.19677612522E+04  0.50400001928E-02 0.  1.
    10030    2    1    2    0    0  0.00000000000E+00  0.00000000000E+00 -0.13105451745E+03  0.38044679869E+04  0.38022100648E+04 0.  0.
        4    1    3    3  502    0  0.45358093450E+03  0.43382428707E+03  0.17300465656E+04  0.18403809139E+04  0.12699999809E+01 0. -1.
       -4    1    3    3    0  502 -0.45358093450E+03 -0.43382428707E+03 -0.18611010831E+04  0.19640870730E+04  0.12699999809E+01 0.  1.
</event>
<event>
 5   0  0.1648000E-07  0.3764038E+04  0.7818609E-02  0.8053916E-01
        1   -1    0    0  501    0  0.00000000000E+00  0.00000000000E+00  0.19019149410E+04  0.19019149410E+04  0.50400001928E-02 0.  1.
       -1   -1    0    0    0  501  0.00000000000E+00  0.00000000000E+00 -0.18623315773E+04  0.18623315773E+04  0.50400001928E-02 0. -1.
    10030    2    1    2    0    0  0.00000000000E+00  0.00000000000E+00  0.39583363681E+02  0.37642465184E+04  0.37640383909E+04 0.  0.
        1    1    3    3  502    0  0.14385418454E+04  0.11794974666E+04 -0.26549473071E+03  0.18791232974E+04  0.50400001928E-02 0. -1.
       -1    1    3    3    0  502 -0.14385418454E+04 -0.11794974666E+04  0.30507809440E+03  0.18851232210E+04  0.50400001928E-02 0.  1.
</event>
<event>
 5   0  0.5158266E-07  0.3817516E+04  0.7818609E-02  0.8042407E-01
        2   -1    0    0  501    0  0.00000000000E+00  0.00000000000E+00  0.29723416198E+04  0.29723416198E+04  0.25500000920E-02 0. -1.
       -2   -1    0    0    0  501  0.00000000000E+00  0.00000000000E+00 -0.12257528797E+04  0.12257528797E+04  0.25500000920E-02 0.  1.
    10030    2    1    2    0    0  0.00000000000E+00  0.00000000000E+00  0.17465887400E+04  0.41980944995E+04  0.38175155795E+04 0.  0.
        2    1    3    3  502    0 -0.61247572952E+03 -0.82614973381E+03 -0.89502619340E+03  0.13633494742E+04  0.25500000920E-02 0.  1.
       -2    1    3    3    0  502  0.61247572952E+03  0.82614973381E+03  0.26416149334E+04  0.28347450253E+04  0.25500000920E-02 0. -1.
</event>
<event>
 5   0  0.5132561E-07  0.3786538E+04  0.7818609E-02  0.8049050E-01
        2   -1    0    0  501    0  0.00000000000E+00  0.00000000000E+00  0.22486170981E+04  0.22486170981E+04  0.25500000920E-02 0. -1.
       -2   -1    0    0    0  501  0.00000000000E+00  0.00000000000E+00 -0.15940762521E+04  0.15940762521E+04  0.25500000920E-02 0.  1.
    10030    2    1    2    0    0  0.00000000000E+00  0.00000000000E+00  0.65454084597E+03  0.38426933501E+04  0.37865377938E+04 0.  0.
        3    1    3    3  502    0  0.47790481742E+03 -0.17937589512E+04 -0.50408624331E+02  0.18570151397E+04  0.10100000352E+00 0.  1.
       -3    1    3    3    0  502 -0.47790481742E+03  0.17937589512E+04  0.70494947030E+03  0.19856782104E+04  0.10100000352E+00 0. -1.
</event>
<event>
 5   0  0.1648000E-07  0.3782610E+04  0.7818609E-02  0.8049897E-01
       -1   -1    0    0    0  501  0.00000000000E+00  0.00000000000E+00  0.25168297609E+04  0.25168297609E+04  0.50400001928E-02 0.  1.
        1   -1    0    0  501    0  0.00000000000E+00  0.00000000000E+00 -0.14212461141E+04  0.14212461141E+04  0.50400001928E-02 0. -1.
    10030    2    1    2    0    0  0.00000000000E+00  0.00000000000E+00  0.10955836468E+04  0.39380758750E+04  0.37826099548E+04 0.  0.
        4    1    3    3  502    0  0.13614259623E+04  0.90219743464E+02 -0.81577624562E+03  0.15896895133E+04  0.12699999809E+01 0. -1.
       -4    1    3    3    0  502 -0.13614259623E+04 -0.90219743464E+02  0.19113598924E+04  0.23483863617E+04  0.12699999809E+01 0.  1.
</event>
<event>
 5   0  0.1648000E-07  0.3035409E+04  0.7818609E-02  0.8233691E-01
       -1   -1    0    0    0  501  0.00000000000E+00  0.00000000000E+00  0.26339596790E+04  0.26339596790E+04  0.50400001928E-02 0. -1.
        1   -1    0    0  501    0  0.00000000000E+00  0.00000000000E+00 -0.87451109245E+03  0.87451109246E+03  0.50400001928E-02 0.  1.
    10030    2    1    2    0    0  0.00000000000E+00  0.00000000000E+00  0.17594485866E+04  0.35084707715E+04  0.30354090047E+04 0.  0.
        2    1    3    3  502    0  0.14345943814E+04 -0.49125239822E+03  0.80628475580E+03  0.17174064939E+04  0.25500000920E-02 0. -1.
       -2    1    3    3    0  502 -0.14345943814E+04  0.49125239822E+03  0.95316383078E+03  0.17910642775E+04  0.25500000920E-02 0.  1.
</event>
<event>
 5   0  0.1648000E-07  0.3824840E+04  0.7818609E-02  0.8040845E-01
        1   -1    0    0  501    0  0.00000000000E+00  0.00000000000E+00  0.20566172002E+04  0.20566172002E+04  0.50400001928E-02 0. -1.
       -1   -1    0    0    0  501  0.00000000000E+00  0.00000000000E+00 -0.17783329846E+04  0.17783329846E+04  0.50400001928E-02 0.  1.
    10030    2    1    2    0    0  0.00000000000E+00  0.00000000000E+00  0.27828421558E+03  0.38349501848E+04  0.38248399725E+04 0.  0.
        1    1    3    3  502    0 -0.87669486430E+03  0.69668525557E+02 -0.15635524697E+04  0.17939185918E+04  0.50400001928E-02 0.  1.
       -1    1    3    3    0  502  0.87669486430E+03 -0.69668525557E+02  0.18418366852E+04  0.20410315930E+04  0.50400001928E-02 0. -1.
</event>
<event>
 5   0  0.5158266E-07  0.3700882E+04  0.7818609E-02  0.8067766E-01
        2   -1    0    0  501    0  0.00000000000E+00  0.00000000000E+00  0.18673494012E+04  0.18673494012E+04  0.25500000920E-02 0. -1.
       -2   -1    0    0    0  501  0.00000000000E+00  0.00000000000E+00 -0.18336855745E+04  0.18336855745E+04  0.25500000920E-02 0.  1.
    10030    2    1    2    0    0  0.00000000000E+00  0.00000000000E+00  0.33663826748E+02  0.37010349757E+04  0.37008818730E+04 0.  0.
        2    1    3    3  502    0  0.11319436554E+04  0.12683462135E+04  0.74770625115E+03  0.18571653653E+04  0.25500000920E-02 0. -1.
       -2    1    3    3    0  502 -0.11319436554E+04 -0.12683462135E+04 -0.71404242440E+03  0.18438696104E+04  0.25500000920E-02 0.  1.
</event>
<event>
 5   0  0.1656617E-07  0.3742481E+04  0.7818609E-02  0.8058612E-01
       -1   -1    0    0    0  501  0.00000000000E+00  0.00000000000E+00  0.25119608681E+04  0.25119608681E+04  0.50400001928E-02 0.  1.
        1   -1    0    0  501    0  0.00000000000E+00  0.00000000000E+00 -0.13939474710E+04  0.13939474710E+04  0.50400001928E-02 0. -1.
    10030    2    1    2    0    0  0.00000000000E+00  0.00000000000E+00  0.11180133971E+04  0.39059083392E+04  0.37424812622E+04 0.  0.
        5    1    3    3  502    0  0.14686240278E+03 -0.67783885554E+03 -0.12548408324E+04  0.14337648636E+04  0.46999998093E+01 0. -1.
       -5    1    3    3    0  502 -0.14686240278E+03  0.67783885554E+03  0.23728542295E+04  0.24721434756E+04  0.46999998093E+01 0.  1.
</event>
<event>
 5   0  0.1648000E-07  0.3820808E+04  0.7818609E-02  0.8041704E-01
       -1   -1    0    0    0  501  0.00000000000E+00  0.00000000000E+00  0.19676671841E+04  0.19676671841E+04  0.50400001928E-02 0. -1.
        1   -1    0    0  501    0  0.00000000000E+00  0.00000000000E+00 -0.18548068728E+04  0.18548068728E+04  0.50400001928E-02 0.  1.
    10030    2    1    2    0    0  0.00000000000E+00  0.00000000000E+00  0.11286031130E+03  0.38224740568E+04  0.38208075671E+04 0.  0.
        3    1    3    3  502    0 -0.11789641045E+04  0.11018776421E+04  0.10793984672E+04  0.19414406401E+04  0.10100000352E+00 0. -1.
       -3    1    3    3    0  502  0.11789641045E+04 -0.11018776421E+04 -0.96653815588E+03  0.18810334167E+04  0.10100000352E+00 0.  1.
</event>
<event>
 5   0  0.5132561E-07  0.3789810E+04  0.7818609E-02  0.8048345E-01
        2   -1    0    0  501    0  0.00000000000E+00  0.00000000000E+00  0.32043822195E+04  0.32043822195E+04  0.25500000920E-02 0. -1.
       -2   -1    0    0    0  501  0.00000000000E+00  0.00000000000E+00 -0.11205479989E+04  0.11205479989E+04  0.25500000920E-02 0.  1.
    10030    2    1    2    0    0  0.00000000000E+00  0.00000000000E+00  0.20838342206E+04  0.43249302184E+04  0.37898095381E+04 0.  0.
        3    1    3    3  502    0  0.60562304188E+03  0.14436105081E+04 -0.17648333726E+03  0.15754164359E+04  0.10100000352E+00 0.  1.
       -3    1    3    3    0  502 -0.60562304188E+03 -0.14436105081E+04  0.22603175578E+04  0.27495137825E+04  0.10100000352E+00 0. -1.
</event>
<event>
 5   0  0.5132561E-07  0.3859738E+04  0.7818609E-02  0.8033455E-01
        2   -1    0    0  501    0  0.00000000000E+00  0.00000000000E+00  0.19276928634E+04  0.19276928634E+04  0.25500000920E-02 0. -1.
       -2   -1    0    0    0  501  0.00000000000E+00  0.00000000000E+00 -0.19320477386E+04  0.19320477386E+04  0.25500000920E-02 0.  1.
    10030    2    1    2    0    0  0.00000000000E+00  0.00000000000E+00 -0.43548751434E+01  0.38597406020E+04  0.38597381453E+04 0.  0.
        3    1    3    3  502    0 -0.14039561504E+04  0.61264509712E+03  0.11716920161E+04  0.19285458455E+04  0.10100000352E+00 0. -1.
       -3    1    3    3    0  502  0.14039561504E+04 -0.61264509712E+03 -0.11760468913E+04  0.19311947566E+04  0.10100000352E+00 0.  1.
</event>
<event>
 5   0  0.1648000E-07  0.2934978E+04  0.7818609E-02  0.8262546E-01
       -1   -1    0    0    0  501  0.00000000000E+00  0.00000000000E+00  0.14261200347E+04  0.14261200347E+04  0.50400001928E-02 0. -1.
        1   -1    0    0  501    0  0.00000000000E+00  0.00000000000E+00 -0.15100575429E+04  0.15100575429E+04  0.50400001928E-02 0.  1.
    10030    2    1    2    0    0  0.00000000000E+00  0.00000000000E+00 -0.83937508224E+02  0.29361775776E+04  0.29349775573E+04 0.  0.
        1    1    3    3  502    0 -0.11040528804E+04  0.47249002812E+03 -0.88572555397E+03  0.14922095518E+04  0.50400001928E-02 0.  1.
       -1    1    3    3    0  502  0.11040528804E+04 -0.47249002812E+03  0.80178804574E+03  0.14439680259E+04  0.50400001928E-02 0. -1.
</event>
<event>
 5   0  0.5202788E-07  0.3792499E+04  0.7818609E-02  0.8047767E-01
       -2   -1    0    0    0  501  0.00000000000E+00  0.00000000000E+00  0.16959021045E+04  0.16959021045E+04  0.25500000920E-02 0.  1.
        2   -1    0    0  501    0  0.00000000000E+00  0.00000000000E+00 -0.21202647490E+04  0.21202647490E+04  0.25500000920E-02 0. -1.
    10030    2    1    2    0    0  0.00000000000E+00  0.00000000000E+00 -0.42436264451E+03  0.38161668535E+04  0.37924986222E+04 0.  0.
        1    1    3    3  502    0  0.10257155278E+04  0.10774372898E+04  0.97108170204E+03  0.17765030621E+04  0.50400001928E-02 0.  1.
       -1    1    3    3    0  502 -0.10257155278E+04 -0.10774372898E+04 -0.13954443465E+04  0.20396637914E+04  0.50400001928E-02 0. -1.
</event>
<event>
 5   0  0.1648000E-07  0.3795876E+04  0.7818609E-02  0.8047040E-01
        1   -1    0    0  501    0  0.00000000000E+00  0.00000000000E+00  0.22156656075E+04  0.22156656075E+04  0.50400001928E-02 0. -1.
       -1   -1    0    0    0  501  0.00000000000E+00  0.00000000000E+00 -0.16257729303E+04  0.16257729303E+04  0.50400001928E-02 0.  1.
    10030    2    1    2    0    0  0.00000000000E+00  0.00000000000E+00  0.58989267715E+03  0.38414385378E+04  0.37958762715E+04 0.  0.
        2    1    3    3  502    0  0.37650234091E+03  0.34866737050E+03  0.21441300079E+04  0.22046805752E+04  0.25500000920E-02 0. -1.
       -2    1    3    3    0  502 -0.37650234091E+03 -0.34866737050E+03 -0.15542373307E+04  0.16367579626E+04  0.25500000920E-02 0.  1.
</event>
<event>
 5   0  0.1648000E-07  0.3802106E+04  0.7818609E-02  0.8045703E-01
       -1   -1    0    0    0  501  0.00000000000E+00  0.00000000000E+00  0.16841643107E+04  0.16841643107E+04  0.50400001928E-02 0. -1.
        1   -1    0    0  501    0  0.00000000000E+00  0.00000000000E+00 -0.21458724846E+04  0.21458724847E+04  0.50400001928E-02 0.  1.
    10030    2    1    2    0    0  0.00000000000E+00  0.00000000000E+00 -0.46170817395E+03  0.38300367954E+04  0.38021056555E+04 0.  0.
        1    1    3    3  502    0 -0.32509433321E+03 -0.16582314427E+03  0.16485468389E+04  0.16884579713E+04  0.50400001928E-02 0. -1.
       -1    1    3    3    0  502  0.32509433321E+03  0.16582314427E+03 -0.21102550128E+04  0.21415788241E+04  0.50400001928E-02 0.  1.
</event>
<event>
 5   0  0.1648000E-07  0.3754181E+04  0.7818609E-02  0.8056060E-01
       -4   -1    0    0    0  501  0.00000000000E+00  0.00000000000E+00  0.17262449052E+04  0.17262453724E+04  0.12699999809E+01 0. -1.
        4   -1    0    0  501    0  0.00000000000E+00  0.00000000000E+00 -0.20411170101E+04  0.20411174052E+04  0.12699999809E+01 0.  1.
    10030    2    1    2    0    0  0.00000000000E+00  0.00000000000E+00 -0.31487210488E+03  0.37673627776E+04  0.37541813829E+04 0.  0.
        3    1    3    3  502    0  0.41844925365E+03  0.75724996220E+03  0.15142285998E+04  0.17439654658E+04  0.10100000352E+00 0. -1.
       -3    1    3    3    0  502 -0.41844925365E+03 -0.75724996220E+03 -0.18291007047E+04  0.20233973118E+04  0.10100000352E+00 0.  1.
</event>
<event>
 5   0  0.5202788E-07  0.3718279E+04  0.7818609E-02  0.8063923E-01
       -2   -1    0    0    0  501  0.00000000000E+00  0.00000000000E+00  0.16149289756E+04  0.16149289756E+04  0.25500000920E-02 0.  1.
        2   -1    0    0  501    0  0.00000000000E+00  0.00000000000E+00 -0.21402793168E+04  0.21402793168E+04  0.25500000920E-02 0. -1.
    10030    2    1    2    0    0  0.00000000000E+00  0.00000000000E+00 -0.52535034118E+03  0.37552082924E+04  0.37182786795E+04 0.  0.
        1    1    3    3  502    0  0.65733796504E+03  0.66243460856E+03 -0.18865898705E+04  0.21047883861E+04  0.50400001928E-02 0. -1.
       -1    1    3    3    0  502 -0.65733796504E+03 -0.66243460856E+03  0.13612395293E+04  0.16504199063E+04  0.50400001928E-02 0.  1.
</event>
<event>
 5   0  0.1648000E-07  0.3714394E+04  0.7818609E-02  0.8064780E-01
        1   -1    0    0  501    0  0.00000000000E+00  0.00000000000E+00  0.22388033488E+04  0.22388033488E+04  0.50400001928E-02 0. -1.
       -1   -1    0    0    0  501  0.00000000000E+00  0.00000000000E+00 -0.15406354407E+04  0.15406354408E+04  0.50400001928E-02 0.  1.
    10030    2    1    2    0    0  0.00000000000E+00  0.00000000000E+00  0.69816790801E+03  0.37794387895E+04  0.37143935085E+04 0.  0.
        4    1    3    3  502    0  0.94981147025E+03 -0.11257910445E+04 -0.80193309900E+03  0.16770943960E+04  0.12699999809E+01 0.  1.
       -4    1    3    3    0  502 -0.94981147025E+03  0.11257910445E+04  0.15001010070E+04  0.21023443935E+04  0.12699999809E+01 0. -1.
</event>
<event>
 5   0  0.1648000E-07  0.3806343E+04  0.7818609E-02  0.8044795E-01
       -1   -1    0    0    0  501  0.00000000000E+00  0.00000000000E+00  0.11142429829E+04  0.11142429829E+04  0.50400001928E-02 0. -1.
        1   -1    0    0  501    0  0.00000000000E+00  0.00000000000E+00 -0.32506920542E+04  0.32506920543E+04  0.50400001928E-02 0.  1.
    10030    2    1    2    0    0  0.00000000000E+00  0.00000000000E+00 -0.21364490714E+04  0.43649350371E+04  0.38063425022E+04 0.  0.
        2    1    3    3  502    0  0.17896144445E+04 -0.64612271795E+03 -0.10186828856E+04  0.21582189991E+04  0.25500000920E-02 0. -1.
       -2    1    3    3    0  502 -0.17896144445E+04  0.64612271795E+03 -0.11177661858E+04  0.22067160381E+04  0.25500000920E-02 0.  1.
</event>
<event>
 5   0  0.5158266E-07  0.3910823E+04  0.7818609E-02  0.8022782E-01
       -2   -1    0    0    0  501  0.00000000000E+00  0.00000000000E+00  0.11651391621E+04  0.11651391621E+04  0.25500000920E-02 0. -1.
        2   -1    0    0  501    0  0.00000000000E+00  0.00000000000E+00 -0.32816966521E+04  0.32816966521E+04  0.25500000920E-02 0.  1.
    10030    2    1    2    0    0  0.00000000000E+00  0.00000000000E+00 -0.21165574899E+04  0.44468358142E+04  0.39108225670E+04 0.  0.
        2    1    3    3  502    0 -0.17264326624E+04 -0.42385527723E+03 -0.13214422485E+03  0.17826062745E+04  0.25500000920E-02 0. -1.
       -2    1    3    3    0  502  0.17264326624E+04  0.42385527723E+03 -0.19844132651E+04  0.26642295397E+04  0.25500000920E-02 0.  1.
</event>
<event>
 5   0  0.1648000E-07  0.3812492E+04  0.7818609E-02  0.8043480E-01
        1   -1    0    0  501    0  0.00000000000E+00  0.00000000000E+00  0.20171524967E+04  0.20171524967E+04  0.50400001928E-02 0. -1.
       -1   -1    0    0    0  501  0.00000000000E+00  0.00000000000E+00 -0.18014370110E+04  0.18014370111E+04  0.50400001928E-02 0.  1.
    10030    2    1    2    0    0  0.00000000000E+00  0.00000000000E+00  0.21571548565E+03  0.38185895078E+04  0.38124916601E+04 0.  0.
        3    1    3    3  502    0 -0.18522857806E+04 -0.24769637845E+03  0.48456706168E+03  0.19305753952E+04  0.10100000352E+00 0. -1.
       -3    1    3    3    0  502  0.18522857806E+04  0.24769637845E+03 -0.26885157603E+03  0.18880141126E+04  0.10100000352E+00 0.  1.
</event>
<event>
 5   0  0.5134434E-07  0.3822736E+04  0.7818609E-02  0.8041293E-01
        2   -1    0    0  501    0  0.00000000000E+00  0.00000000000E+00  0.24662096866E+04  0.24662096866E+04  0.25500000920E-02 0. -1.
       -2   -1    0    0    0  501  0.00000000000E+00  0.00000000000E+00 -0.14813535269E+04  0.14813535269E+04  0.25500000920E-02 0.  1.
    10030    2    1    2    0    0  0.00000000000E+00  0.00000000000E+00  0.98485615964E+03  0.39475632135E+04  0.38227364112E+04 0.  0.
        5    1    3    3  502    0  0.10983844584E+04  0.10802776860E+04 -0.67582151439E+03  0.16823213447E+04  0.46999998093E+01 0.  1.
       -5    1    3    3    0  502 -0.10983844584E+04 -0.10802776860E+04  0.16606776740E+04  0.22652418689E+04  0.46999998093E+01 0. -1.
</event>
<event>
 5   0  0.1648000E-07  0.3829559E+04  0.7818609E-02  0.8039841E-01
        1   -1    0    0  501    0  0.00000000000E+00  0.00000000000E+00  0.22797838161E+04  0.22797838161E+04  0.50400001928E-02 0.  1.
       -1   -1    0    0    0  501  0.00000000000E+00  0.00000000000E+00 -0.16082141238E+04  0.16082141238E+04  0.50400001928E-02 0. -1.
    10030    2    1    2    0    0  0.00000000000E+00  0.00000000000E+00  0.67156969231E+03  0.38879979399E+04  0.38295589992E+04 0.  0.
        3    1    3    3  502    0  0.12773205746E+04 -0.13281833911E+04  0.86407286132E+03  0.20352495892E+04  0.10100000352E+00 0.  1.
       -3    1    3    3    0  502 -0.12773205746E+04  0.13281833911E+04 -0.19250316901E+03  0.18527483506E+04  0.10100000352E+00 0. -1.
</event>
<event>
 5   0  0.5158266E-07  0.3552634E+04  0.7818609E-02  0.8101428E-01
       -2   -1    0    0    0  501  0.00000000000E+00  0.00000000000E+00  0.23620783459E+04  0.23620783459E+04  0.25500000920E-02 0.  1.
        2   -1    0    0  501    0  0.00000000000E+00  0.00000000000E+00 -0.13358163219E+04  0.13358163219E+04  0.25500000920E-02 0. -1.
    10030    2    1    2    0    0  0.00000000000E+00  0.00000000000E+00  0.10262620240E+04  0.36978946678E+04  0.35526344073E+04 0.  0.
        2    1    3    3  502    0  0.54711011829E+02  0.11178681696E+04  0.19489077937E+04  0.22474127631E+04  0.25500000920E-02 0.  1.
       -2    1    3    3    0  502 -0.54711011829E+02 -0.11178681696E+04 -0.92264576975E+03  0.14504819047E+04  0.25500000920E-02 0. -1.
</event>
<event>
 5   0  0.5158266E-07  0.3781703E+04  0.7818609E-02  0.8050093E-01
        2   -1    0    0  501    0  0.00000000000E+00  0.00000000000E+00  0.13279910460E+04  0.13279910460E+04  0.25500000920E-02 0.  1.
       -2   -1    0    0    0  501  0.00000000000E+00  0.00000000000E+00 -0.26922762210E+04  0.26922762210E+04  0.25500000920E-02 0. -1.
    10030    2    1    2    0    0  0.00000000000E+00  0.00000000000E+00 -0.13642851751E+04  0.40202672670E+04  0.37817026402E+04 0.  0.
        2    1    3    3  502    0  0.35918621584E+03  0.14409906730E+03 -0.26497209364E+04  0.26778350060E+04  0.25500000920E-02 0. -1.
       -2    1    3    3    0  502 -0.35918621584E+03 -0.14409906730E+03  0.12854357613E+04  0.13424322610E+04  0.25500000920E-02 0.  1.
</event>
<event>
 5   0  0.1648000E-07  0.3016931E+04  0.7818609E-02  0.8238913E-01
        1   -1    0    0  501    0  0.00000000000E+00  0.00000000000E+00  0.16377939240E+04  0.16377939240E+04  0.50400001928E-02 0.  1.
       -1   -1    0    0    0  501  0.00000000000E+00  0.00000000000E+00 -0.13893496053E+04  0.13893496053E+04  0.50400001928E-02 0. -1.
    10030    2    1    2    0    0  0.00000000000E+00  0.00000000000E+00  0.24844431865E+03  0.30271435293E+04  0.30169311175E+04 0.  0.
        1    1    3    3  502    0 -0.78114653832E+03  0.12545587334E+03  0.14129136052E+04  0.16193375023E+04  0.50400001928E-02 0.  1.
       -1    1    3    3    0  502  0.78114653832E+03 -0.12545587334E+03 -0.11644692866E+04  0.14078060271E+04  0.50400001928E-02 0. -1.
</event>
<event>
 5   0  0.5132561E-07  0.3675811E+04  0.7818609E-02  0.8073344E-01
       -2   -1    0    0    0  501  0.00000000000E+00  0.00000000000E+00  0.28144665154E+04  0.28144665154E+04  0.25500000920E-02 0.  1.
        2   -1    0    0  501    0  0.00000000000E+00  0.00000000000E+00 -0.12001907870E+04  0.12001907870E+04  0.25500000920E-02 0. -1.
    10030    2    1    2    0    0  0.00000000000E+00  0.00000000000E+00  0.16142757284E+04  0.40146573023E+04  0.36758110844E+04 0.  0.
        3    1    3    3  502    0 -0.75785916655E+00  0.18187943921E+04  0.10958609779E+04  0.21234229226E+04  0.10100000352E+00 0. -1.
       -3    1    3    3    0  502  0.75785916655E+00 -0.18187943921E+04  0.51841475045E+03  0.18912343797E+04  0.10100000352E+00 0.  1.
</event>
<event>
 5   0  0.5158266E-07  0.3771554E+04  0.7818609E-02  0.8052287E-01
       -2   -1    0    0    0  501  0.00000000000E+00  0.00000000000E+00  0.25142777144E+04  0.25142777144E+04  0.25500000920E-02 0.  1.
        2   -1    0    0  501    0  0.00000000000E+00  0.00000000000E+00 -0.14143843054E+04  0.14143843054E+04  0.25500000920E-02 0. -1.
    10030    2    1    2    0    0  0.00000000000E+00  0.00000000000E+00  0.10998934090E+04  0.39286620197E+04  0.37715540238E+04 0.  0.
        2    1    3    3  502    0  0.15947082648E+04  0.84226990421E+03 -0.24044428549E+02  0.18036327719E+04  0.25500000920E-02 0. -1.
       -2    1    3    3    0  502 -0.15947082648E+04 -0.84226990421E+03  0.11239378376E+04  0.21250292478E+04  0.25500000920E-02 0.  1.
</event>
<event>
 5   0  0.1648000E-07  0.3795835E+04  0.7818609E-02  0.8047049E-01
        1   -1    0    0  501    0  0.00000000000E+00  0.00000000000E+00  0.14144484786E+04  0.14144484786E+04  0.50400001928E-02 0.  1.
       -1   -1    0    0    0  501  0.00000000000E+00  0.00000000000E+00 -0.25466399555E+04  0.25466399556E+04  0.50400001928E-02 0. -1.
    10030    2    1    2    0    0  0.00000000000E+00  0.00000000000E+00 -0.11321914769E+04  0.39610884342E+04  0.37958350916E+04 0.  0.
        3    1    3    3  502    0  0.17779738955E+04 -0.37117013207E+03  0.84485290709E+01  0.18163231618E+04  0.10100000352E+00 0. -1.
       -3    1    3    3    0  502 -0.17779738955E+04  0.37117013207E+03 -0.11406400060E+04  0.21447652724E+04  0.10100000352E+00 0.  1.
</event>
<event>
 5   0  0.1648000E-07  0.3805035E+04  0.7818609E-02  0.8045075E-01
        1   -1    0    0  501    0  0.00000000000E+00  0.00000000000E+00  0.26944353254E+04  0.26944353254E+04  0.50400001928E-02 0. -1.
       -1   -1    0    0    0  501  0.00000000000E+00  0.00000000000E+00 -0.13433508908E+04  0.13433508908E+04  0.50400001928E-02 0.  1.
    10030    2    1    2    0    0  0.00000000000E+00  0.00000000000E+00  0.13510844346E+04  0.40377862162E+04  0.38050346094E+04 0.  0.
        3    1    3    3  502    0 -0.10814822231E+04 -0.34908309902E+02  0.23361111454E+04  0.25745364016E+04  0.10100000352E+00 0. -1.
       -3    1    3    3    0  502  0.10814822231E+04  0.34908309902E+02 -0.98502671083E+03  0.14632498147E+04  0.10100000352E+00 0.  1.
</event>
<event>
 5   0  0.1648000E-07  0.3958343E+04  0.7818609E-02  0.8013003E-01
       -1   -1    0    0    0  501  0.00000000000E+00  0.00000000000E+00  0.15853062346E+04  0.15853062346E+04  0.50400001928E-02 0.  1.
        1   -1    0    0  501    0  0.00000000000E+00  0.00000000000E+00 -0.24708920716E+04  0.24708920716E+04  0.50400001928E-02 0. -1.
    10030    2    1    2    0    0  0.00000000000E+00  0.00000000000E+00 -0.88558583701E+03  0.40561983061E+04  0.39583433939E+04 0.  0.
        4    1    3    3  502    0 -0.18822889196E+04 -0.36594421033E+03 -0.94500274758E+03  0.21377461373E+04  0.12699999809E+01 0. -1.
       -4    1    3    3    0  502  0.18822889196E+04  0.36594421033E+03  0.59416910566E+02  0.19184521688E+04  0.12699999809E+01 0.  1.
</event>
<event>
 5   0  0.5132561E-07  0.2956348E+04  0.7818609E-02  0.8256307E-01
        2   -1    0    0  501    0  0.00000000000E+00  0.00000000000E+00  0.17232360380E+04  0.17232360380E+04  0.25500000920E-02 0. -1.
       -2   -1    0    0    0  501  0.00000000000E+00  0.00000000000E+00 -0.12679625718E+04  0.12679625718E+04  0.25500000920E-02 0.  1.
    10030    2    1    2    0    0  0.00000000000E+00  0.00000000000E+00  0.45527346623E+03  0.29911986097E+04  0.29563482870E+04 0.  0.
        3    1    3    3  502    0 -0.69010950177E+03 -0.70097801001E+03  0.13439916449E+04  0.16655133883E+04  0.10100000352E+00 0. -1.
       -3    1    3    3    0  502  0.69010950177E+03  0.70097801001E+03 -0.88871817867E+03  0.13256852214E+04  0.10100000352E+00 0.  1.
</event>
<event>
 5   0  0.5158266E-07  0.3335088E+04  0.7818609E-02  0.8154024E-01
        2   -1    0    0  501    0  0.00000000000E+00  0.00000000000E+00  0.18987017775E+04  0.18987017775E+04  0.25500000920E-02 0.  1.
       -2   -1    0    0    0  501  0.00000000000E+00  0.00000000000E+00 -0.14645284737E+04  0.14645284737E+04  0.25500000920E-02 0. -1.
    10030    2    1    2    0    0  0.00000000000E+00  0.00000000000E+00  0.43417330385E+03  0.33632302512E+04  0.33350878946E+04 0.  0.
        2    1    3    3  502    0  0.33834187083E+03  0.14931436348E+04  0.88353364791E+03  0.17676495248E+04  0.25500000920E-02 0.  1.
       -2    1    3    3    0  502 -0.33834187083E+03 -0.14931436348E+04 -0.44936034406E+03  0.15955807264E+04  0.25500000920E-02 0. -1.
</event>
<event>
 5   0  0.5325362E-07  0.3821824E+04  0.7818609E-02  0.8041488E-01
        2   -1    0    0  501    0  0.00000000000E+00  0.00000000000E+00  0.19592575425E+04  0.19592575425E+04  0.25500000920E-02 0. -1.
       -2   -1    0    0    0  501  0.00000000000E+00  0.00000000000E+00 -0.18637590530E+04  0.18637590530E+04  0.25500000920E-02 0.  1.
    10030    2    1    2    0    0  0.00000000000E+00  0.00000000000E+00  0.95498489453E+02  0.38230165955E+04  0.38218236390E+04 0.  0.
        4    1    3    3  502    0 -0.68354532576E+03  0.12413658744E+04 -0.12345865184E+04  0.18794757064E+04  0.12699999809E+01 0.  1.
       -4    1    3    3    0  502  0.68354532576E+03 -0.12413658744E+04  0.13300850079E+04  0.19435408891E+04  0.12699999809E+01 0. -1.
</event>
<event>
 5   0  0.1648000E-07  0.3712110E+04  0.7818609E-02  0.8065283E-01
       -1   -1    0    0    0  501  0.00000000000E+00  0.00000000000E+00  0.19030900455E+04  0.19030900455E+04  0.50400001928E-02 0.  1.
        1   -1    0    0  501    0  0.00000000000E+00  0.00000000000E+00 -0.18101823385E+04  0.18101823385E+04  0.50400001928E-02 0. -1.
    10030    2    1    2    0    0  0.00000000000E+00  0.00000000000E+00  0.92907706932E+02  0.37132723840E+04  0.37121099062E+04 0.  0.
        2    1    3    3  502    0  0.13861313071E+04  0.12243020785E+04 -0.11064439410E+03  0.18527055248E+04  0.25500000920E-02 0.  1.
       -2    1    3    3    0  502 -0.13861313071E+04 -0.12243020785E+04  0.20355210103E+03  0.18605668592E+04  0.25500000920E-02 0. -1.
</event>
<event>
 5   0  0.5202788E-07  0.3829808E+04  0.7818609E-02  0.8039788E-01
       -2   -1    0    0    0  501  0.00000000000E+00  0.00000000000E+00  0.11604143540E+04  0.11604143540E+04  0.25500000920E-02 0. -1.
        2   -1    0    0  501    0  0.00000000000E+00  0.00000000000E+00 -0.31599546213E+04  0.31599546213E+04  0.25500000920E-02 0.  1.
    10030    2    1    2    0    0  0.00000000000E+00  0.00000000000E+00 -0.19995402674E+04  0.43203689753E+04  0.38298076717E+04 0.  0.
        1    1    3    3  502    0 -0.14110510055E+04 -0.94678830580E+03 -0.38614402956E+01  0.16992610002E+04  0.50400001928E-02 0. -1.
       -1    1    3    3    0  502  0.14110510055E+04  0.94678830580E+03 -0.19956788271E+04  0.26211079751E+04  0.50400001928E-02 0.  1.
</event>
<event>
 5   0  0.5158266E-07  0.3819795E+04  0.7818609E-02  0.8041920E-01
        2   -1    0    0  501    0  0.00000000000E+00  0.00000000000E+00  0.20476696033E+04  0.20476696033E+04  0.25500000920E-02 0. -1.
       -2   -1    0    0    0  501  0.00000000000E+00  0.00000000000E+00 -0.17813951395E+04  0.17813951395E+04  0.25500000920E-02 0.  1.
    10030    2    1    2    0    0  0.00000000000E+00  0.00000000000E+00  0.26627446385E+03  0.38290647428E+04  0.38197951142E+04 0.  0.
        2    1    3    3  502    0  0.38393281365E+03 -0.53997493960E+03  0.19287774276E+04  0.20394018010E+04  0.25500000920E-02 0. -1.
       -2    1    3    3    0  502 -0.38393281365E+03  0.53997493960E+03 -0.16625029638E+04  0.17896629418E+04  0.25500000920E-02 0.  1.
</event>
<event>
 5   0  0.1648000E-07  0.3114270E+04  0.7818609E-02  0.8211833E-01
       -1   -1    0    0    0  501  0.00000000000E+00  0.00000000000E+00  0.13160790058E+04  0.13160790058E+04  0.50400001928E-02 0. -1.
        1   -1    0    0  501    0  0.00000000000E+00  0.00000000000E+00 -0.18423431212E+04  0.18423431212E+04  0.50400001928E-02 0.  1.
    10030    2    1    2    0    0  0.00000000000E+00  0.00000000000E+00 -0.52626411546E+03  0.31584221270E+04  0.31142698042E+04 0.  0.
        1    1    3    3  502    0 -0.10246757179E+04  0.89497209550E+03 -0.10313229045E+04  0.17072089245E+04  0.50400001928E-02 0.  1.
       -1    1    3    3    0  502  0.10246757179E+04 -0.89497209550E+03  0.50505878905E+03  0.14512132025E+04  0.50400001928E-02 0. -1.
</event>
<event>
 5   0  0.1656617E-07  0.3832486E+04  0.7818609E-02  0.8039219E-01
       -1   -1    0    0    0  501  0.00000000000E+00  0.00000000000E+00  0.27020685987E+04  0.27020685987E+04  0.50400001928E-02 0. -1.
        1   -1    0    0  501    0  0.00000000000E+00  0.00000000000E+00 -0.13589542219E+04  0.13589542219E+04  0.50400001928E-02 0.  1.
    10030    2    1    2    0    0  0.00000000000E+00  0.00000000000E+00  0.13431143768E+04  0.40610228206E+04  0.38324861540E+04 0.  0.
        5    1    3    3  502    0 -0.22528022463E+03  0.49198635751E+03 -0.12763104848E+04  0.13862872354E+04  0.46999998093E+01 0.  1.
       -5    1    3    3    0  502  0.22528022463E+03 -0.49198635751E+03  0.26194248615E+04  0.26747355852E+04  0.46999998093E+01 0. -1.
</event>
<event>
 5   0  0.1648000E-07  0.3788159E+04  0.7818609E-02  0.8048701E-01
       -1   -1    0    0    0  501  0.00000000000E+00  0.00000000000E+00  0.10374326369E+04  0.10374326369E+04  0.50400001928E-02 0. -1.
        1   -1    0    0  501    0  0.00000000000E+00  0.00000000000E+00 -0.34580914433E+04  0.34580914433E+04  0.50400001928E-02 0.  1.
    10030    2    1    2    0    0  0.00000000000E+00  0.00000000000E+00 -0.24206588065E+04  0.44955240802E+04  0.37881588798E+04 0.  0.
        4    1    3    3  502    0 -0.85369075905E+03  0.16080286996E+04 -0.18303789407E+04  0.25816337637E+04  0.12699999809E+01 0.  1.
       -4    1    3    3    0  502  0.85369075905E+03 -0.16080286996E+04 -0.59027986580E+03  0.19138903165E+04  0.12699999809E+01 0. -1.
</event>
<event>
 5   0  0.1648000E-07  0.3723768E+04  0.7818609E-02  0.8062715E-01
       -1   -1    0    0    0  501  0.00000000000E+00  0.00000000000E+00  0.22674436987E+04  0.22674436988E+04  0.50400001928E-02 0.  1.
        1   -1    0    0  501    0  0.00000000000E+00  0.00000000000E+00 -0.15288638912E+04  0.15288638913E+04  0.50400001928E-02 0. -1.
    10030    2    1    2    0    0  0.00000000000E+00  0.00000000000E+00  0.73857980750E+03  0.37963075900E+04  0.37237684120E+04 0.  0.
        3    1    3    3  502    0 -0.16716521509E+04  0.66102350638E+03  0.86375327712E+03  0.19943527079E+04  0.10100000352E+00 0.  1.
       -3    1    3    3    0  502  0.16716521509E+04 -0.66102350638E+03 -0.12517346963E+03  0.18019548821E+04  0.10100000352E+00 0. -1.
</event>
<event>
 5   0  0.5132561E-07  0.3839250E+04  0.7818609E-02  0.8037784E-01
        2   -1    0    0  501    0  0.00000000000E+00  0.00000000000E+00  0.13077301470E+04  0.13077301470E+04  0.25500000920E-02 0.  1.
       -2   -1    0    0    0  501  0.00000000000E+00  0.00000000000E+00 -0.28178286830E+04  0.28178286830E+04  0.25500000920E-02 0. -1.
    10030    2    1    2    0    0  0.00000000000E+00  0.00000000000E+00 -0.15100985360E+04  0.41255588299E+04  0.38392496755E+04 0.  0.
        3    1    3    3  502    0  0.11096580573E+04 -0.12369791250E+04 -0.17877040202E+04  0.24407670995E+04  0.10100000352E+00 0. -1.
       -3    1    3    3    0  502 -0.11096580573E+04  0.12369791250E+04  0.27760548416E+03  0.16847917304E+04  0.10100000352E+00 0.  1.
</event>
<event>
 5   0  0.1648000E-07  0.3723771E+04  0.7818609E-02  0.8062714E-01
       -1   -1    0    0    0  501  0.00000000000E+00  0.00000000000E+00  0.22806006826E+04  0.22806006826E+04  0.50400001928E-02 0.  1.
        1   -1    0    0  501    0  0.00000000000E+00  0.00000000000E+00 -0.15200459263E+04  0.15200459263E+04  0.50400001928E-02 0. -1.
    10030    2    1    2    0    0  0.00000000000E+00  0.00000000000E+00  0.76055475629E+03  0.38006466089E+04  0.37237710870E+04 0.  0.
        2    1    3    3  502    0  0.63029201117E+03  0.14421088402E+03  0.21623335441E+04  0.22569340164E+04  0.25500000920E-02 0.  1.
       -2    1    3    3    0  502 -0.63029201117E+03 -0.14421088402E+03 -0.14017787878E+04  0.15437125925E+04  0.25500000920E-02 0. -1.
</event>
<event>
 5   0  0.5202788E-07  0.3788216E+04  0.7818609E-02  0.8048688E-01
       -2   -1    0    0    0  501  0.00000000000E+00  0.00000000000E+00  0.18826409589E+04  0.18826409589E+04  0.25500000920E-02 0.  1.
        2   -1    0    0  501    0  0.00000000000E+00  0.00000000000E+00 -0.19056447185E+04  0.19056447185E+04  0.25500000920E-02 0. -1.
    10030    2    1    2    0    0  0.00000000000E+00  0.00000000000E+00 -0.23003759580E+02  0.37882856774E+04  0.37882158334E+04 0.  0.
        1    1    3    3  502    0  0.32209548656E+03  0.18662159086E+04  0.22225289646E+02  0.18939380359E+04  0.50400001928E-02 0.  1.
       -1    1    3    3    0  502 -0.32209548656E+03 -0.18662159086E+04 -0.45229049226E+02  0.18943476416E+04  0.50400001928E-02 0. -1.
</event>
<event>
 5   0  0.1648000E-07  0.3266932E+04  0.7818609E-02  0.8171361E-01
       -1   -1    0    0    0  501  0.00000000000E+00  0.00000000000E+00  0.16521189982E+04  0.16521189982E+04  0.50400001928E-02 0. -1.
        1   -1    0    0  501    0  0.00000000000E+00  0.00000000000E+00 -0.16150239826E+04  0.16150239826E+04  0.50400001928E-02 0.  1.
    10030    2    1    2    0    0  0.00000000000E+00  0.00000000000E+00  0.37095015568E+02  0.32671429808E+04  0.32669323863E+04 0.  0.
        2    1    3    3  502    0  0.10034889845E+04  0.12630945528E+04  0.27510607423E+03  0.16364844465E+04  0.25500000920E-02 0.  1.
       -2    1    3    3    0  502 -0.10034889845E+04 -0.12630945528E+04 -0.23801105866E+03  0.16306585343E+04  0.25500000920E-02 0. -1.
</event>
<event>
 5   0  0.1648000E-07  0.3803235E+04  0.7818609E-02  0.8045461E-01
       -1   -1    0    0    0  501  0.00000000000E+00  0.00000000000E+00  0.20817459611E+04  0.20817459611E+04  0.50400001928E-02 0.  1.
        1   -1    0    0  501    0  0.00000000000E+00  0.00000000000E+00 -0.17370755509E+04  0.17370755509E+04  0.50400001928E-02 0. -1.
    10030    2    1    2    0    0  0.00000000000E+00  0.00000000000E+00  0.34467041022E+03  0.38188215120E+04  0.38032354712E+04 0.  0.
        3    1    3    3  502    0  0.63342581653E+03 -0.93738481500E+03  0.17070726105E+04  0.20479295554E+04  0.10100000352E+00 0.  1.
       -3    1    3    3    0  502 -0.63342581653E+03  0.93738481500E+03 -0.13624022002E+04  0.17708919566E+04  0.10100000352E+00 0. -1.
</event>
<event>
 5   0  0.5202788E-07  0.3805772E+04  0.7818609E-02  0.8044917E-01
        2   -1    0    0  501    0  0.00000000000E+00  0.00000000000E+00  0.13092063544E+04  0.13092063544E+04  0.25500000920E-02 0. -1.
       -2   -1    0    0    0  501  0.00000000000E+00  0.00000000000E+00 -0.27657784158E+04  0.27657784158E+04  0.25500000920E-02 0.  1.
    10030    2    1    2    0    0  0.00000000000E+00  0.00000000000E+00 -0.14565720614E+04  0.40749847702E+04  0.38057717624E+04 0.  0.
        1    1    3    3  502    0 -0.38184109308E+03  0.10408045891E+03 -0.27212225329E+04  0.27498522571E+04  0.50400001928E-02 0.  1.
       -1    1    3    3    0  502  0.38184109308E+03 -0.10408045891E+03  0.12646504715E+04  0.13251325132E+04  0.50400001928E-02 0. -1.
</event>
<event>
 5   0  0.1648000E-07  0.2821754E+04  0.7818609E-02  0.8296546E-01
        1   -1    0    0  501    0  0.00000000000E+00  0.00000000000E+00  0.18180899525E+04  0.18180899525E+04  0.50400001928E-02 0.  1.
       -1   -1    0    0    0  501  0.00000000000E+00  0.00000000000E+00 -0.10948712676E+04  0.10948712676E+04  0.50400001928E-02 0. -1.
    10030    2    1    2    0    0  0.00000000000E+00  0.00000000000E+00  0.72321868493E+03  0.29129612201E+04  0.28217543840E+04 0.  0.
        4    1    3    3  502    0  0.74845977824E+03  0.13645249353E+03 -0.86497146218E+03  0.11519498973E+04  0.12699999809E+01 0. -1.
       -4    1    3    3    0  502 -0.74845977824E+03 -0.13645249353E+03  0.15881901471E+04  0.17610113228E+04  0.12699999809E+01 0.  1.
</event>
<event>
 5   0  0.5158266E-07  0.3367264E+04  0.7818609E-02  0.8145988E-01
       -2   -1    0    0    0  501  0.00000000000E+00  0.00000000000E+00  0.10772574053E+04  0.10772574053E+04  0.25500000920E-02 0. -1.
        2   -1    0    0  501    0  0.00000000000E+00  0.00000000000E+00 -0.26313273465E+04  0.26313273465E+04  0.25500000920E-02 0.  1.
    10030    2    1    2    0    0  0.00000000000E+00  0.00000000000E+00 -0.15540699413E+04  0.37085847518E+04  0.33672640940E+04 0.  0.
        2    1    3    3  502    0  0.31730419348E+03  0.10292009328E+04 -0.22023044731E+04  0.24515467573E+04  0.25500000920E-02 0.  1.
       -2    1    3    3    0  502 -0.31730419348E+03 -0.10292009328E+04  0.64823453181E+03  0.12570379945E+04  0.25500000920E-02 0. -1.
</event>
<event>
 5   0  0.1656617E-07  0.3789037E+04  0.7818609E-02  0.8048512E-01
        1   -1    0    0  501    0  0.00000000000E+00  0.00000000000E+00  0.11721259110E+04  0.11721259110E+04  0.50400001928E-02 0. -1.
       -1   -1    0    0    0  501  0.00000000000E+00  0.00000000000E+00 -0.30621286480E+04  0.30621286480E+04  0.50400001928E-02 0.  1.
    10030    2    1    2    0    0  0.00000000000E+00  0.00000000000E+00 -0.18900027370E+04  0.42342545591E+04  0.37890369918E+04 0.  0.
        5    1    3    3  502    0 -0.32160629656E+01  0.24975483386E+03 -0.30436413618E+04  0.30538766591E+04  0.46999998093E+01 0.  1.
       -5    1    3    3    0  502  0.32160629656E+01 -0.24975483386E+03  0.11536386248E+04  0.11803778999E+04  0.46999998093E+01 0. -1.
</event>
<event>
 5   0  0.5132561E-07  0.3820515E+04  0.7818609E-02  0.8041767E-01
        2   -1    0    0  501    0  0.00000000000E+00  0.00000000000E+00  0.24870432088E+04  0.24870432088E+04  0.25500000920E-02 0. -1.
       -2   -1    0    0    0  501  0.00000000000E+00  0.00000000000E+00 -0.14672377864E+04  0.14672377864E+04  0.25500000920E-02 0.  1.
    10030    2    1    2    0    0  0.00000000000E+00  0.00000000000E+00  0.10198054223E+04  0.39542809952E+04  0.38205150294E+04 0.  0.
        3    1    3    3  502    0  0.15986207741E+04  0.10364355237E+04  0.65367928412E+03  0.20142203432E+04  0.10100000352E+00 0. -1.
       -3    1    3    3    0  502 -0.15986207741E+04 -0.10364355237E+04  0.36612613822E+03  0.19400606520E+04  0.10100000352E+00 0.  1.
</event>
<event>
 5   0  0.1648000E-07  0.3819847E+04  0.7818609E-02  0.8041909E-01
       -1   -1    0    0    0  501  0.00000000000E+00  0.00000000000E+00  0.22261503859E+04  0.22261503859E+04  0.50400001928E-02 0.  1.
        1   -1    0    0  501    0  0.00000000000E+00  0.00000000000E+00 -0.16386169879E+04  0.16386169879E+04  0.50400001928E-02 0. -1.
    10030    2    1    2    0    0  0.00000000000E+00  0.00000000000E+00  0.58753339800E+03  0.38647673739E+04  0.38198470336E+04 0.  0.
        2    1    3    3  502    0  0.12352346343E+04 -0.16740484913E+03  0.17578423982E+04  0.21549568168E+04  0.25500000920E-02 0.  1.
       -2    1    3    3    0  502 -0.12352346343E+04  0.16740484913E+03 -0.11703090002E+04  0.17098105571E+04  0.25500000920E-02 0. -1.
</event>
<event>
 5   0  0.5158266E-07  0.3863480E+04  0.7818609E-02  0.8032668E-01
       -2   -1    0    0    0  501  0.00000000000E+00  0.00000000000E+00  0.16168275285E+04  0.16168275285E+04  0.25500000920E-02 0.  1.
        2   -1    0    0  501    0  0.00000000000E+00  0.00000000000E+00 -0.23079879945E+04  0.23079879945E+04  0.25500000920E-02 0. -1.
    10030    2    1    2    0    0  0.00000000000E+00  0.00000000000E+00 -0.69116046596E+03  0.39248155230E+04  0.38634795328E+04 0.  0.
        2    1    3    3  502    0 -0.14495080108E+04  0.24592859201E+03 -0.16184950312E+04  0.21865682042E+04  0.25500000920E-02 0. -1.
       -2    1    3    3    0  502  0.14495080108E+04 -0.24592859201E+03  0.92733456520E+03  0.17382473188E+04  0.25500000920E-02 0.  1.
</event>
<event>
 5   0  0.5202788E-07  0.3790675E+04  0.7818609E-02  0.8048159E-01
       -2   -1    0    0    0  501  0.00000000000E+00  0.00000000000E+00  0.31307035321E+04  0.31307035321E+04  0.25500000920E-02 0.  1.
        2   -1    0    0  501    0  0.00000000000E+00  0.00000000000E+00 -0.11474429052E+04  0.11474429052E+04  0.25500000920E-02 0. -1.
    10030    2    1    2    0    0  0.00000000000E+00  0.00000000000E+00  0.19832606269E+04  0.42781464373E+04  0.37906746398E+04 0.  0.
        1    1    3    3  502    0  0.56389750744E+03 -0.15977726736E+04  0.33022547447E+02  0.16946823904E+04  0.50400001928E-02 0.  1.
       -1    1    3    3    0  502 -0.56389750744E+03  0.15977726736E+04  0.19502380794E+04  0.25834640470E+04  0.50400001928E-02 0. -1.
</event>
<event>
 5   0  0.1648000E-07  0.3560996E+04  0.7818609E-02  0.8099485E-01
       -1   -1    0    0    0  501  0.00000000000E+00  0.00000000000E+00  0.14383937899E+04  0.14383937899E+04  0.50400001928E-02 0. -1.
        1   -1    0    0  501    0  0.00000000000E+00  0.00000000000E+00 -0.22039680797E+04  0.22039680797E+04  0.50400001928E-02 0.  1.
    10030    2    1    2    0    0  0.00000000000E+00  0.00000000000E+00 -0.76557428982E+03  0.36423618697E+04  0.35609964892E+04 0.  0.
        3    1    3    3  502    0  0.94039084175E+03  0.26408710225E+03  0.11398833548E+04  0.15011365713E+04  0.10100000352E+00 0. -1.
       -3    1    3    3    0  502 -0.94039084175E+03 -0.26408710225E+03 -0.19054576446E+04  0.21412252984E+04  0.10100000352E+00 0.  1.
</event>
<event>
 5   0  0.1648000E-07  0.3056085E+04  0.7818609E-02  0.8227894E-01
        1   -1    0    0  501    0  0.00000000000E+00  0.00000000000E+00  0.21788146602E+04  0.21788146602E+04  0.50400001928E-02 0.  1.
       -1   -1    0    0    0  501  0.00000000000E+00  0.00000000000E+00 -0.10716438388E+04  0.10716438388E+04  0.50400001928E-02 0. -1.
    10030    2    1    2    0    0  0.00000000000E+00  0.00000000000E+00  0.11071708214E+04  0.32504584991E+04  0.30560846236E+04 0.  0.
        4    1    3    3  502    0 -0.90409646647E+03  0.48094113978E+03  0.17598327109E+04  0.20361010741E+04  0.12699999809E+01 0.  1.
       -4    1    3    3    0  502  0.90409646647E+03 -0.48094113978E+03 -0.65266188955E+03  0.12143574250E+04  0.12699999809E+01 0. -1.
</event>
<event>
 5   0  0.5158266E-07  0.3885130E+04  0.7818609E-02  0.8028129E-01
        2   -1    0    0  501    0  0.00000000000E+00  0.00000000000E+00  0.33263994848E+04  0.33263994848E+04  0.25500000920E-02 0. -1.
       -2   -1    0    0    0  501  0.00000000000E+00  0.00000000000E+00 -0.11344276344E+04  0.11344276344E+04  0.25500000920E-02 0.  1.
    10030    2    1    2    0    0  0.00000000000E+00  0.00000000000E+00  0.21919718503E+04  0.44608271192E+04  0.38851303703E+04 0.  0.
        2    1    3    3  502    0  0.11552119453E+04  0.12816251249E+04  0.21206883195E+04  0.27339342618E+04  0.25500000920E-02 0. -1.
       -2    1    3    3    0  502 -0.11552119453E+04 -0.12816251249E+04  0.71283530842E+02  0.17268928574E+04  0.25500000920E-02 0.  1.
</event>
<event>
 5   0  0.5325362E-07  0.3781119E+04  0.7818609E-02  0.8050219E-01
       -2   -1    0    0    0  501  0.00000000000E+00  0.00000000000E+00  0.18641591307E+04  0.18641591307E+04  0.25500000920E-02 0. -1.
        2   -1    0    0  501    0  0.00000000000E+00  0.00000000000E+00 -0.19173341782E+04  0.19173341782E+04  0.25500000920E-02 0.  1.
    10030    2    1    2    0    0  0.00000000000E+00  0.00000000000E+00 -0.53175047486E+02  0.37814933088E+04  0.37811194188E+04 0.  0.
        4    1    3    3  502    0 -0.11220836499E+04  0.11789896554E+04 -0.98851737848E+03  0.19042732328E+04  0.12699999809E+01 0.  1.
       -4    1    3    3    0  502  0.11220836499E+04 -0.11789896554E+04  0.93534233100E+03  0.18772200760E+04  0.12699999809E+01 0. -1.
</event>
<event>
 5   0  0.5132561E-07  0.3754157E+04  0.7818609E-02  0.8056065E-01
       -2   -1    0    0    0  501  0.00000000000E+00  0.00000000000E+00  0.26209039057E+04  0.26209039057E+04  0.25500000920E-02 0.  1.
        2   -1    0    0  501    0  0.00000000000E+00  0.00000000000E+00 -0.13443543890E+04  0.13443543890E+04  0.25500000920E-02 0. -1.
    10030    2    1    2    0    0  0.00000000000E+00  0.00000000000E+00  0.12765495167E+04  0.39652582947E+04  0.37541569859E+04 0.  0.
        3    1    3    3  502    0 -0.13267248666E+04 -0.12176151489E+04  0.78733137763E+02  0.18024939500E+04  0.10100000352E+00 0. -1.
       -3    1    3    3    0  502  0.13267248666E+04  0.12176151489E+04  0.11978163789E+04  0.21627643446E+04  0.10100000352E+00 0.  1.
</event>
<event>
 5   0  0.5134434E-07  0.3668240E+04  0.7818609E-02  0.8075037E-01
        2   -1    0    0  501    0  0.00000000000E+00  0.00000000000E+00  0.18315766027E+04  0.18315766027E+04  0.25500000920E-02 0.  1.
       -2   -1    0    0    0  501  0.00000000000E+00  0.00000000000E+00 -0.18366667028E+04  0.18366667028E+04  0.25500000920E-02 0. -1.
    10030    2    1    2    0    0  0.00000000000E+00  0.00000000000E+00 -0.50901001170E+01  0.36682433055E+04  0.36682397739E+04 0.  0.
        5    1    3    3  502    0 -0.67806219477E+03  0.68845653528E+02 -0.17053284152E+04  0.18364844561E+04  0.46999998093E+01 0. -1.
       -5    1    3    3    0  502  0.67806219477E+03 -0.68845653528E+02  0.17002383151E+04  0.18317588493E+04  0.46999998093E+01 0.  1.
</event>
<event>
 5   0  0.1648000E-07  0.3800348E+04  0.7818609E-02  0.8046080E-01
       -1   -1    0    0    0  501  0.00000000000E+00  0.00000000000E+00  0.26679511537E+04  0.26679511537E+04  0.50400001928E-02 0.  1.
        1   -1    0    0  501    0  0.00000000000E+00  0.00000000000E+00 -0.13533457368E+04  0.13533457368E+04  0.50400001928E-02 0. -1.
    10030    2    1    2    0    0  0.00000000000E+00  0.00000000000E+00  0.13146054169E+04  0.40212968905E+04  0.38003475209E+04 0.  0.
        4    1    3    3  502    0  0.27916882080E+03  0.98971416011E+03 -0.10334665330E+04  0.14579177059E+04  0.12699999809E+01 0. -1.
       -4    1    3    3    0  502 -0.27916882080E+03 -0.98971416011E+03  0.23480719499E+04  0.25633791846E+04  0.12699999809E+01 0.  1.
</event>
<event>
 5   0  0.1656617E-07  0.2936144E+04  0.7818609E-02  0.8262204E-01
        1   -1    0    0  501    0  0.00000000000E+00  0.00000000000E+00  0.12199454739E+04  0.12199454739E+04  0.50400001928E-02 0. -1.
       -1   -1    0    0    0  501  0.00000000000E+00  0.00000000000E+00 -0.17666658351E+04  0.17666658351E+04  0.50400001928E-02 0.  1.
    10030    2    1    2    0    0  0.00000000000E+00  0.00000000000E+00 -0.54672036121E+03  0.29866113090E+04  0.29361444034E+04 0.  0.
        5    1    3    3  502    0  0.14071614657E+04  0.40413408281E+03 -0.16293011898E+03  0.14730906493E+04  0.46999998093E+01 0. -1.
       -5    1    3    3    0  502 -0.14071614657E+04 -0.40413408281E+03 -0.38379024223E+03  0.15135206597E+04  0.46999998093E+01 0.  1.
</event>
<event>
 5   0  0.1648000E-07  0.3875745E+04  0.7818609E-02  0.8030093E-01
        1   -1    0    0  501    0  0.00000000000E+00  0.00000000000E+00  0.25273221869E+04  0.25273221869E+04  0.50400001928E-02 0. -1.
       -1   -1    0    0    0  501  0.00000000000E+00  0.00000000000E+00 -0.14859009086E+04  0.14859009086E+04  0.50400001928E-02 0.  1.
    10030    2    1    2    0    0  0.00000000000E+00  0.00000000000E+00  0.10414212783E+04  0.40132230955E+04  0.38757452619E+04 0.  0.
        1    1    3    3  502    0  0.95129822545E+03 -0.76106431503E+03  0.20812051400E+04  0.24115559376E+04  0.50400001928E-02 0. -1.
       -1    1    3    3    0  502 -0.95129822545E+03  0.76106431503E+03 -0.10397838617E+04  0.16016671578E+04  0.50400001928E-02 0.  1.
</event>
<event>
 5   0  0.5325362E-07  0.3295874E+04  0.7818609E-02  0.8163946E-01
       -2   -1    0    0    0  501  0.00000000000E+00  0.00000000000E+00  0.91336086754E+03  0.91336086754E+03  0.25500000920E-02 0. -1.
        2   -1    0    0  501    0  0.00000000000E+00  0.00000000000E+00 -0.29733010166E+04  0.29733010166E+04  0.25500000920E-02 0.  1.
    10030    2    1    2    0    0  0.00000000000E+00  0.00000000000E+00 -0.20599401490E+04  0.38866618841E+04  0.32958742670E+04 0.  0.
        4    1    3    3  502    0 -0.70278280158E+03 -0.13862124734E+04 -0.38384563570E+03  0.16008834351E+04  0.12699999809E+01 0. -1.
       -4    1    3    3    0  502  0.70278280158E+03  0.13862124734E+04 -0.16760945133E+04  0.22857784491E+04  0.12699999809E+01 0.  1.
</event>
<event>
 5   0  0.5325362E-07  0.3570146E+04  0.7818609E-02  0.8097364E-01
        2   -1    0    0  501    0  0.00000000000E+00  0.00000000000E+00  0.17760319029E+04  0.17760319029E+04  0.25500000920E-02 0.  1.
       -2   -1    0    0    0  501  0.00000000000E+00  0.00000000000E+00 -0.17941605494E+04  0.17941605494E+04  0.25500000920E-02 0. -1.
    10030    2    1    2    0    0  0.00000000000E+00  0.00000000000E+00 -0.18128646482E+02  0.35701924522E+04  0.35701464253E+04 0.  0.
        4    1    3    3  502    0 -0.65041833219E+03  0.99177186567E+03  0.13250553165E+04  0.17783218621E+04  0.12699999809E+01 0.  1.
       -4    1    3    3    0  502  0.65041833219E+03 -0.99177186567E+03 -0.13431839630E+04  0.17918705901E+04  0.12699999809E+01 0. -1.
</event>
<event>
 5   0  0.1648000E-07  0.3812961E+04  0.7818609E-02  0.8043379E-01
        3   -1    0    0  501    0  0.00000000000E+00  0.00000000000E+00  0.27855871835E+04  0.27855871853E+04  0.10100000352E+00 0. -1.
       -3   -1    0    0    0  501  0.00000000000E+00  0.00000000000E+00 -0.13048122528E+04  0.13048122567E+04  0.10100000352E+00 0.  1.
    10030    2    1    2    0    0  0.00000000000E+00  0.00000000000E+00  0.14807749307E+04  0.40903994420E+04  0.38129612115E+04 0.  0.
        3    1    3    3  502    0  0.59989741058E+03  0.88504250459E+03 -0.95290902314E+03  0.14322055560E+04  0.10100000352E+00 0.  1.
       -3    1    3    3    0  502 -0.59989741058E+03 -0.88504250459E+03  0.24336839539E+04  0.26581938860E+04  0.10100000352E+00 0. -1.
</event>
<event>
 5   0  0.5158266E-07  0.3781443E+04  0.7818609E-02  0.8050149E-01
       -2   -1    0    0    0  501  0.00000000000E+00  0.00000000000E+00  0.11743690481E+04  0.11743690481E+04  0.25500000920E-02 0. -1.
        2   -1    0    0  501    0  0.00000000000E+00  0.00000000000E+00 -0.30440419600E+04  0.30440419600E+04  0.25500000920E-02 0.  1.
    10030    2    1    2    0    0  0.00000000000E+00  0.00000000000E+00 -0.18696729118E+04  0.42184110081E+04  0.37814434593E+04 0.  0.
        2    1    3    3  502    0 -0.17518621946E+04  0.54945426475E+03 -0.14385781551E+04  0.23324725607E+04  0.25500000920E-02 0. -1.
       -2    1    3    3    0  502  0.17518621946E+04 -0.54945426475E+03 -0.43109475671E+03  0.18859384474E+04  0.25500000920E-02 0.  1.
</event>
<event>
 5   0  0.1648000E-07  0.3810661E+04  0.7818609E-02  0.8043871E-01
        1   -1    0    0  501    0  0.00000000000E+00  0.00000000000E+00  0.23174184120E+04  0.23174184120E+04  0.50400001928E-02 0. -1.
       -1   -1    0    0    0  501  0.00000000000E+00  0.00000000000E+00 -0.15665212667E+04  0.15665212667E+04  0.50400001928E-02 0.  1.
    10030    2    1    2    0    0  0.00000000000E+00  0.00000000000E+00  0.75089714529E+03  0.38839396787E+04  0.38106614787E+04 0.  0.
        2    1    3    3  502    0 -0.66249041950E+02 -0.13712933244E+04 -0.97111209839E+03  0.16816340341E+04  0.25500000920E-02 0.  1.
       -2    1    3    3    0  502  0.66249041950E+02  0.13712933244E+04  0.17220092437E+04  0.22023056446E+04  0.25500000920E-02 0. -1.
</event>
<event>
 5   0  0.1648000E-07  0.3824123E+04  0.7818609E-02  0.8040998E-01
        1   -1    0    0  501    0  0.00000000000E+00  0.00000000000E+00  0.26949299542E+04  0.26949299542E+04  0.50400001928E-02 0.  1.
       -1   -1    0    0    0  501  0.00000000000E+00  0.00000000000E+00 -0.13566141196E+04  0.13566141196E+04  0.50400001928E-02 0. -1.
    10030    2    1    2    0    0  0.00000000000E+00  0.00000000000E+00  0.13383158346E+04  0.40515440738E+04  0.38241234432E+04 0.  0.
        3    1    3    3  502    0  0.63555128555E+03 -0.46514031482E+03  0.25150997988E+04  0.26355280225E+04  0.10100000352E+00 0.  1.
       -3    1    3    3    0  502 -0.63555128555E+03  0.46514031482E+03 -0.11767839642E+04  0.14160160513E+04  0.10100000352E+00 0. -1.
</event>
<event>
 5   0  0.5134434E-07  0.3732798E+04  0.7818609E-02  0.8060732E-01
       -2   -1    0    0    0  501  0.00000000000E+00  0.00000000000E+00  0.16715866998E+04  0.16715866998E+04  0.25500000920E-02 0. -1.
        2   -1    0    0  501    0  0.00000000000E+00  0.00000000000E+00 -0.20839156992E+04  0.20839156992E+04  0.25500000920E-02 0.  1.
    10030    2    1    2    0    0  0.00000000000E+00  0.00000000000E+00 -0.41232899941E+03  0.37555023991E+04  0.37327982889E+04 0.  0.
        5    1    3    3  502    0 -0.49786386134E+03 -0.50562587148E+02  0.16028259947E+04  0.16791361645E+04  0.46999998093E+01 0. -1.
       -5    1    3    3    0  502  0.49786386134E+03  0.50562587148E+02 -0.20151549941E+04  0.20763662346E+04  0.46999998093E+01 0.  1.
</event>
<event>
 5   0  0.5202788E-07  0.3790340E+04  0.7818609E-02  0.8048231E-01
        2   -1    0    0  501    0  0.00000000000E+00  0.00000000000E+00  0.22042038627E+04  0.22042038627E+04  0.25500000920E-02 0. -1.
       -2   -1    0    0    0  501  0.00000000000E+00  0.00000000000E+00 -0.16294634411E+04  0.16294634411E+04  0.25500000920E-02 0.  1.
    10030    2    1    2    0    0  0.00000000000E+00  0.00000000000E+00  0.57474042166E+03  0.38336673038E+04  0.37903401489E+04 0.  0.
        1    1    3    3  502    0  0.66481584811E+03  0.22328928777E+03 -0.14933892948E+04  0.16498635713E+04  0.50400001928E-02 0.  1.
       -1    1    3    3    0  502 -0.66481584811E+03 -0.22328928777E+03  0.20681297165E+04  0.21838037325E+04  0.50400001928E-02 0. -1.
</event>
<event>
 5   0  0.1648000E-07  0.3789539E+04  0.7818609E-02  0.8048404E-01
        1   -1    0    0  501    0  0.00000000000E+00  0.00000000000E+00  0.23038473908E+04  0.23038473908E+04  0.50400001928E-02 0.  1.
       -1   -1    0    0    0  501  0.00000000000E+00  0.00000000000E+00 -0.15583285034E+04  0.15583285034E+04  0.50400001928E-02 0. -1.
    10030    2    1    2    0    0  0.00000000000E+00  0.00000000000E+00  0.74551888737E+03  0.38621758942E+04  0.37895387880E+04 0.  0.
        4    1    3    3  502    0 -0.11139686270E+04  0.62752504040E+03  0.17979320243E+04  0.22061901448E+04  0.12699999809E+01 0.  1.
       -4    1    3    3    0  502  0.11139686270E+04 -0.62752504040E+03 -0.10524131370E+04  0.16559857493E+04  0.12699999809E+01 0. -1.
</event>
<event>
 5   0  0.1648000E-07  0.2780936E+04  0.7818609E-02  0.8309211E-01
        1   -1    0    0  501    0  0.00000000000E+00  0.00000000000E+00  0.14971888026E+04  0.14971888026E+04  0.50400001928E-02 0.  1.
       -1   -1    0    0    0  501  0.00000000000E+00  0.00000000000E+00 -0.12913546686E+04  0.12913546686E+04  0.50400001928E-02 0. -1.
    10030    2    1    2    0    0  0.00000000000E+00  0.00000000000E+00  0.20583413404E+03  0.27885434712E+04  0.27809363531E+04 0.  0.
        4    1    3    3  502    0 -0.23151024842E+03  0.94648893559E+03 -0.89174486567E+03  0.13208515506E+04  0.12699999809E+01 0. -1.
       -4    1    3    3    0  502  0.23151024842E+03 -0.94648893559E+03  0.10975789997E+04  0.14676919206E+04  0.12699999809E+01 0.  1.
</event>
<event>
 5   0  0.1656617E-07  0.3611890E+04  0.7818609E-02  0.8087774E-01
       -1   -1    0    0    0  501  0.00000000000E+00  0.00000000000E+00  0.12105608032E+04  0.12105608032E+04  0.50400001928E-02 0.  1.
        1   -1    0    0  501    0  0.00000000000E+00  0.00000000000E+00 -0.26941541646E+04  0.26941541646E+04  0.50400001928E-02 0. -1.
    10030    2    1    2    0    0  0.00000000000E+00  0.00000000000E+00 -0.14835933614E+04  0.39047149678E+04  0.36118900478E+04 0.  0.
        5    1    3    3  502    0 -0.10698459954E+04 -0.13481636212E+04 -0.13332329898E+04  0.21770732414E+04  0.46999998093E+01 0.  1.
       -5    1    3    3    0  502  0.10698459954E+04  0.13481636212E+04 -0.15036037152E+03  0.17276417264E+04  0.46999998093E+01 0. -1.
</event>
<event>
 5   0  0.5325362E-07  0.3799904E+04  0.7818609E-02  0.8046176E-01
        2   -1    0    0  501    0  0.00000000000E+00  0.00000000000E+00  0.25741828843E+04  0.25741828843E+04  0.25500000920E-02 0.  1.
       -2   -1    0    0    0  501  0.00000000000E+00  0.00000000000E+00 -0.14023155738E+04  0.14023155738E+04  0.25500000920E-02 0. -1.
    10030    2    1    2    0    0  0.00000000000E+00  0.00000000000E+00  0.11718673105E+04  0.39764984581E+04  0.37999035506E+04 0.  0.
        4    1    3    3  502    0  0.91198909179E+03  0.15767996903E+04  0.11512170804E+04  0.21548372899E+04  0.12699999809E+01 0.  1.
       -4    1    3    3    0  502 -0.91198909179E+03 -0.15767996903E+04  0.20650230071E+02  0.18216611682E+04  0.12699999809E+01 0. -1.
</event>
<event>
 5   0  0.1656617E-07  0.3752338E+04  0.7818609E-02  0.8056461E-01
        1   -1    0    0  501    0  0.00000000000E+00  0.00000000000E+00  0.26059012762E+04  0.26059012762E+04  0.50400001928E-02 0.  1.
       -1   -1    0    0    0  501  0.00000000000E+00  0.00000000000E+00 -0.13507842806E+04  0.13507842806E+04  0.50400001928E-02 0. -1.
    10030    2    1    2    0    0  0.00000000000E+00  0.00000000000E+00  0.12551169956E+04  0.39566855568E+04  0.37523381941E+04 0.  0.
        5    1    3    3  502    0 -0.79428332079E+03 -0.11448960212E+04 -0.69716876511E+03  0.15581204286E+04  0.46999998093E+01 0. -1.
       -5    1    3    3    0  502  0.79428332079E+03  0.11448960212E+04  0.19522857607E+04  0.23985651282E+04  0.46999998093E+01 0.  1.
</event>
<event>
 5   0  0.5132561E-07  0.3837435E+04  0.7818609E-02  0.8038169E-01
        2   -1    0    0  501    0  0.00000000000E+00  0.00000000000E+00  0.21641044193E+04  0.21641044193E+04  0.25500000920E-02 0. -1.
       -2   -1    0    0    0  501  0.00000000000E+00  0.00000000000E+00 -0.17011549764E+04  0.17011549764E+04  0.25500000920E-02 0.  1.
    10030    2    1    2    0    0  0.00000000000E+00  0.00000000000E+00  0.46294944291E+03  0.38652593958E+04  0.38374350822E+04 0.  0.
        3    1    3    3  502    0  0.68643746120E+03 -0.16914059339E+04  0.82688395584E+03  0.20039429902E+04  0.10100000352E+00 0. -1.
       -3    1    3    3    0  502 -0.68643746120E+03  0.16914059339E+04 -0.36393451293E+03  0.18613164055E+04  0.10100000352E+00 0.  1.
</event>
<event>
 5   0  0.5132561E-07  0.3817889E+04  0.7818609E-02  0.8042327E-01
        2   -1    0    0  501    0  0.00000000000E+00  0.00000000000E+00  0.27385476404E+04  0.27385476404E+04  0.25500000920E-02 0.  1.
       -2   -1    0    0    0  501  0.00000000000E+00  0.00000000000E+00 -0.13306573981E+04  0.13306573981E+04  0.25500000920E-02 0. -1.
    10030    2    1    2    0    0  0.00000000000E+00  0.00000000000E+00  0.14078902423E+04  0.40692050385E+04  0.38178887766E+04 0.  0.
        3    1    3    3  502    0  0.74706171716E+03 -0.10274513023E+04  0.22226298117E+04  0.25600470070E+04  0.10100000352E+00 0.  1.
       -3    1    3    3    0  502 -0.74706171716E+03  0.10274513023E+04 -0.81473956938E+03  0.15091580315E+04  0.10100000352E+00 0. -1.
</event>
<event>
 5   0  0.1656617E-07  0.3856085E+04  0.7818609E-02  0.8034225E-01
        1   -1    0    0  501    0  0.00000000000E+00  0.00000000000E+00  0.25265100376E+04  0.25265100376E+04  0.50400001928E-02 0.  1.
       -1   -1    0    0    0  501  0.00000000000E+00  0.00000000000E+00 -0.14713372606E+04  0.14713372606E+04  0.50400001928E-02 0. -1.
    10030    2    1    2    0    0  0.00000000000E+00  0.00000000000E+00  0.10551727770E+04  0.39978472982E+04  0.38560852468E+04 0.  0.
        5    1    3    3  502    0 -0.87147444061E+02  0.19104999203E+04  0.78095070937E+03  0.20657954214E+04  0.46999998093E+01 0.  1.
       -5    1    3    3    0  502  0.87147444061E+02 -0.19104999203E+04  0.27422206763E+03  0.19320518768E+04  0.46999998093E+01 0. -1.
</event>
<event>
 5   0  0.5132561E-07  0.3805111E+04  0.7818609E-02  0.8045059E-01
        2   -1    0    0  501    0  0.00000000000E+00  0.00000000000E+00  0.24281364286E+04  0.24281364286E+04  0.25500000920E-02 0.  1.
       -2   -1    0    0    0  501  0.00000000000E+00  0.00000000000E+00 -0.14907390052E+04  0.14907390052E+04  0.25500000920E-02 0. -1.
    10030    2    1    2    0    0  0.00000000000E+00  0.00000000000E+00  0.93739742345E+03  0.39188754338E+04  0.38051111333E+04 0.  0.
        3    1    3    3  502    0  0.14610705104E+04 -0.53597151726E+03  0.15958253188E+04  0.22290470973E+04  0.10100000352E+00 0.  1.
       -3    1    3    3    0  502 -0.14610705104E+04  0.53597151726E+03 -0.65842789532E+03  0.16898283366E+04  0.10100000352E+00 0. -1.
</event>
<event>
 5   0  0.5158266E-07  0.3796422E+04  0.7818609E-02  0.8046923E-01
        2   -1    0    0  501    0  0.00000000000E+00  0.00000000000E+00  0.13941641354E+04  0.13941641354E+04  0.25500000920E-02 0. -1.
       -2   -1    0    0    0  501  0.00000000000E+00  0.00000000000E+00 -0.25844914511E+04  0.25844914511E+04  0.25500000920E-02 0.  1.
    10030    2    1    2    0    0  0.00000000000E+00  0.00000000000E+00 -0.11903273157E+04  0.39786555865E+04  0.37964221522E+04 0.  0.
        2    1    3    3  502    0 -0.18792020722E+04 -0.11492764003E+03 -0.84885034681E+03  0.20652253393E+04  0.25500000920E-02 0.  1.
       -2    1    3    3    0  502  0.18792020722E+04  0.11492764003E+03 -0.34147696884E+03  0.19134302472E+04  0.25500000920E-02 0. -1.
</event>
<event>
 5   0  0.5202788E-07  0.3685028E+04  0.7818609E-02  0.8071288E-01
        2   -1    0    0  501    0  0.00000000000E+00  0.00000000000E+00  0.22562356449E+04  0.22562356449E+04  0.25500000920E-02 0.  1.
       -2   -1    0    0    0  501  0.00000000000E+00  0.00000000000E+00 -0.15046555402E+04  0.15046555402E+04  0.25500000920E-02 0. -1.
    10030    2    1    2    0    0  0.00000000000E+00  0.00000000000E+00  0.75158010471E+03  0.37608911851E+04  0.36850277954E+04 0.  0.
        1    1    3    3  502    0  0.97947124158E+03  0.14917148298E+04 -0.92213785446E+02  0.17869192564E+04  0.50400001928E-02 0. -1.
       -1    1    3    3    0  502 -0.97947124158E+03 -0.14917148298E+04  0.84379389016E+03  0.19739719288E+04  0.50400001928E-02 0.  1.
</event>
<event>
 5   0  0.1648000E-07  0.3812841E+04  0.7818609E-02  0.8043405E-01
       -1   -1    0    0    0  501  0.00000000000E+00  0.00000000000E+00  0.15270221702E+04  0.15270221702E+04  0.50400001928E-02 0.  1.
        1   -1    0    0  501    0  0.00000000000E+00  0.00000000000E+00 -0.23800825335E+04  0.23800825335E+04  0.50400001928E-02 0. -1.
    10030    2    1    2    0    0  0.00000000000E+00  0.00000000000E+00 -0.85306036324E+03  0.39071047037E+04  0.38128408284E+04 0.  0.
        1    1    3    3  502    0 -0.31718329452E+03  0.18120162932E+04 -0.93933251191E+03  0.20655153975E+04  0.50400001928E-02 0. -1.
       -1    1    3    3    0  502  0.31718329452E+03 -0.18120162932E+04  0.86272148670E+02  0.18415893063E+04  0.50400001928E-02 0.  1.
</event>
<event>
 5   0  0.5325362E-07  0.3833052E+04  0.7818609E-02  0.8039099E-01
       -2   -1    0    0    0  501  0.00000000000E+00  0.00000000000E+00  0.17657335267E+04  0.17657335267E+04  0.25500000920E-02 0.  1.
        2   -1    0    0  501    0  0.00000000000E+00  0.00000000000E+00 -0.20801964503E+04  0.20801964503E+04  0.25500000920E-02 0. -1.
    10030    2    1    2    0    0  0.00000000000E+00  0.00000000000E+00 -0.31446292355E+03  0.38459299770E+04  0.38330523682E+04 0.  0.
        4    1    3    3  502    0  0.55640524765E+03 -0.31451718617E+03 -0.19701118737E+04  0.20711953717E+04  0.12699999809E+01 0. -1.
       -4    1    3    3    0  502 -0.55640524765E+03  0.31451718617E+03  0.16556489502E+04  0.17747346053E+04  0.12699999809E+01 0.  1.
</event>
<event>
 5   0  0.5325362E-07  0.3781545E+04  0.7818609E-02  0.8050127E-01
       -2   -1    0    0    0  501  0.00000000000E+00  0.00000000000E+00  0.14096893498E+04  0.14096893498E+04  0.25500000920E-02 0.  1.
        2   -1    0    0  501    0  0.00000000000E+00  0.00000000000E+00 -0.25360342554E+04  0.25360342555E+04  0.25500000920E-02 0. -1.
    10030    2    1    2    0    0  0.00000000000E+00  0.00000000000E+00 -0.11263449056E+04  0.39457236053E+04  0.37815449122E+04 0.  0.
        4    1    3    3  502    0  0.29005991842E+03 -0.17808988301E+04 -0.11527563501E+04  0.21411642195E+04  0.12699999809E+01 0. -1.
       -4    1    3    3    0  502 -0.29005991842E+03  0.17808988301E+04  0.26411444442E+02  0.18045593857E+04  0.12699999809E+01 0.  1.
</event>
<event>
 5   0  0.5134434E-07  0.3836972E+04  0.7818609E-02  0.8038267E-01
        2   -1    0    0  501    0  0.00000000000E+00  0.00000000000E+00  0.18018552123E+04  0.18018552123E+04  0.25500000920E-02 0. -1.
       -2   -1    0    0    0  501  0.00000000000E+00  0.00000000000E+00 -0.20426663073E+04  0.20426663073E+04  0.25500000920E-02 0.  1.
    10030    2    1    2    0    0  0.00000000000E+00  0.00000000000E+00 -0.24081109494E+03  0.38445215196E+04  0.38369722089E+04 0.  0.
        5    1    3    3  502    0 -0.17339044330E+04  0.81748546435E+03 -0.19710533130E+03  0.19270650401E+04  0.46999998093E+01 0. -1.
       -5    1    3    3    0  502  0.17339044330E+04 -0.81748546435E+03 -0.43705763648E+02  0.19174564795E+04  0.46999998093E+01 0.  1.
</event>
<event>
 5   0  0.1648000E-07  0.2966428E+04  0.7818609E-02  0.8253383E-01
       -1   -1    0    0    0  501  0.00000000000E+00  0.00000000000E+00  0.10902897661E+04  0.10902897661E+04  0.50400001928E-02 0. -1.
        1   -1    0    0  501    0  0.00000000000E+00  0.00000000000E+00 -0.20177427038E+04  0.20177427038E+04  0.50400001928E-02 0.  1.
    10030    2    1    2    0    0  0.00000000000E+00  0.00000000000E+00 -0.92745293773E+03  0.31080324699E+04  0.29664283039E+04 0.  0.
        4    1    3    3  502    0 -0.47258869924E+03 -0.44872989043E+02 -0.19359977549E+04  0.19933495890E+04  0.12699999809E+01 0.  1.
       -4    1    3    3    0  502  0.47258869924E+03  0.44872989043E+02  0.10085448172E+04  0.11146828809E+04  0.12699999809E+01 0. -1.
</event>
<event>
 5   0  0.1648000E-07  0.3827136E+04  0.7818609E-02  0.8040357E-01
       -1   -1    0    0    0  501  0.00000000000E+00  0.00000000000E+00  0.17068881589E+04  0.17068881589E+04  0.50400001928E-02 0. -1.
        1   -1    0    0  501    0  0.00000000000E+00  0.00000000000E+00 -0.21452736151E+04  0.21452736151E+04  0.50400001928E-02 0.  1.
    10030    2    1    2    0    0  0.00000000000E+00  0.00000000000E+00 -0.43838545623E+03  0.38521617740E+04  0.38271358121E+04 0.  0.
        2    1    3    3  502    0  0.17246750214E+04 -0.82703255200E+03 -0.16176387744E+03  0.19195453429E+04  0.25500000920E-02 0.  1.
       -2    1    3    3    0  502 -0.17246750214E+04  0.82703255200E+03 -0.27662157879E+03  0.19326164310E+04  0.25500000920E-02 0. -1.
</event>
<event>
 5   0  0.5132561E-07  0.3812634E+04  0.7818609E-02  0.8043449E-01
       -2   -1    0    0    0  501  0.00000000000E+00  0.00000000000E+00  0.17884729582E+04  0.17884729582E+04  0.25500000920E-02 0. -1.
        2   -1    0    0  501    0  0.00000000000E+00  0.00000000000E+00 -0.20319253755E+04  0.20319253755E+04  0.25500000920E-02 0.  1.
    10030    2    1    2    0    0  0.00000000000E+00  0.00000000000E+00 -0.24345241727E+03  0.38203983337E+04  0.38126335188E+04 0.  0.
        3    1    3    3  502    0 -0.12302877857E+04  0.79852659921E+03  0.10984527413E+04  0.18324440510E+04  0.10100000352E+00 0. -1.
       -3    1    3    3    0  502  0.12302877857E+04 -0.79852659921E+03 -0.13419051585E+04  0.19879542827E+04  0.10100000352E+00 0.  1.
</event>
<event>
 5   0  0.5325362E-07  0.3773721E+04  0.7818609E-02  0.8051818E-01
       -2   -1    0    0    0  501  0.00000000000E+00  0.00000000000E+00  0.18823886971E+04  0.18823886971E+04  0.25500000920E-02 0.  1.
        2   -1    0    0  501    0  0.00000000000E+00  0.00000000000E+00 -0.18913427657E+04  0.18913427657E+04  0.25500000920E-02 0. -1.
    10030    2    1    2    0    0  0.00000000000E+00  0.00000000000E+00 -0.89540686095E+01  0.37737314627E+04  0.37737208399E+04 0.  0.
        4    1    3    3  502    0 -0.46408663070E+03  0.34679677727E+03  0.17912440967E+04  0.18826049591E+04  0.12699999809E+01 0.  1.
       -4    1    3    3    0  502  0.46408663070E+03 -0.34679677727E+03 -0.18001981653E+04  0.18911265036E+04  0.12699999809E+01 0. -1.
</event>
<event>
 5   0  0.5325362E-07  0.3764717E+04  0.7818609E-02  0.8053769E-01
       -2   -1    0    0    0  501  0.00000000000E+00  0.00000000000E+00  0.14902288952E+04  0.14902288952E+04  0.25500000920E-02 0.  1.
        2   -1    0    0  501    0  0.00000000000E+00  0.00000000000E+00 -0.23776702950E+04  0.23776702950E+04  0.25500000920E-02 0. -1.
    10030    2    1    2    0    0  0.00000000000E+00  0.00000000000E+00 -0.88744139982E+03  0.38678991903E+04  0.37647167102E+04 0.  0.
        4    1    3    3  502    0  0.16727062911E+04 -0.50530863061E+03 -0.11628974891E+04  0.20989557716E+04  0.12699999809E+01 0. -1.
       -4    1    3    3    0  502 -0.16727062911E+04  0.50530863061E+03  0.27545608923E+03  0.17689434186E+04  0.12699999809E+01 0.  1.
</event>
<event>
 5   0  0.1648000E-07  0.3651894E+04  0.7818609E-02  0.8078707E-01
        1   -1    0    0  501    0  0.00000000000E+00  0.00000000000E+00  0.12770399989E+04  0.12770399989E+04  0.50400001928E-02 0.  1.
       -1   -1    0    0    0  501  0.00000000000E+00  0.00000000000E+00 -0.26107897206E+04  0.26107897206E+04  0.50400001928E-02 0. -1.
    10030    2    1    2    0    0  0.00000000000E+00  0.00000000000E+00 -0.13337497217E+04  0.38878297196E+04  0.36518942493E+04 0.  0.
        3    1    3    3  502    0  0.80428886660E+03 -0.33473994041E+03  0.10415285632E+04  0.13578339983E+04  0.10100000352E+00 0.  1.
       -3    1    3    3    0  502 -0.80428886660E+03  0.33473994041E+03 -0.23752782849E+04  0.25299957213E+04  0.10100000352E+00 0. -1.
</event>
<event>
 5   0  0.1648000E-07  0.3778402E+04  0.7818609E-02  0.8050806E-01
       -1   -1    0    0    0  501  0.00000000000E+00  0.00000000000E+00  0.25618490270E+04  0.25618490270E+04  0.50400001928E-02 0.  1.
        1   -1    0    0  501    0  0.00000000000E+00  0.00000000000E+00 -0.13931660035E+04  0.13931660036E+04  0.50400001928E-02 0. -1.
    10030    2    1    2    0    0  0.00000000000E+00  0.00000000000E+00  0.11686830234E+04  0.39550150305E+04  0.37784022923E+04 0.  0.
        1    1    3    3  502    0  0.85865518420E+03 -0.82452555472E+03  0.21198634152E+04  0.24312449516E+04  0.50400001928E-02 0.  1.
       -1    1    3    3    0  502 -0.85865518420E+03  0.82452555472E+03 -0.95118039175E+03  0.15237700789E+04  0.50400001928E-02 0. -1.
</event>
<event>
 5   0  0.1648000E-07  0.3777075E+04  0.7818609E-02  0.8051092E-01
        1   -1    0    0  501    0  0.00000000000E+00  0.00000000000E+00  0.30581655059E+04  0.30581655059E+04  0.50400001928E-02 0. -1.
       -1   -1    0    0    0  501  0.00000000000E+00  0.00000000000E+00 -0.11662462335E+04  0.11662462335E+04  0.50400001928E-02 0.  1.
    10030    2    1    2    0    0  0.00000000000E+00  0.00000000000E+00  0.18919192724E+04  0.42244117394E+04  0.37770750603E+04 0.  0.
        4    1    3    3  502    0  0.15729323842E+03 -0.12909605121E+04  0.24775423824E+04  0.27981311757E+04  0.12699999809E+01 0. -1.
       -4    1    3    3    0  502 -0.15729323842E+03  0.12909605121E+04 -0.58562311002E+03  0.14262805637E+04  0.12699999809E+01 0.  1.
</event>
<event>
 5   0  0.5202788E-07  0.3849497E+04  0.7818609E-02  0.8035616E-01
       -2   -1    0    0    0  501  0.00000000000E+00  0.00000000000E+00  0.19052547570E+04  0.19052547570E+04  0.25500000920E-02 0.  1.
        2   -1    0    0  501    0  0.00000000000E+00  0.00000000000E+00 -0.19444417607E+04  0.19444417607E+04  0.25500000920E-02 0. -1.
    10030    2    1    2    0    0  0.00000000000E+00  0.00000000000E+00 -0.39187003661E+02  0.38496965178E+04  0.38494970655E+04 0.  0.
        1    1    3    3  502    0 -0.12968078138E+04  0.62780273844E+03 -0.12959080869E+04  0.19378401776E+04  0.50400001928E-02 0. -1.
       -1    1    3    3    0  502  0.12968078138E+04 -0.62780273844E+03  0.12567210832E+04  0.19118563401E+04  0.50400001928E-02 0.  1.
</event>
<event>
 5   0  0.5325362E-07  0.3774243E+04  0.7818609E-02  0.8051705E-01
        2   -1    0    0  501    0  0.00000000000E+00  0.00000000000E+00  0.17730250904E+04  0.17730250904E+04  0.25500000920E-02 0.  1.
       -2   -1    0    0    0  501  0.00000000000E+00  0.00000000000E+00 -0.20085606641E+04  0.20085606641E+04  0.25500000920E-02 0. -1.
    10030    2    1    2    0    0  0.00000000000E+00  0.00000000000E+00 -0.23553557367E+03  0.37815857545E+04  0.37742434755E+04 0.  0.
        4    1    3    3  502    0  0.87465642466E+03  0.16527900150E+04  0.13667139065E+03  0.18749451664E+04  0.12699999809E+01 0.  1.
       -4    1    3    3    0  502 -0.87465642466E+03 -0.16527900150E+04 -0.37220696433E+03  0.19066405881E+04  0.12699999809E+01 0. -1.
</event>
<event>
 5   0  0.1656617E-07  0.3814123E+04  0.7818609E-02  0.8043131E-01
        1   -1    0    0  501    0  0.00000000000E+00  0.00000000000E+00  0.18043100489E+04  0.18043100489E+04  0.50400001928E-02 0.  1.
       -1   -1    0    0    0  501  0.00000000000E+00  0.00000000000E+00 -0.20156648527E+04  0.20156648527E+04  0.50400001928E-02 0. -1.
    10030    2    1    2    0    0  0.00000000000E+00  0.00000000000E+00 -0.21135480380E+03  0.38199749016E+04  0.38141234112E+04 0.  0.
        5    1    3    3  502    0  0.33947141509E+03  0.72482183388E+03  0.16279474912E+04  0.18140679857E+04  0.46999998093E+01 0.  1.
       -5    1    3    3    0  502 -0.33947141509E+03 -0.72482183388E+03 -0.18393022950E+04  0.20059069159E+04  0.46999998093E+01 0. -1.
</event>
<event>
 5   0  0.5202788E-07  0.3810901E+04  0.7818609E-02  0.8043820E-01
       -2   -1    0    0    0  501  0.00000000000E+00  0.00000000000E+00  0.13138741151E+04  0.13138741151E+04  0.25500000920E-02 0.  1.
        2   -1    0    0  501    0  0.00000000000E+00  0.00000000000E+00 -0.27633855688E+04  0.27633855688E+04  0.25500000920E-02 0. -1.
    10030    2    1    2    0    0  0.00000000000E+00  0.00000000000E+00 -0.14495114537E+04  0.40772596838E+04  0.38109005596E+04 0.  0.
        1    1    3    3  502    0  0.89130416401E+03  0.16619421888E+04 -0.10163206250E+04  0.21422844267E+04  0.50400001928E-02 0. -1.
       -1    1    3    3    0  502 -0.89130416401E+03 -0.16619421888E+04 -0.43319082870E+03  0.19349752572E+04  0.50400001928E-02 0.  1.
</event>
<event>
 5   0  0.1648000E-07  0.3863706E+04  0.7818609E-02  0.8032620E-01
        1   -1    0    0  501    0  0.00000000000E+00  0.00000000000E+00  0.11164584823E+04  0.11164584823E+04  0.50400001928E-02 0.  1.
       -1   -1    0    0    0  501  0.00000000000E+00  0.00000000000E+00 -0.33427630811E+04  0.33427630811E+04  0.50400001928E-02 0. -1.
    10030    2    1    2    0    0  0.00000000000E+00  0.00000000000E+00 -0.22263045987E+04  0.44592215634E+04  0.38637060946E+04 0.  0.
        3    1    3    3  502    0 -0.12748079455E+04  0.64310287639E+03  0.38869921977E+03  0.14797985340E+04  0.10100000352E+00 0.  1.
       -3    1    3    3    0  502  0.12748079455E+04 -0.64310287639E+03 -0.26150038185E+04  0.29794230295E+04  0.10100000352E+00 0. -1.
</event>
<event>
 5   0  0.1648000E-07  0.3815746E+04  0.7818609E-02  0.8042784E-01
       -3   -1    0    0    0  501  0.00000000000E+00  0.00000000000E+00  0.21508045306E+04  0.21508045330E+04  0.10100000352E+00 0.  1.
        3   -1    0    0  501    0  0.00000000000E+00  0.00000000000E+00 -0.16923807796E+04  0.16923807826E+04  0.10100000352E+00 0. -1.
    10030    2    1    2    0    0  0.00000000000E+00  0.00000000000E+00  0.45842375099E+03  0.38431853156E+04  0.38157464583E+04 0.  0.
        1    1    3    3  502    0 -0.57376138862E+03  0.14873577490E+04 -0.82644007157E+03  0.17956721295E+04  0.50400001928E-02 0. -1.
       -1    1    3    3    0  502  0.57376138862E+03 -0.14873577490E+04  0.12848638226E+04  0.20475131861E+04  0.50400001928E-02 0.  1.
</event>
<event>
 5   0  0.1656617E-07  0.3775939E+04  0.7818609E-02  0.8051338E-01
        1   -1    0    0  501    0  0.00000000000E+00  0.00000000000E+00  0.17542157890E+04  0.17542157890E+04  0.50400001928E-02 0.  1.
       -1   -1    0    0    0  501  0.00000000000E+00  0.00000000000E+00 -0.20319219994E+04  0.20319219994E+04  0.50400001928E-02 0. -1.
    10030    2    1    2    0    0  0.00000000000E+00  0.00000000000E+00 -0.27770621041E+03  0.37861377884E+04  0.37759394345E+04 0.  0.
        5    1    3    3  502    0 -0.19861116737E+03 -0.28006704933E+03  0.17226425409E+04  0.17565316284E+04  0.46999998093E+01 0.  1.
       -5    1    3    3    0  502  0.19861116737E+03  0.28006704933E+03 -0.20003487513E+04  0.20296061600E+04  0.46999998093E+01 0. -1.
</event>
<event>
 5   0  0.5134434E-07  0.3672794E+04  0.7818609E-02  0.8074018E-01
        2   -1    0    0  501    0  0.00000000000E+00  0.00000000000E+00  0.20741450504E+04  0.20741450504E+04  0.25500000920E-02 0. -1.
       -2   -1    0    0    0  501  0.00000000000E+00  0.00000000000E+00 -0.16259005767E+04  0.16259005767E+04  0.25500000920E-02 0.  1.
    10030    2    1    2    0    0  0.00000000000E+00  0.00000000000E+00  0.44824447369E+03  0.37000456271E+04  0.36727938323E+04 0.  0.
        5    1    3    3  502    0  0.47556748707E+03  0.12358202281E+04 -0.10576846956E+04  0.16947374653E+04  0.46999998093E+01 0.  1.
       -5    1    3    3    0  502 -0.47556748707E+03 -0.12358202281E+04  0.15059291693E+04  0.20053081618E+04  0.46999998093E+01 0. -1.
</event>
<event>
 5   0  0.5134434E-07  0.3783228E+04  0.7818609E-02  0.8049764E-01
       -2   -1    0    0    0  501  0.00000000000E+00  0.00000000000E+00  0.17965522035E+04  0.17965522035E+04  0.25500000920E-02 0. -1.
        2   -1    0    0  501    0  0.00000000000E+00  0.00000000000E+00 -0.19917058355E+04  0.19917058355E+04  0.25500000920E-02 0.  1.
    10030    2    1    2    0    0  0.00000000000E+00  0.00000000000E+00 -0.19515363194E+03  0.37882580390E+04  0.37832279908E+04 0.  0.
        5    1    3    3  502    0 -0.14356135955E+04 -0.44315625020E+03 -0.12483687581E+04  0.19534125279E+04  0.46999998093E+01 0.  1.
       -5    1    3    3    0  502  0.14356135955E+04  0.44315625020E+03  0.10532151262E+04  0.18348455112E+04  0.46999998093E+01 0. -1.
</event>
<event>
 5   0  0.5325362E-07  0.3893061E+04  0.7818609E-02  0.8026474E-01
        2   -1    0    0  501    0  0.00000000000E+00  0.00000000000E+00  0.24906923407E+04  0.24906923407E+04  0.25500000920E-02 0.  1.
       -2   -1    0    0    0  501  0.00000000000E+00  0.00000000000E+00 -0.15212559223E+04  0.15212559223E+04  0.25500000920E-02 0. -1.
    10030    2    1    2    0    0  0.00000000000E+00  0.00000000000E+00  0.96943641838E+03  0.40119482630E+04  0.38930607362E+04 0.  0.
        4    1    3    3  502    0  0.95126289164E+03 -0.15667311918E+04 -0.19060381549E+03  0.18427911286E+04  0.12699999809E+01 0. -1.
       -4    1    3    3    0  502 -0.95126289164E+03  0.15667311918E+04  0.11600402339E+04  0.21691571344E+04  0.12699999809E+01 0.  1.
</event>
<event>
 5   0  0.1648000E-07  0.3726401E+04  0.7818609E-02  0.8062136E-01
       -1   -1    0    0    0  501  0.00000000000E+00  0.00000000000E+00  0.14063274766E+04  0.14063274767E+04  0.50400001928E-02 0. -1.
        1   -1    0    0  501    0  0.00000000000E+00  0.00000000000E+00 -0.24684983347E+04  0.24684983347E+04  0.50400001928E-02 0.  1.
    10030    2    1    2    0    0  0.00000000000E+00  0.00000000000E+00 -0.10621708581E+04  0.38748258114E+04  0.37264014997E+04 0.  0.
        1    1    3    3  502    0  0.29161568482E+03 -0.48521414093E+03 -0.23769073982E+04  0.24433913420E+04  0.50400001928E-02 0.  1.
       -1    1    3    3    0  502 -0.29161568482E+03  0.48521414093E+03  0.13147365402E+04  0.14314344694E+04  0.50400001928E-02 0. -1.
</event>
<event>
 5   0  0.5134434E-07  0.3715695E+04  0.7818609E-02  0.8064492E-01
       -2   -1    0    0    0  501  0.00000000000E+00  0.00000000000E+00  0.14419973963E+04  0.14419973963E+04  0.25500000920E-02 0.  1.
        2   -1    0    0  501    0  0.00000000000E+00  0.00000000000E+00 -0.23936227061E+04  0.23936227061E+04  0.25500000920E-02 0. -1.
    10030    2    1    2    0    0  0.00000000000E+00  0.00000000000E+00 -0.95162530985E+03  0.38356201024E+04  0.37156952027E+04 0.  0.
        5    1    3    3  502    0  0.89551727482E+03 -0.14939320427E+04 -0.11430422406E+04  0.20833510965E+04  0.46999998093E+01 0. -1.
       -5    1    3    3    0  502 -0.89551727482E+03  0.14939320427E+04  0.19141693073E+03  0.17522690059E+04  0.46999998093E+01 0.  1.
</event>
<event>
 5   0  0.1656617E-07  0.3775362E+04  0.7818609E-02  0.8051463E-01
       -1   -1    0    0    0  501  0.00000000000E+00  0.00000000000E+00  0.24976790015E+04  0.24976790015E+04  0.50400001928E-02 0. -1.
        1   -1    0    0  501    0  0.00000000000E+00  0.00000000000E+00 -0.14266603327E+04  0.14266603327E+04  0.50400001928E-02 0.  1.
    10030    2    1    2    0    0  0.00000000000E+00  0.00000000000E+00  0.10710186687E+04  0.39243393342E+04  0.37753619987E+04 0.  0.
        5    1    3    3  502    0 -0.10988914541E+04  0.13178990760E+04  0.13532529538E+04  0.21853457505E+04  0.46999998093E+01 0. -1.
       -5    1    3    3    0  502  0.10988914541E+04 -0.13178990760E+04 -0.28223428506E+03  0.17389935837E+04  0.46999998093E+01 0.  1.
</event>
<event>
 5   0  0.5132561E-07  0.3722105E+04  0.7818609E-02  0.8063081E-01
       -2   -1    0    0    0  501  0.00000000000E+00  0.00000000000E+00  0.24191279433E+04  0.24191279433E+04  0.25500000920E-02 0.  1.
        2   -1    0    0  501    0  0.00000000000E+00  0.00000000000E+00 -0.14317214144E+04  0.14317214144E+04  0.25500000920E-02 0. -1.
    10030    2    1    2    0    0  0.00000000000E+00  0.00000000000E+00  0.98740652897E+03  0.38508493577E+04  0.37221054690E+04 0.  0.
        3    1    3    3  502    0  0.10767727633E+03  0.18835719616E+02 -0.14283971717E+04  0.14325737923E+04  0.10100000352E+00 0. -1.
       -3    1    3    3    0  502 -0.10767727633E+03 -0.18835719616E+02  0.24158037006E+04  0.24182755654E+04  0.10100000352E+00 0.  1.
</event>
<event>
 5   0  0.5134434E-07  0.3838996E+04  0.7818609E-02  0.8037838E-01
       -2   -1    0    0    0  501  0.00000000000E+00  0.00000000000E+00  0.16109340033E+04  0.16109340033E+04  0.25500000920E-02 0.  1.
        2   -1    0    0  501    0  0.00000000000E+00  0.00000000000E+00 -0.22871652838E+04  0.22871652838E+04  0.25500000920E-02 0. -1.
    10030    2    1    2    0    0  0.00000000000E+00  0.00000000000E+00 -0.67623128052E+03  0.38980992870E+04  0.38389958722E+04 0.  0.
        5    1    3    3  502    0  0.11312527254E+04  0.56490318476E+03 -0.18045105973E+04  0.22034357088E+04  0.46999998093E+01 0. -1.
       -5    1    3    3    0  502 -0.11312527254E+04 -0.56490318476E+03  0.11282793168E+04  0.16946635783E+04  0.46999998093E+01 0.  1.
</event>
<event>
 5   0  0.1648000E-07  0.3831823E+04  0.7818609E-02  0.8039360E-01
        1   -1    0    0  501    0  0.00000000000E+00  0.00000000000E+00  0.21299691095E+04  0.21299691095E+04  0.50400001928E-02 0. -1.
       -1   -1    0    0    0  501  0.00000000000E+00  0.00000000000E+00 -0.17233665246E+04  0.17233665246E+04  0.50400001928E-02 0.  1.
    10030    2    1    2    0    0  0.00000000000E+00  0.00000000000E+00  0.40660258494E+03  0.38533356341E+04  0.38318233058E+04 0.  0.
        4    1    3    3  502    0  0.71756460524E+03 -0.14694225569E+04  0.12072115860E+04  0.20326000688E+04  0.12699999809E+01 0. -1.
       -4    1    3    3    0  502 -0.71756460524E+03  0.14694225569E+04 -0.80060900102E+03  0.18207355653E+04  0.12699999809E+01 0.  1.
</event>
<event>
 5   0  0.5132561E-07  0.3767111E+04  0.7818609E-02  0.8053250E-01
       -2   -1    0    0    0  501  0.00000000000E+00  0.00000000000E+00  0.15167347580E+04  0.15167347580E+04  0.25500000920E-02 0. -1.
        2   -1    0    0  501    0  0.00000000000E+00  0.00000000000E+00 -0.23390909183E+04  0.23390909183E+04  0.25500000920E-02 0.  1.
    10030    2    1    2    0    0  0.00000000000E+00  0.00000000000E+00 -0.82235616030E+03  0.38558256764E+04  0.37671105628E+04 0.  0.
        3    1    3    3  502    0 -0.11349314466E+04 -0.14799731792E+04 -0.68080235885E+03  0.19854173016E+04  0.10100000352E+00 0.  1.
       -3    1    3    3    0  502  0.11349314466E+04  0.14799731792E+04 -0.14155380145E+03  0.18704083748E+04  0.10100000352E+00 0. -1.
</event>
<event>
 5   0  0.5158266E-07  0.3867784E+04  0.7818609E-02  0.8031763E-01
        2   -1    0    0  501    0  0.00000000000E+00  0.00000000000E+00  0.12918216219E+04  0.12918216219E+04  0.25500000920E-02 0.  1.
       -2   -1    0    0    0  501  0.00000000000E+00  0.00000000000E+00 -0.28950881170E+04  0.28950881170E+04  0.25500000920E-02 0. -1.
    10030    2    1    2    0    0  0.00000000000E+00  0.00000000000E+00 -0.16032664951E+04  0.41869097390E+04  0.38677835653E+04 0.  0.
        2    1    3    3  502    0  0.14797095820E+04 -0.11940799853E+04 -0.41956749309E+03  0.19471528804E+04  0.25500000920E-02 0.  1.
       -2    1    3    3    0  502 -0.14797095820E+04  0.11940799853E+04 -0.11836990020E+04  0.22397568586E+04  0.25500000920E-02 0. -1.
</event>
<event>
 5   0  0.5325362E-07  0.3766780E+04  0.7818609E-02  0.8053322E-01
       -2   -1    0    0    0  501  0.00000000000E+00  0.00000000000E+00  0.14060406728E+04  0.14060406728E+04  0.25500000920E-02 0. -1.
        2   -1    0    0  501    0  0.00000000000E+00  0.00000000000E+00 -0.25227990296E+04  0.25227990296E+04  0.25500000920E-02 0.  1.
    10030    2    1    2    0    0  0.00000000000E+00  0.00000000000E+00 -0.11167583568E+04  0.39288397024E+04  0.37667800811E+04 0.  0.
        4    1    3    3  502    0 -0.47242432238E+03  0.11307593726E+04 -0.20500685176E+04  0.23884271056E+04  0.12699999809E+01 0.  1.
       -4    1    3    3    0  502  0.47242432238E+03 -0.11307593726E+04  0.93331016083E+03  0.15404125967E+04  0.12699999809E+01 0. -1.
</event>
<event>
 5   0  0.5132561E-07  0.3810025E+04  0.7818609E-02  0.8044007E-01
        2   -1    0    0  501    0  0.00000000000E+00  0.00000000000E+00  0.20168238574E+04  0.20168238574E+04  0.25500000920E-02 0. -1.
       -2   -1    0    0    0  501  0.00000000000E+00  0.00000000000E+00 -0.17993995773E+04  0.17993995773E+04  0.25500000920E-02 0.  1.
    10030    2    1    2    0    0  0.00000000000E+00  0.00000000000E+00  0.21742428012E+03  0.38162234347E+04  0.38100246700E+04 0.  0.
        3    1    3    3  502    0 -0.98437446477E+03  0.46031936713E+03 -0.14585012044E+04  0.18188218110E+04  0.10100000352E+00 0.  1.
       -3    1    3    3    0  502  0.98437446477E+03 -0.46031936713E+03  0.16759254845E+04  0.19974016237E+04  0.10100000352E+00 0. -1.
</event>
<event>
 5   0  0.5202788E-07  0.3072563E+04  0.7818609E-02  0.8223308E-01
        2   -1    0    0  501    0  0.00000000000E+00  0.00000000000E+00  0.21580547837E+04  0.21580547837E+04  0.25500000920E-02 0.  1.
       -2   -1    0    0    0  501  0.00000000000E+00  0.00000000000E+00 -0.10936519114E+04  0.10936519114E+04  0.25500000920E-02 0. -1.
    10030    2    1    2    0    0  0.00000000000E+00  0.00000000000E+00  0.10644028723E+04  0.32517066951E+04  0.30725629296E+04 0.  0.
        1    1    3    3  502    0 -0.97131219580E+03 -0.10328273157E+04  0.11582858185E+04  0.18307937304E+04  0.50400001928E-02 0.  1.
       -1    1    3    3    0  502  0.97131219580E+03  0.10328273157E+04 -0.93882946166E+02  0.14209129648E+04  0.50400001928E-02 0. -1.
</event>
<event>
 5   0  0.5202788E-07  0.3818121E+04  0.7818609E-02  0.8042277E-01
        2   -1    0    0  501    0  0.00000000000E+00  0.00000000000E+00  0.20647303141E+04  0.20647303141E+04  0.25500000920E-02 0. -1.
       -2   -1    0    0    0  501  0.00000000000E+00  0.00000000000E+00 -0.17651276391E+04  0.17651276391E+04  0.25500000920E-02 0.  1.
    10030    2    1    2    0    0  0.00000000000E+00  0.00000000000E+00  0.29960267498E+03  0.38298579533E+04  0.38181212892E+04 0.  0.
        1    1    3    3  502    0  0.77685190766E+03 -0.11181544841E+04  0.14921017504E+04  0.20199346451E+04  0.50400001928E-02 0. -1.
       -1    1    3    3    0  502 -0.77685190766E+03  0.11181544841E+04 -0.11924990754E+04  0.18099233082E+04  0.50400001928E-02 0.  1.
</event>
<event>
 5   0  0.1648000E-07  0.3825364E+04  0.7818609E-02  0.8040734E-01
       -1   -1    0    0    0  501  0.00000000000E+00  0.00000000000E+00  0.16966946553E+04  0.16966946553E+04  0.50400001928E-02 0.  1.
        1   -1    0    0  501    0  0.00000000000E+00  0.00000000000E+00 -0.21561640108E+04  0.21561640108E+04  0.50400001928E-02 0. -1.
    10030    2    1    2    0    0  0.00000000000E+00  0.00000000000E+00 -0.45946935546E+03  0.38528586661E+04  0.38253637490E+04 0.  0.
        1    1    3    3  502    0 -0.84218369433E+02 -0.74667648744E+03  0.15418086807E+04  0.17151654493E+04  0.50400001928E-02 0.  1.
       -1    1    3    3    0  502  0.84218369433E+02  0.74667648744E+03 -0.20012780362E+04  0.21376932167E+04  0.50400001928E-02 0. -1.
</event>
<event>
 5   0  0.1648000E-07  0.3735353E+04  0.7818609E-02  0.8060172E-01
       -1   -1    0    0    0  501  0.00000000000E+00  0.00000000000E+00  0.17094761044E+04  0.17094761044E+04  0.50400001928E-02 0. -1.
        1   -1    0    0  501    0  0.00000000000E+00  0.00000000000E+00 -0.20405169889E+04  0.20405169889E+04  0.50400001928E-02 0.  1.
    10030    2    1    2    0    0  0.00000000000E+00  0.00000000000E+00 -0.33104088452E+03  0.37499930933E+04  0.37353527454E+04 0.  0.
        2    1    3    3  502    0 -0.10300664641E+04 -0.46861579416E+03  0.13260947987E+04  0.17433201365E+04  0.25500000920E-02 0. -1.
       -2    1    3    3    0  502  0.10300664641E+04  0.46861579416E+03 -0.16571356832E+04  0.20066729568E+04  0.25500000920E-02 0.  1.
</event>
<event>
 5   0  0.5202788E-07  0.3797242E+04  0.7818609E-02  0.8046747E-01
       -2   -1    0    0    0  501  0.00000000000E+00  0.00000000000E+00  0.25827301366E+04  0.25827301366E+04  0.25500000920E-02 0.  1.
        2   -1    0    0  501    0  0.00000000000E+00  0.00000000000E+00 -0.13957174422E+04  0.13957174422E+04  0.25500000920E-02 0. -1.
    10030    2    1    2    0    0  0.00000000000E+00  0.00000000000E+00  0.11870126944E+04  0.39784475788E+04  0.37972418939E+04 0.  0.
        1    1    3    3  502    0  0.16057246690E+04 -0.65462849215E+03  0.14036261317E+04  0.22309317544E+04  0.50400001928E-02 0. -1.
       -1    1    3    3    0  502 -0.16057246690E+04  0.65462849215E+03 -0.21661343730E+03  0.17475158244E+04  0.50400001928E-02 0.  1.
</event>
<event>
 5   0  0.1656617E-07  0.3570917E+04  0.7818609E-02  0.8097186E-01
       -1   -1    0    0    0  501  0.00000000000E+00  0.00000000000E+00  0.12140614890E+04  0.12140614890E+04  0.50400001928E-02 0.  1.
        1   -1    0    0  501    0  0.00000000000E+00  0.00000000000E+00 -0.26257833180E+04  0.26257833180E+04  0.50400001928E-02 0. -1.
    10030    2    1    2    0    0  0.00000000000E+00  0.00000000000E+00 -0.14117218290E+04  0.38398448070E+04  0.35709171958E+04 0.  0.
        5    1    3    3  502    0  0.13653202640E+04  0.75485447959E+03  0.22782545668E+03  0.15766519075E+04  0.46999998093E+01 0.  1.
       -5    1    3    3    0  502 -0.13653202640E+04 -0.75485447959E+03 -0.16395472856E+04  0.22631928995E+04  0.46999998093E+01 0. -1.
</event>
<event>
 5   0  0.5134434E-07  0.3730361E+04  0.7818609E-02  0.8061267E-01
        2   -1    0    0  501    0  0.00000000000E+00  0.00000000000E+00  0.16478520444E+04  0.16478520444E+04  0.25500000920E-02 0.  1.
       -2   -1    0    0    0  501  0.00000000000E+00  0.00000000000E+00 -0.21111716804E+04  0.21111716804E+04  0.25500000920E-02 0. -1.
    10030    2    1    2    0    0  0.00000000000E+00  0.00000000000E+00 -0.46331963605E+03  0.37590237248E+04  0.37303611458E+04 0.  0.
        5    1    3    3  502    0  0.32406330263E+03  0.62675600132E+03  0.15081742279E+04  0.16650680770E+04  0.46999998093E+01 0.  1.
       -5    1    3    3    0  502 -0.32406330263E+03 -0.62675600132E+03 -0.19714938640E+04  0.20939556478E+04  0.46999998093E+01 0. -1.
</event>
<event>
 5   0  0.1648000E-07  0.2815895E+04  0.7818609E-02  0.8298351E-01
       -1   -1    0    0    0  501  0.00000000000E+00  0.00000000000E+00  0.13115169384E+04  0.13115169384E+04  0.50400001928E-02 0.  1.
        1   -1    0    0  501    0  0.00000000000E+00  0.00000000000E+00 -0.15114677326E+04  0.15114677326E+04  0.50400001928E-02 0. -1.
    10030    2    1    2    0    0  0.00000000000E+00  0.00000000000E+00 -0.19995079420E+03  0.28229846710E+04  0.28158945528E+04 0.  0.
        3    1    3    3  502    0 -0.70152744624E+03  0.11210389751E+04  0.38440404803E+03  0.13771839470E+04  0.10100000352E+00 0.  1.
       -3    1    3    3    0  502  0.70152744624E+03 -0.11210389751E+04 -0.58435484223E+03  0.14458007240E+04  0.10100000352E+00 0. -1.
</event>
<event>
 5   0  0.5158266E-07  0.3919832E+04  0.7818609E-02  0.8020917E-01
        2   -1    0    0  501    0  0.00000000000E+00  0.00000000000E+00  0.19447787113E+04  0.19447787113E+04  0.25500000920E-02 0. -1.
       -2   -1    0    0    0  501  0.00000000000E+00  0.00000000000E+00 -0.19751711656E+04  0.19751711656E+04  0.25500000920E-02 0.  1.
    10030    2    1    2    0    0  0.00000000000E+00  0.00000000000E+00 -0.30392454258E+02  0.39199498769E+04  0.39198320546E+04 0.  0.
        2    1    3    3  502    0 -0.11485786790E+03  0.10641167834E+04  0.16267221736E+04  0.19472446915E+04  0.25500000920E-02 0. -1.
       -2    1    3    3    0  502  0.11485786790E+03 -0.10641167834E+04 -0.16571146278E+04  0.19727051854E+04  0.25500000920E-02 0.  1.
</event>
<event>
 5   0  0.1648000E-07  0.3456113E+04  0.7818609E-02  0.8124270E-01
        1   -1    0    0  501    0  0.00000000000E+00  0.00000000000E+00  0.22358445512E+04  0.22358445512E+04  0.50400001928E-02 0. -1.
       -1   -1    0    0    0  501  0.00000000000E+00  0.00000000000E+00 -0.13355936441E+04  0.13355936441E+04  0.50400001928E-02 0.  1.
    10030    2    1    2    0    0  0.00000000000E+00  0.00000000000E+00  0.90025090706E+03  0.35714381953E+04  0.34561132921E+04 0.  0.
        4    1    3    3  502    0 -0.13917364897E+04 -0.93712961277E+03  0.87749017531E+03  0.18934447413E+04  0.12699999809E+01 0. -1.
       -4    1    3    3    0  502  0.13917364897E+04  0.93712961277E+03  0.22760731749E+02  0.16779934540E+04  0.12699999809E+01 0.  1.
</event>
<event>
 5   0  0.1656617E-07  0.3670551E+04  0.7818609E-02  0.8074520E-01
        1   -1    0    0  501    0  0.00000000000E+00  0.00000000000E+00  0.17407730827E+04  0.17407730827E+04  0.50400001928E-02 0.  1.
       -1   -1    0    0    0  501  0.00000000000E+00  0.00000000000E+00 -0.19349082608E+04  0.19349082608E+04  0.50400001928E-02 0. -1.
    10030    2    1    2    0    0  0.00000000000E+00  0.00000000000E+00 -0.19413517811E+03  0.36756813435E+04  0.36705510310E+04 0.  0.
        5    1    3    3  502    0  0.69566756183E+03  0.13340279560E+04 -0.11495504701E+04  0.18934287199E+04  0.46999998093E+01 0. -1.
       -5    1    3    3    0  502 -0.69566756183E+03 -0.13340279560E+04  0.95541529195E+03  0.17822526236E+04  0.46999998093E+01 0.  1.
</event>
<event>
 5   0  0.1648000E-07  0.2949612E+04  0.7818609E-02  0.8258268E-01
        1   -1    0    0  501    0  0.00000000000E+00  0.00000000000E+00  0.19697872883E+04  0.19697872883E+04  0.50400001928E-02 0. -1.
       -1   -1    0    0    0  501  0.00000000000E+00  0.00000000000E+00 -0.11042068663E+04  0.11042068663E+04  0.50400001928E-02 0.  1.
    10030    2    1    2    0    0  0.00000000000E+00  0.00000000000E+00  0.86558042200E+03  0.30739941547E+04  0.29496119399E+04 0.  0.
        1    1    3    3  502    0 -0.93420694085E+03 -0.45761016669E+02 -0.75556398157E+03  0.12023783137E+04  0.50400001928E-02 0.  1.
       -1    1    3    3    0  502  0.93420694085E+03  0.45761016669E+02  0.16211444036E+04  0.18716158410E+04  0.50400001928E-02 0. -1.
</event>
<event>
 5   0  0.1648000E-07  0.3778108E+04  0.7818609E-02  0.8050869E-01
        1   -1    0    0  501    0  0.00000000000E+00  0.00000000000E+00  0.16250048023E+04  0.16250048023E+04  0.50400001928E-02 0.  1.
       -1   -1    0    0    0  501  0.00000000000E+00  0.00000000000E+00 -0.21960093879E+04  0.21960093879E+04  0.50400001928E-02 0. -1.
    10030    2    1    2    0    0  0.00000000000E+00  0.00000000000E+00 -0.57100458568E+03  0.38210141902E+04  0.37781084162E+04 0.  0.
        2    1    3    3  502    0 -0.10197201655E+04 -0.12379779559E+04  0.72388368313E+03  0.17596665087E+04  0.25500000920E-02 0.  1.
       -2    1    3    3    0  502  0.10197201655E+04  0.12379779559E+04 -0.12948882688E+04  0.20613476815E+04  0.25500000920E-02 0. -1.
</event>
<event>
 5   0  0.5132561E-07  0.3795011E+04  0.7818609E-02  0.8047226E-01
       -2   -1    0    0    0  501  0.00000000000E+00  0.00000000000E+00  0.14635289067E+04  0.14635289067E+04  0.25500000920E-02 0. -1.
        2   -1    0    0  501    0  0.00000000000E+00  0.00000000000E+00 -0.24601687068E+04  0.24601687068E+04  0.25500000920E-02 0.  1.
    10030    2    1    2    0    0  0.00000000000E+00  0.00000000000E+00 -0.99663980006E+03  0.39236976135E+04  0.37950114718E+04 0.  0.
        3    1    3    3  502    0  0.55507383424E+03  0.10969448601E+04  0.99607536904E+03  0.15822645602E+04  0.10100000352E+00 0. -1.
       -3    1    3    3    0  502 -0.55507383424E+03 -0.10969448601E+04 -0.19927151691E+04  0.23414330533E+04  0.10100000352E+00 0.  1.
</event>
<event>
 5   0  0.5202788E-07  0.2841800E+04  0.7818609E-02  0.8290407E-01
       -2   -1    0    0    0  501  0.00000000000E+00  0.00000000000E+00  0.86775551597E+03  0.86775551598E+03  0.25500000920E-02 0. -1.
        2   -1    0    0  501    0  0.00000000000E+00  0.00000000000E+00 -0.23266424574E+04  0.23266424574E+04  0.25500000920E-02 0.  1.
    10030    2    1    2    0    0  0.00000000000E+00  0.00000000000E+00 -0.14588869415E+04  0.31943979734E+04  0.28418000114E+04 0.  0.
        1    1    3    3  502    0 -0.23696844368E+03 -0.10210429138E+04  0.34889257272E+03  0.11047210972E+04  0.50400001928E-02 0. -1.
       -1    1    3    3    0  502  0.23696844368E+03  0.10210429138E+04 -0.18077795142E+04  0.20896768762E+04  0.50400001928E-02 0.  1.
</event>
<event>
 5   0  0.1648000E-07  0.3824636E+04  0.7818609E-02  0.8040889E-01
       -1   -1    0    0    0  501  0.00000000000E+00  0.00000000000E+00  0.12658876845E+04  0.12658876845E+04  0.50400001928E-02 0.  1.
        1   -1    0    0  501    0  0.00000000000E+00  0.00000000000E+00 -0.28888499151E+04  0.28888499151E+04  0.50400001928E-02 0. -1.
    10030    2    1    2    0    0  0.00000000000E+00  0.00000000000E+00 -0.16229622306E+04  0.41547375997E+04  0.38246356846E+04 0.  0.
        2    1    3    3  502    0 -0.61550791738E+03 -0.57519320427E+03 -0.26764127795E+04  0.28058657460E+04  0.25500000920E-02 0. -1.
       -2    1    3    3    0  502  0.61550791738E+03  0.57519320427E+03  0.10534505489E+04  0.13488718536E+04  0.25500000920E-02 0.  1.
</event>
<event>
 5   0  0.1648000E-07  0.3932924E+04  0.7818609E-02  0.8018216E-01
       -1   -1    0    0    0  501  0.00000000000E+00  0.00000000000E+00  0.19847318513E+04  0.19847318513E+04  0.50400001928E-02 0. -1.
        1   -1    0    0  501    0  0.00000000000E+00  0.00000000000E+00 -0.19483600471E+04  0.19483600471E+04  0.50400001928E-02 0.  1.
    10030    2    1    2    0    0  0.00000000000E+00  0.00000000000E+00  0.36371804261E+02  0.39330918984E+04  0.39329237182E+04 0.  0.
        4    1    3    3  502    0  0.13588069381E+04  0.14185036241E+04 -0.73806094019E+02  0.19656952407E+04  0.12699999809E+01 0. -1.
       -4    1    3    3    0  502 -0.13588069381E+04 -0.14185036241E+04  0.11017789828E+03  0.19673966577E+04  0.12699999809E+01 0.  1.
</event>
<event>
 5   0  0.1648000E-07  0.3811526E+04  0.7818609E-02  0.8043686E-01
        1   -1    0    0  501    0  0.00000000000E+00  0.00000000000E+00  0.23252150381E+04  0.23252150381E+04  0.50400001928E-02 0. -1.
       -1   -1    0    0    0  501  0.00000000000E+00  0.00000000000E+00 -0.15619767662E+04  0.15619767662E+04  0.50400001928E-02 0.  1.
    10030    2    1    2    0    0  0.00000000000E+00  0.00000000000E+00  0.76323827193E+03  0.38871918043E+04  0.38115256085E+04 0.  0.
        3    1    3    3  502    0  0.90634431321E+03 -0.57157545914E+03 -0.12256666671E+04  0.16280102299E+04  0.10100000352E+00 0.  1.
       -3    1    3    3    0  502 -0.90634431321E+03  0.57157545914E+03  0.19889049390E+04  0.22591815744E+04  0.10100000352E+00 0. -1.
</event>
<event>
 5   0  0.1648000E-07  0.3808989E+04  0.7818609E-02  0.8044229E-01
        1   -1    0    0  501    0  0.00000000000E+00  0.00000000000E+00  0.19218642748E+04  0.19218642748E+04  0.50400001928E-02 0. -1.
       -1   -1    0    0    0  501  0.00000000000E+00  0.00000000000E+00 -0.18872812288E+04  0.18872812288E+04  0.50400001928E-02 0.  1.
    10030    2    1    2    0    0  0.00000000000E+00  0.00000000000E+00  0.34583046003E+02  0.38091455035E+04  0.38089885114E+04 0.  0.
        4    1    3    3  502    0 -0.80518237940E+03 -0.47343421069E+03 -0.16424871422E+04  0.18895037023E+04  0.12699999809E+01 0.  1.
       -4    1    3    3    0  502  0.80518237940E+03  0.47343421069E+03  0.16770701882E+04  0.19196418012E+04  0.12699999809E+01 0. -1.
</event>
<event>
 5   0  0.5158266E-07  0.3679026E+04  0.7818609E-02  0.8072626E-01
       -2   -1    0    0    0  501  0.00000000000E+00  0.00000000000E+00  0.14460035238E+04  0.14460035238E+04  0.25500000920E-02 0. -1.
        2   -1    0    0  501    0  0.00000000000E+00  0.00000000000E+00 -0.23401107534E+04  0.23401107534E+04  0.25500000920E-02 0.  1.
    10030    2    1    2    0    0  0.00000000000E+00  0.00000000000E+00 -0.89410722969E+03  0.37861142772E+04  0.36790261730E+04 0.  0.
        2    1    3    3  502    0 -0.82203710988E+03 -0.70731674949E+02 -0.21390082601E+04  0.22926195316E+04  0.25500000920E-02 0.  1.
       -2    1    3    3    0  502  0.82203710988E+03  0.70731674949E+02  0.12449010304E+04  0.14934947456E+04  0.25500000920E-02 0. -1.
</event>
<event>
 5   0  0.5202788E-07  0.3784989E+04  0.7818609E-02  0.8049384E-01
        2   -1    0    0  501    0  0.00000000000E+00  0.00000000000E+00  0.20688743376E+04  0.20688743376E+04  0.25500000920E-02 0.  1.
       -2   -1    0    0    0  501  0.00000000000E+00  0.00000000000E+00 -0.17311513355E+04  0.17311513355E+04  0.25500000920E-02 0. -1.
    10030    2    1    2    0    0  0.00000000000E+00  0.00000000000E+00  0.33772300215E+03  0.38000256731E+04  0.37849885455E+04 0.  0.
        1    1    3    3  502    0  0.88518044941E+03  0.11680254249E+04  0.13709934135E+04  0.20068509564E+04  0.50400001928E-02 0.  1.
       -1    1    3    3    0  502 -0.88518044941E+03 -0.11680254249E+04 -0.10332704114E+04  0.17931747166E+04  0.50400001928E-02 0. -1.
</event>
<event>
 5   0  0.1648000E-07  0.3893421E+04  0.7818609E-02  0.8026399E-01
        1   -1    0    0  501    0  0.00000000000E+00  0.00000000000E+00  0.23957463625E+04  0.23957463625E+04  0.50400001928E-02 0.  1.
       -1   -1    0    0    0  501  0.00000000000E+00  0.00000000000E+00 -0.15818376620E+04  0.15818376620E+04  0.50400001928E-02 0. -1.
    10030    2    1    2    0    0  0.00000000000E+00  0.00000000000E+00  0.81390870054E+03  0.39775840245E+04  0.38934210277E+04 0.  0.
        1    1    3    3  502    0 -0.16607578419E+04  0.91154151709E+03 -0.50676665365E+02  0.18951497754E+04  0.50400001928E-02 0. -1.
       -1    1    3    3    0  502  0.16607578419E+04 -0.91154151709E+03  0.86458536591E+03  0.20824342491E+04  0.50400001928E-02 0.  1.
</event>
<event>
 5   0  0.5158266E-07  0.3641568E+04  0.7818609E-02  0.8081036E-01
        2   -1    0    0  501    0  0.00000000000E+00  0.00000000000E+00  0.21278402665E+04  0.21278402665E+04  0.25500000920E-02 0. -1.
       -2   -1    0    0    0  501  0.00000000000E+00  0.00000000000E+00 -0.15580375202E+04  0.15580375202E+04  0.25500000920E-02 0.  1.
    10030    2    1    2    0    0  0.00000000000E+00  0.00000000000E+00  0.56980274638E+03  0.36858777867E+04  0.36415683282E+04 0.  0.
        2    1    3    3  502    0  0.15643613008E+04 -0.27754468447E+03  0.11851035567E+04  0.19821018570E+04  0.25500000920E-02 0. -1.
       -2    1    3    3    0  502 -0.15643613008E+04  0.27754468447E+03 -0.61530081029E+03  0.17037759297E+04  0.25500000920E-02 0.  1.
</event>
<event>
 5   0  0.1648000E-07  0.3856414E+04  0.7818609E-02  0.8034156E-01
        1   -1    0    0  501    0  0.00000000000E+00  0.00000000000E+00  0.21240807867E+04  0.21240807867E+04  0.50400001928E-02 0. -1.
       -1   -1    0    0    0  501  0.00000000000E+00  0.00000000000E+00 -0.17503960626E+04  0.17503960626E+04  0.50400001928E-02 0.  1.
    10030    2    1    2    0    0  0.00000000000E+00  0.00000000000E+00  0.37368472414E+03  0.38744768493E+04  0.38564142131E+04 0.  0.
        3    1    3    3  502    0  0.53883780777E+03 -0.65043158835E+03  0.19283321602E+04  0.21052012646E+04  0.10100000352E+00 0. -1.
       -3    1    3    3    0  502 -0.53883780777E+03  0.65043158835E+03 -0.15546474360E+04  0.17692755847E+04  0.10100000352E+00 0.  1.
</event>
<event>
 5   0  0.5202788E-07  0.3906470E+04  0.7818609E-02  0.8023685E-01
        2   -1    0    0  501    0  0.00000000000E+00  0.00000000000E+00  0.20415004156E+04  0.20415004156E+04  0.25500000920E-02 0.  1.
       -2   -1    0    0    0  501  0.00000000000E+00  0.00000000000E+00 -0.18687853123E+04  0.18687853123E+04  0.25500000920E-02 0. -1.
    10030    2    1    2    0    0  0.00000000000E+00  0.00000000000E+00  0.17271510330E+03  0.39102857280E+04  0.39064695017E+04 0.  0.
        1    1    3    3  502    0  0.13056989951E+04 -0.33143229529E+03  0.15021043873E+04  0.20176755989E+04  0.50400001928E-02 0.  1.
       -1    1    3    3    0  502 -0.13056989951E+04  0.33143229529E+03 -0.13293892840E+04  0.18926101291E+04  0.50400001928E-02 0. -1.
</event>
<event>
 5   0  0.1648000E-07  0.3999600E+04  0.7818609E-02  0.8004627E-01
       -1   -1    0    0    0  501  0.00000000000E+00  0.00000000000E+00  0.15432935047E+04  0.15432935047E+04  0.50400001928E-02 0. -1.
        1   -1    0    0  501    0  0.00000000000E+00  0.00000000000E+00 -0.25913416283E+04  0.25913416283E+04  0.50400001928E-02 0.  1.
    10030    2    1    2    0    0  0.00000000000E+00  0.00000000000E+00 -0.10480481236E+04  0.41346351330E+04  0.39996003317E+04 0.  0.
        3    1    3    3  502    0  0.14596333377E+04  0.11137520801E+04  0.29534407692E+03  0.18596239701E+04  0.10100000352E+00 0.  1.
       -3    1    3    3    0  502 -0.14596333377E+04 -0.11137520801E+04 -0.13433922005E+04  0.22750111628E+04  0.10100000352E+00 0. -1.
</event>
<event>
 5   0  0.5134434E-07  0.3183342E+04  0.7818609E-02  0.8193230E-01
       -2   -1    0    0    0  501  0.00000000000E+00  0.00000000000E+00  0.17164451029E+04  0.17164451029E+04  0.25500000920E-02 0.  1.
        2   -1    0    0  501    0  0.00000000000E+00  0.00000000000E+00 -0.14759673107E+04  0.14759673107E+04  0.25500000920E-02 0. -1.
    10030    2    1    2    0    0  0.00000000000E+00  0.00000000000E+00  0.24047779217E+03  0.31924124136E+04  0.31833421823E+04 0.  0.
        5    1    3    3  502    0 -0.61179865901E+03  0.37394021844E+03 -0.13048187115E+04  0.14888595790E+04  0.46999998093E+01 0. -1.
       -5    1    3    3    0  502  0.61179865901E+03 -0.37394021844E+03  0.15452965036E+04  0.17035528346E+04  0.46999998093E+01 0.  1.
</event>
<event>
 5   0  0.5202788E-07  0.3883210E+04  0.7818609E-02  0.8028530E-01
        2   -1    0    0  501    0  0.00000000000E+00  0.00000000000E+00  0.28764404793E+04  0.28764404793E+04  0.25500000920E-02 0. -1.
       -2   -1    0    0    0  501  0.00000000000E+00  0.00000000000E+00 -0.13105887243E+04  0.13105887243E+04  0.25500000920E-02 0.  1.
    10030    2    1    2    0    0  0.00000000000E+00  0.00000000000E+00  0.15658517550E+04  0.41870292035E+04  0.38832102483E+04 0.  0.
        1    1    3    3  502    0 -0.11237195254E+04  0.12257563697E+04  0.18636454422E+04  0.24976786390E+04  0.50400001928E-02 0. -1.
       -1    1    3    3    0  502  0.11237195254E+04 -0.12257563697E+04 -0.29779368719E+03  0.16893505645E+04  0.50400001928E-02 0.  1.
</event>
<event>
 5   0  0.1648000E-07  0.3751536E+04  0.7818609E-02  0.8056636E-01
        1   -1    0    0  501    0  0.00000000000E+00  0.00000000000E+00  0.26168072354E+04  0.26168072354E+04  0.50400001928E-02 0. -1.
       -1   -1    0    0    0  501  0.00000000000E+00  0.00000000000E+00 -0.13445797014E+04  0.13445797014E+04  0.50400001928E-02 0.  1.
    10030    2    1    2    0    0  0.00000000000E+00  0.00000000000E+00  0.12722275340E+04  0.39613869368E+04  0.37515361606E+04 0.  0.
        2    1    3    3  502    0 -0.56237857897E+03 -0.14681380187E+04  0.17164810745E+04  0.23276610980E+04  0.25500000920E-02 0. -1.
       -2    1    3    3    0  502  0.56237857897E+03  0.14681380187E+04 -0.44425354046E+03  0.16337258388E+04  0.25500000920E-02 0.  1.
</event>
<event>
 5   0  0.5158266E-07  0.4282573E+04  0.7818609E-02  0.7949848E-01
       -2   -1    0    0    0  501  0.00000000000E+00  0.00000000000E+00  0.26636941888E+04  0.26636941888E+04  0.25500000920E-02 0.  1.
        2   -1    0    0  501    0  0.00000000000E+00  0.00000000000E+00 -0.17213338200E+04  0.17213338200E+04  0.25500000920E-02 0. -1.
    10030    2    1    2    0    0  0.00000000000E+00  0.00000000000E+00  0.94236036881E+03  0.43850280088E+04  0.42825725415E+04 0.  0.
        2    1    3    3  502    0  0.69047978135E+03 -0.13296202822E+04  0.20376345309E+04  0.25291514199E+04  0.25500000920E-02 0.  1.
       -2    1    3    3    0  502 -0.69047978135E+03  0.13296202822E+04 -0.10952741620E+04  0.18558765889E+04  0.25500000920E-02 0. -1.
</event>
<event>
 5   0  0.5202788E-07  0.3803442E+04  0.7818609E-02  0.8045417E-01
       -2   -1    0    0    0  501  0.00000000000E+00  0.00000000000E+00  0.16364313778E+04  0.16364313778E+04  0.25500000920E-02 0. -1.
        2   -1    0    0  501    0  0.00000000000E+00  0.00000000000E+00 -0.22100181443E+04  0.22100181443E+04  0.25500000920E-02 0.  1.
    10030    2    1    2    0    0  0.00000000000E+00  0.00000000000E+00 -0.57358676648E+03  0.38464495221E+04  0.38034421447E+04 0.  0.
        1    1    3    3  502    0  0.85075775850E+02  0.18949565159E+04 -0.14944549345E+03  0.19027432933E+04  0.50400001928E-02 0.  1.
       -1    1    3    3    0  502 -0.85075775850E+02 -0.18949565159E+04 -0.42414127303E+03  0.19437062289E+04  0.50400001928E-02 0. -1.
</event>
<event>
 5   0  0.1648000E-07  0.3795022E+04  0.7818609E-02  0.8047224E-01
        1   -1    0    0  501    0  0.00000000000E+00  0.00000000000E+00  0.23666870145E+04  0.23666870145E+04  0.50400001928E-02 0.  1.
       -1   -1    0    0    0  501  0.00000000000E+00  0.00000000000E+00 -0.15213453619E+04  0.15213453620E+04  0.50400001928E-02 0. -1.
    10030    2    1    2    0    0  0.00000000000E+00  0.00000000000E+00  0.84534165254E+03  0.38880323765E+04  0.37950221674E+04 0.  0.
        2    1    3    3  502    0 -0.11438048606E+04 -0.36443929068E+03 -0.10828487388E+04  0.16166839354E+04  0.25500000920E-02 0. -1.
       -2    1    3    3    0  502  0.11438048606E+04  0.36443929068E+03  0.19281903913E+04  0.22713484411E+04  0.25500000920E-02 0.  1.
</event>
<event>
 5   0  0.1648000E-07  0.3736904E+04  0.7818609E-02  0.8059832E-01
       -1   -1    0    0    0  501  0.00000000000E+00  0.00000000000E+00  0.20362190263E+04  0.20362190263E+04  0.50400001928E-02 0.  1.
        1   -1    0    0  501    0  0.00000000000E+00  0.00000000000E+00 -0.17145078534E+04  0.17145078534E+04  0.50400001928E-02 0. -1.
    10030    2    1    2    0    0  0.00000000000E+00  0.00000000000E+00  0.32171117292E+03  0.37507268796E+04  0.37369043401E+04 0.  0.
        4    1    3    3  502    0 -0.36068649578E+03  0.17398036908E+04  0.74100769148E+03  0.19251248381E+04  0.12699999809E+01 0. -1.
       -4    1    3    3    0  502  0.36068649578E+03 -0.17398036908E+04 -0.41929651856E+03  0.18256020415E+04  0.12699999809E+01 0.  1.
</event>
<event>
 5   0  0.5134434E-07  0.3849520E+04  0.7818609E-02  0.8035611E-01
        2   -1    0    0  501    0  0.00000000000E+00  0.00000000000E+00  0.17731893232E+04  0.17731893232E+04  0.25500000920E-02 0. -1.
       -2   -1    0    0    0  501  0.00000000000E+00  0.00000000000E+00 -0.20892872248E+04  0.20892872248E+04  0.25500000920E-02 0.  1.
    10030    2    1    2    0    0  0.00000000000E+00  0.00000000000E+00 -0.31609790161E+03  0.38624765480E+04  0.38495203858E+04 0.  0.
        5    1    3    3  502    0  0.17406985280E+04  0.75955148954E+02 -0.97865188258E+03  0.19983948927E+04  0.46999998093E+01 0.  1.
       -5    1    3    3    0  502 -0.17406985280E+04 -0.75955148954E+02  0.66255398097E+03  0.18640816553E+04  0.46999998093E+01 0. -1.
</event>
<event>
 5   0  0.1656617E-07  0.3795222E+04  0.7818609E-02  0.8047181E-01
        1   -1    0    0  501    0  0.00000000000E+00  0.00000000000E+00  0.24762992630E+04  0.24762992630E+04  0.50400001928E-02 0.  1.
       -1   -1    0    0    0  501  0.00000000000E+00  0.00000000000E+00 -0.14541568246E+04  0.14541568246E+04  0.50400001928E-02 0. -1.
    10030    2    1    2    0    0  0.00000000000E+00  0.00000000000E+00  0.10221424384E+04  0.39304560876E+04  0.37952219820E+04 0.  0.
        5    1    3    3  502    0 -0.14052246942E+04 -0.65790192438E+03 -0.62029010928E+03  0.16710096627E+04  0.46999998093E+01 0. -1.
       -5    1    3    3    0  502  0.14052246942E+04  0.65790192438E+03  0.16424325477E+04  0.22594464249E+04  0.46999998093E+01 0.  1.
</event>
<event>
 5   0  0.1648000E-07  0.3888437E+04  0.7818609E-02  0.8027438E-01
        1   -1    0    0  501    0  0.00000000000E+00  0.00000000000E+00  0.22859394179E+04  0.22859394179E+04  0.50400001928E-02 0.  1.
       -1   -1    0    0    0  501  0.00000000000E+00  0.00000000000E+00 -0.16535806111E+04  0.16535806111E+04  0.50400001928E-02 0. -1.
    10030    2    1    2    0    0  0.00000000000E+00  0.00000000000E+00  0.63235880676E+03  0.39395200290E+04  0.38884367551E+04 0.  0.
        3    1    3    3  502    0 -0.14130084308E+03  0.68875772553E+03 -0.15202647680E+04  0.16749800321E+04  0.10100000352E+00 0. -1.
       -3    1    3    3    0  502  0.14130084308E+03 -0.68875772553E+03  0.21526235748E+04  0.22645399969E+04  0.10100000352E+00 0.  1.
</event>
<event>
 5   0  0.5132561E-07  0.3257057E+04  0.7818609E-02  0.8173909E-01
        2   -1    0    0  501    0  0.00000000000E+00  0.00000000000E+00  0.13096710740E+04  0.13096710740E+04  0.25500000920E-02 0.  1.
       -2   -1    0    0    0  501  0.00000000000E+00  0.00000000000E+00 -0.20250157482E+04  0.20250157482E+04  0.25500000920E-02 0. -1.
    10030    2    1    2    0    0  0.00000000000E+00  0.00000000000E+00 -0.71534467425E+03  0.33346868222E+04  0.32570566773E+04 0.  0.
        3    1    3    3  502    0  0.78961736636E+03 -0.12905394504E+03 -0.18099135740E+04  0.19788728260E+04  0.10100000352E+00 0. -1.
       -3    1    3    3    0  502 -0.78961736636E+03  0.12905394504E+03  0.10945688997E+04  0.13558139962E+04  0.10100000352E+00 0.  1.
</event>
<event>
 5   0  0.5134434E-07  0.3778978E+04  0.7818609E-02  0.8050681E-01
        2   -1    0    0  501    0  0.00000000000E+00  0.00000000000E+00  0.18720054484E+04  0.18720054484E+04  0.25500000920E-02 0. -1.
       -2   -1    0    0    0  501  0.00000000000E+00  0.00000000000E+00 -0.19071358168E+04  0.19071358168E+04  0.25500000920E-02 0.  1.
    10030    2    1    2    0    0  0.00000000000E+00  0.00000000000E+00 -0.35130368415E+02  0.37791412652E+04  0.37789779782E+04 0.  0.
        5    1    3    3  502    0 -0.15675267792E+04  0.10480447695E+04 -0.13843606617E+03  0.18906942314E+04  0.46999998093E+01 0.  1.
       -5    1    3    3    0  502  0.15675267792E+04 -0.10480447695E+04  0.10330569775E+03  0.18884470338E+04  0.46999998093E+01 0. -1.
</event>
<event>
 5   0  0.1656617E-07  0.3819696E+04  0.7818609E-02  0.8041941E-01
        1   -1    0    0  501    0  0.00000000000E+00  0.00000000000E+00  0.18285895996E+04  0.18285895996E+04  0.50400001928E-02 0. -1.
       -1   -1    0    0    0  501  0.00000000000E+00  0.00000000000E+00 -0.19947177962E+04  0.19947177962E+04  0.50400001928E-02 0.  1.
    10030    2    1    2    0    0  0.00000000000E+00  0.00000000000E+00 -0.16612819663E+03  0.38233073958E+04  0.38196964362E+04 0.  0.
        5    1    3    3  502    0  0.10906728817E+04 -0.99368565865E+03  0.11307321103E+04  0.18589125096E+04  0.46999998093E+01 0. -1.
       -5    1    3    3    0  502 -0.10906728817E+04  0.99368565865E+03 -0.12968603070E+04  0.19643948862E+04  0.46999998093E+01 0.  1.
</event>
<event>
 5   0  0.1648000E-07  0.3893771E+04  0.7818609E-02  0.8026326E-01
        1   -1    0    0  501    0  0.00000000000E+00  0.00000000000E+00  0.25404345929E+04  0.25404345929E+04  0.50400001928E-02 0. -1.
       -1   -1    0    0    0  501  0.00000000000E+00  0.00000000000E+00 -0.14920134335E+04  0.14920134335E+04  0.50400001928E-02 0.  1.
    10030    2    1    2    0    0  0.00000000000E+00  0.00000000000E+00  0.10484211594E+04  0.40324480264E+04  0.38937706864E+04 0.  0.
        2    1    3    3  502    0 -0.33713219292E+03 -0.10245041683E+04 -0.11543474060E+04  0.15798053172E+04  0.25500000920E-02 0.  1.
       -2    1    3    3    0  502  0.33713219292E+03  0.10245041683E+04  0.22027685654E+04  0.24526427092E+04  0.25500000920E-02 0. -1.
</event>
<event>
 5   0  0.5325362E-07  0.3824374E+04  0.7818609E-02  0.8040944E-01
       -2   -1    0    0    0  501  0.00000000000E+00  0.00000000000E+00  0.15168446041E+04  0.15168446041E+04  0.25500000920E-02 0.  1.
        2   -1    0    0  501    0  0.00000000000E+00  0.00000000000E+00 -0.24105697496E+04  0.24105697496E+04  0.25500000920E-02 0. -1.
    10030    2    1    2    0    0  0.00000000000E+00  0.00000000000E+00 -0.89372514554E+03  0.39274143537E+04  0.38243743109E+04 0.  0.
        4    1    3    3  502    0 -0.15908796055E+04 -0.21226840528E+03  0.62061603476E+03  0.17207910015E+04  0.12699999809E+01 0.  1.
       -4    1    3    3    0  502  0.15908796055E+04  0.21226840528E+03 -0.15143411803E+04  0.22066233522E+04  0.12699999809E+01 0. -1.
</event>
<event>
 5   0  0.5134434E-07  0.3491694E+04  0.7818609E-02  0.8115761E-01
       -2   -1    0    0    0  501  0.00000000000E+00  0.00000000000E+00  0.16666865223E+04  0.16666865223E+04  0.25500000920E-02 0.  1.
        2   -1    0    0  501    0  0.00000000000E+00  0.00000000000E+00 -0.18287669187E+04  0.18287669187E+04  0.25500000920E-02 0. -1.
    10030    2    1    2    0    0  0.00000000000E+00  0.00000000000E+00 -0.16208039635E+03  0.34954534410E+04  0.34916936726E+04 0.  0.
        5    1    3    3  502    0  0.10839707290E+04 -0.81832499631E+03 -0.11791765876E+04  0.17986461174E+04  0.46999998093E+01 0.  1.
       -5    1    3    3    0  502 -0.10839707290E+04  0.81832499631E+03  0.10170961913E+04  0.16968073235E+04  0.46999998093E+01 0. -1.
</event>
<event>
 5   0  0.1648000E-07  0.3792191E+04  0.7818609E-02  0.8047833E-01
        1   -1    0    0  501    0  0.00000000000E+00  0.00000000000E+00  0.22813470312E+04  0.22813470312E+04  0.50400001928E-02 0. -1.
       -1   -1    0    0    0  501  0.00000000000E+00  0.00000000000E+00 -0.15759013476E+04  0.15759013476E+04  0.50400001928E-02 0.  1.
    10030    2    1    2    0    0  0.00000000000E+00  0.00000000000E+00  0.70544568353E+03  0.38572483788E+04  0.37921908501E+04 0.  0.
        1    1    3    3  502    0 -0.39217645945E+02 -0.10097486093E+04  0.19846309664E+04  0.22270811280E+04  0.50400001928E-02 0. -1.
       -1    1    3    3    0  502  0.39217645945E+02  0.10097486093E+04 -0.12791852829E+04  0.16301672508E+04  0.50400001928E-02 0.  1.
</event>
<event>
 5   0  0.5158266E-07  0.3803757E+04  0.7818609E-02  0.8045349E-01
        2   -1    0    0  501    0  0.00000000000E+00  0.00000000000E+00  0.18863135605E+04  0.18863135605E+04  0.25500000920E-02 0.  1.
       -2   -1    0    0    0  501  0.00000000000E+00  0.00000000000E+00 -0.19175723766E+04  0.19175723766E+04  0.25500000920E-02 0. -1.
    10030    2    1    2    0    0  0.00000000000E+00  0.00000000000E+00 -0.31258816187E+02  0.38038859371E+04  0.38037574987E+04 0.  0.
        2    1    3    3  502    0  0.16084596880E+04 -0.32858088676E+03 -0.97588826811E+03  0.19098339925E+04  0.25500000920E-02 0. -1.
       -2    1    3    3    0  502 -0.16084596880E+04  0.32858088676E+03  0.94462945193E+03  0.18940519446E+04  0.25500000920E-02 0.  1.
</event>
<event>
 5   0  0.1648000E-07  0.3824137E+04  0.7818609E-02  0.8040995E-01
       -1   -1    0    0    0  501  0.00000000000E+00  0.00000000000E+00  0.29919591383E+04  0.29919591383E+04  0.50400001928E-02 0.  1.
        1   -1    0    0  501    0  0.00000000000E+00  0.00000000000E+00 -0.12219440834E+04  0.12219440834E+04  0.50400001928E-02 0. -1.
    10030    2    1    2    0    0  0.00000000000E+00  0.00000000000E+00  0.17700150549E+04  0.42139032217E+04  0.38241374279E+04 0.  0.
        2    1    3    3  502    0  0.56098263774E+03 -0.18093774366E+04  0.59880759189E+03  0.19867357046E+04  0.25500000920E-02 0.  1.
       -2    1    3    3    0  502 -0.56098263774E+03  0.18093774366E+04  0.11712074630E+04  0.22271675171E+04  0.25500000920E-02 0. -1.
</event>
<event>
 5   0  0.5202788E-07  0.2734655E+04  0.7818609E-02  0.8323848E-01
        2   -1    0    0  501    0  0.00000000000E+00  0.00000000000E+00  0.14008815335E+04  0.14008815335E+04  0.25500000920E-02 0. -1.
       -2   -1    0    0    0  501  0.00000000000E+00  0.00000000000E+00 -0.13345768811E+04  0.13345768811E+04  0.25500000920E-02 0.  1.
    10030    2    1    2    0    0  0.00000000000E+00  0.00000000000E+00  0.66304652395E+02  0.27354584145E+04  0.27346547187E+04 0.  0.
        1    1    3    3  502    0  0.52128603810E+03 -0.12622645299E+04 -0.34196732196E+02  0.13660967365E+04  0.50400001928E-02 0. -1.
       -1    1    3    3    0  502 -0.52128603810E+03  0.12622645299E+04  0.10050138459E+03  0.13693616780E+04  0.50400001928E-02 0.  1.
</event>
<event>
 5   0  0.1648000E-07  0.3981337E+04  0.7818609E-02  0.8008322E-01
       -1   -1    0    0    0  501  0.00000000000E+00  0.00000000000E+00  0.13577838449E+04  0.13577838449E+04  0.50400001928E-02 0.  1.
        1   -1    0    0  501    0  0.00000000000E+00  0.00000000000E+00 -0.29185505471E+04  0.29185505471E+04  0.50400001928E-02 0. -1.
    10030    2    1    2    0    0  0.00000000000E+00  0.00000000000E+00 -0.15607667023E+04  0.42763343920E+04  0.39813368525E+04 0.  0.
        3    1    3    3  502    0  0.14465415730E+04  0.55985257808E+03 -0.21205697029E+04  0.26273053318E+04  0.10100000352E+00 0. -1.
       -3    1    3    3    0  502 -0.14465415730E+04 -0.55985257808E+03  0.55980300066E+03  0.16490290602E+04  0.10100000352E+00 0.  1.
</event>
<event>
 5   0  0.1648000E-07  0.3771124E+04  0.7818609E-02  0.8052380E-01
        1   -1    0    0  501    0  0.00000000000E+00  0.00000000000E+00  0.16624620231E+04  0.16624620231E+04  0.50400001928E-02 0. -1.
       -1   -1    0    0    0  501  0.00000000000E+00  0.00000000000E+00 -0.21386020173E+04  0.21386020173E+04  0.50400001928E-02 0.  1.
    10030    2    1    2    0    0  0.00000000000E+00  0.00000000000E+00 -0.47613999419E+03  0.38010640405E+04  0.37711243079E+04 0.  0.
        3    1    3    3  502    0  0.94877856825E+03  0.51471024611E+03  0.13202435296E+04  0.17053299964E+04  0.10100000352E+00 0. -1.
       -3    1    3    3    0  502 -0.94877856825E+03 -0.51471024611E+03 -0.17963835237E+04  0.20957340441E+04  0.10100000352E+00 0.  1.
</event>
<event>
 5   0  0.5325362E-07  0.2919805E+04  0.7818609E-02  0.8267009E-01
       -2   -1    0    0    0  501  0.00000000000E+00  0.00000000000E+00  0.83329389262E+03  0.83329389263E+03  0.25500000920E-02 0.  1.
        2   -1    0    0  501    0  0.00000000000E+00  0.00000000000E+00 -0.25577002851E+04  0.25577002851E+04  0.25500000920E-02 0. -1.
    10030    2    1    2    0    0  0.00000000000E+00  0.00000000000E+00 -0.17244063925E+04  0.33909941777E+04  0.29198054913E+04 0.  0.
        4    1    3    3  502    0  0.90755526588E+03 -0.98869468623E+03 -0.19490087177E+03  0.13561569621E+04  0.12699999809E+01 0.  1.
       -4    1    3    3    0  502 -0.90755526588E+03  0.98869468623E+03 -0.15295055207E+04  0.20348372156E+04  0.12699999809E+01 0. -1.
</event>
<event>
 5   0  0.5202788E-07  0.3155671E+04  0.7818609E-02  0.8200624E-01
       -2   -1    0    0    0  501  0.00000000000E+00  0.00000000000E+00  0.17101013629E+04  0.17101013629E+04  0.25500000920E-02 0. -1.
        2   -1    0    0  501    0  0.00000000000E+00  0.00000000000E+00 -0.14557991789E+04  0.14557991789E+04  0.25500000920E-02 0.  1.
    10030    2    1    2    0    0  0.00000000000E+00  0.00000000000E+00  0.25430218394E+03  0.31659005418E+04  0.31556705531E+04 0.  0.
        1    1    3    3  502    0  0.92674557004E+03  0.53116740738E+03 -0.10378921203E+04  0.14893677248E+04  0.50400001928E-02 0.  1.
       -1    1    3    3    0  502 -0.92674557004E+03 -0.53116740738E+03  0.12921943043E+04  0.16765328169E+04  0.50400001928E-02 0. -1.
</event>
<event>
 5   0  0.1648000E-07  0.3778459E+04  0.7818609E-02  0.8050793E-01
       -4   -1    0    0    0  501  0.00000000000E+00  0.00000000000E+00  0.14064929512E+04  0.14064935246E+04  0.12699999809E+01 0. -1.
        4   -1    0    0  501    0  0.00000000000E+00  0.00000000000E+00 -0.25376499761E+04  0.25376502939E+04  0.12699999809E+01 0.  1.
    10030    2    1    2    0    0  0.00000000000E+00  0.00000000000E+00 -0.11311570249E+04  0.39441438186E+04  0.37784592424E+04 0.  0.
        5    1    3    3  502    0  0.21865471631E+03 -0.26167438370E+03 -0.25052533793E+04  0.25283591424E+04  0.46999998093E+01 0.  1.
       -5    1    3    3    0  502 -0.21865471631E+03  0.26167438370E+03  0.13740963544E+04  0.14157846762E+04  0.46999998093E+01 0. -1.
</event>
<event>
 5   0  0.1648000E-07  0.3886848E+04  0.7818609E-02  0.8027770E-01
       -1   -1    0    0    0  501  0.00000000000E+00  0.00000000000E+00  0.21621977518E+04  0.21621977518E+04  0.50400001928E-02 0. -1.
        1   -1    0    0  501    0  0.00000000000E+00  0.00000000000E+00 -0.17467856259E+04  0.17467856259E+04  0.50400001928E-02 0.  1.
    10030    2    1    2    0    0  0.00000000000E+00  0.00000000000E+00  0.41541212590E+03  0.39089833777E+04  0.38868475417E+04 0.  0.
        4    1    3    3  502    0  0.18432697697E+04 -0.34346960249E+03  0.72177221509E+03  0.20091220857E+04  0.12699999809E+01 0. -1.
       -4    1    3    3    0  502 -0.18432697697E+04  0.34346960249E+03 -0.30636008919E+03  0.18998612920E+04  0.12699999809E+01 0.  1.
</event>
<event>
 5   0  0.1656617E-07  0.3745330E+04  0.7818609E-02  0.8057990E-01
       -1   -1    0    0    0  501  0.00000000000E+00  0.00000000000E+00  0.19840806344E+04  0.19840806344E+04  0.50400001928E-02 0.  1.
        1   -1    0    0  501    0  0.00000000000E+00  0.00000000000E+00 -0.17675056056E+04  0.17675056056E+04  0.50400001928E-02 0. -1.
    10030    2    1    2    0    0  0.00000000000E+00  0.00000000000E+00  0.21657502889E+03  0.37515862400E+04  0.37453297015E+04 0.  0.
        5    1    3    3  502    0 -0.16208385690E+04 -0.18204651732E+03 -0.81335437151E+03  0.18225877276E+04  0.46999998093E+01 0. -1.
       -5    1    3    3    0  502  0.16208385690E+04  0.18204651732E+03  0.10299294004E+04  0.19289985124E+04  0.46999998093E+01 0.  1.
</event>
<event>
 5   0  0.5158266E-07  0.3822134E+04  0.7818609E-02  0.8041422E-01
        2   -1    0    0  501    0  0.00000000000E+00  0.00000000000E+00  0.14430631547E+04  0.14430631547E+04  0.25500000920E-02 0.  1.
       -2   -1    0    0    0  501  0.00000000000E+00  0.00000000000E+00 -0.25308505086E+04  0.25308505086E+04  0.25500000920E-02 0. -1.
    10030    2    1    2    0    0  0.00000000000E+00  0.00000000000E+00 -0.10877873538E+04  0.39739136633E+04  0.38221340212E+04 0.  0.
        2    1    3    3  502    0  0.45679344841E+03 -0.48980482928E+03  0.13170456217E+04  0.14775581867E+04  0.25500000920E-02 0.  1.
       -2    1    3    3    0  502 -0.45679344841E+03  0.48980482928E+03 -0.24048329756E+04  0.24963554766E+04  0.25500000920E-02 0. -1.
</event>
<event>
 5   0  0.1648000E-07  0.3756032E+04  0.7818609E-02  0.8055657E-01
        1   -1    0    0  501    0  0.00000000000E+00  0.00000000000E+00  0.13620802391E+04  0.13620802392E+04  0.50400001928E-02 0.  1.
       -1   -1    0    0    0  501  0.00000000000E+00  0.00000000000E+00 -0.25893804924E+04  0.25893804924E+04  0.50400001928E-02 0. -1.
    10030    2    1    2    0    0  0.00000000000E+00  0.00000000000E+00 -0.12273002532E+04  0.39514607316E+04  0.37560319489E+04 0.  0.
        4    1    3    3  502    0 -0.72073543612E+02 -0.20000980268E+03  0.13493792667E+04  0.13660250858E+04  0.12699999809E+01 0.  1.
       -4    1    3    3    0  502  0.72073543612E+02  0.20000980268E+03 -0.25766795199E+04  0.25854356457E+04  0.12699999809E+01 0. -1.
</event>
<event>
 5   0  0.5134434E-07  0.3763404E+04  0.7818609E-02  0.8054054E-01
        2   -1    0    0  501    0  0.00000000000E+00  0.00000000000E+00  0.25895594440E+04  0.25895594440E+04  0.25500000920E-02 0. -1.
       -2   -1    0    0    0  501  0.00000000000E+00  0.00000000000E+00 -0.13673376379E+04  0.13673376379E+04  0.25500000920E-02 0.  1.
    10030    2    1    2    0    0  0.00000000000E+00  0.00000000000E+00  0.12222218061E+04  0.39568970820E+04  0.37634038282E+04 0.  0.
        5    1    3    3  502    0 -0.91698694105E+03 -0.72617496185E+02  0.23370459255E+04  0.25115620834E+04  0.46999998093E+01 0. -1.
       -5    1    3    3    0  502  0.91698694105E+03  0.72617496185E+02 -0.11148241194E+04  0.14453349986E+04  0.46999998093E+01 0.  1.
</event>
<event>
 5   0  0.1656617E-07  0.3936980E+04  0.7818609E-02  0.8017382E-01
        1   -1    0    0  501    0  0.00000000000E+00  0.00000000000E+00  0.34405591064E+04  0.34405591064E+04  0.50400001928E-02 0. -1.
       -1   -1    0    0    0  501  0.00000000000E+00  0.00000000000E+00 -0.11262566588E+04  0.11262566588E+04  0.50400001928E-02 0.  1.
    10030    2    1    2    0    0  0.00000000000E+00  0.00000000000E+00  0.23143024476E+04  0.45668157652E+04  0.39369798595E+04 0.  0.
        5    1    3    3  502    0 -0.11071621897E+04  0.90164382350E+03  0.27289815226E+04  0.30799564834E+04  0.46999998093E+01 0. -1.
       -5    1    3    3    0  502  0.11071621897E+04 -0.90164382350E+03 -0.41467907505E+03  0.14868592818E+04  0.46999998093E+01 0.  1.
</event>
<event>
 5   0  0.1648000E-07  0.3774631E+04  0.7818609E-02  0.8051621E-01
        1   -1    0    0  501    0  0.00000000000E+00  0.00000000000E+00  0.30792652565E+04  0.30792652565E+04  0.50400001928E-02 0. -1.
       -1   -1    0    0    0  501  0.00000000000E+00  0.00000000000E+00 -0.11567567073E+04  0.11567567073E+04  0.50400001928E-02 0.  1.
    10030    2    1    2    0    0  0.00000000000E+00  0.00000000000E+00  0.19225085492E+04  0.42360219639E+04  0.37746314995E+04 0.  0.
        1    1    3    3  502    0  0.82217387951E+02  0.69075317789E+03 -0.10076393867E+04  0.12244332506E+04  0.50400001928E-02 0.  1.
       -1    1    3    3    0  502 -0.82217387951E+02 -0.69075317789E+03  0.29301479358E+04  0.30115887132E+04  0.50400001928E-02 0. -1.
</event>
<event>
 5   0  0.5158266E-07  0.3758516E+04  0.7818609E-02  0.8055116E-01
       -2   -1    0    0    0  501  0.00000000000E+00  0.00000000000E+00  0.23686657969E+04  0.23686657969E+04  0.25500000920E-02 0.  1.
        2   -1    0    0  501    0  0.00000000000E+00  0.00000000000E+00 -0.14909703056E+04  0.14909703056E+04  0.25500000920E-02 0. -1.
    10030    2    1    2    0    0  0.00000000000E+00  0.00000000000E+00  0.87769549124E+03  0.38596361025E+04  0.37585158598E+04 0.  0.
        2    1    3    3  502    0  0.10995325877E+04  0.30984053297E+03 -0.10934907526E+04  0.15813586226E+04  0.25500000920E-02 0. -1.
       -2    1    3    3    0  502 -0.10995325877E+04 -0.30984053297E+03  0.19711862439E+04  0.22782774799E+04  0.25500000920E-02 0.  1.
</event>
<event>
 5   0  0.1656617E-07  0.3460217E+04  0.7818609E-02  0.8123283E-01
       -1   -1    0    0    0  501  0.00000000000E+00  0.00000000000E+00  0.34795972956E+04  0.34795972956E+04  0.50400001928E-02 0. -1.
        1   -1    0    0  501    0  0.00000000000E+00  0.00000000000E+00 -0.86023599605E+03  0.86023599606E+03  0.50400001928E-02 0.  1.
    10030    2    1    2    0    0  0.00000000000E+00  0.00000000000E+00  0.26193612996E+04  0.43398332917E+04  0.34602166669E+04 0.  0.
        5    1    3    3  502    0  0.71934528766E+03  0.38317998177E+03 -0.60436166189E+03  0.10146721883E+04  0.46999998093E+01 0.  1.
       -5    1    3    3    0  502 -0.71934528766E+03 -0.38317998177E+03  0.32237229614E+04  0.33251611034E+04  0.46999998093E+01 0. -1.
</event>
<event>
 5   0  0.5202788E-07  0.3775126E+04  0.7818609E-02  0.8051514E-01
       -2   -1    0    0    0  501  0.00000000000E+00  0.00000000000E+00  0.16016067454E+04  0.16016067454E+04  0.25500000920E-02 0.  1.
        2   -1    0    0  501    0  0.00000000000E+00  0.00000000000E+00 -0.22245747964E+04  0.22245747964E+04  0.25500000920E-02 0. -1.
    10030    2    1    2    0    0  0.00000000000E+00  0.00000000000E+00 -0.62296805109E+03  0.38261815418E+04  0.37751259579E+04 0.  0.
        1    1    3    3  502    0 -0.36988233543E+03  0.41341154350E+03 -0.21400940371E+04  0.22108198783E+04  0.50400001928E-02 0. -1.
       -1    1    3    3    0  502  0.36988233543E+03 -0.41341154350E+03  0.15171259861E+04  0.16153616635E+04  0.50400001928E-02 0.  1.
</event>
<event>
 5   0  0.1648000E-07  0.3735782E+04  0.7818609E-02  0.8060078E-01
        1   -1    0    0  501    0  0.00000000000E+00  0.00000000000E+00  0.29054848224E+04  0.29054848224E+04  0.50400001928E-02 0.  1.
       -1   -1    0    0    0  501  0.00000000000E+00  0.00000000000E+00 -0.12008379337E+04  0.12008379337E+04  0.50400001928E-02 0. -1.
    10030    2    1    2    0    0  0.00000000000E+00  0.00000000000E+00  0.17046468886E+04  0.41063227561E+04  0.37357817873E+04 0.  0.
        1    1    3    3  502    0 -0.11493700323E+04 -0.84841864990E+02 -0.76343162896E+03  0.13824172544E+04  0.50400001928E-02 0. -1.
       -1    1    3    3    0  502  0.11493700323E+04  0.84841864990E+02  0.24680785176E+04  0.27239055017E+04  0.50400001928E-02 0.  1.
</event>
<event>
 5   0  0.1648000E-07  0.3827211E+04  0.7818609E-02  0.8040341E-01
        1   -1    0    0  501    0  0.00000000000E+00  0.00000000000E+00  0.15058256058E+04  0.15058256058E+04  0.50400001928E-02 0.  1.
       -1   -1    0    0    0  501  0.00000000000E+00  0.00000000000E+00 -0.24318123519E+04  0.24318123519E+04  0.50400001928E-02 0. -1.
    10030    2    1    2    0    0  0.00000000000E+00  0.00000000000E+00 -0.92598674610E+03  0.39376379577E+04  0.38272106334E+04 0.  0.
        2    1    3    3  502    0 -0.87694109667E+03 -0.56714781710E+03 -0.21127565247E+04  0.23567822271E+04  0.25500000920E-02 0. -1.
       -2    1    3    3    0  502  0.87694109667E+03  0.56714781710E+03  0.11867697786E+04  0.15808557306E+04  0.25500000920E-02 0.  1.
</event>
<event>
 5   0  0.5325362E-07  0.3793708E+04  0.7818609E-02  0.8047506E-01
        2   -1    0    0  501    0  0.00000000000E+00  0.00000000000E+00  0.18714466580E+04  0.18714466580E+04  0.25500000920E-02 0. -1.
       -2   -1    0    0    0  501  0.00000000000E+00  0.00000000000E+00 -0.19226064198E+04  0.19226064198E+04  0.25500000920E-02 0.  1.
    10030    2    1    2    0    0  0.00000000000E+00  0.00000000000E+00 -0.51159761808E+02  0.37940530778E+04  0.37937081379E+04 0.  0.
        4    1    3    3  502    0  0.56123581653E+03 -0.14375394129E+03 -0.18319564193E+04  0.19213840773E+04  0.12699999809E+01 0.  1.
       -4    1    3    3    0  502 -0.56123581653E+03  0.14375394129E+03  0.17807966575E+04  0.18726690005E+04  0.12699999809E+01 0. -1.
</event>
<event>
 5   0  0.5158266E-07  0.3808452E+04  0.7818609E-02  0.8044344E-01
        2   -1    0    0  501    0  0.00000000000E+00  0.00000000000E+00  0.13791666917E+04  0.13791666917E+04  0.25500000920E-02 0. -1.
       -2   -1    0    0    0  501  0.00000000000E+00  0.00000000000E+00 -0.26291788811E+04  0.26291788811E+04  0.25500000920E-02 0.  1.
    10030    2    1    2    0    0  0.00000000000E+00  0.00000000000E+00 -0.12500121894E+04  0.40083455728E+04  0.38084516220E+04 0.  0.
        2    1    3    3  502    0  0.14062843216E+04  0.58215480011E+02  0.72490894705E+03  0.15831985400E+04  0.25500000920E-02 0. -1.
       -2    1    3    3    0  502 -0.14062843216E+04 -0.58215480011E+02 -0.19749211365E+04  0.24251470328E+04  0.25500000920E-02 0.  1.
</event>
<event>
 5   0  0.5325362E-07  0.3797141E+04  0.7818609E-02  0.8046769E-01
       -2   -1    0    0    0  501  0.00000000000E+00  0.00000000000E+00  0.20621584079E+04  0.20621584079E+04  0.25500000920E-02 0.  1.
        2   -1    0    0  501    0  0.00000000000E+00  0.00000000000E+00 -0.17479593906E+04  0.17479593906E+04  0.25500000920E-02 0. -1.
    10030    2    1    2    0    0  0.00000000000E+00  0.00000000000E+00  0.31419901733E+03  0.38101177985E+04  0.37971405842E+04 0.  0.
        4    1    3    3  502    0 -0.15395666177E+03  0.65687737999E+03  0.19378130114E+04  0.20519043414E+04  0.12699999809E+01 0.  1.
       -4    1    3    3    0  502  0.15395666177E+03 -0.65687737999E+03 -0.16236139941E+04  0.17582134571E+04  0.12699999809E+01 0. -1.
</event>
<event>
 5   0  0.1648000E-07  0.3771387E+04  0.7818609E-02  0.8052323E-01
        1   -1    0    0  501    0  0.00000000000E+00  0.00000000000E+00  0.13062971053E+04  0.13062971053E+04  0.50400001928E-02 0.  1.
       -1   -1    0    0    0  501  0.00000000000E+00  0.00000000000E+00 -0.27220763640E+04  0.27220763640E+04  0.50400001928E-02 0. -1.
    10030    2    1    2    0    0  0.00000000000E+00  0.00000000000E+00 -0.14157792587E+04  0.40283734693E+04  0.37713872645E+04 0.  0.
        2    1    3    3  502    0  0.23678145723E+02 -0.13198446448E+04  0.73045256941E+03  0.15086787257E+04  0.25500000920E-02 0.  1.
       -2    1    3    3    0  502 -0.23678145723E+02  0.13198446448E+04 -0.21462318281E+04  0.25196947437E+04  0.25500000920E-02 0. -1.
</event>
<event>
 5   0  0.5202788E-07  0.3805954E+04  0.7818609E-02  0.8044878E-01
       -2   -1    0    0    0  501  0.00000000000E+00  0.00000000000E+00  0.18235087700E+04  0.18235087701E+04  0.25500000920E-02 0.  1.
        2   -1    0    0  501    0  0.00000000000E+00  0.00000000000E+00 -0.19859089060E+04  0.19859089060E+04  0.25500000920E-02 0. -1.
    10030    2    1    2    0    0  0.00000000000E+00  0.00000000000E+00 -0.16240013593E+03  0.38094176760E+04  0.38059544435E+04 0.  0.
        1    1    3    3  502    0 -0.94412277699E+02  0.10535481300E+04 -0.16645513377E+04  0.19722090397E+04  0.50400001928E-02 0. -1.
       -1    1    3    3    0  502  0.94412277699E+02 -0.10535481300E+04  0.15021512018E+04  0.18372086363E+04  0.50400001928E-02 0.  1.
</event>
<event>
 5   0  0.1648000E-07  0.3810602E+04  0.7818609E-02  0.8043884E-01
       -1   -1    0    0    0  501  0.00000000000E+00  0.00000000000E+00  0.17761548977E+04  0.17761548977E+04  0.50400001928E-02 0.  1.
        1   -1    0    0  501    0  0.00000000000E+00  0.00000000000E+00 -0.20438374609E+04  0.20438374609E+04  0.50400001928E-02 0. -1.
    10030    2    1    2    0    0  0.00000000000E+00  0.00000000000E+00 -0.26768256317E+03  0.38199923586E+04  0.38106020082E+04 0.  0.
        4    1    3    3  502    0 -0.76174526806E+03 -0.11630827691E+04  0.11721172602E+04  0.18184822973E+04  0.12699999809E+01 0. -1.
       -4    1    3    3    0  502  0.76174526806E+03  0.11630827691E+04 -0.14397998234E+04  0.20015100613E+04  0.12699999809E+01 0.  1.
</event>
<event>
 5   0  0.1648000E-07  0.3770943E+04  0.7818609E-02  0.8052419E-01
        1   -1    0    0  501    0  0.00000000000E+00  0.00000000000E+00  0.19029205781E+04  0.19029205781E+04  0.50400001928E-02 0. -1.
       -1   -1    0    0    0  501  0.00000000000E+00  0.00000000000E+00 -0.18681820902E+04  0.18681820902E+04  0.50400001928E-02 0.  1.
    10030    2    1    2    0    0  0.00000000000E+00  0.00000000000E+00  0.34738487905E+02  0.37711026683E+04  0.37709426636E+04 0.  0.
        2    1    3    3  502    0  0.25862638959E+03  0.45817467173E+03  0.18280234636E+04  0.19022306439E+04  0.25500000920E-02 0. -1.
       -2    1    3    3    0  502 -0.25862638959E+03 -0.45817467173E+03 -0.17932849757E+04  0.18688720243E+04  0.25500000920E-02 0.  1.
</event>
<event>
 5   0  0.1648000E-07  0.3820777E+04  0.7818609E-02  0.8041711E-01
       -1   -1    0    0    0  501  0.00000000000E+00  0.00000000000E+00  0.23819830954E+04  0.23819830954E+04  0.50400001928E-02 0. -1.
        1   -1    0    0  501    0  0.00000000000E+00  0.00000000000E+00 -0.15321621946E+04  0.15321621946E+04  0.50400001928E-02 0.  1.
    10030    2    1    2    0    0  0.00000000000E+00  0.00000000000E+00  0.84982090084E+03  0.39141452900E+04  0.38207771183E+04 0.  0.
        1    1    3    3  502    0  0.29133612362E+02  0.44430904618E+03  0.23280830490E+04  0.23702805697E+04  0.50400001928E-02 0. -1.
       -1    1    3    3    0  502 -0.29133612362E+02 -0.44430904618E+03 -0.14782621482E+04  0.15438647203E+04  0.50400001928E-02 0.  1.
</event>
<event>
 5   0  0.5202788E-07  0.3436950E+04  0.7818609E-02  0.8128897E-01
        2   -1    0    0  501    0  0.00000000000E+00  0.00000000000E+00  0.21708688036E+04  0.21708688036E+04  0.25500000920E-02 0.  1.
       -2   -1    0    0    0  501  0.00000000000E+00  0.00000000000E+00 -0.13603568289E+04  0.13603568290E+04  0.25500000920E-02 0. -1.
    10030    2    1    2    0    0  0.00000000000E+00  0.00000000000E+00  0.81051197464E+03  0.35312256325E+04  0.34369499279E+04 0.  0.
        1    1    3    3  502    0  0.60097514238E+03  0.53737971578E+03  0.19645171249E+04  0.21235055014E+04  0.50400001928E-02 0.  1.
       -1    1    3    3    0  502 -0.60097514238E+03 -0.53737971578E+03 -0.11540051502E+04  0.14077201311E+04  0.50400001928E-02 0. -1.
</event>
<event>
 5   0  0.1648000E-07  0.3629074E+04  0.7818609E-02  0.8083864E-01
       -1   -1    0    0    0  501  0.00000000000E+00  0.00000000000E+00  0.13512630905E+04  0.13512630905E+04  0.50400001928E-02 0.  1.
        1   -1    0    0  501    0  0.00000000000E+00  0.00000000000E+00 -0.24366416524E+04  0.24366416524E+04  0.50400001928E-02 0. -1.
    10030    2    1    2    0    0  0.00000000000E+00  0.00000000000E+00 -0.10853785618E+04  0.37879047429E+04  0.36290736723E+04 0.  0.
        3    1    3    3  502    0  0.87665415741E+03 -0.15407586343E+04 -0.94705171986E+03  0.20098175667E+04  0.10100000352E+00 0.  1.
       -3    1    3    3    0  502 -0.87665415741E+03  0.15407586343E+04 -0.13832684198E+03  0.17780871763E+04  0.10100000352E+00 0. -1.
</event>
<event>
 5   0  0.1656617E-07  0.3769185E+04  0.7818609E-02  0.8052800E-01
       -1   -1    0    0    0  501  0.00000000000E+00  0.00000000000E+00  0.22351038743E+04  0.22351038743E+04  0.50400001928E-02 0.  1.
        1   -1    0    0  501    0  0.00000000000E+00  0.00000000000E+00 -0.15890487737E+04  0.15890487738E+04  0.50400001928E-02 0. -1.
    10030    2    1    2    0    0  0.00000000000E+00  0.00000000000E+00  0.64605510059E+03  0.38241526481E+04  0.37691850953E+04 0.  0.
        5    1    3    3  502    0 -0.12617834515E+04  0.32146743422E+03 -0.10592760418E+04  0.16785489604E+04  0.46999998093E+01 0. -1.
       -5    1    3    3    0  502  0.12617834515E+04 -0.32146743422E+03  0.17053311424E+04  0.21456036877E+04  0.46999998093E+01 0.  1.
</event>
<event>
 5   0  0.1648000E-07  0.3622257E+04  0.7818609E-02  0.8085412E-01
       -1   -1    0    0    0  501  0.00000000000E+00  0.00000000000E+00  0.17177108628E+04  0.17177108628E+04  0.50400001928E-02 0.  1.
        1   -1    0    0  501    0  0.00000000000E+00  0.00000000000E+00 -0.19096267641E+04  0.19096267641E+04  0.50400001928E-02 0. -1.
    10030    2    1    2    0    0  0.00000000000E+00  0.00000000000E+00 -0.19191590137E+03  0.36273376269E+04  0.36222571066E+04 0.  0.
        3    1    3    3  502    0 -0.14452310332E+04 -0.10058260223E+04  0.32867441420E+03  0.17912022798E+04  0.10100000352E+00 0. -1.
       -3    1    3    3    0  502  0.14452310332E+04  0.10058260223E+04 -0.52059031557E+03  0.18361353472E+04  0.10100000352E+00 0.  1.
</event>
<event>
 5   0  0.5158266E-07  0.2869784E+04  0.7818609E-02  0.8281925E-01
        2   -1    0    0  501    0  0.00000000000E+00  0.00000000000E+00  0.20551394807E+04  0.20551394807E+04  0.25500000920E-02 0.  1.
       -2   -1    0    0    0  501  0.00000000000E+00  0.00000000000E+00 -0.10018372627E+04  0.10018372627E+04  0.25500000920E-02 0. -1.
    10030    2    1    2    0    0  0.00000000000E+00  0.00000000000E+00  0.10533022180E+04  0.30569767434E+04  0.28697841813E+04 0.  0.
        2    1    3    3  502    0 -0.48705643394E+03  0.11262596701E+04 -0.26566038078E+03  0.12554920359E+04  0.25500000920E-02 0. -1.
       -2    1    3    3    0  502  0.48705643394E+03 -0.11262596701E+04  0.13189625987E+04  0.18014847075E+04  0.25500000920E-02 0.  1.
</event>
<event>
 5   0  0.5158266E-07  0.3803763E+04  0.7818609E-02  0.8045348E-01
       -2   -1    0    0    0  501  0.00000000000E+00  0.00000000000E+00  0.13889145107E+04  0.13889145107E+04  0.25500000920E-02 0.  1.
        2   -1    0    0  501    0  0.00000000000E+00  0.00000000000E+00 -0.26043020938E+04  0.26043020938E+04  0.25500000920E-02 0. -1.
    10030    2    1    2    0    0  0.00000000000E+00  0.00000000000E+00 -0.12153875831E+04  0.39932166044E+04  0.38037628571E+04 0.  0.
        2    1    3    3  502    0  0.34305268984E+03  0.18645054522E+04 -0.76720655246E+03  0.20451580926E+04  0.25500000920E-02 0. -1.
       -2    1    3    3    0  502 -0.34305268984E+03 -0.18645054522E+04 -0.44818103064E+03  0.19480585119E+04  0.25500000920E-02 0.  1.
</event>
<event>
 5   0  0.5325362E-07  0.3849286E+04  0.7818609E-02  0.8035660E-01
       -2   -1    0    0    0  501  0.00000000000E+00  0.00000000000E+00  0.16492476075E+04  0.16492476075E+04  0.25500000920E-02 0. -1.
        2   -1    0    0  501    0  0.00000000000E+00  0.00000000000E+00 -0.22460248627E+04  0.22460248627E+04  0.25500000920E-02 0.  1.
    10030    2    1    2    0    0  0.00000000000E+00  0.00000000000E+00 -0.59677725518E+03  0.38952724702E+04  0.38492862358E+04 0.  0.
        4    1    3    3  502    0 -0.11617318562E+04  0.15123293011E+04 -0.35499177393E+02  0.19073601195E+04  0.12699999809E+01 0.  1.
       -4    1    3    3    0  502  0.11617318562E+04 -0.15123293011E+04 -0.56127807778E+03  0.19879123508E+04  0.12699999809E+01 0. -1.
</event>
<event>
 5   0  0.1648000E-07  0.3797088E+04  0.7818609E-02  0.8046780E-01
        1   -1    0    0  501    0  0.00000000000E+00  0.00000000000E+00  0.20933760736E+04  0.20933760736E+04  0.50400001928E-02 0.  1.
       -1   -1    0    0    0  501  0.00000000000E+00  0.00000000000E+00 -0.17218453679E+04  0.17218453679E+04  0.50400001928E-02 0. -1.
    10030    2    1    2    0    0  0.00000000000E+00  0.00000000000E+00  0.37153070566E+03  0.38152214415E+04  0.37970883032E+04 0.  0.
        3    1    3    3  502    0 -0.18812850548E+03 -0.10190714813E+04 -0.14126082742E+04  0.17519592361E+04  0.10100000352E+00 0. -1.
       -3    1    3    3    0  502  0.18812850548E+03  0.10190714813E+04  0.17841389798E+04  0.20632622054E+04  0.10100000352E+00 0.  1.
</event>
<event>
 5   0  0.1648000E-07  0.3750113E+04  0.7818609E-02  0.8056946E-01
       -1   -1    0    0    0  501  0.00000000000E+00  0.00000000000E+00  0.17702432361E+04  0.17702432362E+04  0.50400001928E-02 0. -1.
        1   -1    0    0  501    0  0.00000000000E+00  0.00000000000E+00 -0.19860754189E+04  0.19860754189E+04  0.50400001928E-02 0.  1.
    10030    2    1    2    0    0  0.00000000000E+00  0.00000000000E+00 -0.21583218276E+03  0.37563186551E+04  0.37501128393E+04 0.  0.
        4    1    3    3  502    0  0.94810224966E+02  0.14902879595E+04  0.10279303626E+04  0.18128953705E+04  0.12699999809E+01 0. -1.
       -4    1    3    3    0  502 -0.94810224966E+02 -0.14902879595E+04 -0.12437625453E+04  0.19434232846E+04  0.12699999809E+01 0.  1.
</event>
<event>
 5   0  0.5134434E-07  0.3822751E+04  0.7818609E-02  0.8041290E-01
       -2   -1    0    0    0  501  0.00000000000E+00  0.00000000000E+00  0.15489101460E+04  0.15489101460E+04  0.25500000920E-02 0.  1.
        2   -1    0    0  501    0  0.00000000000E+00  0.00000000000E+00 -0.23586625312E+04  0.23586625312E+04  0.25500000920E-02 0. -1.
    10030    2    1    2    0    0  0.00000000000E+00  0.00000000000E+00 -0.80975238522E+03  0.39075726772E+04  0.38227510123E+04 0.  0.
        5    1    3    3  502    0  0.41418078260E+03 -0.26693191739E+03 -0.22926169943E+04  0.23449761495E+04  0.46999998093E+01 0. -1.
       -5    1    3    3    0  502 -0.41418078260E+03  0.26693191739E+03  0.14828646091E+04  0.15625965276E+04  0.46999998093E+01 0.  1.
</event>
<event>
 5   0  0.1656617E-07  0.3093209E+04  0.7818609E-02  0.8217604E-01
       -1   -1    0    0    0  501  0.00000000000E+00  0.00000000000E+00  0.17801331539E+04  0.17801331539E+04  0.50400001928E-02 0. -1.
        1   -1    0    0  501    0  0.00000000000E+00  0.00000000000E+00 -0.13437113754E+04  0.13437113754E+04  0.50400001928E-02 0.  1.
    10030    2    1    2    0    0  0.00000000000E+00  0.00000000000E+00  0.43642177848E+03  0.31238445293E+04  0.30932087990E+04 0.  0.
        5    1    3    3  502    0  0.54560792220E+03 -0.12692549042E+04 -0.48384837154E+03  0.14638399343E+04  0.46999998093E+01 0.  1.
       -5    1    3    3    0  502 -0.54560792220E+03  0.12692549042E+04  0.92027015002E+03  0.16600045950E+04  0.46999998093E+01 0. -1.
</event>
<event>
 5   0  0.1648000E-07  0.3738039E+04  0.7818609E-02  0.8059584E-01
       -1   -1    0    0    0  501  0.00000000000E+00  0.00000000000E+00  0.19964918834E+04  0.19964918834E+04  0.50400001928E-02 0.  1.
        1   -1    0    0  501    0  0.00000000000E+00  0.00000000000E+00 -0.17496863079E+04  0.17496863079E+04  0.50400001928E-02 0. -1.
    10030    2    1    2    0    0  0.00000000000E+00  0.00000000000E+00  0.24680557553E+03  0.37461781913E+04  0.37380393322E+04 0.  0.
        2    1    3    3  502    0  0.14874086427E+04 -0.39279913097E+03  0.11871085527E+04  0.19431681202E+04  0.25500000920E-02 0.  1.
       -2    1    3    3    0  502 -0.14874086427E+04  0.39279913097E+03 -0.94030297713E+03  0.18030100711E+04  0.25500000920E-02 0. -1.
</event>
<event>
 5   0  0.5132561E-07  0.3352920E+04  0.7818609E-02  0.8149559E-01
        2   -1    0    0  501    0  0.00000000000E+00  0.00000000000E+00  0.19148366535E+04  0.19148366535E+04  0.25500000920E-02 0. -1.
       -2   -1    0    0    0  501  0.00000000000E+00  0.00000000000E+00 -0.14677585706E+04  0.14677585706E+04  0.25500000920E-02 0.  1.
    10030    2    1    2    0    0  0.00000000000E+00  0.00000000000E+00  0.44707808287E+03  0.33825952241E+04  0.33529198675E+04 0.  0.
        3    1    3    3  502    0 -0.12922445316E+03 -0.16691492640E+04  0.13467038632E+03  0.16795518295E+04  0.10100000352E+00 0. -1.
       -3    1    3    3    0  502  0.12922445316E+03  0.16691492640E+04  0.31240769656E+03  0.17030433946E+04  0.10100000352E+00 0.  1.
</event>
<event>
 5   0  0.1648000E-07  0.3848230E+04  0.7818609E-02  0.8035883E-01
        1   -1    0    0  501    0  0.00000000000E+00  0.00000000000E+00  0.22499125535E+04  0.22499125535E+04  0.50400001928E-02 0.  1.
       -1   -1    0    0    0  501  0.00000000000E+00  0.00000000000E+00 -0.16454944078E+04  0.16454944078E+04  0.50400001928E-02 0. -1.
    10030    2    1    2    0    0  0.00000000000E+00  0.00000000000E+00  0.60441814568E+03  0.38954069613E+04  0.38482299957E+04 0.  0.
        3    1    3    3  502    0  0.17383717389E+04  0.58852015695E+03  0.88715683973E+03  0.20384649975E+04  0.10100000352E+00 0. -1.
       -3    1    3    3    0  502 -0.17383717389E+04 -0.58852015695E+03 -0.28273869404E+03  0.18569419638E+04  0.10100000352E+00 0.  1.
</event>
<event>
 5   0  0.1648000E-07  0.3751708E+04  0.7818609E-02  0.8056598E-01
        1   -1    0    0  501    0  0.00000000000E+00  0.00000000000E+00  0.20295792799E+04  0.20295792799E+04  0.50400001928E-02 0.  1.
       -1   -1    0    0    0  501  0.00000000000E+00  0.00000000000E+00 -0.17337724974E+04  0.17337724974E+04  0.50400001928E-02 0. -1.
    10030    2    1    2    0    0  0.00000000000E+00  0.00000000000E+00  0.29580678250E+03  0.37633517773E+04  0.37517082705E+04 0.  0.
        3    1    3    3  502    0 -0.14972012067E+04  0.11257541204E+04  0.24768539018E+03  0.18895189482E+04  0.10100000352E+00 0. -1.
       -3    1    3    3    0  502  0.14972012067E+04 -0.11257541204E+04  0.48121392320E+02  0.18738328291E+04  0.10100000352E+00 0.  1.
</event>
<event>
 5   0  0.1648000E-07  0.3808817E+04  0.7818609E-02  0.8044265E-01
        1   -1    0    0  501    0  0.00000000000E+00  0.00000000000E+00  0.25618651664E+04  0.25618651664E+04  0.50400001928E-02 0.  1.
       -1   -1    0    0    0  501  0.00000000000E+00  0.00000000000E+00 -0.14156763571E+04  0.14156763571E+04  0.50400001928E-02 0. -1.
    10030    2    1    2    0    0  0.00000000000E+00  0.00000000000E+00  0.11461888093E+04  0.39775415235E+04  0.38088171109E+04 0.  0.
        3    1    3    3  502    0  0.12881148151E+04  0.63212379205E+03  0.18807426600E+04  0.23655894041E+04  0.10100000352E+00 0.  1.
       -3    1    3    3    0  502 -0.12881148151E+04 -0.63212379205E+03 -0.73455385068E+03  0.16119521194E+04  0.10100000352E+00 0. -1.
</event>
<event>
 5   0  0.1648000E-07  0.3832916E+04  0.7818609E-02  0.8039128E-01
        1   -1    0    0  501    0  0.00000000000E+00  0.00000000000E+00  0.22377922036E+04  0.22377922036E+04  0.50400001928E-02 0.  1.
       -1   -1    0    0    0  501  0.00000000000E+00  0.00000000000E+00 -0.16412657027E+04  0.16412657027E+04  0.50400001928E-02 0. -1.
    10030    2    1    2    0    0  0.00000000000E+00  0.00000000000E+00  0.59652650086E+03  0.38790579063E+04  0.38329161711E+04 0.  0.
        2    1    3    3  502    0 -0.17683398131E+04 -0.65149564529E+03 -0.54268084698E+02  0.18853162322E+04  0.25500000920E-02 0. -1.
       -2    1    3    3    0  502  0.17683398131E+04  0.65149564529E+03  0.65079458556E+03  0.19937416741E+04  0.25500000920E-02 0.  1.
</event>
<event>
 5   0  0.1648000E-07  0.3787284E+04  0.7818609E-02  0.8048889E-01
       -1   -1    0    0    0  501  0.00000000000E+00  0.00000000000E+00  0.11888209652E+04  0.11888209653E+04  0.50400001928E-02 0.  1.
        1   -1    0    0  501    0  0.00000000000E+00  0.00000000000E+00 -0.30163331453E+04  0.30163331453E+04  0.50400001928E-02 0. -1.
    10030    2    1    2    0    0  0.00000000000E+00  0.00000000000E+00 -0.18275121800E+04  0.42051541106E+04  0.37872840302E+04 0.  0.
        4    1    3    3  502    0 -0.21531834963E+02  0.24826135619E+03 -0.29980478123E+04  0.30083865474E+04  0.12699999809E+01 0. -1.
       -4    1    3    3    0  502  0.21531834963E+02 -0.24826135619E+03  0.11705356323E+04  0.11967675631E+04  0.12699999809E+01 0.  1.
</event>
<event>
 5   0  0.1648000E-07  0.4346971E+04  0.7818609E-02  0.7937989E-01
       -1   -1    0    0    0  501  0.00000000000E+00  0.00000000000E+00  0.20987024263E+04  0.20987024263E+04  0.50400001928E-02 0.  1.
        1   -1    0    0  501    0  0.00000000000E+00  0.00000000000E+00 -0.22509335116E+04  0.22509335116E+04  0.50400001928E-02 0. -1.
    10030    2    1    2    0    0  0.00000000000E+00  0.00000000000E+00 -0.15223108535E+03  0.43496359379E+04  0.43469711857E+04 0.  0.
        4    1    3    3  502    0 -0.77274363896E+02 -0.18427927951E+04  0.10744508063E+04  0.21345497795E+04  0.12699999809E+01 0.  1.
       -4    1    3    3    0  502  0.77274363896E+02  0.18427927951E+04 -0.12266818916E+04  0.22150861584E+04  0.12699999809E+01 0. -1.
</event>
<event>
 5   0  0.5132561E-07  0.3780769E+04  0.7818609E-02  0.8050295E-01
       -2   -1    0    0    0  501  0.00000000000E+00  0.00000000000E+00  0.15967832211E+04  0.15967832211E+04  0.25500000920E-02 0.  1.
        2   -1    0    0  501    0  0.00000000000E+00  0.00000000000E+00 -0.22379699245E+04  0.22379699245E+04  0.25500000920E-02 0. -1.
    10030    2    1    2    0    0  0.00000000000E+00  0.00000000000E+00 -0.64118670342E+03  0.38347531456E+04  0.37807686122E+04 0.  0.
        3    1    3    3  502    0  0.12690226647E+04  0.10252080468E+04 -0.12892601964E+04  0.20793417052E+04  0.10100000352E+00 0. -1.
       -3    1    3    3    0  502 -0.12690226647E+04 -0.10252080468E+04  0.64807349295E+03  0.17554114404E+04  0.10100000352E+00 0.  1.
</event>
<event>
 5   0  0.5325362E-07  0.3785768E+04  0.7818609E-02  0.8049216E-01
        2   -1    0    0  501    0  0.00000000000E+00  0.00000000000E+00  0.14812306345E+04  0.14812306345E+04  0.25500000920E-02 0.  1.
       -2   -1    0    0    0  501  0.00000000000E+00  0.00000000000E+00 -0.24189414495E+04  0.24189414495E+04  0.25500000920E-02 0. -1.
    10030    2    1    2    0    0  0.00000000000E+00  0.00000000000E+00 -0.93771081503E+03  0.39001720840E+04  0.37857681800E+04 0.  0.
        4    1    3    3  502    0 -0.18677720449E+04 -0.21516410553E+01 -0.15227192484E+03  0.18739704889E+04  0.12699999809E+01 0.  1.
       -4    1    3    3    0  502  0.18677720449E+04  0.21516410553E+01 -0.78543889019E+03  0.20262015952E+04  0.12699999809E+01 0. -1.
</event>
<event>
 5   0  0.5325362E-07  0.3802852E+04  0.7818609E-02  0.8045543E-01
       -2   -1    0    0    0  501  0.00000000000E+00  0.00000000000E+00  0.16212468062E+04  0.16212468062E+04  0.25500000920E-02 0. -1.
        2   -1    0    0  501    0  0.00000000000E+00  0.00000000000E+00 -0.22300251155E+04  0.22300251155E+04  0.25500000920E-02 0.  1.
    10030    2    1    2    0    0  0.00000000000E+00  0.00000000000E+00 -0.60877830934E+03  0.38512719217E+04  0.38028521382E+04 0.  0.
        4    1    3    3  502    0 -0.45977691052E+03 -0.63749614027E+03  0.14490200218E+04  0.16484710409E+04  0.12699999809E+01 0. -1.
       -4    1    3    3    0  502  0.45977691052E+03  0.63749614027E+03 -0.20577983311E+04  0.22028008808E+04  0.12699999809E+01 0.  1.
</event>
<event>
 5   0  0.1656617E-07  0.3722874E+04  0.7818609E-02  0.8062911E-01
       -1   -1    0    0    0  501  0.00000000000E+00  0.00000000000E+00  0.11266656158E+04  0.11266656158E+04  0.50400001928E-02 0. -1.
        1   -1    0    0  501    0  0.00000000000E+00  0.00000000000E+00 -0.30754007777E+04  0.30754007777E+04  0.50400001928E-02 0.  1.
    10030    2    1    2    0    0  0.00000000000E+00  0.00000000000E+00 -0.19487351619E+04  0.42020663935E+04  0.37228743256E+04 0.  0.
        5    1    3    3  502    0 -0.12259351122E+04  0.13330692002E+04 -0.48897284331E+03  0.18759282831E+04  0.46999998093E+01 0. -1.
       -5    1    3    3    0  502  0.12259351122E+04 -0.13330692002E+04 -0.14597623186E+04  0.23261381104E+04  0.46999998093E+01 0.  1.
</event>
<event>
 5   0  0.1648000E-07  0.3789329E+04  0.7818609E-02  0.8048449E-01
       -1   -1    0    0    0  501  0.00000000000E+00  0.00000000000E+00  0.25998117261E+04  0.25998117261E+04  0.50400001928E-02 0.  1.
        1   -1    0    0  501    0  0.00000000000E+00  0.00000000000E+00 -0.13807742166E+04  0.13807742166E+04  0.50400001928E-02 0. -1.
    10030    2    1    2    0    0  0.00000000000E+00  0.00000000000E+00  0.12190375095E+04  0.39805859428E+04  0.37893287002E+04 0.  0.
        3    1    3    3  502    0  0.69822321456E+03  0.93979044748E+03  0.21743461283E+04  0.24695146970E+04  0.10100000352E+00 0.  1.
       -3    1    3    3    0  502 -0.69822321456E+03 -0.93979044748E+03 -0.95530861883E+03  0.15110712458E+04  0.10100000352E+00 0. -1.
</event>
<event>
 5   0  0.5325362E-07  0.3804679E+04  0.7818609E-02  0.8045152E-01
       -2   -1    0    0    0  501  0.00000000000E+00  0.00000000000E+00  0.25814879066E+04  0.25814879066E+04  0.25500000920E-02 0.  1.
        2   -1    0    0  501    0  0.00000000000E+00  0.00000000000E+00 -0.14018643279E+04  0.14018643279E+04  0.25500000920E-02 0. -1.
    10030    2    1    2    0    0  0.00000000000E+00  0.00000000000E+00  0.11796235788E+04  0.39833522345E+04  0.38046791240E+04 0.  0.
        4    1    3    3  502    0 -0.15267971767E+04 -0.96940501945E+03 -0.27840863416E+02  0.18087654456E+04  0.12699999809E+01 0. -1.
       -4    1    3    3    0  502  0.15267971767E+04  0.96940501945E+03  0.12074644422E+04  0.21745867889E+04  0.12699999809E+01 0.  1.
</event>
<event>
 5   0  0.5134434E-07  0.3779372E+04  0.7818609E-02  0.8050596E-01
       -2   -1    0    0    0  501  0.00000000000E+00  0.00000000000E+00  0.15832821421E+04  0.15832821421E+04  0.25500000920E-02 0. -1.
        2   -1    0    0  501    0  0.00000000000E+00  0.00000000000E+00 -0.22553864678E+04  0.22553864678E+04  0.25500000920E-02 0.  1.
    10030    2    1    2    0    0  0.00000000000E+00  0.00000000000E+00 -0.67210432577E+03  0.38386686099E+04  0.37793719679E+04 0.  0.
        5    1    3    3  502    0  0.36361291390E+03 -0.87884472848E+03  0.13224505726E+04  0.16289505870E+04  0.46999998093E+01 0. -1.
       -5    1    3    3    0  502 -0.36361291390E+03  0.87884472848E+03 -0.19945548984E+04  0.22097180229E+04  0.46999998093E+01 0.  1.
</event>
<event>
 5   0  0.1656617E-07  0.3450676E+04  0.7818609E-02  0.8125580E-01
        1   -1    0    0  501    0  0.00000000000E+00  0.00000000000E+00  0.22226245648E+04  0.22226245648E+04  0.50400001928E-02 0. -1.
       -1   -1    0    0    0  501  0.00000000000E+00  0.00000000000E+00 -0.13393137363E+04  0.13393137363E+04  0.50400001928E-02 0.  1.
    10030    2    1    2    0    0  0.00000000000E+00  0.00000000000E+00  0.88331082846E+03  0.35619383011E+04  0.34506762295E+04 0.  0.
        5    1    3    3  502    0  0.28281470819E+03  0.10241861689E+04  0.18448340326E+04  0.21289378022E+04  0.46999998093E+01 0. -1.
       -5    1    3    3    0  502 -0.28281470819E+03 -0.10241861689E+04 -0.96152320415E+03  0.14330004989E+04  0.46999998093E+01 0.  1.
</event>
<event>
 5   0  0.1648000E-07  0.3889565E+04  0.7818609E-02  0.8027203E-01
       -1   -1    0    0    0  501  0.00000000000E+00  0.00000000000E+00  0.22129767132E+04  0.22129767132E+04  0.50400001928E-02 0. -1.
        1   -1    0    0  501    0  0.00000000000E+00  0.00000000000E+00 -0.17090908276E+04  0.17090908276E+04  0.50400001928E-02 0.  1.
    10030    2    1    2    0    0  0.00000000000E+00  0.00000000000E+00  0.50388588564E+03  0.39220675408E+04  0.38895646041E+04 0.  0.
        3    1    3    3  502    0  0.85910396396E+03 -0.37448796621E+03  0.19702596486E+04  0.21817937461E+04  0.10100000352E+00 0. -1.
       -3    1    3    3    0  502 -0.85910396396E+03  0.37448796621E+03 -0.14663737629E+04  0.17402737947E+04  0.10100000352E+00 0.  1.
</event>
<event>
 5   0  0.5158266E-07  0.3773686E+04  0.7818609E-02  0.8051826E-01
       -2   -1    0    0    0  501  0.00000000000E+00  0.00000000000E+00  0.22979395137E+04  0.22979395137E+04  0.25500000920E-02 0. -1.
        2   -1    0    0  501    0  0.00000000000E+00  0.00000000000E+00 -0.15492906440E+04  0.15492906440E+04  0.25500000920E-02 0.  1.
    10030    2    1    2    0    0  0.00000000000E+00  0.00000000000E+00  0.74864886971E+03  0.38472301577E+04  0.37736858316E+04 0.  0.
        2    1    3    3  502    0 -0.17118674335E+04 -0.88328888969E+02 -0.42964057714E+03  0.17671681098E+04  0.25500000920E-02 0. -1.
       -2    1    3    3    0  502  0.17118674335E+04  0.88328888969E+02  0.11782894468E+04  0.20800620479E+04  0.25500000920E-02 0.  1.
</event>
<event>
 5   0  0.5134434E-07  0.3939459E+04  0.7818609E-02  0.8016872E-01
        2   -1    0    0  501    0  0.00000000000E+00  0.00000000000E+00  0.19481557293E+04  0.19481557293E+04  0.25500000920E-02 0.  1.
       -2   -1    0    0    0  501  0.00000000000E+00  0.00000000000E+00 -0.19915423996E+04  0.19915423996E+04  0.25500000920E-02 0. -1.
    10030    2    1    2    0    0  0.00000000000E+00  0.00000000000E+00 -0.43386670328E+02  0.39396981289E+04  0.39394592197E+04 0.  0.
        5    1    3    3  502    0  0.81645453219E+03  0.66414671035E+03 -0.16867639138E+04  0.19881859689E+04  0.46999998093E+01 0. -1.
       -5    1    3    3    0  502 -0.81645453219E+03 -0.66414671035E+03  0.16433772435E+04  0.19515121600E+04  0.46999998093E+01 0.  1.
</event>
<event>
 5   0  0.5202788E-07  0.3728482E+04  0.7818609E-02  0.8061679E-01
       -2   -1    0    0    0  501  0.00000000000E+00  0.00000000000E+00  0.99893321132E+03  0.99893321133E+03  0.25500000920E-02 0.  1.
        2   -1    0    0  501    0  0.00000000000E+00  0.00000000000E+00 -0.34791051562E+04  0.34791051562E+04  0.25500000920E-02 0. -1.
    10030    2    1    2    0    0  0.00000000000E+00  0.00000000000E+00 -0.24801719449E+04  0.44780383676E+04  0.37284815602E+04 0.  0.
        1    1    3    3  502    0  0.12258019020E+03  0.17060986383E+04 -0.21304698427E+04  0.27321603572E+04  0.50400001928E-02 0. -1.
       -1    1    3    3    0  502 -0.12258019020E+03 -0.17060986383E+04 -0.34970210224E+03  0.17458780104E+04  0.50400001928E-02 0.  1.
</event>
<event>
 5   0  0.5325362E-07  0.3204567E+04  0.7818609E-02  0.8187612E-01
        2   -1    0    0  501    0  0.00000000000E+00  0.00000000000E+00  0.18153205494E+04  0.18153205494E+04  0.25500000920E-02 0. -1.
       -2   -1    0    0    0  501  0.00000000000E+00  0.00000000000E+00 -0.14142476851E+04  0.14142476851E+04  0.25500000920E-02 0.  1.
    10030    2    1    2    0    0  0.00000000000E+00  0.00000000000E+00  0.40107286432E+03  0.32295682345E+04  0.32045672936E+04 0.  0.
        4    1    3    3  502    0 -0.12441447817E+04 -0.97190907556E+03  0.47618037965E+03  0.16490157233E+04  0.12699999809E+01 0. -1.
       -4    1    3    3    0  502  0.12441447817E+04  0.97190907556E+03 -0.75107515331E+02  0.15805525112E+04  0.12699999809E+01 0.  1.
</event>
<event>
 5   0  0.5134434E-07  0.3817996E+04  0.7818609E-02  0.8042304E-01
       -2   -1    0    0    0  501  0.00000000000E+00  0.00000000000E+00  0.22433092657E+04  0.22433092657E+04  0.25500000920E-02 0.  1.
        2   -1    0    0  501    0  0.00000000000E+00  0.00000000000E+00 -0.16245079051E+04  0.16245079051E+04  0.25500000920E-02 0. -1.
    10030    2    1    2    0    0  0.00000000000E+00  0.00000000000E+00  0.61880136067E+03  0.38678171708E+04  0.38179961423E+04 0.  0.
        5    1    3    3  502    0 -0.28879354332E+03 -0.10230626245E+04  0.19157120467E+04  0.21908978936E+04  0.46999998093E+01 0.  1.
       -5    1    3    3    0  502  0.28879354332E+03  0.10230626245E+04 -0.12969106861E+04  0.16769192771E+04  0.46999998093E+01 0. -1.
</event>
<event>
 5   0  0.5132561E-07  0.3772851E+04  0.7818609E-02  0.8052006E-01
       -2   -1    0    0    0  501  0.00000000000E+00  0.00000000000E+00  0.20183926181E+04  0.20183926181E+04  0.25500000920E-02 0. -1.
        2   -1    0    0  501    0  0.00000000000E+00  0.00000000000E+00 -0.17630871415E+04  0.17630871415E+04  0.25500000920E-02 0.  1.
    10030    2    1    2    0    0  0.00000000000E+00  0.00000000000E+00  0.25530547665E+03  0.37814797596E+04  0.37728514795E+04 0.  0.
        3    1    3    3  502    0  0.33741245879E+03  0.16402480378E+04  0.99816722881E+03  0.19495124057E+04  0.10100000352E+00 0. -1.
       -3    1    3    3    0  502 -0.33741245879E+03 -0.16402480378E+04 -0.74286175216E+03  0.18319673540E+04  0.10100000352E+00 0.  1.
</event>
<event>
 5   0  0.1648000E-07  0.3043205E+04  0.7818609E-02  0.8231500E-01
       -1   -1    0    0    0  501  0.00000000000E+00  0.00000000000E+00  0.16013298128E+04  0.16013298128E+04  0.50400001928E-02 0. -1.
        1   -1    0    0  501    0  0.00000000000E+00  0.00000000000E+00 -0.14458446077E+04  0.14458446078E+04  0.50400001928E-02 0.  1.
    10030    2    1    2    0    0  0.00000000000E+00  0.00000000000E+00  0.15548520501E+03  0.30471744205E+04  0.30432049389E+04 0.  0.
        4    1    3    3  502    0  0.50597527188E+03 -0.99169157342E+03 -0.96082258964E+03  0.14705933545E+04  0.12699999809E+01 0.  1.
       -4    1    3    3    0  502 -0.50597527188E+03  0.99169157342E+03  0.11163077946E+04  0.15765810661E+04  0.12699999809E+01 0. -1.
</event>
<event>
 5   0  0.5134434E-07  0.3787474E+04  0.7818609E-02  0.8048848E-01
       -2   -1    0    0    0  501  0.00000000000E+00  0.00000000000E+00  0.13095021571E+04  0.13095021571E+04  0.25500000920E-02 0.  1.
        2   -1    0    0  501    0  0.00000000000E+00  0.00000000000E+00 -0.27386285733E+04  0.27386285733E+04  0.25500000920E-02 0. -1.
    10030    2    1    2    0    0  0.00000000000E+00  0.00000000000E+00 -0.14291264162E+04  0.40481307303E+04  0.37874741050E+04 0.  0.
        5    1    3    3  502    0 -0.37815658210E+03 -0.13650622350E+03  0.12633563068E+04  0.13257931956E+04  0.46999998093E+01 0.  1.
       -5    1    3    3    0  502  0.37815658210E+03  0.13650622350E+03 -0.26924827230E+04  0.27223375347E+04  0.46999998093E+01 0. -1.
</event>
<event>
 5   0  0.1656617E-07  0.3795401E+04  0.7818609E-02  0.8047142E-01
        1   -1    0    0  501    0  0.00000000000E+00  0.00000000000E+00  0.23681596318E+04  0.23681596318E+04  0.50400001928E-02 0. -1.
       -1   -1    0    0    0  501  0.00000000000E+00  0.00000000000E+00 -0.15207031584E+04  0.15207031584E+04  0.50400001928E-02 0.  1.
    10030    2    1    2    0    0  0.00000000000E+00  0.00000000000E+00  0.84745647345E+03  0.38888627902E+04  0.37954013393E+04 0.  0.
        5    1    3    3  502    0  0.24687291908E+03  0.10009812206E+04 -0.12087202172E+04  0.15886901194E+04  0.46999998093E+01 0.  1.
       -5    1    3    3    0  502 -0.24687291908E+03 -0.10009812206E+04  0.20561766907E+04  0.23001726708E+04  0.46999998093E+01 0. -1.
</event>
<event>
 5   0  0.1656617E-07  0.3878623E+04  0.7818609E-02  0.8029490E-01
       -1   -1    0    0    0  501  0.00000000000E+00  0.00000000000E+00  0.28781378873E+04  0.28781378873E+04  0.50400001928E-02 0.  1.
        1   -1    0    0  501    0  0.00000000000E+00  0.00000000000E+00 -0.13067228913E+04  0.13067228914E+04  0.50400001928E-02 0. -1.
    10030    2    1    2    0    0  0.00000000000E+00  0.00000000000E+00  0.15714149960E+04  0.41848607787E+04  0.38786227772E+04 0.  0.
        5    1    3    3  502    0 -0.17257162975E+04 -0.69380273423E+03  0.13780997709E+04  0.23148736558E+04  0.46999998093E+01 0.  1.
       -5    1    3    3    0  502  0.17257162975E+04  0.69380273423E+03  0.19331522508E+03  0.18699871229E+04  0.46999998093E+01 0. -1.
</event>
<event>
 5   0  0.1656617E-07  0.3791047E+04  0.7818609E-02  0.8048079E-01
        1   -1    0    0  501    0  0.00000000000E+00  0.00000000000E+00  0.15383104465E+04  0.15383104465E+04  0.50400001928E-02 0.  1.
       -1   -1    0    0    0  501  0.00000000000E+00  0.00000000000E+00 -0.23356854335E+04  0.23356854335E+04  0.50400001928E-02 0. -1.
    10030    2    1    2    0    0  0.00000000000E+00  0.00000000000E+00 -0.79737498695E+03  0.38739958800E+04  0.37910469805E+04 0.  0.
        5    1    3    3  502    0  0.96895750590E+02  0.12529721835E+04  0.10513958572E+04  0.16385308717E+04  0.46999998093E+01 0.  1.
       -5    1    3    3    0  502 -0.96895750590E+02 -0.12529721835E+04 -0.18487708441E+04  0.22354650083E+04  0.46999998093E+01 0. -1.
</event>
<event>
 5   0  0.1648000E-07  0.3799209E+04  0.7818609E-02  0.8046325E-01
       -1   -1    0    0    0  501  0.00000000000E+00  0.00000000000E+00  0.15516889363E+04  0.15516889363E+04  0.50400001928E-02 0.  1.
        1   -1    0    0  501    0  0.00000000000E+00  0.00000000000E+00 -0.23255287134E+04  0.23255287134E+04  0.50400001928E-02 0. -1.
    10030    2    1    2    0    0  0.00000000000E+00  0.00000000000E+00 -0.77383977716E+03  0.38772176497E+04  0.37992089574E+04 0.  0.
        1    1    3    3  502    0  0.16842322298E+04  0.39664864520E+03  0.41309511059E+03  0.17789367392E+04  0.50400001928E-02 0.  1.
       -1    1    3    3    0  502 -0.16842322298E+04 -0.39664864520E+03 -0.11869348877E+04  0.20982809105E+04  0.50400001928E-02 0. -1.
</event>
<event>
 5   0  0.5132561E-07  0.3237079E+04  0.7818609E-02  0.8179093E-01
        2   -1    0    0  501    0  0.00000000000E+00  0.00000000000E+00  0.11854341884E+04  0.11854341884E+04  0.25500000920E-02 0.  1.
       -2   -1    0    0    0  501  0.00000000000E+00  0.00000000000E+00 -0.22098826893E+04  0.22098826893E+04  0.25500000920E-02 0. -1.
    10030    2    1    2    0    0  0.00000000000E+00  0.00000000000E+00 -0.10244485010E+04  0.33953168777E+04  0.32370792342E+04 0.  0.
        3    1    3    3  502    0  0.58613955786E+03  0.11653498012E+04 -0.15172219229E+04  0.20008903303E+04  0.10100000352E+00 0. -1.
       -3    1    3    3    0  502 -0.58613955786E+03 -0.11653498012E+04  0.49277342194E+03  0.13944265474E+04  0.10100000352E+00 0.  1.
</event>
<event>
 5   0  0.5134434E-07  0.3738085E+04  0.7818609E-02  0.8059574E-01
       -2   -1    0    0    0  501  0.00000000000E+00  0.00000000000E+00  0.26961087011E+04  0.26961087011E+04  0.25500000920E-02 0. -1.
        2   -1    0    0  501    0  0.00000000000E+00  0.00000000000E+00 -0.12956894731E+04  0.12956894731E+04  0.25500000920E-02 0.  1.
    10030    2    1    2    0    0  0.00000000000E+00  0.00000000000E+00  0.14004192280E+04  0.39917981742E+04  0.37380848906E+04 0.  0.
        5    1    3    3  502    0 -0.13229791183E+04 -0.18509457746E+03 -0.69571008390E+03  0.15061767363E+04  0.46999998093E+01 0.  1.
       -5    1    3    3    0  502  0.13229791183E+04  0.18509457746E+03  0.20961293119E+04  0.24856214379E+04  0.46999998093E+01 0. -1.
</event>
<event>
 5   0  0.1648000E-07  0.3832799E+04  0.7818609E-02  0.8039153E-01
        1   -1    0    0  501    0  0.00000000000E+00  0.00000000000E+00  0.22537030787E+04  0.22537030787E+04  0.50400001928E-02 0.  1.
       -1   -1    0    0    0  501  0.00000000000E+00  0.00000000000E+00 -0.16295785943E+04  0.16295785943E+04  0.50400001928E-02 0. -1.
    10030    2    1    2    0    0  0.00000000000E+00  0.00000000000E+00  0.62412448441E+03  0.38832816729E+04  0.38327986093E+04 0.  0.
        4    1    3    3  502    0 -0.95182598007E+03  0.16511013532E+04  0.51589939038E+03  0.19744017242E+04  0.12699999809E+01 0. -1.
       -4    1    3    3    0  502  0.95182598007E+03 -0.16511013532E+04  0.10822509403E+03  0.19088799487E+04  0.12699999809E+01 0.  1.
</event>
<event>
 5   0  0.5158266E-07  0.3788646E+04  0.7818609E-02  0.8048596E-01
       -2   -1    0    0    0  501  0.00000000000E+00  0.00000000000E+00  0.18192784358E+04  0.18192784358E+04  0.25500000920E-02 0. -1.
        2   -1    0    0  501    0  0.00000000000E+00  0.00000000000E+00 -0.19724629002E+04  0.19724629002E+04  0.25500000920E-02 0.  1.
    10030    2    1    2    0    0  0.00000000000E+00  0.00000000000E+00 -0.15318446441E+03  0.37917413360E+04  0.37886457843E+04 0.  0.
        2    1    3    3  502    0 -0.51331108814E+03 -0.96484902207E+03  0.14719396708E+04  0.18333107492E+04  0.25500000920E-02 0. -1.
       -2    1    3    3    0  502  0.51331108814E+03  0.96484902207E+03 -0.16251241352E+04  0.19584305868E+04  0.25500000920E-02 0.  1.
</event>
<event>
 5   0  0.5158266E-07  0.3806838E+04  0.7818609E-02  0.8044689E-01
        2   -1    0    0  501    0  0.00000000000E+00  0.00000000000E+00  0.20240205380E+04  0.20240205380E+04  0.25500000920E-02 0. -1.
       -2   -1    0    0    0  501  0.00000000000E+00  0.00000000000E+00 -0.17900037704E+04  0.17900037704E+04  0.25500000920E-02 0.  1.
    10030    2    1    2    0    0  0.00000000000E+00  0.00000000000E+00  0.23401676760E+03  0.38140243083E+04  0.38068382652E+04 0.  0.
        2    1    3    3  502    0  0.11932941701E+04  0.14506667980E+03 -0.13615853904E+04  0.18162902008E+04  0.25500000920E-02 0.  1.
       -2    1    3    3    0  502 -0.11932941701E+04 -0.14506667980E+03  0.15956021580E+04  0.19977341076E+04  0.25500000920E-02 0. -1.
</event>
<event>
 5   0  0.1648000E-07  0.3759391E+04  0.7818609E-02  0.8054926E-01
       -1   -1    0    0    0  501  0.00000000000E+00  0.00000000000E+00  0.11087019342E+04  0.11087019342E+04  0.50400001928E-02 0.  1.
        1   -1    0    0  501    0  0.00000000000E+00  0.00000000000E+00 -0.31868391611E+04  0.31868391611E+04  0.50400001928E-02 0. -1.
    10030    2    1    2    0    0  0.00000000000E+00  0.00000000000E+00 -0.20781372269E+04  0.42955410953E+04  0.37593907708E+04 0.  0.
        1    1    3    3  502    0  0.36405462825E+03 -0.17140704241E+03  0.10589125934E+04  0.11327894893E+04  0.50400001928E-02 0.  1.
       -1    1    3    3    0  502 -0.36405462825E+03  0.17140704241E+03 -0.31370498203E+04  0.31627516060E+04  0.50400001928E-02 0. -1.
</event>
<event>
 5   0  0.5134434E-07  0.3828829E+04  0.7818609E-02  0.8039996E-01
       -2   -1    0    0    0  501  0.00000000000E+00  0.00000000000E+00  0.17640567163E+04  0.17640567163E+04  0.25500000920E-02 0.  1.
        2   -1    0    0  501    0  0.00000000000E+00  0.00000000000E+00 -0.20775877018E+04  0.20775877018E+04  0.25500000920E-02 0. -1.
    10030    2    1    2    0    0  0.00000000000E+00  0.00000000000E+00 -0.31353098548E+03  0.38416444182E+04  0.38288288231E+04 0.  0.
        5    1    3    3  502    0 -0.48259334230E+02 -0.99761798058E+03 -0.17954466531E+04  0.20545611144E+04  0.46999998093E+01 0. -1.
       -5    1    3    3    0  502  0.48259334230E+02  0.99761798058E+03  0.14819156677E+04  0.17870833038E+04  0.46999998093E+01 0.  1.
</event>
<event>
 5   0  0.1648000E-07  0.3823065E+04  0.7818609E-02  0.8041223E-01
        1   -1    0    0  501    0  0.00000000000E+00  0.00000000000E+00  0.24557544928E+04  0.24557544928E+04  0.50400001928E-02 0. -1.
       -1   -1    0    0    0  501  0.00000000000E+00  0.00000000000E+00 -0.14879159629E+04  0.14879159629E+04  0.50400001928E-02 0.  1.
    10030    2    1    2    0    0  0.00000000000E+00  0.00000000000E+00  0.96783852985E+03  0.39436704557E+04  0.38230649018E+04 0.  0.
        3    1    3    3  502    0 -0.51077501013E+03  0.13141344937E+04 -0.84758182831E+03  0.16450639940E+04  0.10100000352E+00 0.  1.
       -3    1    3    3    0  502  0.51077501013E+03 -0.13141344937E+04  0.18154203582E+04  0.22986064617E+04  0.10100000352E+00 0. -1.
</event>
<event>
 5   0  0.5325362E-07  0.3251200E+04  0.7818609E-02  0.8175425E-01
        2   -1    0    0  501    0  0.00000000000E+00  0.00000000000E+00  0.18150951159E+04  0.18150951159E+04  0.25500000920E-02 0. -1.
       -2   -1    0    0    0  501  0.00000000000E+00  0.00000000000E+00 -0.14558883989E+04  0.14558883989E+04  0.25500000920E-02 0.  1.
    10030    2    1    2    0    0  0.00000000000E+00  0.00000000000E+00  0.35920671695E+03  0.32709835148E+04  0.32512003459E+04 0.  0.
        4    1    3    3  502    0 -0.54553146223E+03  0.15306492754E+04  0.13369094566E+03  0.16304498344E+04  0.12699999809E+01 0. -1.
       -4    1    3    3    0  502  0.54553146223E+03 -0.15306492754E+04  0.22551577128E+03  0.16405336804E+04  0.12699999809E+01 0.  1.
</event>
<event>
 5   0  0.5134434E-07  0.3817871E+04  0.7818609E-02  0.8042331E-01
        2   -1    0    0  501    0  0.00000000000E+00  0.00000000000E+00  0.12843914540E+04  0.12843914540E+04  0.25500000920E-02 0.  1.
       -2   -1    0    0    0  501  0.00000000000E+00  0.00000000000E+00 -0.28371681390E+04  0.28371681390E+04  0.25500000920E-02 0. -1.
    10030    2    1    2    0    0  0.00000000000E+00  0.00000000000E+00 -0.15527766850E+04  0.41215595930E+04  0.38178708786E+04 0.  0.
        5    1    3    3  502    0  0.18026670792E+04  0.26484469984E+03 -0.16165357186E+03  0.18291815877E+04  0.46999998093E+01 0.  1.
       -5    1    3    3    0  502 -0.18026670792E+04 -0.26484469984E+03 -0.13911231132E+04  0.22923780053E+04  0.46999998093E+01 0. -1.
</event>
<event>
 5   0  0.1648000E-07  0.2793074E+04  0.7818609E-02  0.8305422E-01
        1   -1    0    0  501    0  0.00000000000E+00  0.00000000000E+00  0.10865451324E+04  0.10865451324E+04  0.50400001928E-02 0. -1.
       -1   -1    0    0    0  501  0.00000000000E+00  0.00000000000E+00 -0.17949701420E+04  0.17949701420E+04  0.50400001928E-02 0.  1.
    10030    2    1    2    0    0  0.00000000000E+00  0.00000000000E+00 -0.70842500966E+03  0.28815152744E+04  0.27930743424E+04 0.  0.
        1    1    3    3  502    0 -0.93638414437E+03  0.79203605275E+03 -0.10433300895E+04  0.16101782667E+04  0.50400001928E-02 0.  1.
       -1    1    3    3    0  502  0.93638414437E+03 -0.79203605275E+03  0.33490507987E+03  0.12713370077E+04  0.50400001928E-02 0. -1.
</event>
<event>
 5   0  0.1648000E-07  0.2781224E+04  0.7818609E-02  0.8309121E-01
        1   -1    0    0  501    0  0.00000000000E+00  0.00000000000E+00  0.99338034029E+03  0.99338034031E+03  0.50400001928E-02 0. -1.
       -1   -1    0    0    0  501  0.00000000000E+00  0.00000000000E+00 -0.19466883265E+04  0.19466883265E+04  0.50400001928E-02 0.  1.
    10030    2    1    2    0    0  0.00000000000E+00  0.00000000000E+00 -0.95330798621E+03  0.29400686668E+04  0.27812241278E+04 0.  0.
        1    1    3    3  502    0  0.96526280241E+03 -0.60149428747E+03  0.36921772732E+03  0.11957630977E+04  0.50400001928E-02 0. -1.
       -1    1    3    3    0  502 -0.96526280241E+03  0.60149428747E+03 -0.13225257135E+04  0.17443055691E+04  0.50400001928E-02 0.  1.
</event>
<event>
 5   0  0.1648000E-07  0.3799437E+04  0.7818609E-02  0.8046276E-01
       -1   -1    0    0    0  501  0.00000000000E+00  0.00000000000E+00  0.26343645763E+04  0.26343645763E+04  0.50400001928E-02 0. -1.
        1   -1    0    0  501    0  0.00000000000E+00  0.00000000000E+00 -0.13699435934E+04  0.13699435934E+04  0.50400001928E-02 0.  1.
    10030    2    1    2    0    0  0.00000000000E+00  0.00000000000E+00  0.12644209829E+04  0.40043081697E+04  0.37994372604E+04 0.  0.
        3    1    3    3  502    0 -0.32793487632E+03 -0.11436095778E+04 -0.92871315413E+03  0.15092687907E+04  0.10100000352E+00 0.  1.
       -3    1    3    3    0  502  0.32793487632E+03  0.11436095778E+04  0.21931341370E+04  0.24950393790E+04  0.10100000352E+00 0. -1.
</event>
<event>
 5   0  0.5325362E-07  0.3614118E+04  0.7818609E-02  0.8087265E-01
       -2   -1    0    0    0  501  0.00000000000E+00  0.00000000000E+00  0.14984405016E+04  0.14984405016E+04  0.25500000920E-02 0. -1.
        2   -1    0    0  501    0  0.00000000000E+00  0.00000000000E+00 -0.21792403816E+04  0.21792403816E+04  0.25500000920E-02 0.  1.
    10030    2    1    2    0    0  0.00000000000E+00  0.00000000000E+00 -0.68079987999E+03  0.36776808833E+04  0.36141179010E+04 0.  0.
        4    1    3    3  502    0  0.54258236965E+03  0.16179683911E+04 -0.94519546204E+03  0.19507981487E+04  0.12699999809E+01 0.  1.
       -4    1    3    3    0  502 -0.54258236965E+03 -0.16179683911E+04  0.26439558205E+03  0.17268827346E+04  0.12699999809E+01 0. -1.
</event>
<event>
 5   0  0.5202788E-07  0.2714927E+04  0.7818609E-02  0.8330178E-01
       -2   -1    0    0    0  501  0.00000000000E+00  0.00000000000E+00  0.19327981458E+04  0.19327981458E+04  0.25500000920E-02 0.  1.
        2   -1    0    0  501    0  0.00000000000E+00  0.00000000000E+00 -0.95338811028E+03  0.95338811028E+03  0.25500000920E-02 0. -1.
    10030    2    1    2    0    0  0.00000000000E+00  0.00000000000E+00  0.97941003550E+03  0.28861862561E+04  0.27149267185E+04 0.  0.
        1    1    3    3  502    0 -0.12531044689E+04  0.19093782038E+03  0.10061245436E+04  0.16183370040E+04  0.50400001928E-02 0.  1.
       -1    1    3    3    0  502  0.12531044689E+04 -0.19093782038E+03 -0.26714508092E+02  0.12678492521E+04  0.50400001928E-02 0. -1.
</event>
<event>
 5   0  0.1648000E-07  0.2750998E+04  0.7818609E-02  0.8318645E-01
       -4   -1    0    0    0  501  0.00000000000E+00  0.00000000000E+00  0.11815977316E+04  0.11815984141E+04  0.12699999809E+01 0.  1.
        4   -1    0    0  501    0  0.00000000000E+00  0.00000000000E+00 -0.16012185467E+04  0.16012190504E+04  0.12699999809E+01 0. -1.
    10030    2    1    2    0    0  0.00000000000E+00  0.00000000000E+00 -0.41962081516E+03  0.27828174645E+04  0.27509982574E+04 0.  0.
        2    1    3    3  502    0 -0.61061266726E+03  0.46233444016E+03  0.94594435478E+03  0.12171325673E+04  0.25500000920E-02 0.  1.
       -2    1    3    3    0  502  0.61061266726E+03 -0.46233444016E+03 -0.13655651699E+04  0.15656848972E+04  0.25500000920E-02 0. -1.
</event>
<event>
 5   0  0.1648000E-07  0.3803311E+04  0.7818609E-02  0.8045445E-01
       -1   -1    0    0    0  501  0.00000000000E+00  0.00000000000E+00  0.15540483405E+04  0.15540483405E+04  0.50400001928E-02 0. -1.
        1   -1    0    0  501    0  0.00000000000E+00  0.00000000000E+00 -0.23270144314E+04  0.23270144314E+04  0.50400001928E-02 0.  1.
    10030    2    1    2    0    0  0.00000000000E+00  0.00000000000E+00 -0.77296609089E+03  0.38810627720E+04  0.38033106187E+04 0.  0.
        2    1    3    3  502    0  0.13900325761E+04 -0.11211966740E+04  0.28034394199E+03  0.18077237815E+04  0.25500000920E-02 0. -1.
       -2    1    3    3    0  502 -0.13900325761E+04  0.11211966740E+04 -0.10533100329E+04  0.20733389905E+04  0.25500000920E-02 0.  1.
</event>
<event>
 5   0  0.1648000E-07  0.2952296E+04  0.7818609E-02  0.8257486E-01
       -3   -1    0    0    0  501  0.00000000000E+00  0.00000000000E+00  0.23258828555E+04  0.23258828577E+04  0.10100000352E+00 0.  1.
        3   -1    0    0  501    0  0.00000000000E+00  0.00000000000E+00 -0.93685432675E+03  0.93685433219E+03  0.10100000352E+00 0. -1.
    10030    2    1    2    0    0  0.00000000000E+00  0.00000000000E+00  0.13890285288E+04  0.32627371899E+04  0.29522963464E+04 0.  0.
        1    1    3    3  502    0 -0.20124002630E+03 -0.92674731973E+03 -0.55565449401E+03  0.10991406004E+04  0.50400001928E-02 0. -1.
       -1    1    3    3    0  502  0.20124002630E+03  0.92674731973E+03  0.19446830228E+04  0.21635965895E+04  0.50400001928E-02 0.  1.
</event>
<event>
 5   0  0.5325362E-07  0.3885303E+04  0.7818609E-02  0.8028093E-01
       -2   -1    0    0    0  501  0.00000000000E+00  0.00000000000E+00  0.25827906591E+04  0.25827906591E+04  0.25500000920E-02 0. -1.
        2   -1    0    0  501    0  0.00000000000E+00  0.00000000000E+00 -0.14611697924E+04  0.14611697925E+04  0.25500000920E-02 0.  1.
    10030    2    1    2    0    0  0.00000000000E+00  0.00000000000E+00  0.11216208666E+04  0.40439604515E+04  0.38853034328E+04 0.  0.
        4    1    3    3  502    0  0.11089712453E+04 -0.75146538120E+03 -0.90354390353E+03  0.16158312537E+04  0.12699999809E+01 0.  1.
       -4    1    3    3    0  502 -0.11089712453E+04  0.75146538120E+03  0.20251647702E+04  0.24281291978E+04  0.12699999809E+01 0. -1.
</event>
<event>
 5   0  0.1648000E-07  0.3590993E+04  0.7818609E-02  0.8092558E-01
       -1   -1    0    0    0  501  0.00000000000E+00  0.00000000000E+00  0.11860993173E+04  0.11860993173E+04  0.50400001928E-02 0. -1.
        1   -1    0    0  501    0  0.00000000000E+00  0.00000000000E+00 -0.27179908959E+04  0.27179908959E+04  0.50400001928E-02 0.  1.
    10030    2    1    2    0    0  0.00000000000E+00  0.00000000000E+00 -0.15318915786E+04  0.39040902132E+04  0.35909927018E+04 0.  0.
        3    1    3    3  502    0 -0.12244369978E+04  0.11606644145E+04 -0.98036675696E+02  0.16899701313E+04  0.10100000352E+00 0.  1.
       -3    1    3    3    0  502  0.12244369978E+04 -0.11606644145E+04 -0.14338549029E+04  0.22141200820E+04  0.10100000352E+00 0. -1.
</event>
<event>
 5   0  0.5325362E-07  0.3591309E+04  0.7818609E-02  0.8092485E-01
        2   -1    0    0  501    0  0.00000000000E+00  0.00000000000E+00  0.12360935002E+04  0.12360935002E+04  0.25500000920E-02 0. -1.
       -2   -1    0    0    0  501  0.00000000000E+00  0.00000000000E+00 -0.26085204344E+04  0.26085204344E+04  0.25500000920E-02 0.  1.
    10030    2    1    2    0    0  0.00000000000E+00  0.00000000000E+00 -0.13724269342E+04  0.38446139347E+04  0.35913090394E+04 0.  0.
        4    1    3    3  502    0 -0.16991809677E+04 -0.46342402764E+03 -0.31168647092E+03  0.17886105947E+04  0.12699999809E+01 0. -1.
       -4    1    3    3    0  502  0.16991809677E+04  0.46342402764E+03 -0.10607404633E+04  0.20560033399E+04  0.12699999809E+01 0.  1.
</event>
<event>
 5   0  0.1648000E-07  0.3779371E+04  0.7818609E-02  0.8050596E-01
        1   -1    0    0  501    0  0.00000000000E+00  0.00000000000E+00  0.26060331080E+04  0.26060331080E+04  0.50400001928E-02 0.  1.
       -1   -1    0    0    0  501  0.00000000000E+00  0.00000000000E+00 -0.13702477387E+04  0.13702477387E+04  0.50400001928E-02 0. -1.
    10030    2    1    2    0    0  0.00000000000E+00  0.00000000000E+00  0.12357853693E+04  0.39762808467E+04  0.37793708330E+04 0.  0.
        3    1    3    3  502    0 -0.17751370281E+04 -0.64703921209E+03  0.58237351135E+03  0.19771014459E+04  0.10100000352E+00 0. -1.
       -3    1    3    3    0  502  0.17751370281E+04  0.64703921209E+03  0.65341185791E+03  0.19991794008E+04  0.10100000352E+00 0.  1.
</event>
<event>
 5   0  0.1648000E-07  0.3806649E+04  0.7818609E-02  0.8044729E-01
       -1   -1    0    0    0  501  0.00000000000E+00  0.00000000000E+00  0.13393668788E+04  0.13393668788E+04  0.50400001928E-02 0.  1.
        1   -1    0    0  501    0  0.00000000000E+00  0.00000000000E+00 -0.27047443724E+04  0.27047443724E+04  0.50400001928E-02 0. -1.
    10030    2    1    2    0    0  0.00000000000E+00  0.00000000000E+00 -0.13653774936E+04  0.40441112512E+04  0.38066494601E+04 0.  0.
        3    1    3    3  502    0  0.95341406078E+03 -0.91335112744E+03 -0.21391335188E+04  0.25137821853E+04  0.10100000352E+00 0. -1.
       -3    1    3    3    0  502 -0.95341406078E+03  0.91335112744E+03  0.77375602525E+03  0.15303290660E+04  0.10100000352E+00 0.  1.
</event>
<event>
 5   0  0.5325362E-07  0.3598300E+04  0.7818609E-02  0.8090881E-01
       -2   -1    0    0    0  501  0.00000000000E+00  0.00000000000E+00  0.13048911299E+04  0.13048911299E+04  0.25500000920E-02 0.  1.
        2   -1    0    0  501    0  0.00000000000E+00  0.00000000000E+00 -0.24806217059E+04  0.24806217059E+04  0.25500000920E-02 0. -1.
    10030    2    1    2    0    0  0.00000000000E+00  0.00000000000E+00 -0.11757305760E+04  0.37855128358E+04  0.35983002991E+04 0.  0.
        4    1    3    3  502    0  0.14889187760E+03 -0.65630303418E+03 -0.23432197757E+04  0.24379464707E+04  0.12699999809E+01 0. -1.
       -4    1    3    3    0  502 -0.14889187760E+03  0.65630303418E+03  0.11674891997E+04  0.13475663651E+04  0.12699999809E+01 0.  1.
</event>
<event>
 5   0  0.5202788E-07  0.3757873E+04  0.7818609E-02  0.8055256E-01
        2   -1    0    0  501    0  0.00000000000E+00  0.00000000000E+00  0.20686074659E+04  0.20686074659E+04  0.25500000920E-02 0. -1.
       -2   -1    0    0    0  501  0.00000000000E+00  0.00000000000E+00 -0.17066567808E+04  0.17066567808E+04  0.25500000920E-02 0.  1.
    10030    2    1    2    0    0  0.00000000000E+00  0.00000000000E+00  0.36195068512E+03  0.37752642467E+04  0.37578733126E+04 0.  0.
        1    1    3    3  502    0 -0.18351574765E+04  0.40079847078E+03  0.13649198426E+03  0.18833673141E+04  0.50400001928E-02 0. -1.
       -1    1    3    3    0  502  0.18351574765E+04 -0.40079847078E+03  0.22545870086E+03  0.18918969326E+04  0.50400001928E-02 0.  1.
</event>
<event>
 5   0  0.5158266E-07  0.3794710E+04  0.7818609E-02  0.8047291E-01
       -2   -1    0    0    0  501  0.00000000000E+00  0.00000000000E+00  0.20556412711E+04  0.20556412711E+04  0.25500000920E-02 0. -1.
        2   -1    0    0  501    0  0.00000000000E+00  0.00000000000E+00 -0.17512573501E+04  0.17512573502E+04  0.25500000920E-02 0.  1.
    10030    2    1    2    0    0  0.00000000000E+00  0.00000000000E+00  0.30438392100E+03  0.38068986213E+04  0.37947104687E+04 0.  0.
        2    1    3    3  502    0  0.93593648149E+03 -0.14206968060E+04 -0.69050624124E+03  0.18360706362E+04  0.25500000920E-02 0.  1.
       -2    1    3    3    0  502 -0.93593648149E+03  0.14206968060E+04  0.99489016224E+03  0.19708279851E+04  0.25500000920E-02 0. -1.
</event>
<event>
 5   0  0.5325362E-07  0.3734379E+04  0.7818609E-02  0.8060385E-01
        2   -1    0    0  501    0  0.00000000000E+00  0.00000000000E+00  0.27215317107E+04  0.27215317107E+04  0.25500000920E-02 0. -1.
       -2   -1    0    0    0  501  0.00000000000E+00  0.00000000000E+00 -0.12810420424E+04  0.12810420424E+04  0.25500000920E-02 0.  1.
    10030    2    1    2    0    0  0.00000000000E+00  0.00000000000E+00  0.14404896682E+04  0.40025737531E+04  0.37343789530E+04 0.  0.
        4    1    3    3  502    0 -0.52590437096E+03  0.14505427104E+04 -0.40681901658E+03  0.15956669099E+04  0.12699999809E+01 0.  1.
       -4    1    3    3    0  502  0.52590437096E+03 -0.14505427104E+04  0.18473086848E+04  0.24069068432E+04  0.12699999809E+01 0. -1.
</event>
<event>
 5   0  0.1648000E-07  0.3384115E+04  0.7818609E-02  0.8141816E-01
        1   -1    0    0  501    0  0.00000000000E+00  0.00000000000E+00  0.19446090991E+04  0.19446090992E+04  0.50400001928E-02 0. -1.
       -1   -1    0    0    0  501  0.00000000000E+00  0.00000000000E+00 -0.14723050417E+04  0.14723050417E+04  0.50400001928E-02 0.  1.
    10030    2    1    2    0    0  0.00000000000E+00  0.00000000000E+00  0.47230405742E+03  0.34169141409E+04  0.33841145258E+04 0.  0.
        1    1    3    3  502    0  0.85364932852E+03 -0.13164273513E+04  0.87582184710E+03  0.17968756371E+04  0.50400001928E-02 0.  1.
       -1    1    3    3    0  502 -0.85364932852E+03  0.13164273513E+04 -0.40351778969E+03  0.16200385038E+04  0.50400001928E-02 0. -1.
</event>
<event>
 5   0  0.1648000E-07  0.3702398E+04  0.7818609E-02  0.8067431E-01
        1   -1    0    0  501    0  0.00000000000E+00  0.00000000000E+00  0.24413567437E+04  0.24413567437E+04  0.50400001928E-02 0.  1.
       -1   -1    0    0    0  501  0.00000000000E+00  0.00000000000E+00 -0.14037021599E+04  0.14037021599E+04  0.50400001928E-02 0. -1.
    10030    2    1    2    0    0  0.00000000000E+00  0.00000000000E+00  0.10376545838E+04  0.38450589037E+04  0.37023979982E+04 0.  0.
        3    1    3    3  502    0 -0.13515585267E+04 -0.27610937288E+03 -0.76324076539E+03  0.15765415672E+04  0.10100000352E+00 0. -1.
       -3    1    3    3    0  502  0.13515585267E+04  0.27610937288E+03  0.18008953492E+04  0.22685173365E+04  0.10100000352E+00 0.  1.
</event>
<event>
 5   0  0.5158266E-07  0.3820699E+04  0.7818609E-02  0.8041727E-01
        2   -1    0    0  501    0  0.00000000000E+00  0.00000000000E+00  0.22102207912E+04  0.22102207912E+04  0.25500000920E-02 0. -1.
       -2   -1    0    0    0  501  0.00000000000E+00  0.00000000000E+00 -0.16511631658E+04  0.16511631658E+04  0.25500000920E-02 0.  1.
    10030    2    1    2    0    0  0.00000000000E+00  0.00000000000E+00  0.55905762534E+03  0.38613839570E+04  0.38206989720E+04 0.  0.
        2    1    3    3  502    0  0.10976312174E+04  0.99673333168E+03  0.14969990265E+04  0.21069593516E+04  0.25500000920E-02 0. -1.
       -2    1    3    3    0  502 -0.10976312174E+04 -0.99673333168E+03 -0.93794140119E+03  0.17544246054E+04  0.25500000920E-02 0.  1.
</event>
<event>
 5   0  0.1648000E-07  0.3785077E+04  0.7818609E-02  0.8049365E-01
        1   -1    0    0  501    0  0.00000000000E+00  0.00000000000E+00  0.14823998655E+04  0.14823998656E+04  0.50400001928E-02 0. -1.
       -1   -1    0    0    0  501  0.00000000000E+00  0.00000000000E+00 -0.24161509945E+04  0.24161509945E+04  0.50400001928E-02 0.  1.
    10030    2    1    2    0    0  0.00000000000E+00  0.00000000000E+00 -0.93375112896E+03  0.38985508601E+04  0.37850769659E+04 0.  0.
        2    1    3    3  502    0 -0.41538917050E+03  0.15912020816E+04 -0.14315597266E+04  0.21803292133E+04  0.25500000920E-02 0.  1.
       -2    1    3    3    0  502  0.41538917050E+03 -0.15912020816E+04  0.49780859761E+03  0.17182216468E+04  0.25500000920E-02 0. -1.
</event>
<event>
 5   0  0.1648000E-07  0.3354647E+04  0.7818609E-02  0.8149128E-01
       -1   -1    0    0    0  501  0.00000000000E+00  0.00000000000E+00  0.19130895792E+04  0.19130895792E+04  0.50400001928E-02 0. -1.
        1   -1    0    0  501    0  0.00000000000E+00  0.00000000000E+00 -0.14706129800E+04  0.14706129800E+04  0.50400001928E-02 0.  1.
    10030    2    1    2    0    0  0.00000000000E+00  0.00000000000E+00  0.44247659915E+03  0.33837025592E+04  0.33546471452E+04 0.  0.
        4    1    3    3  502    0 -0.15299487806E+04 -0.46991684947E+03 -0.28495253153E+03  0.16256582282E+04  0.12699999809E+01 0. -1.
       -4    1    3    3    0  502  0.15299487806E+04  0.46991684947E+03  0.72742913068E+03  0.17580443310E+04  0.12699999809E+01 0.  1.
</event>
<event>
 5   0  0.1648000E-07  0.3797641E+04  0.7818609E-02  0.8046661E-01
        1   -1    0    0  501    0  0.00000000000E+00  0.00000000000E+00  0.22493204098E+04  0.22493204098E+04  0.50400001928E-02 0.  1.
       -1   -1    0    0    0  501  0.00000000000E+00  0.00000000000E+00 -0.16029368010E+04  0.16029368010E+04  0.50400001928E-02 0. -1.
    10030    2    1    2    0    0  0.00000000000E+00  0.00000000000E+00  0.64638360876E+03  0.38522572108E+04  0.37976405633E+04 0.  0.
        4    1    3    3  502    0  0.93367916298E+02  0.76562744554E+03  0.20832577907E+04  0.22214561865E+04  0.12699999809E+01 0.  1.
       -4    1    3    3    0  502 -0.93367916298E+02 -0.76562744554E+03 -0.14368741819E+04  0.16308010243E+04  0.12699999809E+01 0. -1.
</event>
<event>
 5   0  0.5158266E-07  0.3806866E+04  0.7818609E-02  0.8044683E-01
       -2   -1    0    0    0  501  0.00000000000E+00  0.00000000000E+00  0.12223355835E+04  0.12223355835E+04  0.25500000920E-02 0. -1.
        2   -1    0    0  501    0  0.00000000000E+00  0.00000000000E+00 -0.29640448668E+04  0.29640448668E+04  0.25500000920E-02 0.  1.
    10030    2    1    2    0    0  0.00000000000E+00  0.00000000000E+00 -0.17417092834E+04  0.41863804503E+04  0.38068661714E+04 0.  0.
        2    1    3    3  502    0 -0.81819212768E+03 -0.43779915552E+03 -0.26984459035E+04  0.28535445944E+04  0.25500000920E-02 0.  1.
       -2    1    3    3    0  502  0.81819212768E+03  0.43779915552E+03  0.95673662015E+03  0.13328358559E+04  0.25500000920E-02 0. -1.
</event>
<event>
 5   0  0.1648000E-07  0.3791306E+04  0.7818609E-02  0.8048023E-01
       -1   -1    0    0    0  501  0.00000000000E+00  0.00000000000E+00  0.19776344513E+04  0.19776344514E+04  0.50400001928E-02 0. -1.
        1   -1    0    0  501    0  0.00000000000E+00  0.00000000000E+00 -0.18170700164E+04  0.18170700164E+04  0.50400001928E-02 0.  1.
    10030    2    1    2    0    0  0.00000000000E+00  0.00000000000E+00  0.16056443495E+03  0.37947044678E+04  0.37913059834E+04 0.  0.
        1    1    3    3  502    0 -0.12718162906E+04 -0.25306860396E+03 -0.13036863837E+04  0.18387926969E+04  0.50400001928E-02 0.  1.
       -1    1    3    3    0  502  0.12718162906E+04  0.25306860396E+03  0.14642508186E+04  0.19559117708E+04  0.50400001928E-02 0. -1.
</event>
<event>
 5   0  0.5158266E-07  0.3798012E+04  0.7818609E-02  0.8046582E-01
       -2   -1    0    0    0  501  0.00000000000E+00  0.00000000000E+00  0.24346915698E+04  0.24346915698E+04  0.25500000920E-02 0.  1.
        2   -1    0    0  501    0  0.00000000000E+00  0.00000000000E+00 -0.14811827865E+04  0.14811827865E+04  0.25500000920E-02 0. -1.
    10030    2    1    2    0    0  0.00000000000E+00  0.00000000000E+00  0.95350878330E+03  0.39158743562E+04  0.37980117132E+04 0.  0.
        2    1    3    3  502    0 -0.18490524189E+04  0.40908595083E+03  0.33139310891E+03  0.19225419516E+04  0.25500000920E-02 0. -1.
       -2    1    3    3    0  502  0.18490524189E+04 -0.40908595083E+03  0.62211567439E+03  0.19933324046E+04  0.25500000920E-02 0.  1.
</event>
<event>
 5   0  0.5158266E-07  0.3872974E+04  0.7818609E-02  0.8030674E-01
        2   -1    0    0  501    0  0.00000000000E+00  0.00000000000E+00  0.23597278629E+04  0.23597278629E+04  0.25500000920E-02 0. -1.
       -2   -1    0    0    0  501  0.00000000000E+00  0.00000000000E+00 -0.15891582327E+04  0.15891582327E+04  0.25500000920E-02 0.  1.
    10030    2    1    2    0    0  0.00000000000E+00  0.00000000000E+00  0.77056963019E+03  0.39488860957E+04  0.38729735142E+04 0.  0.
        2    1    3    3  502    0 -0.13221397504E+04 -0.52050346851E+03  0.17267489404E+04  0.22362109211E+04  0.25500000920E-02 0. -1.
       -2    1    3    3    0  502  0.13221397504E+04  0.52050346851E+03 -0.95617931022E+03  0.17126751746E+04  0.25500000920E-02 0.  1.
</event>
<event>
 5   0  0.5158266E-07  0.3812681E+04  0.7818609E-02  0.8043439E-01
        2   -1    0    0  501    0  0.00000000000E+00  0.00000000000E+00  0.14433712332E+04  0.14433712332E+04  0.25500000920E-02 0. -1.
       -2   -1    0    0    0  501  0.00000000000E+00  0.00000000000E+00 -0.25178098845E+04  0.25178098845E+04  0.25500000920E-02 0.  1.
    10030    2    1    2    0    0  0.00000000000E+00  0.00000000000E+00 -0.10744386513E+04  0.39611811177E+04  0.38126811343E+04 0.  0.
        2    1    3    3  502    0 -0.18752923628E+04 -0.13442532037E+03 -0.20975628303E+03  0.18917688313E+04  0.25500000920E-02 0. -1.
       -2    1    3    3    0  502  0.18752923628E+04  0.13442532037E+03 -0.86468236826E+03  0.20694122863E+04  0.25500000920E-02 0.  1.
</event>
<event>
 5   0  0.5202788E-07  0.3797562E+04  0.7818609E-02  0.8046678E-01
       -2   -1    0    0    0  501  0.00000000000E+00  0.00000000000E+00  0.12557902097E+04  0.12557902097E+04  0.25500000920E-02 0.  1.
        2   -1    0    0  501    0  0.00000000000E+00  0.00000000000E+00 -0.28709960711E+04  0.28709960711E+04  0.25500000920E-02 0. -1.
    10030    2    1    2    0    0  0.00000000000E+00  0.00000000000E+00 -0.16152058615E+04  0.41267862808E+04  0.37975617221E+04 0.  0.
        1    1    3    3  502    0  0.10421123175E+04 -0.13927240845E+04 -0.16349831882E+04  0.23872261065E+04  0.50400001928E-02 0. -1.
       -1    1    3    3    0  502 -0.10421123175E+04  0.13927240845E+04  0.19777326747E+02  0.17395601744E+04  0.50400001928E-02 0.  1.
</event>
<event>
 5   0  0.1648000E-07  0.3783594E+04  0.7818609E-02  0.8049685E-01
        1   -1    0    0  501    0  0.00000000000E+00  0.00000000000E+00  0.25188306685E+04  0.25188306685E+04  0.50400001928E-02 0. -1.
       -1   -1    0    0    0  501  0.00000000000E+00  0.00000000000E+00 -0.14208562978E+04  0.14208562978E+04  0.50400001928E-02 0.  1.
    10030    2    1    2    0    0  0.00000000000E+00  0.00000000000E+00  0.10979743707E+04  0.39396869663E+04  0.37835942798E+04 0.  0.
        2    1    3    3  502    0  0.13303842034E+04  0.99742400709E+03 -0.39052252130E+03  0.17080060358E+04  0.25500000920E-02 0.  1.
       -2    1    3    3    0  502 -0.13303842034E+04 -0.99742400709E+03  0.14884968920E+04  0.22316809306E+04  0.25500000920E-02 0. -1.
</event>
<event>
 5   0  0.5325362E-07  0.3802867E+04  0.7818609E-02  0.8045540E-01
       -2   -1    0    0    0  501  0.00000000000E+00  0.00000000000E+00  0.26636953869E+04  0.26636953869E+04  0.25500000920E-02 0. -1.
        2   -1    0    0  501    0  0.00000000000E+00  0.00000000000E+00 -0.13573058102E+04  0.13573058102E+04  0.25500000920E-02 0.  1.
    10030    2    1    2    0    0  0.00000000000E+00  0.00000000000E+00  0.13063895767E+04  0.40210011972E+04  0.38028669318E+04 0.  0.
        4    1    3    3  502    0 -0.45620872605E+03 -0.26350865334E+03  0.25849794759E+04  0.26381212474E+04  0.12699999809E+01 0. -1.
       -4    1    3    3    0  502  0.45620872605E+03  0.26350865334E+03 -0.12785898992E+04  0.13828799497E+04  0.12699999809E+01 0.  1.
</event>
<event>
 5   0  0.5134434E-07  0.3842505E+04  0.7818609E-02  0.8037095E-01
        2   -1    0    0  501    0  0.00000000000E+00  0.00000000000E+00  0.22831000555E+04  0.22831000555E+04  0.25500000920E-02 0.  1.
       -2   -1    0    0    0  501  0.00000000000E+00  0.00000000000E+00 -0.16167536111E+04  0.16167536111E+04  0.25500000920E-02 0. -1.
    10030    2    1    2    0    0  0.00000000000E+00  0.00000000000E+00  0.66634644444E+03  0.38998536666E+04  0.38425045266E+04 0.  0.
        5    1    3    3  502    0 -0.16921693710E+04 -0.13094692640E+03 -0.58059966074E+03  0.17937955105E+04  0.46999998093E+01 0. -1.
       -5    1    3    3    0  502  0.16921693710E+04  0.13094692640E+03  0.12469461052E+04  0.21060581561E+04  0.46999998093E+01 0.  1.
</event>
<event>
 5   0  0.1656617E-07  0.3228197E+04  0.7818609E-02  0.8181410E-01
        1   -1    0    0  501    0  0.00000000000E+00  0.00000000000E+00  0.20953741872E+04  0.20953741872E+04  0.50400001928E-02 0. -1.
       -1   -1    0    0    0  501  0.00000000000E+00  0.00000000000E+00 -0.12433645874E+04  0.12433645874E+04  0.50400001928E-02 0.  1.
    10030    2    1    2    0    0  0.00000000000E+00  0.00000000000E+00  0.85200959979E+03  0.33387387746E+04  0.32281970583E+04 0.  0.
        5    1    3    3  502    0 -0.33958749836E+03 -0.13842128654E+04  0.12095259949E+04  0.18693154223E+04  0.46999998093E+01 0. -1.
       -5    1    3    3    0  502  0.33958749836E+03  0.13842128654E+04 -0.35751639511E+03  0.14694233524E+04  0.46999998093E+01 0.  1.
</event>
<event>
 5   0  0.5134434E-07  0.3797733E+04  0.7818609E-02  0.8046642E-01
       -2   -1    0    0    0  501  0.00000000000E+00  0.00000000000E+00  0.22377786982E+04  0.22377786982E+04  0.25500000920E-02 0.  1.
        2   -1    0    0  501    0  0.00000000000E+00  0.00000000000E+00 -0.16112827597E+04  0.16112827597E+04  0.25500000920E-02 0. -1.
    10030    2    1    2    0    0  0.00000000000E+00  0.00000000000E+00  0.62649593849E+03  0.38490614579E+04  0.37977331325E+04 0.  0.
        5    1    3    3  502    0  0.88078663477E+03  0.16614607914E+04  0.46181170401E+02  0.18810613620E+04  0.46999998093E+01 0. -1.
       -5    1    3    3    0  502 -0.88078663477E+03 -0.16614607914E+04  0.58031476809E+03  0.19680000959E+04  0.46999998093E+01 0.  1.
</event>
<event>
 5   0  0.1656617E-07  0.3849425E+04  0.7818609E-02  0.8035631E-01
       -1   -1    0    0    0  501  0.00000000000E+00  0.00000000000E+00  0.33035663303E+04  0.33035663303E+04  0.50400001928E-02 0. -1.
        1   -1    0    0  501    0  0.00000000000E+00  0.00000000000E+00 -0.11213694745E+04  0.11213694746E+04  0.50400001928E-02 0.  1.
    10030    2    1    2    0    0  0.00000000000E+00  0.00000000000E+00  0.21821968558E+04  0.44249358049E+04  0.38494251207E+04 0.  0.
        5    1    3    3  502    0  0.81524827751E+03 -0.84624399772E+03  0.28433830501E+04  0.30766228104E+04  0.46999998093E+01 0. -1.
       -5    1    3    3    0  502 -0.81524827751E+03  0.84624399772E+03 -0.66118619431E+03  0.13483129945E+04  0.46999998093E+01 0.  1.
</event>
<event>
 5   0  0.5134434E-07  0.3762626E+04  0.7818609E-02  0.8054223E-01
        2   -1    0    0  501    0  0.00000000000E+00  0.00000000000E+00  0.24312129486E+04  0.24312129486E+04  0.25500000920E-02 0. -1.
       -2   -1    0    0    0  501  0.00000000000E+00  0.00000000000E+00 -0.14557911315E+04  0.14557911315E+04  0.25500000920E-02 0.  1.
    10030    2    1    2    0    0  0.00000000000E+00  0.00000000000E+00  0.97542181707E+03  0.38870040802E+04  0.37626258116E+04 0.  0.
        5    1    3    3  502    0 -0.59751517847E+03  0.11705110281E+04  0.18783886845E+04  0.22924848081E+04  0.46999998093E+01 0. -1.
       -5    1    3    3    0  502  0.59751517847E+03 -0.11705110281E+04 -0.90296686742E+03  0.15945192721E+04  0.46999998093E+01 0.  1.
</event>
<event>
 5   0  0.5158266E-07  0.3844534E+04  0.7818609E-02  0.8036665E-01
       -2   -1    0    0    0  501  0.00000000000E+00  0.00000000000E+00  0.17294089657E+04  0.17294089657E+04  0.25500000920E-02 0. -1.
        2   -1    0    0  501    0  0.00000000000E+00  0.00000000000E+00 -0.21366320993E+04  0.21366320993E+04  0.25500000920E-02 0.  1.
    10030    2    1    2    0    0  0.00000000000E+00  0.00000000000E+00 -0.40722313361E+03  0.38660410650E+04  0.38445341507E+04 0.  0.
        2    1    3    3  502    0 -0.14612953004E+04 -0.75989178286E+02  0.10499382430E+04  0.18009799067E+04  0.25500000920E-02 0. -1.
       -2    1    3    3    0  502  0.14612953004E+04  0.75989178286E+02 -0.14571613766E+04  0.20650611583E+04  0.25500000920E-02 0.  1.
</event>
<event>
 5   0  0.1648000E-07  0.3797925E+04  0.7818609E-02  0.8046600E-01
       -1   -1    0    0    0  501  0.00000000000E+00  0.00000000000E+00  0.35631800651E+04  0.35631800651E+04  0.50400001928E-02 0.  1.
        1   -1    0    0  501    0  0.00000000000E+00  0.00000000000E+00 -0.10120335449E+04  0.10120335449E+04  0.50400001928E-02 0. -1.
    10030    2    1    2    0    0  0.00000000000E+00  0.00000000000E+00  0.25511465202E+04  0.45752136100E+04  0.37979245660E+04 0.  0.
        1    1    3    3  502    0 -0.97454733192E+02 -0.18794428853E+04  0.15809371794E+04  0.24578782211E+04  0.50400001928E-02 0.  1.
       -1    1    3    3    0  502  0.97454733192E+02  0.18794428853E+04  0.97020934074E+03  0.21173353889E+04  0.50400001928E-02 0. -1.
</event>
<event>
 5   0  0.1648000E-07  0.2924487E+04  0.7818609E-02  0.8265629E-01
        1   -1    0    0  501    0  0.00000000000E+00  0.00000000000E+00  0.15324752265E+04  0.15324752265E+04  0.50400001928E-02 0.  1.
       -1   -1    0    0    0  501  0.00000000000E+00  0.00000000000E+00 -0.13952306618E+04  0.13952306618E+04  0.50400001928E-02 0. -1.
    10030    2    1    2    0    0  0.00000000000E+00  0.00000000000E+00  0.13724456469E+03  0.29277058883E+04  0.29244872539E+04 0.  0.
        3    1    3    3  502    0  0.12029915049E+04  0.21686578363E+03  0.87196235654E+03  0.15015118016E+04  0.10100000352E+00 0.  1.
       -3    1    3    3    0  502 -0.12029915049E+04 -0.21686578363E+03 -0.73471779186E+03  0.14261940867E+04  0.10100000352E+00 0. -1.
</event>
<event>
 5   0  0.5325362E-07  0.3684581E+04  0.7818609E-02  0.8071387E-01
        2   -1    0    0  501    0  0.00000000000E+00  0.00000000000E+00  0.30339242397E+04  0.30339242397E+04  0.25500000920E-02 0. -1.
       -2   -1    0    0    0  501  0.00000000000E+00  0.00000000000E+00 -0.11186945500E+04  0.11186945500E+04  0.25500000920E-02 0.  1.
    10030    2    1    2    0    0  0.00000000000E+00  0.00000000000E+00  0.19152296897E+04  0.41526187896E+04  0.36845811224E+04 0.  0.
        4    1    3    3  502    0  0.16254179803E+04  0.85361089870E+03  0.11300082827E+04  0.21558189880E+04  0.12699999809E+01 0. -1.
       -4    1    3    3    0  502 -0.16254179803E+04 -0.85361089870E+03  0.78522140702E+03  0.19967998017E+04  0.12699999809E+01 0.  1.
</event>
<event>
 5   0  0.5325362E-07  0.3467359E+04  0.7818609E-02  0.8121569E-01
       -2   -1    0    0    0  501  0.00000000000E+00  0.00000000000E+00  0.13327123237E+04  0.13327123237E+04  0.25500000920E-02 0.  1.
        2   -1    0    0  501    0  0.00000000000E+00  0.00000000000E+00 -0.22552839162E+04  0.22552839162E+04  0.25500000920E-02 0. -1.
    10030    2    1    2    0    0  0.00000000000E+00  0.00000000000E+00 -0.92257159244E+03  0.35879962399E+04  0.34673590346E+04 0.  0.
        4    1    3    3  502    0  0.12905783688E+03  0.74369088570E+03  0.11537563992E+04  0.13787267678E+04  0.12699999809E+01 0.  1.
       -4    1    3    3    0  502 -0.12905783688E+03 -0.74369088570E+03 -0.20763279916E+04  0.22092694721E+04  0.12699999809E+01 0. -1.
</event>
<event>
 5   0  0.5202788E-07  0.3799126E+04  0.7818609E-02  0.8046343E-01
        2   -1    0    0  501    0  0.00000000000E+00  0.00000000000E+00  0.23286672723E+04  0.23286672723E+04  0.25500000920E-02 0. -1.
       -2   -1    0    0    0  501  0.00000000000E+00  0.00000000000E+00 -0.15495295800E+04  0.15495295800E+04  0.25500000920E-02 0.  1.
    10030    2    1    2    0    0  0.00000000000E+00  0.00000000000E+00  0.77913769230E+03  0.38781968524E+04  0.37991255944E+04 0.  0.
        1    1    3    3  502    0 -0.12587245572E+04  0.39453371616E+03 -0.10057352241E+04  0.16587789801E+04  0.50400001928E-02 0.  1.
       -1    1    3    3    0  502  0.12587245572E+04 -0.39453371616E+03  0.17848729164E+04  0.22194178722E+04  0.50400001928E-02 0. -1.
</event>
<event>
 5   0  0.5134434E-07  0.3778339E+04  0.7818609E-02  0.8050819E-01
        2   -1    0    0  501    0  0.00000000000E+00  0.00000000000E+00  0.15092080388E+04  0.15092080388E+04  0.25500000920E-02 0. -1.
       -2   -1    0    0    0  501  0.00000000000E+00  0.00000000000E+00 -0.23647911171E+04  0.23647911171E+04  0.25500000920E-02 0.  1.
    10030    2    1    2    0    0  0.00000000000E+00  0.00000000000E+00 -0.85558307838E+03  0.38739991559E+04  0.37783391928E+04 0.  0.
        5    1    3    3  502    0 -0.42763761494E+03 -0.13378790333E+04  0.86758136585E+03  0.16509130061E+04  0.46999998093E+01 0. -1.
       -5    1    3    3    0  502  0.42763761494E+03  0.13378790333E+04 -0.17231644442E+04  0.22230861498E+04  0.46999998093E+01 0.  1.
</event>
<event>
 5   0  0.1648000E-07  0.3773576E+04  0.7818609E-02  0.8051849E-01
       -1   -1    0    0    0  501  0.00000000000E+00  0.00000000000E+00  0.20752267358E+04  0.20752267358E+04  0.50400001928E-02 0.  1.
        1   -1    0    0  501    0  0.00000000000E+00  0.00000000000E+00 -0.17154605974E+04  0.17154605974E+04  0.50400001928E-02 0. -1.
    10030    2    1    2    0    0  0.00000000000E+00  0.00000000000E+00  0.35976613837E+03  0.37906873333E+04  0.37735763917E+04 0.  0.
        3    1    3    3  502    0 -0.12988679535E+04  0.13545798695E+04  0.37576754288E+03  0.19139346488E+04  0.10100000352E+00 0. -1.
       -3    1    3    3    0  502  0.12988679535E+04 -0.13545798695E+04 -0.16001404513E+02  0.18767526845E+04  0.10100000352E+00 0.  1.
</event>
<event>
 5   0  0.1648000E-07  0.3919078E+04  0.7818609E-02  0.8021073E-01
        1   -1    0    0  501    0  0.00000000000E+00  0.00000000000E+00  0.27655617805E+04  0.27655617805E+04  0.50400001928E-02 0. -1.
       -1   -1    0    0    0  501  0.00000000000E+00  0.00000000000E+00 -0.13884315857E+04  0.13884315857E+04  0.50400001928E-02 0.  1.
    10030    2    1    2    0    0  0.00000000000E+00  0.00000000000E+00  0.13771301948E+04  0.41539933663E+04  0.39190781204E+04 0.  0.
        1    1    3    3  502    0 -0.75708787728E+03  0.14413700813E+04  0.18443696843E+04  0.24601685507E+04  0.50400001928E-02 0. -1.
       -1    1    3    3    0  502  0.75708787728E+03 -0.14413700813E+04 -0.46723948953E+03  0.16938248156E+04  0.50400001928E-02 0.  1.
</event>
<event>
 5   0  0.5158266E-07  0.3657542E+04  0.7818609E-02  0.8077437E-01
       -2   -1    0    0    0  501  0.00000000000E+00  0.00000000000E+00  0.13514115790E+04  0.13514115790E+04  0.25500000920E-02 0. -1.
        2   -1    0    0  501    0  0.00000000000E+00  0.00000000000E+00 -0.24747482744E+04  0.24747482744E+04  0.25500000920E-02 0.  1.
    10030    2    1    2    0    0  0.00000000000E+00  0.00000000000E+00 -0.11233366954E+04  0.38261598533E+04  0.36575420561E+04 0.  0.
        2    1    3    3  502    0  0.17467271184E+04  0.64081865228E+02  0.93716142798E+00  0.17479024543E+04  0.25500000920E-02 0.  1.
       -2    1    3    3    0  502 -0.17467271184E+04 -0.64081865228E+02 -0.11242738568E+04  0.20782573990E+04  0.25500000920E-02 0. -1.
</event>
<event>
 5   0  0.1656617E-07  0.3778898E+04  0.7818609E-02  0.8050699E-01
       -1   -1    0    0    0  501  0.00000000000E+00  0.00000000000E+00  0.20319279964E+04  0.20319279964E+04  0.50400001928E-02 0. -1.
        1   -1    0    0  501    0  0.00000000000E+00  0.00000000000E+00 -0.17569602180E+04  0.17569602180E+04  0.50400001928E-02 0.  1.
    10030    2    1    2    0    0  0.00000000000E+00  0.00000000000E+00  0.27496777833E+03  0.37888882144E+04  0.37788975406E+04 0.  0.
        5    1    3    3  502    0  0.40888045556E+03  0.62465206780E+03  0.18777631095E+04  0.20207399185E+04  0.46999998093E+01 0. -1.
       -5    1    3    3    0  502 -0.40888045556E+03 -0.62465206780E+03 -0.16027953312E+04  0.17681482959E+04  0.46999998093E+01 0.  1.
</event>
<event>
 5   0  0.1648000E-07  0.3780568E+04  0.7818609E-02  0.8050338E-01
       -1   -1    0    0    0  501  0.00000000000E+00  0.00000000000E+00  0.13843524341E+04  0.13843524341E+04  0.50400001928E-02 0. -1.
        1   -1    0    0  501    0  0.00000000000E+00  0.00000000000E+00 -0.25811162252E+04  0.25811162252E+04  0.50400001928E-02 0.  1.
    10030    2    1    2    0    0  0.00000000000E+00  0.00000000000E+00 -0.11967637910E+04  0.39654686593E+04  0.37805684912E+04 0.  0.
        3    1    3    3  502    0  0.16393291206E+04  0.50298257419E+03  0.23599994112E+03  0.17309209740E+04  0.10100000352E+00 0. -1.
       -3    1    3    3    0  502 -0.16393291206E+04 -0.50298257419E+03 -0.14327637322E+04  0.22345476853E+04  0.10100000352E+00 0.  1.
</event>
<event>
 5   0  0.1648000E-07  0.3795755E+04  0.7818609E-02  0.8047067E-01
        1   -1    0    0  501    0  0.00000000000E+00  0.00000000000E+00  0.16483137080E+04  0.16483137080E+04  0.50400001928E-02 0.  1.
       -1   -1    0    0    0  501  0.00000000000E+00  0.00000000000E+00 -0.21852262671E+04  0.21852262671E+04  0.50400001928E-02 0. -1.
    10030    2    1    2    0    0  0.00000000000E+00  0.00000000000E+00 -0.53691255908E+03  0.38335399751E+04  0.37957546871E+04 0.  0.
        2    1    3    3  502    0  0.85425392181E+03  0.76622468669E+03  0.12582425058E+04  0.17029457528E+04  0.25500000920E-02 0.  1.
       -2    1    3    3    0  502 -0.85425392181E+03 -0.76622468669E+03 -0.17951550649E+04  0.21305942224E+04  0.25500000920E-02 0. -1.
</event>
<event>
 5   0  0.5158266E-07  0.3843947E+04  0.7818609E-02  0.8036789E-01
       -2   -1    0    0    0  501  0.00000000000E+00  0.00000000000E+00  0.21322666886E+04  0.21322666886E+04  0.25500000920E-02 0.  1.
        2   -1    0    0  501    0  0.00000000000E+00  0.00000000000E+00 -0.17324201972E+04  0.17324201972E+04  0.25500000920E-02 0. -1.
    10030    2    1    2    0    0  0.00000000000E+00  0.00000000000E+00  0.39984649141E+03  0.38646868858E+04  0.38439468660E+04 0.  0.
        2    1    3    3  502    0 -0.79519060137E+03  0.19183558843E+03  0.19485175795E+04  0.21132557212E+04  0.25500000920E-02 0.  1.
       -2    1    3    3    0  502  0.79519060137E+03 -0.19183558843E+03 -0.15486710881E+04  0.17514311647E+04  0.25500000920E-02 0. -1.
</event>
<event>
 5   0  0.5132561E-07  0.3742896E+04  0.7818609E-02  0.8058521E-01
       -2   -1    0    0    0  501  0.00000000000E+00  0.00000000000E+00  0.19444688299E+04  0.19444688299E+04  0.25500000920E-02 0. -1.
        2   -1    0    0  501    0  0.00000000000E+00  0.00000000000E+00 -0.18011694463E+04  0.18011694463E+04  0.25500000920E-02 0.  1.
    10030    2    1    2    0    0  0.00000000000E+00  0.00000000000E+00  0.14329938359E+03  0.37456382761E+04  0.37428961223E+04 0.  0.
        3    1    3    3  502    0 -0.53507711304E+03 -0.16960525166E+04 -0.51137148612E+03  0.18505141077E+04  0.10100000352E+00 0. -1.
       -3    1    3    3    0  502  0.53507711304E+03  0.16960525166E+04  0.65467086971E+03  0.18951241684E+04  0.10100000352E+00 0.  1.
</event>
<event>
 5   0  0.1656617E-07  0.3942103E+04  0.7818609E-02  0.8016329E-01
       -1   -1    0    0    0  501  0.00000000000E+00  0.00000000000E+00  0.15063921965E+04  0.15063921965E+04  0.50400001928E-02 0. -1.
        1   -1    0    0  501    0  0.00000000000E+00  0.00000000000E+00 -0.25790385035E+04  0.25790385035E+04  0.50400001928E-02 0.  1.
    10030    2    1    2    0    0  0.00000000000E+00  0.00000000000E+00 -0.10726463070E+04  0.40854307001E+04  0.39421027263E+04 0.  0.
        5    1    3    3  502    0 -0.38693262735E+03  0.61036399012E+03  0.13641330622E+04  0.15437429060E+04  0.46999998093E+01 0. -1.
       -5    1    3    3    0  502  0.38693262735E+03 -0.61036399012E+03 -0.24367793692E+04  0.25416877941E+04  0.46999998093E+01 0.  1.
</event>
<event>
 5   0  0.1648000E-07  0.3757699E+04  0.7818609E-02  0.8055294E-01
       -1   -1    0    0    0  501  0.00000000000E+00  0.00000000000E+00  0.13867534056E+04  0.13867534056E+04  0.50400001928E-02 0. -1.
        1   -1    0    0  501    0  0.00000000000E+00  0.00000000000E+00 -0.25455683579E+04  0.25455683579E+04  0.50400001928E-02 0.  1.
    10030    2    1    2    0    0  0.00000000000E+00  0.00000000000E+00 -0.11588149524E+04  0.39323217635E+04  0.37576990776E+04 0.  0.
        1    1    3    3  502    0 -0.77842543486E+03 -0.26227193666E+03 -0.23477084297E+04  0.24872610634E+04  0.50400001928E-02 0.  1.
       -1    1    3    3    0  502  0.77842543486E+03  0.26227193666E+03  0.11888934774E+04  0.14450607001E+04  0.50400001928E-02 0. -1.
</event>
<event>
 5   0  0.1656617E-07  0.3777252E+04  0.7818609E-02  0.8051054E-01
        1   -1    0    0  501    0  0.00000000000E+00  0.00000000000E+00  0.23035855217E+04  0.23035855217E+04  0.50400001928E-02 0. -1.
       -1   -1    0    0    0  501  0.00000000000E+00  0.00000000000E+00 -0.15484157464E+04  0.15484157464E+04  0.50400001928E-02 0.  1.
    10030    2    1    2    0    0  0.00000000000E+00  0.00000000000E+00  0.75516977523E+03  0.38520012681E+04  0.37772519614E+04 0.  0.
        5    1    3    3  502    0 -0.13148208942E+04  0.49572548884E+02 -0.10040977920E+04  0.16551271514E+04  0.46999998093E+01 0.  1.
       -5    1    3    3    0  502  0.13148208942E+04 -0.49572548884E+02  0.17592675672E+04  0.21968741167E+04  0.46999998093E+01 0. -1.
</event>
<event>
 5   0  0.5134434E-07  0.3835695E+04  0.7818609E-02  0.8038538E-01
        2   -1    0    0  501    0  0.00000000000E+00  0.00000000000E+00  0.21684233012E+04  0.21684233012E+04  0.25500000920E-02 0.  1.
       -2   -1    0    0    0  501  0.00000000000E+00  0.00000000000E+00 -0.16962274947E+04  0.16962274947E+04  0.25500000920E-02 0. -1.
    10030    2    1    2    0    0  0.00000000000E+00  0.00000000000E+00  0.47219580653E+03  0.38646507958E+04  0.38356950992E+04 0.  0.
        5    1    3    3  502    0  0.14110507511E+04  0.86403527694E+03  0.12132105748E+04  0.20517122534E+04  0.46999998093E+01 0.  1.
       -5    1    3    3    0  502 -0.14110507511E+04 -0.86403527694E+03 -0.74101476830E+03  0.18129385424E+04  0.46999998093E+01 0. -1.
</event>
<event>
 5   0  0.5158266E-07  0.3662034E+04  0.7818609E-02  0.8076428E-01
       -2   -1    0    0    0  501  0.00000000000E+00  0.00000000000E+00  0.15569460074E+04  0.15569460074E+04  0.25500000920E-02 0. -1.
        2   -1    0    0  501    0  0.00000000000E+00  0.00000000000E+00 -0.21533325126E+04  0.21533325126E+04  0.25500000920E-02 0.  1.
    10030    2    1    2    0    0  0.00000000000E+00  0.00000000000E+00 -0.59638650516E+03  0.37102785200E+04  0.36620335652E+04 0.  0.
        2    1    3    3  502    0  0.15405339195E+04  0.29896980522E+03 -0.12540172182E+04  0.20087774603E+04  0.25500000920E-02 0.  1.
       -2    1    3    3    0  502 -0.15405339195E+04 -0.29896980522E+03  0.65763071303E+03  0.17015010597E+04  0.25500000920E-02 0. -1.
</event>
<event>
 5   0  0.5158266E-07  0.3037385E+04  0.7818609E-02  0.8233135E-01
       -2   -1    0    0    0  501  0.00000000000E+00  0.00000000000E+00  0.12007300623E+04  0.12007300623E+04  0.25500000920E-02 0.  1.
        2   -1    0    0  501    0  0.00000000000E+00  0.00000000000E+00 -0.19208539947E+04  0.19208539947E+04  0.25500000920E-02 0. -1.
    10030    2    1    2    0    0  0.00000000000E+00  0.00000000000E+00 -0.72012393243E+03  0.31215840570E+04  0.30373851496E+04 0.  0.
        2    1    3    3  502    0 -0.73628985235E+03 -0.80384855652E+03 -0.14467920391E+04  0.18114917756E+04  0.25500000920E-02 0. -1.
       -2    1    3    3    0  502  0.73628985235E+03  0.80384855652E+03  0.72666810672E+03  0.13100922814E+04  0.25500000920E-02 0.  1.
</event>
<event>
 5   0  0.5134434E-07  0.3765253E+04  0.7818609E-02  0.8053653E-01
        2   -1    0    0  501    0  0.00000000000E+00  0.00000000000E+00  0.13987446451E+04  0.13987446451E+04  0.25500000920E-02 0.  1.
       -2   -1    0    0    0  501  0.00000000000E+00  0.00000000000E+00 -0.25339026780E+04  0.25339026780E+04  0.25500000920E-02 0. -1.
    10030    2    1    2    0    0  0.00000000000E+00  0.00000000000E+00 -0.11351580329E+04  0.39326473231E+04  0.37652531400E+04 0.  0.
        5    1    3    3  502    0  0.12610363529E+04  0.70208715033E+03  0.69492861316E+03  0.16019010323E+04  0.46999998093E+01 0.  1.
       -5    1    3    3    0  502 -0.12610363529E+04 -0.70208715033E+03 -0.18300866460E+04  0.23307462908E+04  0.46999998093E+01 0. -1.
</event>
<event>
 5   0  0.5202788E-07  0.3808294E+04  0.7818609E-02  0.8044377E-01
       -2   -1    0    0    0  501  0.00000000000E+00  0.00000000000E+00  0.15610043432E+04  0.15610043432E+04  0.25500000920E-02 0.  1.
        2   -1    0    0  501    0  0.00000000000E+00  0.00000000000E+00 -0.23227193293E+04  0.23227193293E+04  0.25500000920E-02 0. -1.
    10030    2    1    2    0    0  0.00000000000E+00  0.00000000000E+00 -0.76171498609E+03  0.38837236725E+04  0.38082935606E+04 0.  0.
        1    1    3    3  502    0 -0.18720871318E+03 -0.18606924924E+04 -0.74649955772E+03  0.20135752391E+04  0.50400001928E-02 0.  1.
       -1    1    3    3    0  502  0.18720871318E+03  0.18606924924E+04 -0.15215428365E+02  0.18701484334E+04  0.50400001928E-02 0. -1.
</event>
<event>
 5   0  0.5158266E-07  0.3356103E+04  0.7818609E-02  0.8148765E-01
       -2   -1    0    0    0  501  0.00000000000E+00  0.00000000000E+00  0.10960673698E+04  0.10960673699E+04  0.25500000920E-02 0.  1.
        2   -1    0    0  501    0  0.00000000000E+00  0.00000000000E+00 -0.25690539737E+04  0.25690539737E+04  0.25500000920E-02 0. -1.
    10030    2    1    2    0    0  0.00000000000E+00  0.00000000000E+00 -0.14729866038E+04  0.36651213435E+04  0.33561026396E+04 0.  0.
        2    1    3    3  502    0  0.45795353177E+03  0.14730672300E+04 -0.14577665131E+04  0.21224353248E+04  0.25500000920E-02 0. -1.
       -2    1    3    3    0  502 -0.45795353177E+03 -0.14730672300E+04 -0.15220090747E+02  0.15426860187E+04  0.25500000920E-02 0.  1.
</event>
<event>
 5   0  0.5202788E-07  0.3264219E+04  0.7818609E-02  0.8172060E-01
       -2   -1    0    0    0  501  0.00000000000E+00  0.00000000000E+00  0.13053589805E+04  0.13053589805E+04  0.25500000920E-02 0.  1.
        2   -1    0    0  501    0  0.00000000000E+00  0.00000000000E+00 -0.20406505399E+04  0.20406505399E+04  0.25500000920E-02 0. -1.
    10030    2    1    2    0    0  0.00000000000E+00  0.00000000000E+00 -0.73529155934E+03  0.33460095204E+04  0.32642190542E+04 0.  0.
        1    1    3    3  502    0  0.12193411387E+04  0.85984520584E+02  0.74093078858E+03  0.14293930823E+04  0.50400001928E-02 0.  1.
       -1    1    3    3    0  502 -0.12193411387E+04 -0.85984520584E+02 -0.14762223479E+04  0.19166164381E+04  0.50400001928E-02 0. -1.
</event>
<event>
 5   0  0.1648000E-07  0.3775326E+04  0.7818609E-02  0.8051471E-01
       -1   -1    0    0    0  501  0.00000000000E+00  0.00000000000E+00  0.14566187358E+04  0.14566187358E+04  0.50400001928E-02 0.  1.
        1   -1    0    0  501    0  0.00000000000E+00  0.00000000000E+00 -0.24462627459E+04  0.24462627459E+04  0.50400001928E-02 0. -1.
    10030    2    1    2    0    0  0.00000000000E+00  0.00000000000E+00 -0.98964401008E+03  0.39028814816E+04  0.37753262896E+04 0.  0.
        4    1    3    3  502    0 -0.18014444995E+04  0.49972178135E+03 -0.22455771453E+03  0.18829104927E+04  0.12699999809E+01 0.  1.
       -4    1    3    3    0  502  0.18014444995E+04 -0.49972178135E+03 -0.76508629555E+03  0.20199709889E+04  0.12699999809E+01 0. -1.
</event>
<event>
 5   0  0.1648000E-07  0.3821815E+04  0.7818609E-02  0.8041490E-01
        1   -1    0    0  501    0  0.00000000000E+00  0.00000000000E+00  0.23147506175E+04  0.23147506175E+04  0.50400001928E-02 0.  1.
       -1   -1    0    0    0  501  0.00000000000E+00  0.00000000000E+00 -0.15775207066E+04  0.15775207066E+04  0.50400001928E-02 0. -1.
    10030    2    1    2    0    0  0.00000000000E+00  0.00000000000E+00  0.73722991088E+03  0.38922713240E+04  0.38218147677E+04 0.  0.
        4    1    3    3  502    0 -0.56332002846E+03 -0.13653079694E+04  0.16034736587E+04  0.21800285991E+04  0.12699999809E+01 0.  1.
       -4    1    3    3    0  502  0.56332002846E+03  0.13653079694E+04 -0.86624374784E+03  0.17122427250E+04  0.12699999809E+01 0. -1.
</event>
<event>
 5   0  0.1648000E-07  0.3831420E+04  0.7818609E-02  0.8039446E-01
       -1   -1    0    0    0  501  0.00000000000E+00  0.00000000000E+00  0.15850082591E+04  0.15850082591E+04  0.50400001928E-02 0.  1.
        1   -1    0    0  501    0  0.00000000000E+00  0.00000000000E+00 -0.23154104499E+04  0.23154104499E+04  0.50400001928E-02 0. -1.
    10030    2    1    2    0    0  0.00000000000E+00  0.00000000000E+00 -0.73040219085E+03  0.39004187090E+04  0.38314199385E+04 0.  0.
        4    1    3    3  502    0  0.72141319857E+03 -0.13761208362E+04 -0.15060057529E+04  0.21638392962E+04  0.12699999809E+01 0. -1.
       -4    1    3    3    0  502 -0.72141319857E+03  0.13761208362E+04  0.77560356207E+03  0.17365794129E+04  0.12699999809E+01 0.  1.
</event>
<event>
 5   0  0.5325362E-07  0.3781844E+04  0.7818609E-02  0.8050062E-01
       -2   -1    0    0    0  501  0.00000000000E+00  0.00000000000E+00  0.14657319994E+04  0.14657319994E+04  0.25500000920E-02 0.  1.
        2   -1    0    0  501    0  0.00000000000E+00  0.00000000000E+00 -0.24394546864E+04  0.24394546864E+04  0.25500000920E-02 0. -1.
    10030    2    1    2    0    0  0.00000000000E+00  0.00000000000E+00 -0.97372268700E+03  0.39051866859E+04  0.37818444151E+04 0.  0.
        4    1    3    3  502    0 -0.12668041542E+04  0.27677090253E+03  0.93432146166E+03  0.15982343709E+04  0.12699999809E+01 0.  1.
       -4    1    3    3    0  502  0.12668041542E+04 -0.27677090253E+03 -0.19080441487E+04  0.23069523150E+04  0.12699999809E+01 0. -1.
</event>
<event>
 5   0  0.1656617E-07  0.3835058E+04  0.7818609E-02  0.8038673E-01
       -1   -1    0    0    0  501  0.00000000000E+00  0.00000000000E+00  0.16459804207E+04  0.16459804208E+04  0.50400001928E-02 0. -1.
        1   -1    0    0  501    0  0.00000000000E+00  0.00000000000E+00 -0.22338762698E+04  0.22338762698E+04  0.50400001928E-02 0.  1.
    10030    2    1    2    0    0  0.00000000000E+00  0.00000000000E+00 -0.58789584904E+03  0.38798566905E+04  0.38350575497E+04 0.  0.
        5    1    3    3  502    0  0.90816578192E+03  0.95590190610E+03 -0.17024690590E+04  0.21533547149E+04  0.46999998093E+01 0.  1.
       -5    1    3    3    0  502 -0.90816578192E+03 -0.95590190610E+03  0.11145732099E+04  0.17265019756E+04  0.46999998093E+01 0. -1.
</event>
<event>
 5   0  0.1648000E-07  0.3704877E+04  0.7818609E-02  0.8066882E-01
       -1   -1    0    0    0  501  0.00000000000E+00  0.00000000000E+00  0.13458891721E+04  0.13458891721E+04  0.50400001928E-02 0. -1.
        1   -1    0    0  501    0  0.00000000000E+00  0.00000000000E+00 -0.25496372381E+04  0.25496372381E+04  0.50400001928E-02 0.  1.
    10030    2    1    2    0    0  0.00000000000E+00  0.00000000000E+00 -0.12037480661E+04  0.38955264102E+04  0.37048774077E+04 0.  0.
        2    1    3    3  502    0  0.80691088527E+03  0.15041922214E+04 -0.13585079479E+04  0.21815689905E+04  0.25500000920E-02 0. -1.
       -2    1    3    3    0  502 -0.80691088527E+03 -0.15041922214E+04  0.15475988183E+03  0.17139574198E+04  0.25500000920E-02 0.  1.
</event>
<event>
 5   0  0.1648000E-07  0.3608475E+04  0.7818609E-02  0.8088553E-01
       -1   -1    0    0    0  501  0.00000000000E+00  0.00000000000E+00  0.19929542294E+04  0.19929542294E+04  0.50400001928E-02 0.  1.
        1   -1    0    0  501    0  0.00000000000E+00  0.00000000000E+00 -0.16333910677E+04  0.16333910677E+04  0.50400001928E-02 0. -1.
    10030    2    1    2    0    0  0.00000000000E+00  0.00000000000E+00  0.35956316168E+03  0.36263452970E+04  0.36084753770E+04 0.  0.
        4    1    3    3  502    0 -0.16352193037E+04  0.67116654504E+03  0.54332617928E+03  0.18492192008E+04  0.12699999809E+01 0. -1.
       -4    1    3    3    0  502  0.16352193037E+04 -0.67116654504E+03 -0.18376301760E+03  0.17771260963E+04  0.12699999809E+01 0.  1.
</event>
<event>
 5   0  0.1648000E-07  0.3818358E+04  0.7818609E-02  0.8042227E-01
       -1   -1    0    0    0  501  0.00000000000E+00  0.00000000000E+00  0.28093761050E+04  0.28093761050E+04  0.50400001928E-02 0.  1.
        1   -1    0    0  501    0  0.00000000000E+00  0.00000000000E+00 -0.12974287440E+04  0.12974287440E+04  0.50400001928E-02 0. -1.
    10030    2    1    2    0    0  0.00000000000E+00  0.00000000000E+00  0.15119473610E+04  0.41068048489E+04  0.38183584490E+04 0.  0.
        4    1    3    3  502    0  0.33953713574E+03  0.18758312880E+04  0.64350257921E+03  0.20119954448E+04  0.12699999809E+01 0. -1.
       -4    1    3    3    0  502 -0.33953713574E+03 -0.18758312880E+04  0.86844478180E+03  0.20948094041E+04  0.12699999809E+01 0.  1.
</event>
<event>
 5   0  0.5132561E-07  0.3814440E+04  0.7818609E-02  0.8043063E-01
       -2   -1    0    0    0  501  0.00000000000E+00  0.00000000000E+00  0.11884832718E+04  0.11884832718E+04  0.25500000920E-02 0. -1.
        2   -1    0    0  501    0  0.00000000000E+00  0.00000000000E+00 -0.30606129989E+04  0.30606129989E+04  0.25500000920E-02 0.  1.
    10030    2    1    2    0    0  0.00000000000E+00  0.00000000000E+00 -0.18721297271E+04  0.42490962707E+04  0.38144395922E+04 0.  0.
        3    1    3    3  502    0  0.12443643814E+04  0.13694337694E+04 -0.42111635997E+03  0.18976645017E+04  0.10100000352E+00 0. -1.
       -3    1    3    3    0  502 -0.12443643814E+04 -0.13694337694E+04 -0.14510133671E+04  0.23514317689E+04  0.10100000352E+00 0.  1.
</event>
<event>
 5   0  0.1648000E-07  0.3734555E+04  0.7818609E-02  0.8060347E-01
       -1   -1    0    0    0  501  0.00000000000E+00  0.00000000000E+00  0.26651466103E+04  0.26651466103E+04  0.50400001928E-02 0.  1.
        1   -1    0    0  501    0  0.00000000000E+00  0.00000000000E+00 -0.13082676912E+04  0.13082676912E+04  0.50400001928E-02 0. -1.
    10030    2    1    2    0    0  0.00000000000E+00  0.00000000000E+00  0.13568789191E+04  0.39734143014E+04  0.37345549681E+04 0.  0.
        2    1    3    3  502    0  0.21426110068E+03 -0.16719519836E+04  0.15331861712E+04  0.22785941039E+04  0.25500000920E-02 0.  1.
       -2    1    3    3    0  502 -0.21426110068E+03  0.16719519836E+04 -0.17630725204E+03  0.16948201975E+04  0.25500000920E-02 0. -1.
</event>
<event>
 5   0  0.5132561E-07  0.3532309E+04  0.7818609E-02  0.8106176E-01
       -2   -1    0    0    0  501  0.00000000000E+00  0.00000000000E+00  0.16370014252E+04  0.16370014252E+04  0.25500000920E-02 0.  1.
        2   -1    0    0  501    0  0.00000000000E+00  0.00000000000E+00 -0.19054970662E+04  0.19054970662E+04  0.25500000920E-02 0. -1.
    10030    2    1    2    0    0  0.00000000000E+00  0.00000000000E+00 -0.26849564095E+03  0.35424984914E+04  0.35323088274E+04 0.  0.
        3    1    3    3  502    0  0.14505144895E+04  0.10075343530E+04 -0.12065711889E+03  0.17702191693E+04  0.10100000352E+00 0.  1.
       -3    1    3    3    0  502 -0.14505144895E+04 -0.10075343530E+04 -0.14783852205E+03  0.17722793221E+04  0.10100000352E+00 0. -1.
</event>
<event>
 5   0  0.1656617E-07  0.3781192E+04  0.7818609E-02  0.8050203E-01
        1   -1    0    0  501    0  0.00000000000E+00  0.00000000000E+00  0.23681708785E+04  0.23681708785E+04  0.50400001928E-02 0. -1.
       -1   -1    0    0    0  501  0.00000000000E+00  0.00000000000E+00 -0.15093310718E+04  0.15093310718E+04  0.50400001928E-02 0.  1.
    10030    2    1    2    0    0  0.00000000000E+00  0.00000000000E+00  0.85883980670E+03  0.38775019503E+04  0.37811923465E+04 0.  0.
        5    1    3    3  502    0  0.11281718903E+04 -0.15164137526E+04  0.47584233047E+03  0.19490332210E+04  0.46999998093E+01 0.  1.
       -5    1    3    3    0  502 -0.11281718903E+04  0.15164137526E+04  0.38299747623E+03  0.19284687293E+04  0.46999998093E+01 0. -1.
</event>
<event>
 5   0  0.5132561E-07  0.3708382E+04  0.7818609E-02  0.8066107E-01
        2   -1    0    0  501    0  0.00000000000E+00  0.00000000000E+00  0.15412385840E+04  0.15412385840E+04  0.25500000920E-02 0.  1.
       -2   -1    0    0    0  501  0.00000000000E+00  0.00000000000E+00 -0.22306888120E+04  0.22306888120E+04  0.25500000920E-02 0. -1.
    10030    2    1    2    0    0  0.00000000000E+00  0.00000000000E+00 -0.68945022808E+03  0.37719273960E+04  0.37083816772E+04 0.  0.
        3    1    3    3  502    0  0.65614754733E+03  0.15263994302E+04  0.49254429177E+03  0.17329237473E+04  0.10100000352E+00 0.  1.
       -3    1    3    3    0  502 -0.65614754733E+03 -0.15263994302E+04 -0.11819945198E+04  0.20390036487E+04  0.10100000352E+00 0. -1.
</event>
<event>
 5   0  0.1648000E-07  0.3730070E+04  0.7818609E-02  0.8061330E-01
        1   -1    0    0  501    0  0.00000000000E+00  0.00000000000E+00  0.20238878158E+04  0.20238878158E+04  0.50400001928E-02 0. -1.
       -1   -1    0    0    0  501  0.00000000000E+00  0.00000000000E+00 -0.17186503760E+04  0.17186503760E+04  0.50400001928E-02 0.  1.
    10030    2    1    2    0    0  0.00000000000E+00  0.00000000000E+00  0.30523743973E+03  0.37425381918E+04  0.37300700024E+04 0.  0.
        3    1    3    3  502    0  0.15450118241E+04 -0.10443254889E+04  0.17874962170E+03  0.18734003045E+04  0.10100000352E+00 0.  1.
       -3    1    3    3    0  502 -0.15450118241E+04  0.10443254889E+04  0.12648781803E+03  0.18691378873E+04  0.10100000352E+00 0. -1.
</event>
<event>
 5   0  0.1656617E-07  0.3688733E+04  0.7818609E-02  0.8070463E-01
       -1   -1    0    0    0  501  0.00000000000E+00  0.00000000000E+00  0.25420495243E+04  0.25420495243E+04  0.50400001928E-02 0. -1.
        1   -1    0    0  501    0  0.00000000000E+00  0.00000000000E+00 -0.13381674358E+04  0.13381674358E+04  0.50400001928E-02 0.  1.
    10030    2    1    2    0    0  0.00000000000E+00  0.00000000000E+00  0.12038820885E+04  0.38802169600E+04  0.36887330581E+04 0.  0.
        5    1    3    3  502    0 -0.57498456765E+03 -0.73672843741E+03 -0.10706593876E+04  0.14211648947E+04  0.46999998093E+01 0.  1.
       -5    1    3    3    0  502  0.57498456765E+03  0.73672843741E+03  0.22745414761E+04  0.24590520654E+04  0.46999998093E+01 0. -1.
</event>
<event>
 5   0  0.5134434E-07  0.3786796E+04  0.7818609E-02  0.8048994E-01
        2   -1    0    0  501    0  0.00000000000E+00  0.00000000000E+00  0.19205152559E+04  0.19205152559E+04  0.25500000920E-02 0.  1.
       -2   -1    0    0    0  501  0.00000000000E+00  0.00000000000E+00 -0.18666638861E+04  0.18666638861E+04  0.25500000920E-02 0. -1.
    10030    2    1    2    0    0  0.00000000000E+00  0.00000000000E+00  0.53851369825E+02  0.37871791420E+04  0.37867962559E+04 0.  0.
        5    1    3    3  502    0 -0.96396313792E+03  0.14829481650E+04  0.70269674333E+03  0.19031986219E+04  0.46999998093E+01 0.  1.
       -5    1    3    3    0  502  0.96396313792E+03 -0.14829481650E+04 -0.64884537351E+03  0.18839805201E+04  0.46999998093E+01 0. -1.
</event>
<event>
 5   0  0.1648000E-07  0.3202789E+04  0.7818609E-02  0.8188081E-01
        1   -1    0    0  501    0  0.00000000000E+00  0.00000000000E+00  0.14016658681E+04  0.14016658681E+04  0.50400001928E-02 0. -1.
       -1   -1    0    0    0  501  0.00000000000E+00  0.00000000000E+00 -0.18295832783E+04  0.18295832783E+04  0.50400001928E-02 0.  1.
    10030    2    1    2    0    0  0.00000000000E+00  0.00000000000E+00 -0.42791741020E+03  0.32312491465E+04  0.32027890559E+04 0.  0.
        3    1    3    3  502    0  0.95703395727E+03 -0.27409982278E+03  0.10515478637E+04  0.14480323298E+04  0.10100000352E+00 0. -1.
       -3    1    3    3    0  502 -0.95703395727E+03  0.27409982278E+03 -0.14794652739E+04  0.17832168167E+04  0.10100000352E+00 0.  1.
</event>
<event>
 5   0  0.1648000E-07  0.3828222E+04  0.7818609E-02  0.8040125E-01
       -1   -1    0    0    0  501  0.00000000000E+00  0.00000000000E+00  0.13379458578E+04  0.13379458578E+04  0.50400001928E-02 0.  1.
        1   -1    0    0  501    0  0.00000000000E+00  0.00000000000E+00 -0.27383930722E+04  0.27383930722E+04  0.50400001928E-02 0. -1.
    10030    2    1    2    0    0  0.00000000000E+00  0.00000000000E+00 -0.14004472144E+04  0.40763389299E+04  0.38282223905E+04 0.  0.
        2    1    3    3  502    0 -0.44636079172E+03  0.34113457142E+03  0.12481827211E+04  0.13687844452E+04  0.25500000920E-02 0.  1.
       -2    1    3    3    0  502  0.44636079172E+03 -0.34113457142E+03 -0.26486299355E+04  0.27075544847E+04  0.25500000920E-02 0. -1.
</event>
<event>
 5   0  0.5158266E-07  0.3717160E+04  0.7818609E-02  0.8064170E-01
        2   -1    0    0  501    0  0.00000000000E+00  0.00000000000E+00  0.21129717320E+04  0.21129717320E+04  0.25500000920E-02 0. -1.
       -2   -1    0    0    0  501  0.00000000000E+00  0.00000000000E+00 -0.16348157780E+04  0.16348157780E+04  0.25500000920E-02 0.  1.
    10030    2    1    2    0    0  0.00000000000E+00  0.00000000000E+00  0.47815595408E+03  0.37477875100E+04  0.37171599513E+04 0.  0.
        2    1    3    3  502    0  0.11860794582E+04 -0.11196693932E+04 -0.65926030726E+03  0.17592805870E+04  0.25500000920E-02 0.  1.
       -2    1    3    3    0  502 -0.11860794582E+04  0.11196693932E+04  0.11374162613E+04  0.19885069230E+04  0.25500000920E-02 0. -1.
</event>
<event>
 5   0  0.5158266E-07  0.3700798E+04  0.7818609E-02  0.8067785E-01
       -2   -1    0    0    0  501  0.00000000000E+00  0.00000000000E+00  0.19209863750E+04  0.19209863750E+04  0.25500000920E-02 0.  1.
        2   -1    0    0  501    0  0.00000000000E+00  0.00000000000E+00 -0.17824053629E+04  0.17824053629E+04  0.25500000920E-02 0. -1.
    10030    2    1    2    0    0  0.00000000000E+00  0.00000000000E+00  0.13858101212E+03  0.37033917379E+04  0.37007979771E+04 0.  0.
        2    1    3    3  502    0 -0.11994708417E+04  0.12395502022E+04 -0.60107557022E+03  0.18266107535E+04  0.25500000920E-02 0. -1.
       -2    1    3    3    0  502  0.11994708417E+04 -0.12395502022E+04  0.73965658233E+03  0.18767809844E+04  0.25500000920E-02 0.  1.
</event>
<event>
 5   0  0.5325362E-07  0.3336029E+04  0.7818609E-02  0.8153788E-01
        2   -1    0    0  501    0  0.00000000000E+00  0.00000000000E+00  0.19631833900E+04  0.19631833900E+04  0.25500000920E-02 0. -1.
       -2   -1    0    0    0  501  0.00000000000E+00  0.00000000000E+00 -0.14172249716E+04  0.14172249716E+04  0.25500000920E-02 0.  1.
    10030    2    1    2    0    0  0.00000000000E+00  0.00000000000E+00  0.54595841842E+03  0.33804083615E+04  0.33360290910E+04 0.  0.
        4    1    3    3  502    0 -0.39206567862E+03 -0.13475852685E+04 -0.64043877664E+03  0.15426811050E+04  0.12699999809E+01 0.  1.
       -4    1    3    3    0  502  0.39206567862E+03  0.13475852685E+04  0.11863971951E+04  0.18377272566E+04  0.12699999809E+01 0. -1.
</event>
<event>
 5   0  0.5202788E-07  0.3917422E+04  0.7818609E-02  0.8021416E-01
        2   -1    0    0  501    0  0.00000000000E+00  0.00000000000E+00  0.31057911124E+04  0.31057911124E+04  0.25500000920E-02 0. -1.
       -2   -1    0    0    0  501  0.00000000000E+00  0.00000000000E+00 -0.12352887061E+04  0.12352887061E+04  0.25500000920E-02 0.  1.
    10030    2    1    2    0    0  0.00000000000E+00  0.00000000000E+00  0.18705024063E+04  0.43410798185E+04  0.39174219506E+04 0.  0.
        1    1    3    3  502    0  0.86994589155E+03 -0.10624383717E+04  0.24830782818E+04  0.28374740354E+04  0.50400001928E-02 0. -1.
       -1    1    3    3    0  502 -0.86994589155E+03  0.10624383717E+04 -0.61257587547E+03  0.15036057832E+04  0.50400001928E-02 0.  1.
</event>
<event>
 5   0  0.1648000E-07  0.3109474E+04  0.7818609E-02  0.8213143E-01
        4   -1    0    0  501    0  0.00000000000E+00  0.00000000000E+00  0.15481450470E+04  0.15481455679E+04  0.12699999809E+01 0. -1.
       -4   -1    0    0    0  501  0.00000000000E+00  0.00000000000E+00 -0.15613561817E+04  0.15613566982E+04  0.12699999809E+01 0.  1.
    10030    2    1    2    0    0  0.00000000000E+00  0.00000000000E+00 -0.13211134743E+02  0.31095022661E+04  0.31094742013E+04 0.  0.
        1    1    3    3  502    0  0.11753892182E+04 -0.99934145564E+03 -0.19892031076E+03  0.15555682079E+04  0.50400001928E-02 0. -1.
       -1    1    3    3    0  502 -0.11753892182E+04  0.99934145564E+03  0.18570917602E+03  0.15539340582E+04  0.50400001928E-02 0.  1.
</event>
<event>
 5   0  0.5158266E-07  0.3703223E+04  0.7818609E-02  0.8067248E-01
        2   -1    0    0  501    0  0.00000000000E+00  0.00000000000E+00  0.21551579697E+04  0.21551579697E+04  0.25500000920E-02 0.  1.
       -2   -1    0    0    0  501  0.00000000000E+00  0.00000000000E+00 -0.15908180808E+04  0.15908180808E+04  0.25500000920E-02 0. -1.
    10030    2    1    2    0    0  0.00000000000E+00  0.00000000000E+00  0.56433988881E+03  0.37459760505E+04  0.37032225238E+04 0.  0.
        2    1    3    3  502    0  0.37488715131E+03 -0.76920306379E+03  0.19431534105E+04  0.21232189963E+04  0.25500000920E-02 0.  1.
       -2    1    3    3    0  502 -0.37488715131E+03  0.76920306379E+03 -0.13788135216E+04  0.16227570542E+04  0.25500000920E-02 0. -1.
</event>
<event>
 5   0  0.5132561E-07  0.3815096E+04  0.7818609E-02  0.8042923E-01
        2   -1    0    0  501    0  0.00000000000E+00  0.00000000000E+00  0.24219578979E+04  0.24219578979E+04  0.25500000920E-02 0.  1.
       -2   -1    0    0    0  501  0.00000000000E+00  0.00000000000E+00 -0.15023957946E+04  0.15023957946E+04  0.25500000920E-02 0. -1.
    10030    2    1    2    0    0  0.00000000000E+00  0.00000000000E+00  0.91956210328E+03  0.39243536926E+04  0.38150959939E+04 0.  0.
        3    1    3    3  502    0  0.66538735393E+03 -0.17662265133E+04  0.74418218049E+03  0.20288182657E+04  0.10100000352E+00 0. -1.
       -3    1    3    3    0  502 -0.66538735393E+03  0.17662265133E+04  0.17537992279E+03  0.18955354269E+04  0.10100000352E+00 0.  1.
</event>
<event>
 5   0  0.1648000E-07  0.3561640E+04  0.7818609E-02  0.8099335E-01
        1   -1    0    0  501    0  0.00000000000E+00  0.00000000000E+00  0.13596869461E+04  0.13596869461E+04  0.50400001928E-02 0. -1.
       -1   -1    0    0    0  501  0.00000000000E+00  0.00000000000E+00 -0.23323897279E+04  0.23323897279E+04  0.50400001928E-02 0.  1.
    10030    2    1    2    0    0  0.00000000000E+00  0.00000000000E+00 -0.97270278173E+03  0.36920766740E+04  0.35616399966E+04 0.  0.
        3    1    3    3  502    0 -0.13930162167E+04  0.11089714006E+04 -0.51926491450E+03  0.18547096293E+04  0.10100000352E+00 0. -1.
       -3    1    3    3    0  502  0.13930162167E+04 -0.11089714006E+04 -0.45343786722E+03  0.18373670447E+04  0.10100000352E+00 0.  1.
</event>
<event>
 5   0  0.5134434E-07  0.3784493E+04  0.7818609E-02  0.8049491E-01
       -2   -1    0    0    0  501  0.00000000000E+00  0.00000000000E+00  0.27625126115E+04  0.27625126115E+04  0.25500000920E-02 0. -1.
        2   -1    0    0  501    0  0.00000000000E+00  0.00000000000E+00 -0.12961376203E+04  0.12961376203E+04  0.25500000920E-02 0.  1.
    10030    2    1    2    0    0  0.00000000000E+00  0.00000000000E+00  0.14663749912E+04  0.40586502318E+04  0.37844928444E+04 0.  0.
        5    1    3    3  502    0  0.15445369196E+03 -0.17747158723E+04  0.48920506787E+02  0.17821020387E+04  0.46999998093E+01 0. -1.
       -5    1    3    3    0  502 -0.15445369196E+03  0.17747158723E+04  0.14174544844E+04  0.22765481931E+04  0.46999998093E+01 0.  1.
</event>
<event>
 5   0  0.1648000E-07  0.2877999E+04  0.7818609E-02  0.8279454E-01
       -1   -1    0    0    0  501  0.00000000000E+00  0.00000000000E+00  0.14829272352E+04  0.14829272352E+04  0.50400001928E-02 0.  1.
        1   -1    0    0  501    0  0.00000000000E+00  0.00000000000E+00 -0.13963730294E+04  0.13963730295E+04  0.50400001928E-02 0. -1.
    10030    2    1    2    0    0  0.00000000000E+00  0.00000000000E+00  0.86554205784E+02  0.28793002647E+04  0.28779990243E+04 0.  0.
        4    1    3    3  502    0 -0.64420121176E+03 -0.92221233545E+03 -0.85448428722E+03  0.14126626642E+04  0.12699999809E+01 0. -1.
       -4    1    3    3    0  502  0.64420121176E+03  0.92221233545E+03  0.94103849300E+03  0.14666376005E+04  0.12699999809E+01 0.  1.
</event>
<event>
 5   0  0.5202788E-07  0.3793933E+04  0.7818609E-02  0.8047458E-01
        2   -1    0    0  501    0  0.00000000000E+00  0.00000000000E+00  0.19398266357E+04  0.19398266357E+04  0.25500000920E-02 0. -1.
       -2   -1    0    0    0  501  0.00000000000E+00  0.00000000000E+00 -0.18550529214E+04  0.18550529214E+04  0.25500000920E-02 0.  1.
    10030    2    1    2    0    0  0.00000000000E+00  0.00000000000E+00  0.84773714253E+02  0.37948795571E+04  0.37939325601E+04 0.  0.
        1    1    3    3  502    0  0.90661715593E+03  0.15820037507E+04 -0.48099372216E+03  0.18857479936E+04  0.50400001928E-02 0. -1.
       -1    1    3    3    0  502 -0.90661715593E+03 -0.15820037507E+04  0.56576743642E+03  0.19091315635E+04  0.50400001928E-02 0.  1.
</event>
<event>
 5   0  0.5158266E-07  0.3591589E+04  0.7818609E-02  0.8092421E-01
        2   -1    0    0  501    0  0.00000000000E+00  0.00000000000E+00  0.21064224006E+04  0.21064224006E+04  0.25500000920E-02 0. -1.
       -2   -1    0    0    0  501  0.00000000000E+00  0.00000000000E+00 -0.15309740646E+04  0.15309740646E+04  0.25500000920E-02 0.  1.
    10030    2    1    2    0    0  0.00000000000E+00  0.00000000000E+00  0.57544833595E+03  0.36373964652E+04  0.35915890992E+04 0.  0.
        2    1    3    3  502    0 -0.42707964039E+03  0.46352070664E+02  0.20536177934E+04  0.20980685344E+04  0.25500000920E-02 0. -1.
       -2    1    3    3    0  502  0.42707964039E+03 -0.46352070664E+02 -0.14781694574E+04  0.15393279308E+04  0.25500000920E-02 0.  1.
</event>
<event>
 5   0  0.1656617E-07  0.3813318E+04  0.7818609E-02  0.8043303E-01
        1   -1    0    0  501    0  0.00000000000E+00  0.00000000000E+00  0.19852373059E+04  0.19852373059E+04  0.50400001928E-02 0. -1.
       -1   -1    0    0    0  501  0.00000000000E+00  0.00000000000E+00 -0.18311908714E+04  0.18311908714E+04  0.50400001928E-02 0.  1.
    10030    2    1    2    0    0  0.00000000000E+00  0.00000000000E+00  0.15404643447E+03  0.38164281773E+04  0.38133179422E+04 0.  0.
        5    1    3    3  502    0  0.55382352449E+03  0.72114850030E+03 -0.16002167774E+04  0.18405139175E+04  0.46999998093E+01 0.  1.
       -5    1    3    3    0  502 -0.55382352449E+03 -0.72114850030E+03  0.17542632118E+04  0.19759142598E+04  0.46999998093E+01 0. -1.
</event>
<event>
 5   0  0.5325362E-07  0.3799266E+04  0.7818609E-02  0.8046312E-01
       -2   -1    0    0    0  501  0.00000000000E+00  0.00000000000E+00  0.20157272799E+04  0.20157272799E+04  0.25500000920E-02 0.  1.
        2   -1    0    0  501    0  0.00000000000E+00  0.00000000000E+00 -0.17902249170E+04  0.17902249170E+04  0.25500000920E-02 0. -1.
    10030    2    1    2    0    0  0.00000000000E+00  0.00000000000E+00  0.22550236289E+03  0.38059521968E+04  0.37992658250E+04 0.  0.
        4    1    3    3  502    0  0.66765093892E+03 -0.17074458053E+04  0.61109490665E+03  0.19325029242E+04  0.12699999809E+01 0.  1.
       -4    1    3    3    0  502 -0.66765093892E+03  0.17074458053E+04 -0.38559254376E+03  0.18734492726E+04  0.12699999809E+01 0. -1.
</event>
<event>
 5   0  0.5134434E-07  0.3821141E+04  0.7818609E-02  0.8041633E-01
        2   -1    0    0  501    0  0.00000000000E+00  0.00000000000E+00  0.17701787991E+04  0.17701787991E+04  0.25500000920E-02 0.  1.
       -2   -1    0    0    0  501  0.00000000000E+00  0.00000000000E+00 -0.20620966813E+04  0.20620966813E+04  0.25500000920E-02 0. -1.
    10030    2    1    2    0    0  0.00000000000E+00  0.00000000000E+00 -0.29191788219E+03  0.38322754803E+04  0.38211411002E+04 0.  0.
        5    1    3    3  502    0  0.49032922516E+03  0.18138838227E+04  0.20096876918E+03  0.18897110381E+04  0.46999998093E+01 0.  1.
       -5    1    3    3    0  502 -0.49032922516E+03 -0.18138838227E+04 -0.49288665137E+03  0.19425644423E+04  0.46999998093E+01 0. -1.
</event>
<event>
 5   0  0.1648000E-07  0.3821093E+04  0.7818609E-02  0.8041644E-01
       -1   -1    0    0    0  501  0.00000000000E+00  0.00000000000E+00  0.17504387513E+04  0.17504387513E+04  0.50400001928E-02 0.  1.
        1   -1    0    0  501    0  0.00000000000E+00  0.00000000000E+00 -0.20852983846E+04  0.20852983846E+04  0.50400001928E-02 0. -1.
    10030    2    1    2    0    0  0.00000000000E+00  0.00000000000E+00 -0.33485963325E+03  0.38357371359E+04  0.38210925665E+04 0.  0.
        4    1    3    3  502    0  0.29287235794E+03  0.54762983300E+03 -0.19811507637E+04  0.20762063032E+04  0.12699999809E+01 0. -1.
       -4    1    3    3    0  502 -0.29287235794E+03 -0.54762983300E+03  0.16462911305E+04  0.17595308327E+04  0.12699999809E+01 0.  1.
</event>
<event>
 5   0  0.5132561E-07  0.3807712E+04  0.7818609E-02  0.8044502E-01
        2   -1    0    0  501    0  0.00000000000E+00  0.00000000000E+00  0.32011040445E+04  0.32011040445E+04  0.25500000920E-02 0.  1.
       -2   -1    0    0    0  501  0.00000000000E+00  0.00000000000E+00 -0.11323178590E+04  0.11323178590E+04  0.25500000920E-02 0. -1.
    10030    2    1    2    0    0  0.00000000000E+00  0.00000000000E+00  0.20687861856E+04  0.43334219035E+04  0.38077117948E+04 0.  0.
        3    1    3    3  502    0 -0.15421300899E+04  0.58244867568E+03  0.21183992080E+04  0.26842181150E+04  0.10100000352E+00 0.  1.
       -3    1    3    3    0  502  0.15421300899E+04 -0.58244867568E+03 -0.49613022459E+02  0.16492037886E+04  0.10100000352E+00 0. -1.
</event>
<event>
 5   0  0.1648000E-07  0.3818473E+04  0.7818609E-02  0.8042202E-01
       -3   -1    0    0    0  501  0.00000000000E+00  0.00000000000E+00  0.19703334523E+04  0.19703334549E+04  0.10100000352E+00 0.  1.
        3   -1    0    0  501    0  0.00000000000E+00  0.00000000000E+00 -0.18500338383E+04  0.18500338411E+04  0.10100000352E+00 0. -1.
    10030    2    1    2    0    0  0.00000000000E+00  0.00000000000E+00  0.12029961398E+03  0.38203672960E+04  0.38184727679E+04 0.  0.
        4    1    3    3  502    0 -0.72179451406E+03  0.68373863077E+03 -0.15705963427E+04  0.18588330534E+04  0.12699999809E+01 0. -1.
       -4    1    3    3    0  502  0.72179451406E+03 -0.68373863077E+03  0.16908959567E+04  0.19615342426E+04  0.12699999809E+01 0.  1.
</event>
<event>
 5   0  0.1648000E-07  0.3826110E+04  0.7818609E-02  0.8040575E-01
       -1   -1    0    0    0  501  0.00000000000E+00  0.00000000000E+00  0.12997203328E+04  0.12997203329E+04  0.50400001928E-02 0. -1.
        1   -1    0    0  501    0  0.00000000000E+00  0.00000000000E+00 -0.28158200577E+04  0.28158200577E+04  0.50400001928E-02 0.  1.
    10030    2    1    2    0    0  0.00000000000E+00  0.00000000000E+00 -0.15160997248E+04  0.41155403905E+04  0.38261095555E+04 0.  0.
        3    1    3    3  502    0 -0.17496594853E+04 -0.29281658408E+03  0.12167462738E+02  0.17740343638E+04  0.10100000352E+00 0. -1.
       -3    1    3    3    0  502  0.17496594853E+04  0.29281658408E+03 -0.15282671876E+04  0.23415060267E+04  0.10100000352E+00 0.  1.
</event>
<event>
 5   0  0.1648000E-07  0.3818458E+04  0.7818609E-02  0.8042206E-01
       -1   -1    0    0    0  501  0.00000000000E+00  0.00000000000E+00  0.13148692846E+04  0.13148692846E+04  0.50400001928E-02 0. -1.
        1   -1    0    0  501    0  0.00000000000E+00  0.00000000000E+00 -0.27722561227E+04  0.27722561227E+04  0.50400001928E-02 0.  1.
    10030    2    1    2    0    0  0.00000000000E+00  0.00000000000E+00 -0.14573868381E+04  0.40871254073E+04  0.38184575026E+04 0.  0.
        3    1    3    3  502    0  0.47263116824E+03  0.15216004425E+04  0.39722505472E+03  0.16420827879E+04  0.10100000352E+00 0. -1.
       -3    1    3    3    0  502 -0.47263116824E+03 -0.15216004425E+04 -0.18546118928E+04  0.24450426195E+04  0.10100000352E+00 0.  1.
</event>
<event>
 5   0  0.1648000E-07  0.3670797E+04  0.7818609E-02  0.8074465E-01
        1   -1    0    0  501    0  0.00000000000E+00  0.00000000000E+00  0.19359268899E+04  0.19359268899E+04  0.50400001928E-02 0.  1.
       -1   -1    0    0    0  501  0.00000000000E+00  0.00000000000E+00 -0.17400899516E+04  0.17400899516E+04  0.50400001928E-02 0. -1.
    10030    2    1    2    0    0  0.00000000000E+00  0.00000000000E+00  0.19583693832E+03  0.36760168415E+04  0.36707966047E+04 0.  0.
        1    1    3    3  502    0 -0.29763185111E+03 -0.24819743319E+03 -0.16986507073E+04  0.17422975951E+04  0.50400001928E-02 0. -1.
       -1    1    3    3    0  502  0.29763185111E+03  0.24819743319E+03  0.18944876456E+04  0.19337192464E+04  0.50400001928E-02 0.  1.
</event>
<event>
 5   0  0.5132561E-07  0.3803917E+04  0.7818609E-02  0.8045315E-01
        2   -1    0    0  501    0  0.00000000000E+00  0.00000000000E+00  0.18723928094E+04  0.18723928094E+04  0.25500000920E-02 0. -1.
       -2   -1    0    0    0  501  0.00000000000E+00  0.00000000000E+00 -0.19319914737E+04  0.19319914737E+04  0.25500000920E-02 0.  1.
    10030    2    1    2    0    0  0.00000000000E+00  0.00000000000E+00 -0.59598664280E+02  0.38043842831E+04  0.38039174245E+04 0.  0.
        3    1    3    3  502    0 -0.23054049429E+03  0.12748886623E+04  0.13628358970E+04  0.18803754182E+04  0.10100000352E+00 0. -1.
       -3    1    3    3    0  502  0.23054049429E+03 -0.12748886623E+04 -0.14224345613E+04  0.19240088649E+04  0.10100000352E+00 0.  1.
</event>
<event>
 5   0  0.5132561E-07  0.3822768E+04  0.7818609E-02  0.8041287E-01
        2   -1    0    0  501    0  0.00000000000E+00  0.00000000000E+00  0.13353529078E+04  0.13353529078E+04  0.25500000920E-02 0. -1.
       -2   -1    0    0    0  501  0.00000000000E+00  0.00000000000E+00 -0.27358972871E+04  0.27358972871E+04  0.25500000920E-02 0.  1.
    10030    2    1    2    0    0  0.00000000000E+00  0.00000000000E+00 -0.14005443793E+04  0.40712501949E+04  0.38227677919E+04 0.  0.
        3    1    3    3  502    0 -0.90214238041E+03 -0.10188786006E+04  0.72913719818E+03  0.15438962210E+04  0.10100000352E+00 0. -1.
       -3    1    3    3    0  502  0.90214238041E+03  0.10188786006E+04 -0.21296815775E+04  0.25273539738E+04  0.10100000352E+00 0.  1.
</event>
<event>
 5   0  0.5134434E-07  0.3794965E+04  0.7818609E-02  0.8047236E-01
        2   -1    0    0  501    0  0.00000000000E+00  0.00000000000E+00  0.28746621155E+04  0.28746621155E+04  0.25500000920E-02 0. -1.
       -2   -1    0    0    0  501  0.00000000000E+00  0.00000000000E+00 -0.12524740581E+04  0.12524740581E+04  0.25500000920E-02 0.  1.
    10030    2    1    2    0    0  0.00000000000E+00  0.00000000000E+00  0.16221880574E+04  0.41271361736E+04  0.37949649408E+04 0.  0.
        5    1    3    3  502    0 -0.87771861567E+03 -0.66269341842E+03 -0.87048997248E+03  0.14026144935E+04  0.46999998093E+01 0.  1.
       -5    1    3    3    0  502  0.87771861567E+03  0.66269341842E+03  0.24926780299E+04  0.27245216802E+04  0.46999998093E+01 0. -1.
</event>
<event>
 5   0  0.1648000E-07  0.3832622E+04  0.7818609E-02  0.8039190E-01
       -1   -1    0    0    0  501  0.00000000000E+00  0.00000000000E+00  0.14183875139E+04  0.14183875139E+04  0.50400001928E-02 0. -1.
        1   -1    0    0  501    0  0.00000000000E+00  0.00000000000E+00 -0.25890306543E+04  0.25890306543E+04  0.50400001928E-02 0.  1.
    10030    2    1    2    0    0  0.00000000000E+00  0.00000000000E+00 -0.11706431405E+04  0.40074181682E+04  0.38326224720E+04 0.  0.
        2    1    3    3  502    0 -0.25762921702E+03  0.10250831988E+04 -0.22566850342E+04  0.24919461715E+04  0.25500000920E-02 0.  1.
       -2    1    3    3    0  502  0.25762921702E+03 -0.10250831988E+04  0.10860418937E+04  0.15154719968E+04  0.25500000920E-02 0. -1.
</event>
<event>
 5   0  0.1648000E-07  0.3800842E+04  0.7818609E-02  0.8045974E-01
        1   -1    0    0  501    0  0.00000000000E+00  0.00000000000E+00  0.23311930104E+04  0.23311930104E+04  0.50400001928E-02 0.  1.
       -1   -1    0    0    0  501  0.00000000000E+00  0.00000000000E+00 -0.15492497447E+04  0.15492497447E+04  0.50400001928E-02 0. -1.
    10030    2    1    2    0    0  0.00000000000E+00  0.00000000000E+00  0.78194326568E+03  0.38804427551E+04  0.38008421047E+04 0.  0.
        4    1    3    3  502    0  0.93660449895E+03 -0.61394211189E+03  0.19585248654E+04  0.22560971091E+04  0.12699999809E+01 0.  1.
       -4    1    3    3    0  502 -0.93660449895E+03  0.61394211189E+03 -0.11765815997E+04  0.16243456461E+04  0.12699999809E+01 0. -1.
</event>
<event>
 5   0  0.5158266E-07  0.3710121E+04  0.7818609E-02  0.8065723E-01
       -2   -1    0    0    0  501  0.00000000000E+00  0.00000000000E+00  0.15630569283E+04  0.15630569283E+04  0.25500000920E-02 0.  1.
        2   -1    0    0  501    0  0.00000000000E+00  0.00000000000E+00 -0.22016148601E+04  0.22016148601E+04  0.25500000920E-02 0. -1.
    10030    2    1    2    0    0  0.00000000000E+00  0.00000000000E+00 -0.63855793182E+03  0.37646717885E+04  0.37101209472E+04 0.  0.
        2    1    3    3  502    0 -0.17739940372E+04  0.26347093398E+03  0.16179909409E+03  0.18007361617E+04  0.25500000920E-02 0. -1.
       -2    1    3    3    0  502  0.17739940372E+04 -0.26347093398E+03 -0.80035702592E+03  0.19639356268E+04  0.25500000920E-02 0.  1.
</event>
<event>
 5   0  0.5132561E-07  0.3790846E+04  0.7818609E-02  0.8048122E-01
       -2   -1    0    0    0  501  0.00000000000E+00  0.00000000000E+00  0.17520804220E+04  0.17520804220E+04  0.25500000920E-02 0. -1.
        2   -1    0    0  501    0  0.00000000000E+00  0.00000000000E+00 -0.20504925010E+04  0.20504925010E+04  0.25500000920E-02 0.  1.
    10030    2    1    2    0    0  0.00000000000E+00  0.00000000000E+00 -0.29841207898E+03  0.38025729230E+04  0.37908456927E+04 0.  0.
        3    1    3    3  502    0  0.65984667842E+02  0.46229002898E+03  0.16934748501E+04  0.17566795739E+04  0.10100000352E+00 0. -1.
       -3    1    3    3    0  502 -0.65984667842E+02 -0.46229002898E+03 -0.19918869291E+04  0.20458933491E+04  0.10100000352E+00 0.  1.
</event>
<event>
 5   0  0.1648000E-07  0.3759302E+04  0.7818609E-02  0.8054945E-01
       -1   -1    0    0    0  501  0.00000000000E+00  0.00000000000E+00  0.20928631353E+04  0.20928631353E+04  0.50400001928E-02 0.  1.
        1   -1    0    0  501    0  0.00000000000E+00  0.00000000000E+00 -0.16881602334E+04  0.16881602334E+04  0.50400001928E-02 0. -1.
    10030    2    1    2    0    0  0.00000000000E+00  0.00000000000E+00  0.40470290187E+03  0.37810233687E+04  0.37593022326E+04 0.  0.
        1    1    3    3  502    0  0.14470072501E+04  0.11659012138E+04 -0.82005829368E+02  0.18600754227E+04  0.50400001928E-02 0. -1.
       -1    1    3    3    0  502 -0.14470072501E+04 -0.11659012138E+04  0.48670873124E+03  0.19209479460E+04  0.50400001928E-02 0.  1.
</event>
<event>
 5   0  0.5134434E-07  0.3763625E+04  0.7818609E-02  0.8054006E-01
       -2   -1    0    0    0  501  0.00000000000E+00  0.00000000000E+00  0.23692536176E+04  0.23692536176E+04  0.25500000920E-02 0. -1.
        2   -1    0    0  501    0  0.00000000000E+00  0.00000000000E+00 -0.14946559657E+04  0.14946559657E+04  0.25500000920E-02 0.  1.
    10030    2    1    2    0    0  0.00000000000E+00  0.00000000000E+00  0.87459765197E+03  0.38639095833E+04  0.37636254085E+04 0.  0.
        5    1    3    3  502    0  0.22397258331E+03 -0.55889538215E+03 -0.13930894701E+04  0.15176455871E+04  0.46999998093E+01 0.  1.
       -5    1    3    3    0  502 -0.22397258331E+03  0.55889538215E+03  0.22676871221E+04  0.23462639962E+04  0.46999998093E+01 0. -1.
</event>
<event>
 5   0  0.1648000E-07  0.3804540E+04  0.7818609E-02  0.8045181E-01
       -1   -1    0    0    0  501  0.00000000000E+00  0.00000000000E+00  0.16597268692E+04  0.16597268692E+04  0.50400001928E-02 0.  1.
        1   -1    0    0  501    0  0.00000000000E+00  0.00000000000E+00 -0.21802573971E+04  0.21802573971E+04  0.50400001928E-02 0. -1.
    10030    2    1    2    0    0  0.00000000000E+00  0.00000000000E+00 -0.52053052786E+03  0.38399842663E+04  0.38045403316E+04 0.  0.
        4    1    3    3  502    0 -0.24645207273E+03  0.12511327701E+04 -0.16849959402E+04  0.21131220419E+04  0.12699999809E+01 0. -1.
       -4    1    3    3    0  502  0.24645207273E+03 -0.12511327701E+04  0.11644654124E+04  0.17268622244E+04  0.12699999809E+01 0.  1.
</event>
<event>
 5   0  0.1656617E-07  0.3694716E+04  0.7818609E-02  0.8069134E-01
        1   -1    0    0  501    0  0.00000000000E+00  0.00000000000E+00  0.25537020889E+04  0.25537020889E+04  0.50400001928E-02 0. -1.
       -1   -1    0    0    0  501  0.00000000000E+00  0.00000000000E+00 -0.13363861646E+04  0.13363861646E+04  0.50400001928E-02 0.  1.
    10030    2    1    2    0    0  0.00000000000E+00  0.00000000000E+00  0.12173159243E+04  0.38900882535E+04  0.36947163031E+04 0.  0.
        5    1    3    3  502    0 -0.62156681655E+03 -0.17376073592E+04  0.52003203564E+03  0.19173106296E+04  0.46999998093E+01 0. -1.
       -5    1    3    3    0  502  0.62156681655E+03  0.17376073592E+04  0.69728388871E+03  0.19727776240E+04  0.46999998093E+01 0.  1.
</event>
<event>
 5   0  0.5158266E-07  0.3766520E+04  0.7818609E-02  0.8053378E-01
       -2   -1    0    0    0  501  0.00000000000E+00  0.00000000000E+00  0.15231179592E+04  0.15231179592E+04  0.25500000920E-02 0. -1.
        2   -1    0    0  501    0  0.00000000000E+00  0.00000000000E+00 -0.23285583227E+04  0.23285583227E+04  0.25500000920E-02 0.  1.
    10030    2    1    2    0    0  0.00000000000E+00  0.00000000000E+00 -0.80544036347E+03  0.38516762819E+04  0.37665204104E+04 0.  0.
        2    1    3    3  502    0  0.10023832877E+04 -0.89355455589E+03  0.94753258064E+03  0.16434810590E+04  0.25500000920E-02 0. -1.
       -2    1    3    3    0  502 -0.10023832877E+04  0.89355455589E+03 -0.17529729441E+04  0.22081952230E+04  0.25500000920E-02 0.  1.
</event>
<event>
 5   0  0.1648000E-07  0.3461115E+04  0.7818609E-02  0.8123067E-01
       -1   -1    0    0    0  501  0.00000000000E+00  0.00000000000E+00  0.13029251709E+04  0.13029251709E+04  0.50400001928E-02 0. -1.
        1   -1    0    0  501    0  0.00000000000E+00  0.00000000000E+00 -0.22985429084E+04  0.22985429084E+04  0.50400001928E-02 0.  1.
    10030    2    1    2    0    0  0.00000000000E+00  0.00000000000E+00 -0.99561773754E+03  0.36014680793E+04  0.34611150873E+04 0.  0.
        1    1    3    3  502    0  0.98302180880E+02  0.65026221763E+03 -0.21634469763E+04  0.22611959423E+04  0.50400001928E-02 0.  1.
       -1    1    3    3    0  502 -0.98302180880E+02 -0.65026221763E+03  0.11678292387E+04  0.13402721370E+04  0.50400001928E-02 0. -1.
</event>
<event>
 5   0  0.1648000E-07  0.2835693E+04  0.7818609E-02  0.8292272E-01
        1   -1    0    0  501    0  0.00000000000E+00  0.00000000000E+00  0.22641322854E+04  0.22641322854E+04  0.50400001928E-02 0.  1.
       -1   -1    0    0    0  501  0.00000000000E+00  0.00000000000E+00 -0.88788509004E+03  0.88788509005E+03  0.50400001928E-02 0. -1.
    10030    2    1    2    0    0  0.00000000000E+00  0.00000000000E+00  0.13762471953E+04  0.31520173754E+04  0.28356934236E+04 0.  0.
        2    1    3    3  502    0  0.82770831534E+03 -0.11095854208E+04  0.10289339217E+04  0.17248147369E+04  0.25500000920E-02 0.  1.
       -2    1    3    3    0  502 -0.82770831534E+03  0.11095854208E+04  0.34731327368E+03  0.14272026386E+04  0.25500000920E-02 0. -1.
</event>
<event>
 5   0  0.5134434E-07  0.3562033E+04  0.7818609E-02  0.8099244E-01
        2   -1    0    0  501    0  0.00000000000E+00  0.00000000000E+00  0.16169559042E+04  0.16169559042E+04  0.25500000920E-02 0. -1.
       -2   -1    0    0    0  501  0.00000000000E+00  0.00000000000E+00 -0.19617227243E+04  0.19617227243E+04  0.25500000920E-02 0.  1.
    10030    2    1    2    0    0  0.00000000000E+00  0.00000000000E+00 -0.34476682007E+03  0.35786786285E+04  0.35620326452E+04 0.  0.
        5    1    3    3  502    0 -0.21890517865E+03  0.14150656097E+04  0.89165365213E+03  0.16868308991E+04  0.46999998093E+01 0. -1.
       -5    1    3    3    0  502  0.21890517865E+03 -0.14150656097E+04 -0.12364204722E+04  0.18918477293E+04  0.46999998093E+01 0.  1.
</event>
<event>
 5   0  0.5325362E-07  0.3769148E+04  0.7818609E-02  0.8052808E-01
        2   -1    0    0  501    0  0.00000000000E+00  0.00000000000E+00  0.17247382994E+04  0.17247382994E+04  0.25500000920E-02 0. -1.
       -2   -1    0    0    0  501  0.00000000000E+00  0.00000000000E+00 -0.20592225133E+04  0.20592225133E+04  0.25500000920E-02 0.  1.
    10030    2    1    2    0    0  0.00000000000E+00  0.00000000000E+00 -0.33448421386E+03  0.37839608127E+04  0.37691484108E+04 0.  0.
        4    1    3    3  502    0 -0.12065842781E+04  0.61597924644E+03 -0.14824831146E+04  0.20082414821E+04  0.12699999809E+01 0.  1.
       -4    1    3    3    0  502  0.12065842781E+04 -0.61597924644E+03  0.11479989008E+04  0.17757193307E+04  0.12699999809E+01 0. -1.
</event>
<event>
 5   0  0.1648000E-07  0.3268925E+04  0.7818609E-02  0.8170848E-01
       -1   -1    0    0    0  501  0.00000000000E+00  0.00000000000E+00  0.20973025527E+04  0.20973025528E+04  0.50400001928E-02 0. -1.
        1   -1    0    0  501    0  0.00000000000E+00  0.00000000000E+00 -0.12737638928E+04  0.12737638928E+04  0.50400001928E-02 0.  1.
    10030    2    1    2    0    0  0.00000000000E+00  0.00000000000E+00  0.82353865991E+03  0.33710664456E+04  0.32689253672E+04 0.  0.
        2    1    3    3  502    0  0.16116772211E+03  0.16180733865E+04  0.58225818332E+03  0.17271829986E+04  0.25500000920E-02 0. -1.
       -2    1    3    3    0  502 -0.16116772211E+03 -0.16180733865E+04  0.24128047660E+03  0.16438834470E+04  0.25500000920E-02 0.  1.
</event>
<event>
 5   0  0.1648000E-07  0.3796292E+04  0.7818609E-02  0.8046951E-01
       -1   -1    0    0    0  501  0.00000000000E+00  0.00000000000E+00  0.32302692333E+04  0.32302692333E+04  0.50400001928E-02 0. -1.
        1   -1    0    0  501    0  0.00000000000E+00  0.00000000000E+00 -0.11153740219E+04  0.11153740219E+04  0.50400001928E-02 0.  1.
    10030    2    1    2    0    0  0.00000000000E+00  0.00000000000E+00  0.21148952114E+04  0.43456432553E+04  0.37962920787E+04 0.  0.
        3    1    3    3  502    0 -0.10020284150E+04 -0.79595184766E+03 -0.54733163450E+03  0.13918233424E+04  0.10100000352E+00 0.  1.
       -3    1    3    3    0  502  0.10020284150E+04  0.79595184766E+03  0.26622268459E+04  0.29538199128E+04  0.10100000352E+00 0. -1.
</event>
<event>
 5   0  0.1648000E-07  0.3701717E+04  0.7818609E-02  0.8067581E-01
        1   -1    0    0  501    0  0.00000000000E+00  0.00000000000E+00  0.22224389000E+04  0.22224389000E+04  0.50400001928E-02 0.  1.
       -1   -1    0    0    0  501  0.00000000000E+00  0.00000000000E+00 -0.15414044209E+04  0.15414044209E+04  0.50400001928E-02 0. -1.
    10030    2    1    2    0    0  0.00000000000E+00  0.00000000000E+00  0.68103447906E+03  0.37638433209E+04  0.37017169777E+04 0.  0.
        2    1    3    3  502    0  0.91895165372E+03 -0.16020482145E+04  0.21746328264E+03  0.18596561249E+04  0.25500000920E-02 0.  1.
       -2    1    3    3    0  502 -0.91895165372E+03  0.16020482145E+04  0.46357119642E+03  0.19041871960E+04  0.25500000920E-02 0. -1.
</event>
<event>
 5   0  0.5132561E-07  0.3815042E+04  0.7818609E-02  0.8042935E-01
       -2   -1    0    0    0  501  0.00000000000E+00  0.00000000000E+00  0.15343783123E+04  0.15343783123E+04  0.25500000920E-02 0.  1.
        2   -1    0    0  501    0  0.00000000000E+00  0.00000000000E+00 -0.23714070537E+04  0.23714070537E+04  0.25500000920E-02 0. -1.
    10030    2    1    2    0    0  0.00000000000E+00  0.00000000000E+00 -0.83702874140E+03  0.39057853659E+04  0.38150415739E+04 0.  0.
        3    1    3    3  502    0 -0.33226926594E+03 -0.17074300580E+04 -0.12200250647E+04  0.21246603109E+04  0.10100000352E+00 0. -1.
       -3    1    3    3    0  502  0.33226926594E+03  0.17074300580E+04  0.38299632327E+03  0.17811250551E+04  0.10100000352E+00 0.  1.
</event>
<event>
 5   0  0.1648000E-07  0.3864008E+04  0.7818609E-02  0.8032557E-01
        3   -1    0    0  501    0  0.00000000000E+00  0.00000000000E+00  0.14850916390E+04  0.14850916424E+04  0.10100000352E+00 0.  1.
       -3   -1    0    0    0  501  0.00000000000E+00  0.00000000000E+00 -0.25134072826E+04  0.25134072846E+04  0.10100000352E+00 0. -1.
    10030    2    1    2    0    0  0.00000000000E+00  0.00000000000E+00 -0.10283156436E+04  0.39984989270E+04  0.38640083600E+04 0.  0.
        1    1    3    3  502    0 -0.15153966451E+04 -0.36508927319E+03  0.66702819976E+03  0.16954774515E+04  0.50400001928E-02 0.  1.
       -1    1    3    3    0  502  0.15153966451E+04  0.36508927319E+03 -0.16953438434E+04  0.23030214755E+04  0.50400001928E-02 0. -1.
</event>
<event>
 5   0  0.1648000E-07  0.3880127E+04  0.7818609E-02  0.8029175E-01
       -1   -1    0    0    0  501  0.00000000000E+00  0.00000000000E+00  0.17020577260E+04  0.17020577260E+04  0.50400001928E-02 0. -1.
        1   -1    0    0  501    0  0.00000000000E+00  0.00000000000E+00 -0.22113507921E+04  0.22113507921E+04  0.50400001928E-02 0.  1.
    10030    2    1    2    0    0  0.00000000000E+00  0.00000000000E+00 -0.50929306617E+03  0.39134085181E+04  0.38801271631E+04 0.  0.
        4    1    3    3  502    0 -0.48534184625E+03 -0.12890390797E+04  0.11233324984E+04  0.17773733349E+04  0.12699999809E+01 0. -1.
       -4    1    3    3    0  502  0.48534184625E+03  0.12890390797E+04 -0.16326255646E+04  0.21360351832E+04  0.12699999809E+01 0.  1.
</event>
<event>
 5   0  0.1648000E-07  0.3533387E+04  0.7818609E-02  0.8105923E-01
        1   -1    0    0  501    0  0.00000000000E+00  0.00000000000E+00  0.21490738180E+04  0.21490738180E+04  0.50400001928E-02 0.  1.
       -1   -1    0    0    0  501  0.00000000000E+00  0.00000000000E+00 -0.14523495628E+04  0.14523495628E+04  0.50400001928E-02 0. -1.
    10030    2    1    2    0    0  0.00000000000E+00  0.00000000000E+00  0.69672425518E+03  0.36014233808E+04  0.35333872814E+04 0.  0.
        3    1    3    3  502    0 -0.16217869153E+02 -0.14687753689E+04 -0.65219264410E+03  0.16071463402E+04  0.10100000352E+00 0. -1.
       -3    1    3    3    0  502  0.16217869153E+02  0.14687753689E+04  0.13489168993E+04  0.19942770407E+04  0.10100000352E+00 0.  1.
</event>
<event>
 5   0  0.5202788E-07  0.3813330E+04  0.7818609E-02  0.8043300E-01
       -2   -1    0    0    0  501  0.00000000000E+00  0.00000000000E+00  0.15784321955E+04  0.15784321955E+04  0.25500000920E-02 0.  1.
        2   -1    0    0  501    0  0.00000000000E+00  0.00000000000E+00 -0.23031536757E+04  0.23031536757E+04  0.25500000920E-02 0. -1.
    10030    2    1    2    0    0  0.00000000000E+00  0.00000000000E+00 -0.72472148021E+03  0.38815858713E+04  0.38133302574E+04 0.  0.
        1    1    3    3  502    0 -0.52746126859E+03 -0.11191239220E+04  0.11143714920E+04  0.16650758435E+04  0.50400001928E-02 0.  1.
       -1    1    3    3    0  502  0.52746126859E+03  0.11191239220E+04 -0.18390929722E+04  0.22165100277E+04  0.50400001928E-02 0. -1.
</event>
<event>
 5   0  0.1648000E-07  0.3747911E+04  0.7818609E-02  0.8057426E-01
       -1   -1    0    0    0  501  0.00000000000E+00  0.00000000000E+00  0.11633548261E+04  0.11633548261E+04  0.50400001928E-02 0.  1.
        1   -1    0    0  501    0  0.00000000000E+00  0.00000000000E+00 -0.30186051940E+04  0.30186051940E+04  0.50400001928E-02 0. -1.
    10030    2    1    2    0    0  0.00000000000E+00  0.00000000000E+00 -0.18552503679E+04  0.41819600201E+04  0.37479108424E+04 0.  0.
        1    1    3    3  502    0 -0.72781390243E+03  0.15968687681E+04 -0.16610160648E+04  0.24163355120E+04  0.50400001928E-02 0.  1.
       -1    1    3    3    0  502  0.72781390243E+03 -0.15968687681E+04 -0.19423430309E+03  0.17656245081E+04  0.50400001928E-02 0. -1.
</event>
<event>
 5   0  0.5132561E-07  0.3675062E+04  0.7818609E-02  0.8073511E-01
       -2   -1    0    0    0  501  0.00000000000E+00  0.00000000000E+00  0.15750966261E+04  0.15750966261E+04  0.25500000920E-02 0.  1.
        2   -1    0    0  501    0  0.00000000000E+00  0.00000000000E+00 -0.21436905620E+04  0.21436905620E+04  0.25500000920E-02 0. -1.
    10030    2    1    2    0    0  0.00000000000E+00  0.00000000000E+00 -0.56859393588E+03  0.37187871882E+04  0.36750617800E+04 0.  0.
        3    1    3    3  502    0  0.57133520708E+03 -0.64668159656E+03  0.13573178787E+04  0.16083944915E+04  0.10100000352E+00 0.  1.
       -3    1    3    3    0  502 -0.57133520708E+03  0.64668159656E+03 -0.19259118146E+04  0.21103926966E+04  0.10100000352E+00 0. -1.
</event>
<event>
 5   0  0.5132561E-07  0.2874147E+04  0.7818609E-02  0.8280611E-01
       -2   -1    0    0    0  501  0.00000000000E+00  0.00000000000E+00  0.10636045879E+04  0.10636045879E+04  0.25500000920E-02 0.  1.
        2   -1    0    0  501    0  0.00000000000E+00  0.00000000000E+00 -0.19416804540E+04  0.19416804540E+04  0.25500000920E-02 0. -1.
    10030    2    1    2    0    0  0.00000000000E+00  0.00000000000E+00 -0.87807586611E+03  0.30052850420E+04  0.28741469964E+04 0.  0.
        3    1    3    3  502    0 -0.11701732365E+04  0.28226223081E+03  0.38176433554E+03  0.12628227858E+04  0.10100000352E+00 0.  1.
       -3    1    3    3    0  502  0.11701732365E+04 -0.28226223081E+03 -0.12598402017E+04  0.17424622562E+04  0.10100000352E+00 0. -1.
</event>
<event>
 5   0  0.5325362E-07  0.3778386E+04  0.7818609E-02  0.8050809E-01
        2   -1    0    0  501    0  0.00000000000E+00  0.00000000000E+00  0.24338128311E+04  0.24338128311E+04  0.25500000920E-02 0. -1.
       -2   -1    0    0    0  501  0.00000000000E+00  0.00000000000E+00 -0.14664442185E+04  0.14664442185E+04  0.25500000920E-02 0.  1.
    10030    2    1    2    0    0  0.00000000000E+00  0.00000000000E+00  0.96736861267E+03  0.39002570496E+04  0.37783862984E+04 0.  0.
        4    1    3    3  502    0  0.73949689849E+03 -0.13283023988E+04 -0.67400958375E+03  0.16629893137E+04  0.12699999809E+01 0.  1.
       -4    1    3    3    0  502 -0.73949689849E+03  0.13283023988E+04  0.16413781964E+04  0.22372677359E+04  0.12699999809E+01 0. -1.
</event>
<event>
 5   0  0.1656617E-07  0.3771322E+04  0.7818609E-02  0.8052337E-01
       -1   -1    0    0    0  501  0.00000000000E+00  0.00000000000E+00  0.15262347912E+04  0.15262347912E+04  0.50400001928E-02 0. -1.
        1   -1    0    0  501    0  0.00000000000E+00  0.00000000000E+00 -0.23297314623E+04  0.23297314623E+04  0.50400001928E-02 0.  1.
    10030    2    1    2    0    0  0.00000000000E+00  0.00000000000E+00 -0.80349667112E+03  0.38559662535E+04  0.37713218966E+04 0.  0.
        5    1    3    3  502    0 -0.16017449569E+04 -0.95491745133E+03 -0.68774204065E+03  0.19875777847E+04  0.46999998093E+01 0. -1.
       -5    1    3    3    0  502  0.16017449569E+04  0.95491745133E+03 -0.11575463046E+03  0.18683884688E+04  0.46999998093E+01 0.  1.
</event>
<event>
 5   0  0.5325362E-07  0.3799102E+04  0.7818609E-02  0.8046348E-01
        2   -1    0    0  501    0  0.00000000000E+00  0.00000000000E+00  0.23171717914E+04  0.23171717914E+04  0.25500000920E-02 0.  1.
       -2   -1    0    0    0  501  0.00000000000E+00  0.00000000000E+00 -0.15571972976E+04  0.15571972976E+04  0.25500000920E-02 0. -1.
    10030    2    1    2    0    0  0.00000000000E+00  0.00000000000E+00  0.75997449379E+03  0.38743690890E+04  0.37991018157E+04 0.  0.
        4    1    3    3  502    0  0.37308768037E+03  0.18616444479E+04  0.32071897064E+03  0.19255588121E+04  0.12699999809E+01 0.  1.
       -4    1    3    3    0  502 -0.37308768037E+03 -0.18616444479E+04  0.43925552315E+03  0.19488102769E+04  0.12699999809E+01 0. -1.
</event>
<event>
 5   0  0.1656617E-07  0.3663721E+04  0.7818609E-02  0.8076050E-01
       -1   -1    0    0    0  501  0.00000000000E+00  0.00000000000E+00  0.17440084934E+04  0.17440084935E+04  0.50400001928E-02 0.  1.
        1   -1    0    0  501    0  0.00000000000E+00  0.00000000000E+00 -0.19241374736E+04  0.19241374737E+04  0.50400001928E-02 0. -1.
    10030    2    1    2    0    0  0.00000000000E+00  0.00000000000E+00 -0.18012898020E+03  0.36681459671E+04  0.36637205661E+04 0.  0.
        5    1    3    3  502    0 -0.40874429234E+03 -0.26970580695E+03 -0.18573813143E+04  0.19208593274E+04  0.46999998093E+01 0. -1.
       -5    1    3    3    0  502  0.40874429234E+03  0.26970580695E+03  0.16772523341E+04  0.17472866397E+04  0.46999998093E+01 0.  1.
</event>
<event>
 5   0  0.5202788E-07  0.3204167E+04  0.7818609E-02  0.8187718E-01
       -2   -1    0    0    0  501  0.00000000000E+00  0.00000000000E+00  0.15930651863E+04  0.15930651863E+04  0.25500000920E-02 0. -1.
        2   -1    0    0  501    0  0.00000000000E+00  0.00000000000E+00 -0.16111525759E+04  0.16111525759E+04  0.25500000920E-02 0.  1.
    10030    2    1    2    0    0  0.00000000000E+00  0.00000000000E+00 -0.18087389588E+02  0.32042177622E+04  0.32041667113E+04 0.  0.
        1    1    3    3  502    0  0.94221039748E+03  0.12415422809E+04  0.36174976676E+03  0.16000158006E+04  0.50400001928E-02 0.  1.
       -1    1    3    3    0  502 -0.94221039748E+03 -0.12415422809E+04 -0.37983715634E+03  0.16042019616E+04  0.50400001928E-02 0. -1.
</event>
<event>
 5   0  0.1648000E-07  0.3851780E+04  0.7818609E-02  0.8035133E-01
       -1   -1    0    0    0  501  0.00000000000E+00  0.00000000000E+00  0.12060462407E+04  0.12060462407E+04  0.50400001928E-02 0.  1.
        1   -1    0    0  501    0  0.00000000000E+00  0.00000000000E+00 -0.30753819538E+04  0.30753819538E+04  0.50400001928E-02 0. -1.
    10030    2    1    2    0    0  0.00000000000E+00  0.00000000000E+00 -0.18693357131E+04  0.42814281945E+04  0.38517802866E+04 0.  0.
        2    1    3    3  502    0 -0.15018365719E+04 -0.11760661758E+04 -0.12296111245E+04  0.22694907482E+04  0.25500000920E-02 0.  1.
       -2    1    3    3    0  502  0.15018365719E+04  0.11760661758E+04 -0.63972458855E+03  0.20119374463E+04  0.25500000920E-02 0. -1.
</event>
<event>
 5   0  0.5134434E-07  0.3645060E+04  0.7818609E-02  0.8080247E-01
       -2   -1    0    0    0  501  0.00000000000E+00  0.00000000000E+00  0.21282810336E+04  0.21282810336E+04  0.25500000920E-02 0. -1.
        2   -1    0    0  501    0  0.00000000000E+00  0.00000000000E+00 -0.15607034374E+04  0.15607034374E+04  0.25500000920E-02 0.  1.
    10030    2    1    2    0    0  0.00000000000E+00  0.00000000000E+00  0.56757759625E+03  0.36889844710E+04  0.36450599583E+04 0.  0.
        5    1    3    3  502    0  0.10919786115E+04  0.76456888914E+03  0.15415889721E+04  0.20380141126E+04  0.46999998093E+01 0. -1.
       -5    1    3    3    0  502 -0.10919786115E+04 -0.76456888914E+03 -0.97401137581E+03  0.16509703584E+04  0.46999998093E+01 0.  1.
</event>
<event>
 5   0  0.1648000E-07  0.3787929E+04  0.7818609E-02  0.8048750E-01
        1   -1    0    0  501    0  0.00000000000E+00  0.00000000000E+00  0.24470977726E+04  0.24470977726E+04  0.50400001928E-02 0. -1.
       -1   -1    0    0    0  501  0.00000000000E+00  0.00000000000E+00 -0.14658597546E+04  0.14658597546E+04  0.50400001928E-02 0.  1.
    10030    2    1    2    0    0  0.00000000000E+00  0.00000000000E+00  0.98123801804E+03  0.39129575272E+04  0.37879293237E+04 0.  0.
        3    1    3    3  502    0  0.86376151904E+03  0.12380658594E+04 -0.69090399297E+03  0.16601925707E+04  0.10100000352E+00 0.  1.
       -3    1    3    3    0  502 -0.86376151904E+03 -0.12380658594E+04  0.16721420110E+04  0.22527649565E+04  0.10100000352E+00 0. -1.
</event>
<event>
 5   0  0.1648000E-07  0.3806162E+04  0.7818609E-02  0.8044834E-01
       -1   -1    0    0    0  501  0.00000000000E+00  0.00000000000E+00  0.21316614970E+04  0.21316614970E+04  0.50400001928E-02 0.  1.
        1   -1    0    0  501    0  0.00000000000E+00  0.00000000000E+00 -0.16990111033E+04  0.16990111033E+04  0.50400001928E-02 0. -1.
    10030    2    1    2    0    0  0.00000000000E+00  0.00000000000E+00  0.43265039365E+03  0.38306726003E+04  0.38061616108E+04 0.  0.
        3    1    3    3  502    0 -0.18985393181E+04  0.11455819546E+03  0.15155690985E+03  0.19080211292E+04  0.10100000352E+00 0. -1.
       -3    1    3    3    0  502  0.18985393181E+04 -0.11455819546E+03  0.28109348380E+03  0.19226514711E+04  0.10100000352E+00 0.  1.
</event>
<event>
 5   0  0.1648000E-07  0.3820080E+04  0.7818609E-02  0.8041859E-01
        1   -1    0    0  501    0  0.00000000000E+00  0.00000000000E+00  0.12159108155E+04  0.12159108155E+04  0.50400001928E-02 0.  1.
       -1   -1    0    0    0  501  0.00000000000E+00  0.00000000000E+00 -0.30004281050E+04  0.30004281050E+04  0.50400001928E-02 0. -1.
    10030    2    1    2    0    0  0.00000000000E+00  0.00000000000E+00 -0.17845172895E+04  0.42163389205E+04  0.38200800955E+04 0.  0.
        3    1    3    3  502    0  0.49025412126E+03  0.31622723778E+03  0.11151671785E+04  0.12585494092E+04  0.10100000352E+00 0.  1.
       -3    1    3    3    0  502 -0.49025412126E+03 -0.31622723778E+03 -0.28996844679E+04  0.29577895113E+04  0.10100000352E+00 0. -1.
</event>
<event>
 5   0  0.1648000E-07  0.3907470E+04  0.7818609E-02  0.8023477E-01
        1   -1    0    0  501    0  0.00000000000E+00  0.00000000000E+00  0.23407519309E+04  0.23407519309E+04  0.50400001928E-02 0. -1.
       -1   -1    0    0    0  501  0.00000000000E+00  0.00000000000E+00 -0.16307070001E+04  0.16307070001E+04  0.50400001928E-02 0.  1.
    10030    2    1    2    0    0  0.00000000000E+00  0.00000000000E+00  0.71004493074E+03  0.39714589310E+04  0.39074700558E+04 0.  0.
        2    1    3    3  502    0 -0.62095560043E+03  0.29496040085E+03  0.22137664116E+04  0.23180485803E+04  0.25500000920E-02 0. -1.
       -2    1    3    3    0  502  0.62095560043E+03 -0.29496040085E+03 -0.15037214808E+04  0.16534103507E+04  0.25500000920E-02 0.  1.
</event>
<event>
 5   0  0.1656617E-07  0.3793402E+04  0.7818609E-02  0.8047572E-01
        1   -1    0    0  501    0  0.00000000000E+00  0.00000000000E+00  0.21367864075E+04  0.21367864075E+04  0.50400001928E-02 0.  1.
       -1   -1    0    0    0  501  0.00000000000E+00  0.00000000000E+00 -0.16835907311E+04  0.16835907312E+04  0.50400001928E-02 0. -1.
    10030    2    1    2    0    0  0.00000000000E+00  0.00000000000E+00  0.45319567631E+03  0.38203771386E+04  0.37934015290E+04 0.  0.
        5    1    3    3  502    0  0.98985065106E+03 -0.94878132311E+03 -0.10932410301E+04  0.17536214957E+04  0.46999998093E+01 0. -1.
       -5    1    3    3    0  502 -0.98985065106E+03  0.94878132311E+03  0.15464367064E+04  0.20667556429E+04  0.46999998093E+01 0.  1.
</event>
<event>
 5   0  0.5134434E-07  0.3792200E+04  0.7818609E-02  0.8047831E-01
        2   -1    0    0  501    0  0.00000000000E+00  0.00000000000E+00  0.11286214149E+04  0.11286214149E+04  0.25500000920E-02 0.  1.
       -2   -1    0    0    0  501  0.00000000000E+00  0.00000000000E+00 -0.31854756595E+04  0.31854756595E+04  0.25500000920E-02 0. -1.
    10030    2    1    2    0    0  0.00000000000E+00  0.00000000000E+00 -0.20568542446E+04  0.43140970744E+04  0.37922004409E+04 0.  0.
        5    1    3    3  502    0 -0.18393699861E+03  0.17943756427E+04 -0.36356690921E+03  0.18400597148E+04  0.46999998093E+01 0. -1.
       -5    1    3    3    0  502  0.18393699861E+03 -0.17943756427E+04 -0.16932873354E+04  0.24740373596E+04  0.46999998093E+01 0.  1.
</event>
<event>
 5   0  0.1648000E-07  0.3783693E+04  0.7818609E-02  0.8049663E-01
        3   -1    0    0  501    0  0.00000000000E+00  0.00000000000E+00  0.21751980272E+04  0.21751980295E+04  0.10100000352E+00 0. -1.
       -3   -1    0    0    0  501  0.00000000000E+00  0.00000000000E+00 -0.16454058774E+04  0.16454058805E+04  0.10100000352E+00 0.  1.
    10030    2    1    2    0    0  0.00000000000E+00  0.00000000000E+00  0.52979214979E+03  0.38206039100E+04  0.37836932375E+04 0.  0.
        4    1    3    3  502    0  0.99215392312E+03 -0.14686093176E+03  0.18846467989E+04  0.21349081268E+04  0.12699999809E+01 0. -1.
       -4    1    3    3    0  502 -0.99215392312E+03  0.14686093176E+03 -0.13548546491E+04  0.16856957832E+04  0.12699999809E+01 0.  1.
</event>
<event>
 5   0  0.5202788E-07  0.3794634E+04  0.7818609E-02  0.8047307E-01
        2   -1    0    0  501    0  0.00000000000E+00  0.00000000000E+00  0.10235856824E+04  0.10235856824E+04  0.25500000920E-02 0.  1.
       -2   -1    0    0    0  501  0.00000000000E+00  0.00000000000E+00 -0.35168645444E+04  0.35168645444E+04  0.25500000920E-02 0. -1.
    10030    2    1    2    0    0  0.00000000000E+00  0.00000000000E+00 -0.24932788619E+04  0.45404502268E+04  0.37946342088E+04 0.  0.
        1    1    3    3  502    0 -0.44336183361E+03 -0.16504608511E+04 -0.22327706331E+04  0.28117353070E+04  0.50400001928E-02 0. -1.
       -1    1    3    3    0  502  0.44336183361E+03  0.16504608511E+04 -0.26050822882E+03  0.17287149198E+04  0.50400001928E-02 0.  1.
</event>
<event>
 5   0  0.1648000E-07  0.3776339E+04  0.7818609E-02  0.8051252E-01
       -1   -1    0    0    0  501  0.00000000000E+00  0.00000000000E+00  0.15189686532E+04  0.15189686532E+04  0.50400001928E-02 0. -1.
        1   -1    0    0  501    0  0.00000000000E+00  0.00000000000E+00 -0.23471080144E+04  0.23471080144E+04  0.50400001928E-02 0.  1.
    10030    2    1    2    0    0  0.00000000000E+00  0.00000000000E+00 -0.82813936126E+03  0.38660766676E+04  0.37763387028E+04 0.  0.
        1    1    3    3  502    0 -0.15200736517E+04  0.71952906795E+03 -0.12928602481E+04  0.21212811240E+04  0.50400001928E-02 0.  1.
       -1    1    3    3    0  502  0.15200736517E+04 -0.71952906795E+03  0.46472088683E+03  0.17447955435E+04  0.50400001928E-02 0. -1.
</event>
<event>
 5   0  0.5325362E-07  0.2934417E+04  0.7818609E-02  0.8262710E-01
        2   -1    0    0  501    0  0.00000000000E+00  0.00000000000E+00  0.17736137099E+04  0.17736137099E+04  0.25500000920E-02 0. -1.
       -2   -1    0    0    0  501  0.00000000000E+00  0.00000000000E+00 -0.12137373976E+04  0.12137373976E+04  0.25500000920E-02 0.  1.
    10030    2    1    2    0    0  0.00000000000E+00  0.00000000000E+00  0.55987631231E+03  0.29873511074E+04  0.29344173449E+04 0.  0.
        4    1    3    3  502    0 -0.11820624719E+04 -0.81743667802E+03  0.58060499948E+03  0.15500252218E+04  0.12699999809E+01 0. -1.
       -4    1    3    3    0  502  0.11820624719E+04  0.81743667802E+03 -0.20728687170E+02  0.14373258856E+04  0.12699999809E+01 0.  1.
</event>
<event>
 5   0  0.5132561E-07  0.3787586E+04  0.7818609E-02  0.8048824E-01
       -2   -1    0    0    0  501  0.00000000000E+00  0.00000000000E+00  0.22335773302E+04  0.22335773302E+04  0.25500000920E-02 0. -1.
        2   -1    0    0  501    0  0.00000000000E+00  0.00000000000E+00 -0.16056983020E+04  0.16056983020E+04  0.25500000920E-02 0.  1.
    10030    2    1    2    0    0  0.00000000000E+00  0.00000000000E+00  0.62787902824E+03  0.38392756322E+04  0.37875856830E+04 0.  0.
        3    1    3    3  502    0  0.46906998846E+03 -0.18320180135E+03 -0.15365877011E+04  0.16170007197E+04  0.10100000352E+00 0.  1.
       -3    1    3    3    0  502 -0.46906998846E+03  0.18320180135E+03  0.21644667294E+04  0.22222749125E+04  0.10100000352E+00 0. -1.
</event>
<event>
 5   0  0.1648000E-07  0.3770371E+04  0.7818609E-02  0.8052543E-01
        1   -1    0    0  501    0  0.00000000000E+00  0.00000000000E+00  0.19943449931E+04  0.19943449931E+04  0.50400001928E-02 0.  1.
       -1   -1    0    0    0  501  0.00000000000E+00  0.00000000000E+00 -0.17820005050E+04  0.17820005050E+04  0.50400001928E-02 0. -1.
    10030    2    1    2    0    0  0.00000000000E+00  0.00000000000E+00  0.21234448810E+03  0.37763454981E+04  0.37703706900E+04 0.  0.
        3    1    3    3  502    0  0.23090709132E+03  0.21043588852E+03 -0.17558925761E+04  0.17834685579E+04  0.10100000352E+00 0. -1.
       -3    1    3    3    0  502 -0.23090709132E+03 -0.21043588852E+03  0.19682370642E+04  0.19928769403E+04  0.10100000352E+00 0.  1.
</event>
<event>
 5   0  0.1656617E-07  0.3704797E+04  0.7818609E-02  0.8066900E-01
        1   -1    0    0  501    0  0.00000000000E+00  0.00000000000E+00  0.21256013239E+04  0.21256013239E+04  0.50400001928E-02 0. -1.
       -1   -1    0    0    0  501  0.00000000000E+00  0.00000000000E+00 -0.16143105174E+04  0.16143105174E+04  0.50400001928E-02 0.  1.
    10030    2    1    2    0    0  0.00000000000E+00  0.00000000000E+00  0.51129080650E+03  0.37399118413E+04  0.37047971998E+04 0.  0.
        5    1    3    3  502    0  0.64760772235E+02 -0.86100575258E+03 -0.13987391942E+04  0.16437817029E+04  0.46999998093E+01 0.  1.
       -5    1    3    3    0  502 -0.64760772235E+02  0.86100575258E+03  0.19100300007E+04  0.20961301384E+04  0.46999998093E+01 0. -1.
</event>
<event>
 5   0  0.1648000E-07  0.3672894E+04  0.7818609E-02  0.8073995E-01
        1   -1    0    0  501    0  0.00000000000E+00  0.00000000000E+00  0.20635696978E+04  0.20635696978E+04  0.50400001928E-02 0. -1.
       -1   -1    0    0    0  501  0.00000000000E+00  0.00000000000E+00 -0.16343224594E+04  0.16343224594E+04  0.50400001928E-02 0.  1.
    10030    2    1    2    0    0  0.00000000000E+00  0.00000000000E+00  0.42924723836E+03  0.36978921572E+04  0.36728943920E+04 0.  0.
        4    1    3    3  502    0 -0.16137325771E+04  0.80306434057E+03  0.56842895462E+03  0.18900154113E+04  0.12699999809E+01 0.  1.
       -4    1    3    3    0  502  0.16137325771E+04 -0.80306434057E+03 -0.13918171626E+03  0.18078767459E+04  0.12699999809E+01 0. -1.
</event>
<event>
 5   0  0.5132561E-07  0.3750229E+04  0.7818609E-02  0.8056921E-01
       -2   -1    0    0    0  501  0.00000000000E+00  0.00000000000E+00  0.14372526450E+04  0.14372526450E+04  0.25500000920E-02 0.  1.
        2   -1    0    0  501    0  0.00000000000E+00  0.00000000000E+00 -0.24463716810E+04  0.24463716810E+04  0.25500000920E-02 0. -1.
    10030    2    1    2    0    0  0.00000000000E+00  0.00000000000E+00 -0.10091190361E+04  0.38836243260E+04  0.37502288832E+04 0.  0.
        3    1    3    3  502    0  0.30454704953E+03 -0.44440822802E+03  0.13553790502E+04  0.14585266396E+04  0.10100000352E+00 0.  1.
       -3    1    3    3    0  502 -0.30454704953E+03  0.44440822802E+03 -0.23644980862E+04  0.24250976864E+04  0.10100000352E+00 0. -1.
</event>
<event>
 5   0  0.5158266E-07  0.3920387E+04  0.7818609E-02  0.8020802E-01
       -2   -1    0    0    0  501  0.00000000000E+00  0.00000000000E+00  0.21495546057E+04  0.21495546057E+04  0.25500000920E-02 0.  1.
        2   -1    0    0  501    0  0.00000000000E+00  0.00000000000E+00 -0.17875137403E+04  0.17875137403E+04  0.25500000920E-02 0. -1.
    10030    2    1    2    0    0  0.00000000000E+00  0.00000000000E+00  0.36204086541E+03  0.39370683460E+04  0.39203869162E+04 0.  0.
        2    1    3    3  502    0 -0.98555270539E+03 -0.16943774938E+04  0.19243393091E+03  0.19695837237E+04  0.25500000920E-02 0. -1.
       -2    1    3    3    0  502  0.98555270539E+03  0.16943774938E+04  0.16960693449E+03  0.19674846223E+04  0.25500000920E-02 0.  1.
</event>
<event>
 5   0  0.5132561E-07  0.3815313E+04  0.7818609E-02  0.8042877E-01
       -2   -1    0    0    0  501  0.00000000000E+00  0.00000000000E+00  0.13585543134E+04  0.13585543134E+04  0.25500000920E-02 0. -1.
        2   -1    0    0  501    0  0.00000000000E+00  0.00000000000E+00 -0.26786951320E+04  0.26786951320E+04  0.25500000920E-02 0.  1.
    10030    2    1    2    0    0  0.00000000000E+00  0.00000000000E+00 -0.13201408186E+04  0.40372494454E+04  0.38153127399E+04 0.  0.
        3    1    3    3  502    0 -0.81087183908E+03  0.11973134509E+04 -0.19766653005E+04  0.24491382892E+04  0.10100000352E+00 0.  1.
       -3    1    3    3    0  502  0.81087183908E+03 -0.11973134509E+04  0.65652448189E+03  0.15881111563E+04  0.10100000352E+00 0. -1.
</event>
<event>
 5   0  0.5158266E-07  0.3826145E+04  0.7818609E-02  0.8040567E-01
        2   -1    0    0  501    0  0.00000000000E+00  0.00000000000E+00  0.14578253363E+04  0.14578253363E+04  0.25500000920E-02 0.  1.
       -2   -1    0    0    0  501  0.00000000000E+00  0.00000000000E+00 -0.25104832599E+04  0.25104832599E+04  0.25500000920E-02 0. -1.
    10030    2    1    2    0    0  0.00000000000E+00  0.00000000000E+00 -0.10526579236E+04  0.39683085962E+04  0.38261448497E+04 0.  0.
        2    1    3    3  502    0 -0.93515067934E+03  0.37206213309E+03 -0.22137114672E+04  0.24317597505E+04  0.25500000920E-02 0. -1.
       -2    1    3    3    0  502  0.93515067934E+03 -0.37206213309E+03  0.11610535437E+04  0.15365488457E+04  0.25500000920E-02 0.  1.
</event>
<event>
 5   0  0.5132561E-07  0.3665074E+04  0.7818609E-02  0.8075746E-01
        2   -1    0    0  501    0  0.00000000000E+00  0.00000000000E+00  0.18189048489E+04  0.18189048489E+04  0.25500000920E-02 0.  1.
       -2   -1    0    0    0  501  0.00000000000E+00  0.00000000000E+00 -0.18462713295E+04  0.18462713295E+04  0.25500000920E-02 0. -1.
    10030    2    1    2    0    0  0.00000000000E+00  0.00000000000E+00 -0.27366480578E+02  0.36651761784E+04  0.36650740094E+04 0.  0.
        3    1    3    3  502    0 -0.15594060072E+04  0.59421001244E+03  0.74354274717E+03  0.18269341699E+04  0.10100000352E+00 0.  1.
       -3    1    3    3    0  502  0.15594060072E+04 -0.59421001244E+03 -0.77090922775E+03  0.18382420085E+04  0.10100000352E+00 0. -1.
</event>
<event>
 5   0  0.5134434E-07  0.3787396E+04  0.7818609E-02  0.8048865E-01
        2   -1    0    0  501    0  0.00000000000E+00  0.00000000000E+00  0.14944642439E+04  0.14944642439E+04  0.25500000920E-02 0. -1.
       -2   -1    0    0    0  501  0.00000000000E+00  0.00000000000E+00 -0.23995831851E+04  0.23995831851E+04  0.25500000920E-02 0.  1.
    10030    2    1    2    0    0  0.00000000000E+00  0.00000000000E+00 -0.90511894117E+03  0.38940474289E+04  0.37873955538E+04 0.  0.
        5    1    3    3  502    0 -0.52038115258E+03 -0.13242092595E+04 -0.17374474988E+04  0.22456786520E+04  0.46999998093E+01 0.  1.
       -5    1    3    3    0  502  0.52038115258E+03  0.13242092595E+04  0.83232855761E+03  0.16483687770E+04  0.46999998093E+01 0. -1.
</event>
<event>
 5   0  0.5325362E-07  0.3808680E+04  0.7818609E-02  0.8044295E-01
        2   -1    0    0  501    0  0.00000000000E+00  0.00000000000E+00  0.16227691201E+04  0.16227691201E+04  0.25500000920E-02 0.  1.
       -2   -1    0    0    0  501  0.00000000000E+00  0.00000000000E+00 -0.22347668588E+04  0.22347668588E+04  0.25500000920E-02 0. -1.
    10030    2    1    2    0    0  0.00000000000E+00  0.00000000000E+00 -0.61199773866E+03  0.38575359790E+04  0.38086799021E+04 0.  0.
        4    1    3    3  502    0  0.10232416677E+04  0.54252421450E+03 -0.18370621922E+04  0.21716710490E+04  0.12699999809E+01 0. -1.
       -4    1    3    3    0  502 -0.10232416677E+04 -0.54252421450E+03  0.12250644536E+04  0.16858649300E+04  0.12699999809E+01 0.  1.
</event>
<event>
 5   0  0.5325362E-07  0.3754652E+04  0.7818609E-02  0.8055957E-01
        2   -1    0    0  501    0  0.00000000000E+00  0.00000000000E+00  0.21655120991E+04  0.21655120991E+04  0.25500000920E-02 0. -1.
       -2   -1    0    0    0  501  0.00000000000E+00  0.00000000000E+00 -0.16274914128E+04  0.16274914128E+04  0.25500000920E-02 0.  1.
    10030    2    1    2    0    0  0.00000000000E+00  0.00000000000E+00  0.53802068629E+03  0.37930035118E+04  0.37546516992E+04 0.  0.
        4    1    3    3  502    0 -0.11186568582E+04  0.96495290834E+03  0.14392135336E+04  0.20624898763E+04  0.12699999809E+01 0.  1.
       -4    1    3    3    0  502  0.11186568582E+04 -0.96495290834E+03 -0.90119284733E+03  0.17305136355E+04  0.12699999809E+01 0. -1.
</event>
<event>
 5   0  0.1648000E-07  0.3712978E+04  0.7818609E-02  0.8065092E-01
        1   -1    0    0  501    0  0.00000000000E+00  0.00000000000E+00  0.31061190474E+04  0.31061190474E+04  0.50400001928E-02 0. -1.
       -1   -1    0    0    0  501  0.00000000000E+00  0.00000000000E+00 -0.11096004019E+04  0.11096004019E+04  0.50400001928E-02 0.  1.
    10030    2    1    2    0    0  0.00000000000E+00  0.00000000000E+00  0.19965186455E+04  0.42157194494E+04  0.37129777503E+04 0.  0.
        1    1    3    3  502    0  0.54271740040E+03  0.14928671021E+04  0.20892827581E+04  0.26245564967E+04  0.50400001928E-02 0. -1.
       -1    1    3    3    0  502 -0.54271740040E+03 -0.14928671021E+04 -0.92764112603E+02  0.15911629526E+04  0.50400001928E-02 0.  1.
</event>
<event>
 5   0  0.5158266E-07  0.3886244E+04  0.7818609E-02  0.8027896E-01
       -2   -1    0    0    0  501  0.00000000000E+00  0.00000000000E+00  0.23157480899E+04  0.23157480899E+04  0.25500000920E-02 0.  1.
        2   -1    0    0  501    0  0.00000000000E+00  0.00000000000E+00 -0.16304549069E+04  0.16304549069E+04  0.25500000920E-02 0. -1.
    10030    2    1    2    0    0  0.00000000000E+00  0.00000000000E+00  0.68529318298E+03  0.39462029968E+04  0.38862438608E+04 0.  0.
        2    1    3    3  502    0  0.91731094626E+03 -0.49289967073E+02  0.20813241909E+04  0.22750382987E+04  0.25500000920E-02 0.  1.
       -2    1    3    3    0  502 -0.91731094626E+03  0.49289967073E+02 -0.13960310079E+04  0.16711646981E+04  0.25500000920E-02 0. -1.
</event>
<event>
 5   0  0.1656617E-07  0.3668554E+04  0.7818609E-02  0.8074966E-01
        1   -1    0    0  501    0  0.00000000000E+00  0.00000000000E+00  0.25384149210E+04  0.25384149210E+04  0.50400001928E-02 0. -1.
       -1   -1    0    0    0  501  0.00000000000E+00  0.00000000000E+00 -0.13254621035E+04  0.13254621035E+04  0.50400001928E-02 0.  1.
    10030    2    1    2    0    0  0.00000000000E+00  0.00000000000E+00  0.12129528175E+04  0.38638770245E+04  0.36685543642E+04 0.  0.
        5    1    3    3  502    0  0.38995732353E+03 -0.15426334191E+04  0.15676235048E+04  0.22336629385E+04  0.46999998093E+01 0. -1.
       -5    1    3    3    0  502 -0.38995732353E+03  0.15426334191E+04 -0.35467068736E+03  0.16302140860E+04  0.46999998093E+01 0.  1.
</event>
<event>
 5   0  0.1648000E-07  0.3491071E+04  0.7818609E-02  0.8115909E-01
        1   -1    0    0  501    0  0.00000000000E+00  0.00000000000E+00  0.11642964361E+04  0.11642964361E+04  0.50400001928E-02 0.  1.
       -1   -1    0    0    0  501  0.00000000000E+00  0.00000000000E+00 -0.26169400804E+04  0.26169400804E+04  0.50400001928E-02 0. -1.
    10030    2    1    2    0    0  0.00000000000E+00  0.00000000000E+00 -0.14526436443E+04  0.37812365166E+04  0.34910709011E+04 0.  0.
        1    1    3    3  502    0  0.15529562623E+04  0.71082388288E+03 -0.33587332331E+03  0.17406190377E+04  0.50400001928E-02 0.  1.
       -1    1    3    3    0  502 -0.15529562623E+04 -0.71082388288E+03 -0.11167703210E+04  0.20406174789E+04  0.50400001928E-02 0. -1.
</event>
<event>
 5   0  0.1656617E-07  0.3826290E+04  0.7818609E-02  0.8040537E-01
       -1   -1    0    0    0  501  0.00000000000E+00  0.00000000000E+00  0.29755544345E+04  0.29755544345E+04  0.50400001928E-02 0.  1.
        1   -1    0    0  501    0  0.00000000000E+00  0.00000000000E+00 -0.12300645696E+04  0.12300645696E+04  0.50400001928E-02 0. -1.
    10030    2    1    2    0    0  0.00000000000E+00  0.00000000000E+00  0.17454898649E+04  0.42056190042E+04  0.38262901536E+04 0.  0.
        5    1    3    3  502    0  0.10993984871E+04 -0.14762016745E+04  0.29923779919E+03  0.18647824988E+04  0.46999998093E+01 0.  1.
       -5    1    3    3    0  502 -0.10993984871E+04  0.14762016745E+04  0.14462520657E+04  0.23408365054E+04  0.46999998093E+01 0. -1.
</event>
<event>
 5   0  0.5202788E-07  0.3958986E+04  0.7818609E-02  0.8012872E-01
        2   -1    0    0  501    0  0.00000000000E+00  0.00000000000E+00  0.21088714950E+04  0.21088714950E+04  0.25500000920E-02 0.  1.
       -2   -1    0    0    0  501  0.00000000000E+00  0.00000000000E+00 -0.18580521497E+04  0.18580521497E+04  0.25500000920E-02 0. -1.
    10030    2    1    2    0    0  0.00000000000E+00  0.00000000000E+00  0.25081934535E+03  0.39669236447E+04  0.39589863424E+04 0.  0.
        1    1    3    3  502    0 -0.14564191276E+01  0.19781411830E+04  0.19869010494E+03  0.19880951735E+04  0.50400001928E-02 0.  1.
       -1    1    3    3    0  502  0.14564191276E+01 -0.19781411830E+04  0.52129240403E+02  0.19788284713E+04  0.50400001928E-02 0. -1.
</event>
<event>
 5   0  0.5132561E-07  0.3785977E+04  0.7818609E-02  0.8049171E-01
       -2   -1    0    0    0  501  0.00000000000E+00  0.00000000000E+00  0.12072575094E+04  0.12072575095E+04  0.25500000920E-02 0.  1.
        2   -1    0    0  501    0  0.00000000000E+00  0.00000000000E+00 -0.29682191412E+04  0.29682191412E+04  0.25500000920E-02 0. -1.
    10030    2    1    2    0    0  0.00000000000E+00  0.00000000000E+00 -0.17609616317E+04  0.41754766506E+04  0.37859766760E+04 0.  0.
        3    1    3    3  502    0 -0.40668619666E+03  0.65575608752E+03 -0.27868985438E+04  0.28917491614E+04  0.10100000352E+00 0. -1.
       -3    1    3    3    0  502  0.40668619666E+03 -0.65575608752E+03  0.10259369121E+04  0.12837274892E+04  0.10100000352E+00 0.  1.
</event>
<event>
 5   0  0.5134434E-07  0.3800677E+04  0.7818609E-02  0.8046010E-01
        2   -1    0    0  501    0  0.00000000000E+00  0.00000000000E+00  0.18973156511E+04  0.18973156511E+04  0.25500000920E-02 0.  1.
       -2   -1    0    0    0  501  0.00000000000E+00  0.00000000000E+00 -0.19033664066E+04  0.19033664066E+04  0.25500000920E-02 0. -1.
    10030    2    1    2    0    0  0.00000000000E+00  0.00000000000E+00 -0.60507555250E+01  0.38006820578E+04  0.38006772413E+04 0.  0.
        5    1    3    3  502    0 -0.15668324831E+04 -0.10296554627E+04 -0.31304251391E+03  0.19008345818E+04  0.46999998093E+01 0. -1.
       -5    1    3    3    0  502  0.15668324831E+04  0.10296554627E+04  0.30699175838E+03  0.18998474759E+04  0.46999998093E+01 0.  1.
</event>
<event>
 5   0  0.1656617E-07  0.4215172E+04  0.7818609E-02  0.7962492E-01
       -1   -1    0    0    0  501  0.00000000000E+00  0.00000000000E+00  0.19327476680E+04  0.19327476680E+04  0.50400001928E-02 0.  1.
        1   -1    0    0  501    0  0.00000000000E+00  0.00000000000E+00 -0.22982407771E+04  0.22982407771E+04  0.50400001928E-02 0. -1.
    10030    2    1    2    0    0  0.00000000000E+00  0.00000000000E+00 -0.36549310907E+03  0.42309884451E+04  0.42151723582E+04 0.  0.
        5    1    3    3  502    0 -0.48984236608E+02 -0.18424591790E+04 -0.12087571360E+04  0.22041259459E+04  0.46999998093E+01 0. -1.
       -5    1    3    3    0  502  0.48984236608E+02  0.18424591790E+04  0.84326402688E+03  0.20268624992E+04  0.46999998093E+01 0.  1.
</event>
<event>
 5   0  0.5132561E-07  0.3813955E+04  0.7818609E-02  0.8043167E-01
       -2   -1    0    0    0  501  0.00000000000E+00  0.00000000000E+00  0.15564590739E+04  0.15564590739E+04  0.25500000920E-02 0.  1.
        2   -1    0    0  501    0  0.00000000000E+00  0.00000000000E+00 -0.23364340895E+04  0.23364340895E+04  0.25500000920E-02 0. -1.
    10030    2    1    2    0    0  0.00000000000E+00  0.00000000000E+00 -0.77997501559E+03  0.38928931633E+04  0.38139554476E+04 0.  0.
        3    1    3    3  502    0 -0.14846128110E+04  0.99624102378E+03  0.28706068272E+03  0.18107940860E+04  0.10100000352E+00 0.  1.
       -3    1    3    3    0  502  0.14846128110E+04 -0.99624102378E+03 -0.10670356983E+04  0.20820990773E+04  0.10100000352E+00 0. -1.
</event>
<event>
 5   0  0.5325362E-07  0.3588402E+04  0.7818609E-02  0.8093153E-01
       -2   -1    0    0    0  501  0.00000000000E+00  0.00000000000E+00  0.20028168083E+04  0.20028168083E+04  0.25500000920E-02 0. -1.
        2   -1    0    0  501    0  0.00000000000E+00  0.00000000000E+00 -0.16073150261E+04  0.16073150261E+04  0.25500000920E-02 0.  1.
    10030    2    1    2    0    0  0.00000000000E+00  0.00000000000E+00  0.39550178213E+03  0.36101318344E+04  0.35884021795E+04 0.  0.
        4    1    3    3  502    0  0.74668960285E+03  0.13456187326E+04  0.11257905165E+04  0.19067357017E+04  0.12699999809E+01 0. -1.
       -4    1    3    3    0  502 -0.74668960285E+03 -0.13456187326E+04 -0.73028873432E+03  0.17033961327E+04  0.12699999809E+01 0.  1.
</event>
<event>
 5   0  0.5134434E-07  0.3651113E+04  0.7818609E-02  0.8078883E-01
        2   -1    0    0  501    0  0.00000000000E+00  0.00000000000E+00  0.22741923635E+04  0.22741923635E+04  0.25500000920E-02 0. -1.
       -2   -1    0    0    0  501  0.00000000000E+00  0.00000000000E+00 -0.14654242841E+04  0.14654242841E+04  0.25500000920E-02 0.  1.
    10030    2    1    2    0    0  0.00000000000E+00  0.00000000000E+00  0.80876807943E+03  0.37396166477E+04  0.36511130995E+04 0.  0.
        5    1    3    3  502    0  0.21820516444E+03  0.12088129748E+04  0.17875984033E+04  0.21689565333E+04  0.46999998093E+01 0. -1.
       -5    1    3    3    0  502 -0.21820516444E+03 -0.12088129748E+04 -0.97883032389E+03  0.15706601144E+04  0.46999998093E+01 0.  1.
</event>
<event>
 5   0  0.1656617E-07  0.3719497E+04  0.7818609E-02  0.8063655E-01
        1   -1    0    0  501    0  0.00000000000E+00  0.00000000000E+00  0.26670000488E+04  0.26670000488E+04  0.50400001928E-02 0. -1.
       -1   -1    0    0    0  501  0.00000000000E+00  0.00000000000E+00 -0.12968372995E+04  0.12968372996E+04  0.50400001928E-02 0.  1.
    10030    2    1    2    0    0  0.00000000000E+00  0.00000000000E+00  0.13701627493E+04  0.39638373484E+04  0.37194973538E+04 0.  0.
        5    1    3    3  502    0  0.12380661431E+04  0.14318653830E+03  0.21560960441E+04  0.24903980407E+04  0.46999998093E+01 0. -1.
       -5    1    3    3    0  502 -0.12380661431E+04 -0.14318653830E+03 -0.78593329488E+03  0.14734393077E+04  0.46999998093E+01 0.  1.
</event>
<event>
 5   0  0.5132561E-07  0.3848628E+04  0.7818609E-02  0.8035799E-01
        2   -1    0    0  501    0  0.00000000000E+00  0.00000000000E+00  0.12722088011E+04  0.12722088011E+04  0.25500000920E-02 0.  1.
       -2   -1    0    0    0  501  0.00000000000E+00  0.00000000000E+00 -0.29106741927E+04  0.29106741927E+04  0.25500000920E-02 0. -1.
    10030    2    1    2    0    0  0.00000000000E+00  0.00000000000E+00 -0.16384653916E+04  0.41828829938E+04  0.38486284960E+04 0.  0.
        3    1    3    3  502    0 -0.68268551168E+03  0.79436288937E+03  0.93525252976E+03  0.14041969992E+04  0.10100000352E+00 0.  1.
       -3    1    3    3    0  502  0.68268551168E+03 -0.79436288937E+03 -0.25737179213E+04  0.27786859946E+04  0.10100000352E+00 0. -1.
</event>
<event>
 5   0  0.5202788E-07  0.3804562E+04  0.7818609E-02  0.8045177E-01
       -2   -1    0    0    0  501  0.00000000000E+00  0.00000000000E+00  0.17521176642E+04  0.17521176642E+04  0.25500000920E-02 0. -1.
        2   -1    0    0  501    0  0.00000000000E+00  0.00000000000E+00 -0.20653139693E+04  0.20653139693E+04  0.25500000920E-02 0.  1.
    10030    2    1    2    0    0  0.00000000000E+00  0.00000000000E+00 -0.31319630510E+03  0.38174316334E+04  0.38045620445E+04 0.  0.
        1    1    3    3  502    0  0.20065650376E+03 -0.16531479764E+04  0.76602944179E+03  0.18330200136E+04  0.50400001928E-02 0. -1.
       -1    1    3    3    0  502 -0.20065650376E+03  0.16531479764E+04 -0.10792257469E+04  0.19844116199E+04  0.50400001928E-02 0.  1.
</event>
<event>
 5   0  0.5325362E-07  0.3874603E+04  0.7818609E-02  0.8030332E-01
        2   -1    0    0  501    0  0.00000000000E+00  0.00000000000E+00  0.24217745796E+04  0.24217745796E+04  0.25500000920E-02 0.  1.
       -2   -1    0    0    0  501  0.00000000000E+00  0.00000000000E+00 -0.15497469763E+04  0.15497469763E+04  0.25500000920E-02 0. -1.
    10030    2    1    2    0    0  0.00000000000E+00  0.00000000000E+00  0.87202760326E+03  0.39715215559E+04  0.38746033768E+04 0.  0.
        4    1    3    3  502    0  0.62031549066E+03 -0.16141320697E+03 -0.14379093678E+04  0.15743031773E+04  0.12699999809E+01 0. -1.
       -4    1    3    3    0  502 -0.62031549066E+03  0.16141320697E+03  0.23099369710E+04  0.23972183785E+04  0.12699999809E+01 0.  1.
</event>
<event>
 5   0  0.5202788E-07  0.3813695E+04  0.7818609E-02  0.8043222E-01
       -2   -1    0    0    0  501  0.00000000000E+00  0.00000000000E+00  0.22849002179E+04  0.22849002179E+04  0.25500000920E-02 0.  1.
        2   -1    0    0  501    0  0.00000000000E+00  0.00000000000E+00 -0.15913460298E+04  0.15913460298E+04  0.25500000920E-02 0. -1.
    10030    2    1    2    0    0  0.00000000000E+00  0.00000000000E+00  0.69355418806E+03  0.38762462477E+04  0.38136947388E+04 0.  0.
        1    1    3    3  502    0 -0.60289902493E+03 -0.83338284357E+03  0.19787439184E+04  0.22301214525E+04  0.50400001928E-02 0.  1.
       -1    1    3    3    0  502  0.60289902493E+03  0.83338284357E+03 -0.12851897304E+04  0.16461247952E+04  0.50400001928E-02 0. -1.
</event>
<event>
 5   0  0.5132561E-07  0.3829970E+04  0.7818609E-02  0.8039754E-01
       -2   -1    0    0    0  501  0.00000000000E+00  0.00000000000E+00  0.18449102889E+04  0.18449102889E+04  0.25500000920E-02 0. -1.
        2   -1    0    0  501    0  0.00000000000E+00  0.00000000000E+00 -0.19877214892E+04  0.19877214892E+04  0.25500000920E-02 0.  1.
    10030    2    1    2    0    0  0.00000000000E+00  0.00000000000E+00 -0.14281120039E+03  0.38326317781E+04  0.38299701445E+04 0.  0.
        3    1    3    3  502    0 -0.31789253384E+03  0.14010616923E+04 -0.13384364841E+04  0.19635278864E+04  0.10100000352E+00 0.  1.
       -3    1    3    3    0  502  0.31789253384E+03 -0.14010616923E+04  0.11956252837E+04  0.18691038917E+04  0.10100000352E+00 0. -1.
</event>
<event>
 5   0  0.5158266E-07  0.3730192E+04  0.7818609E-02  0.8061304E-01
       -2   -1    0    0    0  501  0.00000000000E+00  0.00000000000E+00  0.31470313606E+04  0.31470313606E+04  0.25500000920E-02 0. -1.
        2   -1    0    0  501    0  0.00000000000E+00  0.00000000000E+00 -0.11053540213E+04  0.11053540213E+04  0.25500000920E-02 0.  1.
    10030    2    1    2    0    0  0.00000000000E+00  0.00000000000E+00  0.20416773393E+04  0.42523853819E+04  0.37301923648E+04 0.  0.
        2    1    3    3  502    0  0.12416120792E+04 -0.13204788165E+04  0.51960693932E+03  0.18855387112E+04  0.25500000920E-02 0.  1.
       -2    1    3    3    0  502 -0.12416120792E+04  0.13204788165E+04  0.15220704000E+04  0.23668466707E+04  0.25500000920E-02 0. -1.
</event>
<event>
 5   0  0.5202788E-07  0.3064692E+04  0.7818609E-02  0.8225495E-01
        2   -1    0    0  501    0  0.00000000000E+00  0.00000000000E+00  0.14644217768E+04  0.14644217768E+04  0.25500000920E-02 0.  1.
       -2   -1    0    0    0  501  0.00000000000E+00  0.00000000000E+00 -0.16034202275E+04  0.16034202275E+04  0.25500000920E-02 0. -1.
    10030    2    1    2    0    0  0.00000000000E+00  0.00000000000E+00 -0.13899845068E+03  0.30678420044E+04  0.30646915007E+04 0.  0.
        1    1    3    3  502    0 -0.96820804325E+03 -0.60748815813E+03  0.95214527382E+03  0.14876321117E+04  0.50400001928E-02 0.  1.
       -1    1    3    3    0  502  0.96820804325E+03  0.60748815813E+03 -0.10911437245E+04  0.15802098926E+04  0.50400001928E-02 0. -1.
</event>
<event>
 5   0  0.5158266E-07  0.3666565E+04  0.7818609E-02  0.8075412E-01
       -2   -1    0    0    0  501  0.00000000000E+00  0.00000000000E+00  0.18822696456E+04  0.18822696456E+04  0.25500000920E-02 0. -1.
        2   -1    0    0  501    0  0.00000000000E+00  0.00000000000E+00 -0.17855701572E+04  0.17855701572E+04  0.25500000920E-02 0.  1.
    10030    2    1    2    0    0  0.00000000000E+00  0.00000000000E+00  0.96699488362E+02  0.36678398028E+04  0.36665648811E+04 0.  0.
        2    1    3    3  502    0 -0.39662526790E+02 -0.17330050986E+04  0.64525205337E+03  0.18496567250E+04  0.25500000920E-02 0. -1.
       -2    1    3    3    0  502  0.39662526790E+02  0.17330050986E+04 -0.54855256501E+03  0.18181830778E+04  0.25500000920E-02 0.  1.
</event>
<event>
 5   0  0.1648000E-07  0.3758066E+04  0.7818609E-02  0.8055214E-01
        1   -1    0    0  501    0  0.00000000000E+00  0.00000000000E+00  0.17920637624E+04  0.17920637624E+04  0.50400001928E-02 0. -1.
       -1   -1    0    0    0  501  0.00000000000E+00  0.00000000000E+00 -0.19702230118E+04  0.19702230118E+04  0.50400001928E-02 0.  1.
    10030    2    1    2    0    0  0.00000000000E+00  0.00000000000E+00 -0.17815924943E+03  0.37622867742E+04  0.37580661321E+04 0.  0.
        1    1    3    3  502    0  0.14535071502E+04 -0.80633728515E+03 -0.96636419889E+03  0.19226863025E+04  0.50400001928E-02 0.  1.
       -1    1    3    3    0  502 -0.14535071502E+04  0.80633728515E+03  0.78820494946E+03  0.18396004717E+04  0.50400001928E-02 0. -1.
</event>
<event>
 5   0  0.1648000E-07  0.3732194E+04  0.7818609E-02  0.8060865E-01
       -1   -1    0    0    0  501  0.00000000000E+00  0.00000000000E+00  0.17474581011E+04  0.17474581011E+04  0.50400001928E-02 0.  1.
        1   -1    0    0  501    0  0.00000000000E+00  0.00000000000E+00 -0.19927902221E+04  0.19927902221E+04  0.50400001928E-02 0. -1.
    10030    2    1    2    0    0  0.00000000000E+00  0.00000000000E+00 -0.24533212096E+03  0.37402483232E+04  0.37321936806E+04 0.  0.
        2    1    3    3  502    0 -0.53947350191E+02 -0.51779098743E+03 -0.19185434223E+04  0.19879201912E+04  0.25500000920E-02 0. -1.
       -2    1    3    3    0  502  0.53947350191E+02  0.51779098743E+03  0.16732113014E+04  0.17523281320E+04  0.25500000920E-02 0.  1.
</event>
<event>
 5   0  0.1648000E-07  0.4253653E+04  0.7818609E-02  0.7955244E-01
        1   -1    0    0  501    0  0.00000000000E+00  0.00000000000E+00  0.24818344531E+04  0.24818344531E+04  0.50400001928E-02 0.  1.
       -1   -1    0    0    0  501  0.00000000000E+00  0.00000000000E+00 -0.18225999069E+04  0.18225999069E+04  0.50400001928E-02 0. -1.
    10030    2    1    2    0    0  0.00000000000E+00  0.00000000000E+00  0.65923454621E+03  0.43044343600E+04  0.42536531326E+04 0.  0.
        4    1    3    3  502    0  0.13325725055E+04 -0.16226355327E+04 -0.13090938622E+02  0.20997305874E+04  0.12699999809E+01 0. -1.
       -4    1    3    3    0  502 -0.13325725055E+04  0.16226355327E+04  0.67232548483E+03  0.22047037726E+04  0.12699999809E+01 0.  1.
</event>
<event>
 5   0  0.1648000E-07  0.3937944E+04  0.7818609E-02  0.8017184E-01
        3   -1    0    0  501    0  0.00000000000E+00  0.00000000000E+00  0.19568707072E+04  0.19568707098E+04  0.10100000352E+00 0.  1.
       -3   -1    0    0    0  501  0.00000000000E+00  0.00000000000E+00 -0.19811479255E+04  0.19811479281E+04  0.10100000352E+00 0. -1.
    10030    2    1    2    0    0  0.00000000000E+00  0.00000000000E+00 -0.24277218301E+02  0.39380186379E+04  0.39379438047E+04 0.  0.
        2    1    3    3  502    0 -0.49267031751E+03 -0.14374333649E+04  0.12400479676E+04  0.19612898007E+04  0.25500000920E-02 0.  1.
       -2    1    3    3    0  502  0.49267031751E+03  0.14374333649E+04 -0.12643251859E+04  0.19767288372E+04  0.25500000920E-02 0. -1.
</event>
<event>
 5   0  0.5132561E-07  0.3776762E+04  0.7818609E-02  0.8051160E-01
        2   -1    0    0  501    0  0.00000000000E+00  0.00000000000E+00  0.17597197274E+04  0.17597197274E+04  0.25500000920E-02 0. -1.
       -2   -1    0    0    0  501  0.00000000000E+00  0.00000000000E+00 -0.20264489898E+04  0.20264489898E+04  0.25500000920E-02 0.  1.
    10030    2    1    2    0    0  0.00000000000E+00  0.00000000000E+00 -0.26672926236E+03  0.37861687172E+04  0.37767617155E+04 0.  0.
        3    1    3    3  502    0  0.17537314572E+04  0.63883017225E+03  0.15423709203E+03  0.18728232976E+04  0.10100000352E+00 0. -1.
       -3    1    3    3    0  502 -0.17537314572E+04 -0.63883017225E+03 -0.42096635439E+03  0.19133454196E+04  0.10100000352E+00 0.  1.
</event>
<event>
 5   0  0.5132561E-07  0.3806605E+04  0.7818609E-02  0.8044739E-01
       -2   -1    0    0    0  501  0.00000000000E+00  0.00000000000E+00  0.16194444332E+04  0.16194444332E+04  0.25500000920E-02 0. -1.
        2   -1    0    0  501    0  0.00000000000E+00  0.00000000000E+00 -0.22369160133E+04  0.22369160133E+04  0.25500000920E-02 0.  1.
    10030    2    1    2    0    0  0.00000000000E+00  0.00000000000E+00 -0.61747158008E+03  0.38563604465E+04  0.38066054092E+04 0.  0.
        3    1    3    3  502    0  0.15208254328E+04 -0.10273321988E+04  0.20207665554E+03  0.18463901073E+04  0.10100000352E+00 0.  1.
       -3    1    3    3    0  502 -0.15208254328E+04  0.10273321988E+04 -0.81954823562E+03  0.20099703392E+04  0.10100000352E+00 0. -1.
</event>
<event>
 5   0  0.1648000E-07  0.3798001E+04  0.7818609E-02  0.8046584E-01
       -1   -1    0    0    0  501  0.00000000000E+00  0.00000000000E+00  0.23496005023E+04  0.23496005023E+04  0.50400001928E-02 0.  1.
        1   -1    0    0  501    0  0.00000000000E+00  0.00000000000E+00 -0.15348152707E+04  0.15348152707E+04  0.50400001928E-02 0. -1.
    10030    2    1    2    0    0  0.00000000000E+00  0.00000000000E+00  0.81478523158E+03  0.38844157730E+04  0.37980009115E+04 0.  0.
        3    1    3    3  502    0  0.40016743296E+03 -0.47719208695E+03 -0.14274030954E+04  0.15573457770E+04  0.10100000352E+00 0. -1.
       -3    1    3    3    0  502 -0.40016743296E+03  0.47719208695E+03  0.22421883270E+04  0.23270699960E+04  0.10100000352E+00 0.  1.
</event>
<event>
 5   0  0.1648000E-07  0.3815774E+04  0.7818609E-02  0.8042778E-01
        1   -1    0    0  501    0  0.00000000000E+00  0.00000000000E+00  0.21271479496E+04  0.21271479496E+04  0.50400001928E-02 0. -1.
       -1   -1    0    0    0  501  0.00000000000E+00  0.00000000000E+00 -0.17112269824E+04  0.17112269824E+04  0.50400001928E-02 0.  1.
    10030    2    1    2    0    0  0.00000000000E+00  0.00000000000E+00  0.41592096729E+03  0.38383749320E+04  0.38157740850E+04 0.  0.
        4    1    3    3  502    0 -0.49308552240E+03 -0.80715251548E+03 -0.14587792138E+04  0.17385818713E+04  0.12699999809E+01 0.  1.
       -4    1    3    3    0  502  0.49308552240E+03  0.80715251548E+03  0.18747001811E+04  0.20997930607E+04  0.12699999809E+01 0. -1.
</event>
<event>
 5   0  0.1656617E-07  0.4015269E+04  0.7818609E-02  0.8001473E-01
        1   -1    0    0  501    0  0.00000000000E+00  0.00000000000E+00  0.29759883290E+04  0.29759883290E+04  0.50400001928E-02 0.  1.
       -1   -1    0    0    0  501  0.00000000000E+00  0.00000000000E+00 -0.13543723177E+04  0.13543723177E+04  0.50400001928E-02 0. -1.
    10030    2    1    2    0    0  0.00000000000E+00  0.00000000000E+00  0.16216160113E+04  0.43303606467E+04  0.40152689627E+04 0.  0.
        5    1    3    3  502    0 -0.13294628269E+03 -0.15178653704E+04  0.22206759610E+04  0.26931419960E+04  0.46999998093E+01 0. -1.
       -5    1    3    3    0  502  0.13294628269E+03  0.15178653704E+04 -0.59905994974E+03  0.16372186507E+04  0.46999998093E+01 0.  1.
</event>
<event>
 5   0  0.5325362E-07  0.3845559E+04  0.7818609E-02  0.8036448E-01
        2   -1    0    0  501    0  0.00000000000E+00  0.00000000000E+00  0.17935390311E+04  0.17935390311E+04  0.25500000920E-02 0.  1.
       -2   -1    0    0    0  501  0.00000000000E+00  0.00000000000E+00 -0.20613329036E+04  0.20613329036E+04  0.25500000920E-02 0. -1.
    10030    2    1    2    0    0  0.00000000000E+00  0.00000000000E+00 -0.26779387258E+03  0.38548719347E+04  0.38455590068E+04 0.  0.
        4    1    3    3  502    0 -0.19067239040E+04 -0.22658103049E+03 -0.23486024574E+03  0.19344497816E+04  0.12699999809E+01 0. -1.
       -4    1    3    3    0  502  0.19067239040E+04  0.22658103049E+03 -0.32933626847E+02  0.19204221531E+04  0.12699999809E+01 0.  1.
</event>
<event>
 5   0  0.5325362E-07  0.3775977E+04  0.7818609E-02  0.8051330E-01
        2   -1    0    0  501    0  0.00000000000E+00  0.00000000000E+00  0.12110724472E+04  0.12110724472E+04  0.25500000920E-02 0.  1.
       -2   -1    0    0    0  501  0.00000000000E+00  0.00000000000E+00 -0.29432591228E+04  0.29432591228E+04  0.25500000920E-02 0. -1.
    10030    2    1    2    0    0  0.00000000000E+00  0.00000000000E+00 -0.17321866756E+04  0.41543315700E+04  0.37759767100E+04 0.  0.
        4    1    3    3  502    0  0.83566893839E+03  0.15017636603E+04 -0.17259841625E+04  0.24357051562E+04  0.12699999809E+01 0. -1.
       -4    1    3    3    0  502 -0.83566893839E+03 -0.15017636603E+04 -0.62025130433E+01  0.17186264137E+04  0.12699999809E+01 0.  1.
</event>
<event>
 5   0  0.5132561E-07  0.2807430E+04  0.7818609E-02  0.8300965E-01
        2   -1    0    0  501    0  0.00000000000E+00  0.00000000000E+00  0.15023737917E+04  0.15023737917E+04  0.25500000920E-02 0. -1.
       -2   -1    0    0    0  501  0.00000000000E+00  0.00000000000E+00 -0.13115348408E+04  0.13115348408E+04  0.25500000920E-02 0.  1.
    10030    2    1    2    0    0  0.00000000000E+00  0.00000000000E+00  0.19083895091E+03  0.28139086325E+04  0.28074298365E+04 0.  0.
        3    1    3    3  502    0  0.23427219129E+03 -0.40285190998E+03 -0.12317368098E+04  0.13169467338E+04  0.10100000352E+00 0.  1.
       -3    1    3    3    0  502 -0.23427219129E+03  0.40285190998E+03  0.14225757607E+04  0.14969618987E+04  0.10100000352E+00 0. -1.
</event>
<event>
 5   0  0.1648000E-07  0.3710457E+04  0.7818609E-02  0.8065648E-01
       -1   -1    0    0    0  501  0.00000000000E+00  0.00000000000E+00  0.14801113015E+04  0.14801113015E+04  0.50400001928E-02 0.  1.
        1   -1    0    0  501    0  0.00000000000E+00  0.00000000000E+00 -0.23254147820E+04  0.23254147820E+04  0.50400001928E-02 0. -1.
    10030    2    1    2    0    0  0.00000000000E+00  0.00000000000E+00 -0.84530348047E+03  0.38055260835E+04  0.37104569527E+04 0.  0.
        1    1    3    3  502    0  0.68099382630E+03 -0.22293510105E+03  0.13324568478E+04  0.15129090858E+04  0.50400001928E-02 0.  1.
       -1    1    3    3    0  502 -0.68099382630E+03  0.22293510105E+03 -0.21777603282E+04  0.22926169977E+04  0.50400001928E-02 0. -1.
</event>
<event>
 5   0  0.5325362E-07  0.3813193E+04  0.7818609E-02  0.8043330E-01
       -2   -1    0    0    0  501  0.00000000000E+00  0.00000000000E+00  0.15334517538E+04  0.15334517538E+04  0.25500000920E-02 0. -1.
        2   -1    0    0  501    0  0.00000000000E+00  0.00000000000E+00 -0.23705413959E+04  0.23705413959E+04  0.25500000920E-02 0.  1.
    10030    2    1    2    0    0  0.00000000000E+00  0.00000000000E+00 -0.83708964209E+03  0.39039931498E+04  0.38131933395E+04 0.  0.
        4    1    3    3  502    0  0.18375647047E+04  0.50680722481E+03 -0.37744363050E+03  0.19431837057E+04  0.12699999809E+01 0.  1.
       -4    1    3    3    0  502 -0.18375647047E+04 -0.50680722481E+03 -0.45964601159E+03  0.19608094441E+04  0.12699999809E+01 0. -1.
</event>
<event>
 5   0  0.1648000E-07  0.3893764E+04  0.7818609E-02  0.8026327E-01
       -1   -1    0    0    0  501  0.00000000000E+00  0.00000000000E+00  0.23520265338E+04  0.23520265338E+04  0.50400001928E-02 0. -1.
        1   -1    0    0  501    0  0.00000000000E+00  0.00000000000E+00 -0.16115252839E+04  0.16115252839E+04  0.50400001928E-02 0.  1.
    10030    2    1    2    0    0  0.00000000000E+00  0.00000000000E+00  0.74050124997E+03  0.39635518177E+04  0.38937643625E+04 0.  0.
        4    1    3    3  502    0  0.15932299996E+04  0.87736846807E+03 -0.33659501591E+03  0.18497175671E+04  0.12699999809E+01 0.  1.
       -4    1    3    3    0  502 -0.15932299996E+04 -0.87736846807E+03  0.10770962659E+04  0.21138342506E+04  0.12699999809E+01 0. -1.
</event>
<event>
 5   0  0.5202788E-07  0.3790200E+04  0.7818609E-02  0.8048261E-01
        2   -1    0    0  501    0  0.00000000000E+00  0.00000000000E+00  0.22305479348E+04  0.22305479348E+04  0.25500000920E-02 0. -1.
       -2   -1    0    0    0  501  0.00000000000E+00  0.00000000000E+00 -0.16100990643E+04  0.16100990644E+04  0.25500000920E-02 0.  1.
    10030    2    1    2    0    0  0.00000000000E+00  0.00000000000E+00  0.62044887049E+03  0.38406469992E+04  0.37901995424E+04 0.  0.
        1    1    3    3  502    0  0.17948497670E+04  0.30308707956E+03  0.84455276666E+03  0.20066431769E+04  0.50400001928E-02 0. -1.
       -1    1    3    3    0  502 -0.17948497670E+04 -0.30308707956E+03 -0.22410389617E+03  0.18340038223E+04  0.50400001928E-02 0.  1.
</event>
<event>
 5   0  0.5134434E-07  0.3768583E+04  0.7818609E-02  0.8052931E-01
       -2   -1    0    0    0  501  0.00000000000E+00  0.00000000000E+00  0.11764939944E+04  0.11764939944E+04  0.25500000920E-02 0.  1.
        2   -1    0    0  501    0  0.00000000000E+00  0.00000000000E+00 -0.30179114423E+04  0.30179114423E+04  0.25500000920E-02 0. -1.
    10030    2    1    2    0    0  0.00000000000E+00  0.00000000000E+00 -0.18414174479E+04  0.41944054368E+04  0.37685831224E+04 0.  0.
        5    1    3    3  502    0 -0.10573726870E+04 -0.12833306277E+04 -0.19071732309E+04  0.25302779140E+04  0.46999998093E+01 0. -1.
       -5    1    3    3    0  502  0.10573726870E+04  0.12833306277E+04  0.65755782984E+02  0.16641275228E+04  0.46999998093E+01 0.  1.
</event>
<event>
 5   0  0.1648000E-07  0.3710780E+04  0.7818609E-02  0.8065577E-01
       -1   -1    0    0    0  501  0.00000000000E+00  0.00000000000E+00  0.19047934140E+04  0.19047934140E+04  0.50400001928E-02 0.  1.
        1   -1    0    0  501    0  0.00000000000E+00  0.00000000000E+00 -0.18072681269E+04  0.18072681269E+04  0.50400001928E-02 0. -1.
    10030    2    1    2    0    0  0.00000000000E+00  0.00000000000E+00  0.97525287155E+02  0.37120615409E+04  0.37107802012E+04 0.  0.
        1    1    3    3  502    0 -0.11019432787E+04 -0.55098781785E+03 -0.13390180417E+04  0.18195702462E+04  0.50400001928E-02 0. -1.
       -1    1    3    3    0  502  0.11019432787E+04  0.55098781785E+03  0.14365433289E+04  0.18924912947E+04  0.50400001928E-02 0.  1.
</event>
<event>
 5   0  0.1648000E-07  0.2953233E+04  0.7818609E-02  0.8257213E-01
       -1   -1    0    0    0  501  0.00000000000E+00  0.00000000000E+00  0.12914746866E+04  0.12914746866E+04  0.50400001928E-02 0.  1.
        1   -1    0    0  501    0  0.00000000000E+00  0.00000000000E+00 -0.16882998368E+04  0.16882998368E+04  0.50400001928E-02 0. -1.
    10030    2    1    2    0    0  0.00000000000E+00  0.00000000000E+00 -0.39682515020E+03  0.29797745234E+04  0.29532331453E+04 0.  0.
        1    1    3    3  502    0  0.11306262726E+04  0.83232499966E+03  0.26320964453E+03  0.14284117020E+04  0.50400001928E-02 0.  1.
       -1    1    3    3    0  502 -0.11306262726E+04 -0.83232499966E+03 -0.66003479473E+03  0.15513628214E+04  0.50400001928E-02 0. -1.
</event>
<event>
 5   0  0.1648000E-07  0.3813954E+04  0.7818609E-02  0.8043167E-01
        1   -1    0    0  501    0  0.00000000000E+00  0.00000000000E+00  0.20436706346E+04  0.20436706346E+04  0.50400001928E-02 0.  1.
       -1   -1    0    0    0  501  0.00000000000E+00  0.00000000000E+00 -0.17794260799E+04  0.17794260799E+04  0.50400001928E-02 0. -1.
    10030    2    1    2    0    0  0.00000000000E+00  0.00000000000E+00  0.26424455473E+03  0.38230967145E+04  0.38139537627E+04 0.  0.
        4    1    3    3  502    0 -0.13648526745E+04  0.13191034616E+04 -0.51900076434E+02  0.18988291120E+04  0.12699999809E+01 0. -1.
       -4    1    3    3    0  502  0.13648526745E+04 -0.13191034616E+04  0.31614463116E+03  0.19242676026E+04  0.12699999809E+01 0.  1.
</event>
<event>
 5   0  0.5325362E-07  0.3748780E+04  0.7818609E-02  0.8057237E-01
       -2   -1    0    0    0  501  0.00000000000E+00  0.00000000000E+00  0.19280007357E+04  0.19280007357E+04  0.25500000920E-02 0. -1.
        2   -1    0    0  501    0  0.00000000000E+00  0.00000000000E+00 -0.18222702216E+04  0.18222702216E+04  0.25500000920E-02 0.  1.
    10030    2    1    2    0    0  0.00000000000E+00  0.00000000000E+00  0.10573051406E+03  0.37502709574E+04  0.37487802432E+04 0.  0.
        4    1    3    3  502    0 -0.92603444411E+03 -0.13262942092E+04  0.10002057023E+04  0.19018436268E+04  0.12699999809E+01 0. -1.
       -4    1    3    3    0  502  0.92603444411E+03  0.13262942092E+04 -0.89447518825E+03  0.18484273305E+04  0.12699999809E+01 0.  1.
</event>
<event>
 5   0  0.1648000E-07  0.3908614E+04  0.7818609E-02  0.8023240E-01
       -1   -1    0    0    0  501  0.00000000000E+00  0.00000000000E+00  0.25383874658E+04  0.25383874659E+04  0.50400001928E-02 0. -1.
        1   -1    0    0  501    0  0.00000000000E+00  0.00000000000E+00 -0.15046229894E+04  0.15046229894E+04  0.50400001928E-02 0.  1.
    10030    2    1    2    0    0  0.00000000000E+00  0.00000000000E+00  0.10337644765E+04  0.40430104552E+04  0.39086141468E+04 0.  0.
        1    1    3    3  502    0  0.15733915682E+03 -0.10606703333E+04  0.22069347447E+04  0.24536377348E+04  0.50400001928E-02 0. -1.
       -1    1    3    3    0  502 -0.15733915682E+03  0.10606703333E+04 -0.11731702682E+04  0.15893727204E+04  0.50400001928E-02 0.  1.
</event>
<event>
 5   0  0.5202788E-07  0.3705355E+04  0.7818609E-02  0.8066776E-01
        2   -1    0    0  501    0  0.00000000000E+00  0.00000000000E+00  0.16420998490E+04  0.16420998490E+04  0.25500000920E-02 0. -1.
       -2   -1    0    0    0  501  0.00000000000E+00  0.00000000000E+00 -0.20902587320E+04  0.20902587320E+04  0.25500000920E-02 0.  1.
    10030    2    1    2    0    0  0.00000000000E+00  0.00000000000E+00 -0.44815888301E+03  0.37323585809E+04  0.37053547998E+04 0.  0.
        1    1    3    3  502    0  0.17531199247E+04  0.47897080160E+03  0.13850365100E+03  0.18226425214E+04  0.50400001928E-02 0. -1.
       -1    1    3    3    0  502 -0.17531199247E+04 -0.47897080160E+03 -0.58666253401E+03  0.19097160596E+04  0.50400001928E-02 0.  1.
</event>
<event>
 5   0  0.1648000E-07  0.3841024E+04  0.7818609E-02  0.8037408E-01
        3   -1    0    0  501    0  0.00000000000E+00  0.00000000000E+00  0.22031753354E+04  0.22031753377E+04  0.10100000352E+00 0. -1.
       -3   -1    0    0    0  501  0.00000000000E+00  0.00000000000E+00 -0.16741137425E+04  0.16741137455E+04  0.10100000352E+00 0.  1.
    10030    2    1    2    0    0  0.00000000000E+00  0.00000000000E+00  0.52906159292E+03  0.38772890832E+04  0.38410238825E+04 0.  0.
        4    1    3    3  502    0 -0.27772017218E+03  0.57284444055E+03  0.20935668037E+04  0.21882190981E+04  0.12699999809E+01 0. -1.
       -4    1    3    3    0  502  0.27772017218E+03 -0.57284444055E+03 -0.15645052108E+04  0.16890699851E+04  0.12699999809E+01 0.  1.
</event>
<event>
 5   0  0.5132561E-07  0.3759636E+04  0.7818609E-02  0.8054873E-01
        2   -1    0    0  501    0  0.00000000000E+00  0.00000000000E+00  0.20075655476E+04  0.20075655476E+04  0.25500000920E-02 0.  1.
       -2   -1    0    0    0  501  0.00000000000E+00  0.00000000000E+00 -0.17601994978E+04  0.17601994978E+04  0.25500000920E-02 0. -1.
    10030    2    1    2    0    0  0.00000000000E+00  0.00000000000E+00  0.24736604984E+03  0.37677650454E+04  0.37596360828E+04 0.  0.
        3    1    3    3  502    0  0.29092360035E+03  0.40400740479E+03  0.19402957637E+04  0.20031490672E+04  0.10100000352E+00 0.  1.
       -3    1    3    3    0  502 -0.29092360035E+03 -0.40400740479E+03 -0.16929297139E+04  0.17646159783E+04  0.10100000352E+00 0. -1.
</event>
<event>
 5   0  0.1648000E-07  0.3027134E+04  0.7818609E-02  0.8236025E-01
       -1   -1    0    0    0  501  0.00000000000E+00  0.00000000000E+00  0.95453020913E+03  0.95453020915E+03  0.50400001928E-02 0.  1.
        1   -1    0    0  501    0  0.00000000000E+00  0.00000000000E+00 -0.24000133963E+04  0.24000133963E+04  0.50400001928E-02 0. -1.
    10030    2    1    2    0    0  0.00000000000E+00  0.00000000000E+00 -0.14454831871E+04  0.33545436054E+04  0.30271341491E+04 0.  0.
        1    1    3    3  502    0 -0.40753661360E+02  0.12188118036E+04  0.27072841430E+03  0.12491825118E+04  0.50400001928E-02 0.  1.
       -1    1    3    3    0  502  0.40753661360E+02 -0.12188118036E+04 -0.17162116014E+04  0.21053610936E+04  0.50400001928E-02 0. -1.
</event>
<event>
 5   0  0.1648000E-07  0.3686478E+04  0.7818609E-02  0.8070965E-01
        3   -1    0    0  501    0  0.00000000000E+00  0.00000000000E+00  0.21207869531E+04  0.21207869555E+04  0.10100000352E+00 0.  1.
       -3   -1    0    0    0  501  0.00000000000E+00  0.00000000000E+00 -0.16020137270E+04  0.16020137302E+04  0.10100000352E+00 0. -1.
    10030    2    1    2    0    0  0.00000000000E+00  0.00000000000E+00  0.51877322610E+03  0.37228006858E+04  0.36864778971E+04 0.  0.
        4    1    3    3  502    0  0.13610958983E+04  0.47717740671E+03  0.14184092176E+04  0.20229104388E+04  0.12699999809E+01 0.  1.
       -4    1    3    3    0  502 -0.13610958983E+04 -0.47717740671E+03 -0.89963599152E+03  0.16998902470E+04  0.12699999809E+01 0. -1.
</event>
<event>
 5   0  0.5134434E-07  0.3789275E+04  0.7818609E-02  0.8048460E-01
        2   -1    0    0  501    0  0.00000000000E+00  0.00000000000E+00  0.16741321264E+04  0.16741321264E+04  0.25500000920E-02 0.  1.
       -2   -1    0    0    0  501  0.00000000000E+00  0.00000000000E+00 -0.21441861550E+04  0.21441861550E+04  0.25500000920E-02 0. -1.
    10030    2    1    2    0    0  0.00000000000E+00  0.00000000000E+00 -0.47005402857E+03  0.38183182814E+04  0.37892748262E+04 0.  0.
        5    1    3    3  502    0  0.13525569584E+04  0.10556815740E+04  0.57472098916E+03  0.18094751220E+04  0.46999998093E+01 0. -1.
       -5    1    3    3    0  502 -0.13525569584E+04 -0.10556815740E+04 -0.10447750177E+04  0.20088431594E+04  0.46999998093E+01 0.  1.
</event>
<event>
 5   0  0.1648000E-07  0.3443745E+04  0.7818609E-02  0.8127253E-01
       -1   -1    0    0    0  501  0.00000000000E+00  0.00000000000E+00  0.15783587648E+04  0.15783587648E+04  0.50400001928E-02 0.  1.
        1   -1    0    0  501    0  0.00000000000E+00  0.00000000000E+00 -0.18784348375E+04  0.18784348375E+04  0.50400001928E-02 0. -1.
    10030    2    1    2    0    0  0.00000000000E+00  0.00000000000E+00 -0.30007607264E+03  0.34567936023E+04  0.34437445259E+04 0.  0.
        1    1    3    3  502    0  0.69111197759E+02  0.81068741548E+03  0.13732277679E+04  0.15961657013E+04  0.50400001928E-02 0.  1.
       -1    1    3    3    0  502 -0.69111197759E+02 -0.81068741548E+03 -0.16733038406E+04  0.18606279010E+04  0.50400001928E-02 0. -1.
</event>
<event>
 5   0  0.1656617E-07  0.3235435E+04  0.7818609E-02  0.8179521E-01
       -1   -1    0    0    0  501  0.00000000000E+00  0.00000000000E+00  0.27853031731E+04  0.27853031731E+04  0.50400001928E-02 0.  1.
        1   -1    0    0  501    0  0.00000000000E+00  0.00000000000E+00 -0.93957791965E+03  0.93957791966E+03  0.50400001928E-02 0. -1.
    10030    2    1    2    0    0  0.00000000000E+00  0.00000000000E+00  0.18457252535E+04  0.37248810928E+04  0.32354346608E+04 0.  0.
        5    1    3    3  502    0  0.73005793721E+03  0.11919362038E+04  0.18604931901E+04  0.23270482389E+04  0.46999998093E+01 0.  1.
       -5    1    3    3    0  502 -0.73005793721E+03 -0.11919362038E+04 -0.14767936635E+02  0.13978328539E+04  0.46999998093E+01 0. -1.
</event>
<event>
 5   0  0.1648000E-07  0.3795759E+04  0.7818609E-02  0.8047066E-01
       -1   -1    0    0    0  501  0.00000000000E+00  0.00000000000E+00  0.17763937080E+04  0.17763937080E+04  0.50400001928E-02 0. -1.
        1   -1    0    0  501    0  0.00000000000E+00  0.00000000000E+00 -0.20276737029E+04  0.20276737029E+04  0.50400001928E-02 0.  1.
    10030    2    1    2    0    0  0.00000000000E+00  0.00000000000E+00 -0.25127999498E+03  0.38040674109E+04  0.37957591113E+04 0.  0.
        3    1    3    3  502    0 -0.80326329159E+03 -0.95973708921E+03  0.13042343449E+04  0.18075824829E+04  0.10100000352E+00 0. -1.
       -3    1    3    3    0  502  0.80326329159E+03  0.95973708921E+03 -0.15555143398E+04  0.19964849280E+04  0.10100000352E+00 0.  1.
</event>
<event>
 5   0  0.5325362E-07  0.3731937E+04  0.7818609E-02  0.8060921E-01
       -2   -1    0    0    0  501  0.00000000000E+00  0.00000000000E+00  0.13377910047E+04  0.13377910047E+04  0.25500000920E-02 0. -1.
        2   -1    0    0  501    0  0.00000000000E+00  0.00000000000E+00 -0.26026778838E+04  0.26026778838E+04  0.25500000920E-02 0.  1.
    10030    2    1    2    0    0  0.00000000000E+00  0.00000000000E+00 -0.12648868791E+04  0.39404688885E+04  0.37319373313E+04 0.  0.
        4    1    3    3  502    0 -0.49734800540E+02  0.82966886121E+03  0.11315400975E+04  0.14039973557E+04  0.12699999809E+01 0. -1.
       -4    1    3    3    0  502  0.49734800540E+02 -0.82966886121E+03 -0.23964269766E+04  0.25364715328E+04  0.12699999809E+01 0.  1.
</event>
<event>
 5   0  0.1648000E-07  0.3778715E+04  0.7818609E-02  0.8050738E-01
       -1   -1    0    0    0  501  0.00000000000E+00  0.00000000000E+00  0.14277886206E+04  0.14277886206E+04  0.50400001928E-02 0. -1.
        1   -1    0    0  501    0  0.00000000000E+00  0.00000000000E+00 -0.25001403875E+04  0.25001403875E+04  0.50400001928E-02 0.  1.
    10030    2    1    2    0    0  0.00000000000E+00  0.00000000000E+00 -0.10723517669E+04  0.39279290082E+04  0.37787151230E+04 0.  0.
        2    1    3    3  502    0 -0.12626684794E+04  0.12864957207E+04  0.52094487927E+02  0.18033626269E+04  0.25500000920E-02 0. -1.
       -2    1    3    3    0  502  0.12626684794E+04 -0.12864957207E+04 -0.11244462548E+04  0.21245663813E+04  0.25500000920E-02 0.  1.
</event>
<event>
 5   0  0.5202788E-07  0.3795261E+04  0.7818609E-02  0.8047173E-01
       -2   -1    0    0    0  501  0.00000000000E+00  0.00000000000E+00  0.18482692562E+04  0.18482692562E+04  0.25500000920E-02 0. -1.
        2   -1    0    0  501    0  0.00000000000E+00  0.00000000000E+00 -0.19483101224E+04  0.19483101224E+04  0.25500000920E-02 0.  1.
    10030    2    1    2    0    0  0.00000000000E+00  0.00000000000E+00 -0.10004086629E+03  0.37965793786E+04  0.37952610981E+04 0.  0.
        1    1    3    3  502    0  0.91744773595E+03  0.49529854911E+03  0.15360809047E+04  0.18564955014E+04  0.50400001928E-02 0. -1.
       -1    1    3    3    0  502 -0.91744773595E+03 -0.49529854911E+03 -0.16361217710E+04  0.19400838772E+04  0.50400001928E-02 0.  1.
</event>
<event>
 5   0  0.5325362E-07  0.2948644E+04  0.7818609E-02  0.8258550E-01
       -2   -1    0    0    0  501  0.00000000000E+00  0.00000000000E+00  0.14891990766E+04  0.14891990766E+04  0.25500000920E-02 0. -1.
        2   -1    0    0  501    0  0.00000000000E+00  0.00000000000E+00 -0.14595933806E+04  0.14595933806E+04  0.25500000920E-02 0.  1.
    10030    2    1    2    0    0  0.00000000000E+00  0.00000000000E+00  0.29605695949E+02  0.29487924572E+04  0.29486438338E+04 0.  0.
        4    1    3    3  502    0 -0.77701833828E+03 -0.53457780680E+03 -0.11184323537E+04  0.14630186165E+04  0.12699999809E+01 0.  1.
       -4    1    3    3    0  502  0.77701833828E+03  0.53457780680E+03  0.11480380496E+04  0.14857738407E+04  0.12699999809E+01 0. -1.
</event>
<event>
 5   0  0.5325362E-07  0.3832159E+04  0.7818609E-02  0.8039289E-01
        2   -1    0    0  501    0  0.00000000000E+00  0.00000000000E+00  0.25063101769E+04  0.25063101769E+04  0.25500000920E-02 0.  1.
       -2   -1    0    0    0  501  0.00000000000E+00  0.00000000000E+00 -0.14648469520E+04  0.14648469520E+04  0.25500000920E-02 0. -1.
    10030    2    1    2    0    0  0.00000000000E+00  0.00000000000E+00  0.10414632250E+04  0.39711571289E+04  0.38321590903E+04 0.  0.
        4    1    3    3  502    0  0.48321431181E+03  0.75575192875E+03 -0.12338146668E+04  0.15254367551E+04  0.12699999809E+01 0. -1.
       -4    1    3    3    0  502 -0.48321431181E+03 -0.75575192875E+03  0.22752778918E+04  0.24457203738E+04  0.12699999809E+01 0.  1.
</event>
<event>
 5   0  0.5158266E-07  0.3801242E+04  0.7818609E-02  0.8045888E-01
        2   -1    0    0  501    0  0.00000000000E+00  0.00000000000E+00  0.27198545018E+04  0.27198545018E+04  0.25500000920E-02 0.  1.
       -2   -1    0    0    0  501  0.00000000000E+00  0.00000000000E+00 -0.13281449456E+04  0.13281449456E+04  0.25500000920E-02 0. -1.
    10030    2    1    2    0    0  0.00000000000E+00  0.00000000000E+00  0.13917095562E+04  0.40479994474E+04  0.38012424334E+04 0.  0.
        2    1    3    3  502    0  0.78862643922E+03  0.76098447786E+03  0.23495039520E+04  0.25925273107E+04  0.25500000920E-02 0.  1.
       -2    1    3    3    0  502 -0.78862643922E+03 -0.76098447786E+03 -0.95779439580E+03  0.14554721367E+04  0.25500000920E-02 0. -1.
</event>
<event>
 5   0  0.5132561E-07  0.3874873E+04  0.7818609E-02  0.8030275E-01
        2   -1    0    0  501    0  0.00000000000E+00  0.00000000000E+00  0.17445286316E+04  0.17445286316E+04  0.25500000920E-02 0. -1.
       -2   -1    0    0    0  501  0.00000000000E+00  0.00000000000E+00 -0.21516760032E+04  0.21516760032E+04  0.25500000920E-02 0.  1.
    10030    2    1    2    0    0  0.00000000000E+00  0.00000000000E+00 -0.40714737158E+03  0.38962046348E+04  0.38748731043E+04 0.  0.
        3    1    3    3  502    0  0.10735663322E+04 -0.74571312255E+02 -0.18235153598E+04  0.21173837224E+04  0.10100000352E+00 0.  1.
       -3    1    3    3    0  502 -0.10735663322E+04  0.74571312255E+02  0.14163679882E+04  0.17788209124E+04  0.10100000352E+00 0. -1.
</event>
<event>
 5   0  0.1648000E-07  0.3005973E+04  0.7818609E-02  0.8242027E-01
        1   -1    0    0  501    0  0.00000000000E+00  0.00000000000E+00  0.18720354374E+04  0.18720354374E+04  0.50400001928E-02 0. -1.
       -1   -1    0    0    0  501  0.00000000000E+00  0.00000000000E+00 -0.12066911715E+04  0.12066911715E+04  0.50400001928E-02 0.  1.
    10030    2    1    2    0    0  0.00000000000E+00  0.00000000000E+00  0.66534426594E+03  0.30787266089E+04  0.30059731436E+04 0.  0.
        3    1    3    3  502    0  0.75491145327E+02  0.14681836042E+03  0.18627210151E+04  0.18700224956E+04  0.10100000352E+00 0. -1.
       -3    1    3    3    0  502 -0.75491145327E+02 -0.14681836042E+03 -0.11973767491E+04  0.12087041133E+04  0.10100000352E+00 0.  1.
</event>
<event>
 5   0  0.1648000E-07  0.3798310E+04  0.7818609E-02  0.8046518E-01
        1   -1    0    0  501    0  0.00000000000E+00  0.00000000000E+00  0.23503320013E+04  0.23503320013E+04  0.50400001928E-02 0.  1.
       -1   -1    0    0    0  501  0.00000000000E+00  0.00000000000E+00 -0.15345870640E+04  0.15345870641E+04  0.50400001928E-02 0. -1.
    10030    2    1    2    0    0  0.00000000000E+00  0.00000000000E+00  0.81574493724E+03  0.38849190654E+04  0.37983096690E+04 0.  0.
        4    1    3    3  502    0  0.10738050331E+04  0.62142068101E+03 -0.10628182658E+04  0.16336478173E+04  0.12699999809E+01 0. -1.
       -4    1    3    3    0  502 -0.10738050331E+04 -0.62142068101E+03  0.18785632030E+04  0.22512712481E+04  0.12699999809E+01 0.  1.
</event>
<event>
 5   0  0.5132561E-07  0.3814929E+04  0.7818609E-02  0.8042959E-01
       -2   -1    0    0    0  501  0.00000000000E+00  0.00000000000E+00  0.17674861050E+04  0.17674861050E+04  0.25500000920E-02 0. -1.
        2   -1    0    0  501    0  0.00000000000E+00  0.00000000000E+00 -0.20585290779E+04  0.20585290779E+04  0.25500000920E-02 0.  1.
    10030    2    1    2    0    0  0.00000000000E+00  0.00000000000E+00 -0.29104297281E+03  0.38260151829E+04  0.38149293791E+04 0.  0.
        3    1    3    3  502    0  0.61690318536E+03  0.18049485638E+04 -0.14195115322E+03  0.19127359981E+04  0.10100000352E+00 0. -1.
       -3    1    3    3    0  502 -0.61690318536E+03 -0.18049485638E+04 -0.14909181959E+03  0.19132791848E+04  0.10100000352E+00 0.  1.
</event>
<event>
 5   0  0.5158266E-07  0.3583379E+04  0.7818609E-02  0.8094310E-01
       -2   -1    0    0    0  501  0.00000000000E+00  0.00000000000E+00  0.13661419741E+04  0.13661419741E+04  0.25500000920E-02 0. -1.
        2   -1    0    0  501    0  0.00000000000E+00  0.00000000000E+00 -0.23497928440E+04  0.23497928440E+04  0.25500000920E-02 0.  1.
    10030    2    1    2    0    0  0.00000000000E+00  0.00000000000E+00 -0.98365086982E+03  0.37159348181E+04  0.35833786485E+04 0.  0.
        2    1    3    3  502    0  0.78977503731E+03  0.17802625778E+03 -0.21492982620E+04  0.22967196122E+04  0.25500000920E-02 0.  1.
       -2    1    3    3    0  502 -0.78977503731E+03 -0.17802625778E+03  0.11656473921E+04  0.14192152060E+04  0.25500000920E-02 0. -1.
</event>
<event>
 5   0  0.1648000E-07  0.3713358E+04  0.7818609E-02  0.8065008E-01
       -1   -1    0    0    0  501  0.00000000000E+00  0.00000000000E+00  0.25006705069E+04  0.25006705069E+04  0.50400001928E-02 0. -1.
        1   -1    0    0  501    0  0.00000000000E+00  0.00000000000E+00 -0.13785326922E+04  0.13785326922E+04  0.50400001928E-02 0.  1.
    10030    2    1    2    0    0  0.00000000000E+00  0.00000000000E+00  0.11221378147E+04  0.38792031990E+04  0.37133575352E+04 0.  0.
        1    1    3    3  502    0  0.14909244766E+04 -0.22948658744E+03  0.16918816100E+04  0.22667119956E+04  0.50400001928E-02 0. -1.
       -1    1    3    3    0  502 -0.14909244766E+04  0.22948658744E+03 -0.56974379535E+03  0.16124912034E+04  0.50400001928E-02 0.  1.
</event>
<event>
 5   0  0.5202788E-07  0.3705601E+04  0.7818609E-02  0.8066722E-01
        2   -1    0    0  501    0  0.00000000000E+00  0.00000000000E+00  0.21975717994E+04  0.21975717994E+04  0.25500000920E-02 0. -1.
       -2   -1    0    0    0  501  0.00000000000E+00  0.00000000000E+00 -0.15621196248E+04  0.15621196248E+04  0.25500000920E-02 0.  1.
    10030    2    1    2    0    0  0.00000000000E+00  0.00000000000E+00  0.63545217456E+03  0.37596914242E+04  0.37056011846E+04 0.  0.
        1    1    3    3  502    0  0.16351680966E+04  0.86409019660E+03  0.20454753056E+03  0.18607165997E+04  0.50400001928E-02 0.  1.
       -1    1    3    3    0  502 -0.16351680966E+04 -0.86409019660E+03  0.43090464400E+03  0.18989748245E+04  0.50400001928E-02 0. -1.
</event>
<event>
 5   0  0.1648000E-07  0.3740185E+04  0.7818609E-02  0.8059114E-01
       -1   -1    0    0    0  501  0.00000000000E+00  0.00000000000E+00  0.19738294795E+04  0.19738294795E+04  0.50400001928E-02 0. -1.
        1   -1    0    0  501    0  0.00000000000E+00  0.00000000000E+00 -0.17718072412E+04  0.17718072412E+04  0.50400001928E-02 0.  1.
    10030    2    1    2    0    0  0.00000000000E+00  0.00000000000E+00  0.20202223829E+03  0.37456367207E+04  0.37401846824E+04 0.  0.
        2    1    3    3  502    0  0.13767334200E+04  0.78532506674E+03  0.10949875156E+04  0.19264288280E+04  0.25500000920E-02 0.  1.
       -2    1    3    3    0  502 -0.13767334200E+04 -0.78532506674E+03 -0.89296527735E+03  0.18192078927E+04  0.25500000920E-02 0. -1.
</event>
<event>
 5   0  0.5134434E-07  0.3680862E+04  0.7818609E-02  0.8072216E-01
        2   -1    0    0  501    0  0.00000000000E+00  0.00000000000E+00  0.25636994538E+04  0.25636994538E+04  0.25500000920E-02 0.  1.
       -2   -1    0    0    0  501  0.00000000000E+00  0.00000000000E+00 -0.13212100075E+04  0.13212100075E+04  0.25500000920E-02 0. -1.
    10030    2    1    2    0    0  0.00000000000E+00  0.00000000000E+00  0.12424894463E+04  0.38849094613E+04  0.36808615158E+04 0.  0.
        5    1    3    3  502    0  0.14283730168E+04  0.94465048937E+03  0.13328217233E+04  0.21700345293E+04  0.46999998093E+01 0.  1.
       -5    1    3    3    0  502 -0.14283730168E+04 -0.94465048937E+03 -0.90332277067E+02  0.17148749320E+04  0.46999998093E+01 0. -1.
</event>
<event>
 5   0  0.1648000E-07  0.3755042E+04  0.7818609E-02  0.8055872E-01
       -1   -1    0    0    0  501  0.00000000000E+00  0.00000000000E+00  0.15818651737E+04  0.15818651737E+04  0.50400001928E-02 0.  1.
        1   -1    0    0  501    0  0.00000000000E+00  0.00000000000E+00 -0.22284361866E+04  0.22284361866E+04  0.50400001928E-02 0. -1.
    10030    2    1    2    0    0  0.00000000000E+00  0.00000000000E+00 -0.64657101294E+03  0.38103013603E+04  0.37550422609E+04 0.  0.
        2    1    3    3  502    0 -0.78164418047E+03 -0.16893590046E+03  0.14004116030E+04  0.16126560765E+04  0.25500000920E-02 0.  1.
       -2    1    3    3    0  502  0.78164418047E+03  0.16893590046E+03 -0.20469826159E+04  0.21976452838E+04  0.25500000920E-02 0. -1.
</event>
<event>
 5   0  0.1648000E-07  0.3882346E+04  0.7818609E-02  0.8028711E-01
        1   -1    0    0  501    0  0.00000000000E+00  0.00000000000E+00  0.24577944055E+04  0.24577944055E+04  0.50400001928E-02 0.  1.
       -1   -1    0    0    0  501  0.00000000000E+00  0.00000000000E+00 -0.15331437276E+04  0.15331437276E+04  0.50400001928E-02 0. -1.
    10030    2    1    2    0    0  0.00000000000E+00  0.00000000000E+00  0.92465067790E+03  0.39909381330E+04  0.38823457221E+04 0.  0.
        3    1    3    3  502    0 -0.59109802533E+03 -0.17791554950E+04 -0.55103462007E+02  0.18755872554E+04  0.10100000352E+00 0. -1.
       -3    1    3    3    0  502  0.59109802533E+03  0.17791554950E+04  0.97975413990E+03  0.21153508777E+04  0.10100000352E+00 0.  1.
</event>
<event>
 5   0  0.1656617E-07  0.3845467E+04  0.7818609E-02  0.8036468E-01
       -1   -1    0    0    0  501  0.00000000000E+00  0.00000000000E+00  0.20731512275E+04  0.20731512275E+04  0.50400001928E-02 0.  1.
        1   -1    0    0  501    0  0.00000000000E+00  0.00000000000E+00 -0.17832293204E+04  0.17832293204E+04  0.50400001928E-02 0. -1.
    10030    2    1    2    0    0  0.00000000000E+00  0.00000000000E+00  0.28992190712E+03  0.38563805479E+04  0.38454669701E+04 0.  0.
        5    1    3    3  502    0  0.11732943288E+04  0.32958653970E+03  0.16363382746E+04  0.20403117183E+04  0.46999998093E+01 0.  1.
       -5    1    3    3    0  502 -0.11732943288E+04 -0.32958653970E+03 -0.13464163675E+04  0.18160688296E+04  0.46999998093E+01 0. -1.
</event>
<event>
 5   0  0.5202788E-07  0.3792791E+04  0.7818609E-02  0.8047704E-01
        2   -1    0    0  501    0  0.00000000000E+00  0.00000000000E+00  0.22720275822E+04  0.22720275822E+04  0.25500000920E-02 0. -1.
       -2   -1    0    0    0  501  0.00000000000E+00  0.00000000000E+00 -0.15828665855E+04  0.15828665855E+04  0.25500000920E-02 0.  1.
    10030    2    1    2    0    0  0.00000000000E+00  0.00000000000E+00  0.68916099670E+03  0.38548941677E+04  0.37927913421E+04 0.  0.
        1    1    3    3  502    0 -0.56481844386E+02 -0.29031585571E+03  0.22484425595E+04  0.22678111557E+04  0.50400001928E-02 0. -1.
       -1    1    3    3    0  502  0.56481844386E+02  0.29031585571E+03 -0.15592815628E+04  0.15870830120E+04  0.50400001928E-02 0.  1.
</event>
<event>
 5   0  0.1648000E-07  0.3743754E+04  0.7818609E-02  0.8058334E-01
       -1   -1    0    0    0  501  0.00000000000E+00  0.00000000000E+00  0.14234821653E+04  0.14234821653E+04  0.50400001928E-02 0. -1.
        1   -1    0    0  501    0  0.00000000000E+00  0.00000000000E+00 -0.24615154450E+04  0.24615154450E+04  0.50400001928E-02 0.  1.
    10030    2    1    2    0    0  0.00000000000E+00  0.00000000000E+00 -0.10380332797E+04  0.38849976103E+04  0.37437539105E+04 0.  0.
        3    1    3    3  502    0  0.65939568359E+03 -0.12735956229E+04  0.72931207349E+03  0.16089576094E+04  0.10100000352E+00 0. -1.
       -3    1    3    3    0  502 -0.65939568359E+03  0.12735956229E+04 -0.17673453532E+04  0.22760400009E+04  0.10100000352E+00 0.  1.
</event>
<event>
 5   0  0.5158266E-07  0.3844137E+04  0.7818609E-02  0.8036749E-01
       -2   -1    0    0    0  501  0.00000000000E+00  0.00000000000E+00  0.17291082137E+04  0.17291082137E+04  0.25500000920E-02 0. -1.
        2   -1    0    0  501    0  0.00000000000E+00  0.00000000000E+00 -0.21365626511E+04  0.21365626511E+04  0.25500000920E-02 0.  1.
    10030    2    1    2    0    0  0.00000000000E+00  0.00000000000E+00 -0.40745443742E+03  0.38656708648E+04  0.38441373696E+04 0.  0.
        2    1    3    3  502    0  0.15733985153E+04 -0.90485803060E+03  0.43226878809E+03  0.18657993592E+04  0.25500000920E-02 0. -1.
       -2    1    3    3    0  502 -0.15733985153E+04  0.90485803060E+03 -0.83972322551E+03  0.19998715056E+04  0.25500000920E-02 0.  1.
</event>
<event>
 5   0  0.1648000E-07  0.3789979E+04  0.7818609E-02  0.8048309E-01
       -1   -1    0    0    0  501  0.00000000000E+00  0.00000000000E+00  0.28476118069E+04  0.28476118069E+04  0.50400001928E-02 0. -1.
        1   -1    0    0  501    0  0.00000000000E+00  0.00000000000E+00 -0.12610511944E+04  0.12610511944E+04  0.50400001928E-02 0.  1.
    10030    2    1    2    0    0  0.00000000000E+00  0.00000000000E+00  0.15865606125E+04  0.41086630013E+04  0.37899785067E+04 0.  0.
        4    1    3    3  502    0 -0.12878057050E+04  0.11000695385E+04 -0.12812026007E+03  0.16985325835E+04  0.12699999809E+01 0. -1.
       -4    1    3    3    0  502  0.12878057050E+04 -0.11000695385E+04  0.17146808725E+04  0.24101304178E+04  0.12699999809E+01 0.  1.
</event>
<event>
 5   0  0.1656617E-07  0.3801162E+04  0.7818609E-02  0.8045906E-01
       -1   -1    0    0    0  501  0.00000000000E+00  0.00000000000E+00  0.24844856913E+04  0.24844856913E+04  0.50400001928E-02 0. -1.
        1   -1    0    0  501    0  0.00000000000E+00  0.00000000000E+00 -0.14539054796E+04  0.14539054796E+04  0.50400001928E-02 0.  1.
    10030    2    1    2    0    0  0.00000000000E+00  0.00000000000E+00  0.10305802117E+04  0.39383911709E+04  0.38011615912E+04 0.  0.
        5    1    3    3  502    0 -0.47905116949E+02 -0.19155806094E+02  0.24837539815E+04  0.24842942208E+04  0.46999998093E+01 0. -1.
       -5    1    3    3    0  502  0.47905116949E+02  0.19155806094E+02 -0.14531737698E+04  0.14540969501E+04  0.46999998093E+01 0.  1.
</event>
<event>
 5   0  0.5134434E-07  0.3789230E+04  0.7818609E-02  0.8048470E-01
        2   -1    0    0  501    0  0.00000000000E+00  0.00000000000E+00  0.29750571547E+04  0.29750571547E+04  0.25500000920E-02 0. -1.
       -2   -1    0    0    0  501  0.00000000000E+00  0.00000000000E+00 -0.12065533576E+04  0.12065533576E+04  0.25500000920E-02 0.  1.
    10030    2    1    2    0    0  0.00000000000E+00  0.00000000000E+00  0.17685037971E+04  0.41816105124E+04  0.37892295783E+04 0.  0.
        5    1    3    3  502    0 -0.15879340707E+04 -0.26347824404E+03 -0.21852019857E+03  0.16244163768E+04  0.46999998093E+01 0.  1.
       -5    1    3    3    0  502  0.15879340707E+04  0.26347824404E+03  0.19870239956E+04  0.25571941356E+04  0.46999998093E+01 0. -1.
</event>
<event>
 5   0  0.1656617E-07  0.3829357E+04  0.7818609E-02  0.8039884E-01
        1   -1    0    0  501    0  0.00000000000E+00  0.00000000000E+00  0.27261433851E+04  0.27261433851E+04  0.50400001928E-02 0.  1.
       -1   -1    0    0    0  501  0.00000000000E+00  0.00000000000E+00 -0.13447546031E+04  0.13447546031E+04  0.50400001928E-02 0. -1.
    10030    2    1    2    0    0  0.00000000000E+00  0.00000000000E+00  0.13813887820E+04  0.40708979882E+04  0.38293570562E+04 0.  0.
        5    1    3    3  502    0  0.12392241258E+04 -0.12330437954E+04  0.15209141837E+04  0.23171697131E+04  0.46999998093E+01 0.  1.
       -5    1    3    3    0  502 -0.12392241258E+04  0.12330437954E+04 -0.13952540163E+03  0.17537282751E+04  0.46999998093E+01 0. -1.
</event>
<event>
 5   0  0.1648000E-07  0.3545514E+04  0.7818609E-02  0.8103088E-01
       -1   -1    0    0    0  501  0.00000000000E+00  0.00000000000E+00  0.13905298178E+04  0.13905298178E+04  0.50400001928E-02 0. -1.
        1   -1    0    0  501    0  0.00000000000E+00  0.00000000000E+00 -0.22600498803E+04  0.22600498803E+04  0.50400001928E-02 0.  1.
    10030    2    1    2    0    0  0.00000000000E+00  0.00000000000E+00 -0.86952006246E+03  0.36505796981E+04  0.35455136431E+04 0.  0.
        2    1    3    3  502    0  0.94113432848E+03 -0.10263071769E+04  0.69485001025E+03  0.15562315966E+04  0.25500000920E-02 0. -1.
       -2    1    3    3    0  502 -0.94113432848E+03  0.10263071769E+04 -0.15643700727E+04  0.20943481014E+04  0.25500000920E-02 0.  1.
</event>
<event>
 5   0  0.5202788E-07  0.3701145E+04  0.7818609E-02  0.8067708E-01
       -2   -1    0    0    0  501  0.00000000000E+00  0.00000000000E+00  0.15855715650E+04  0.15855715650E+04  0.25500000920E-02 0. -1.
        2   -1    0    0  501    0  0.00000000000E+00  0.00000000000E+00 -0.21598641395E+04  0.21598641395E+04  0.25500000920E-02 0.  1.
    10030    2    1    2    0    0  0.00000000000E+00  0.00000000000E+00 -0.57429257444E+03  0.37454357045E+04  0.37011453167E+04 0.  0.
        1    1    3    3  502    0 -0.31510756950E+03 -0.15981183171E+04 -0.11759182098E+04  0.20089944181E+04  0.50400001928E-02 0.  1.
       -1    1    3    3    0  502  0.31510756950E+03  0.15981183171E+04  0.60162563534E+03  0.17364412864E+04  0.50400001928E-02 0. -1.
</event>
<event>
 5   0  0.1648000E-07  0.3827378E+04  0.7818609E-02  0.8040305E-01
       -1   -1    0    0    0  501  0.00000000000E+00  0.00000000000E+00  0.27041726351E+04  0.27041726352E+04  0.50400001928E-02 0.  1.
        1   -1    0    0  501    0  0.00000000000E+00  0.00000000000E+00 -0.13542793563E+04  0.13542793563E+04  0.50400001928E-02 0. -1.
    10030    2    1    2    0    0  0.00000000000E+00  0.00000000000E+00  0.13498932789E+04  0.40584519914E+04  0.38273777841E+04 0.  0.
        4    1    3    3  502    0  0.12916748827E+04 -0.13147360729E+04  0.12210635777E+04  0.22108715063E+04  0.12699999809E+01 0.  1.
       -4    1    3    3    0  502 -0.12916748827E+04  0.13147360729E+04  0.12882970123E+03  0.18475804851E+04  0.12699999809E+01 0. -1.
</event>
<event>
 5   0  0.5202788E-07  0.3830699E+04  0.7818609E-02  0.8039599E-01
        2   -1    0    0  501    0  0.00000000000E+00  0.00000000000E+00  0.21854612836E+04  0.21854612836E+04  0.25500000920E-02 0. -1.
       -2   -1    0    0    0  501  0.00000000000E+00  0.00000000000E+00 -0.16786223620E+04  0.16786223620E+04  0.25500000920E-02 0.  1.
    10030    2    1    2    0    0  0.00000000000E+00  0.00000000000E+00  0.50683892162E+03  0.38640836456E+04  0.38306992479E+04 0.  0.
        1    1    3    3  502    0  0.62928881759E+03 -0.41389677632E+03  0.20298032322E+04  0.21650441379E+04  0.50400001928E-02 0. -1.
       -1    1    3    3    0  502 -0.62928881759E+03  0.41389677632E+03 -0.15229643106E+04  0.16990395077E+04  0.50400001928E-02 0.  1.
</event>
<event>
 5   0  0.5202788E-07  0.3594224E+04  0.7818609E-02  0.8091816E-01
       -2   -1    0    0    0  501  0.00000000000E+00  0.00000000000E+00  0.14715575312E+04  0.14715575312E+04  0.25500000920E-02 0.  1.
        2   -1    0    0  501    0  0.00000000000E+00  0.00000000000E+00 -0.21946890592E+04  0.21946890592E+04  0.25500000920E-02 0. -1.
    10030    2    1    2    0    0  0.00000000000E+00  0.00000000000E+00 -0.72313152793E+03  0.36662465904E+04  0.35942238181E+04 0.  0.
        1    1    3    3  502    0  0.10915969823E+04 -0.81897484932E+03  0.83118483260E+03  0.15978648258E+04  0.50400001928E-02 0.  1.
       -1    1    3    3    0  502 -0.10915969823E+04  0.81897484932E+03 -0.15543163605E+04  0.20683817646E+04  0.50400001928E-02 0. -1.
</event>
<event>
 5   0  0.1648000E-07  0.3848081E+04  0.7818609E-02  0.8035915E-01
        1   -1    0    0  501    0  0.00000000000E+00  0.00000000000E+00  0.17722509529E+04  0.17722509529E+04  0.50400001928E-02 0.  1.
       -1   -1    0    0    0  501  0.00000000000E+00  0.00000000000E+00 -0.20888303606E+04  0.20888303606E+04  0.50400001928E-02 0. -1.
    10030    2    1    2    0    0  0.00000000000E+00  0.00000000000E+00 -0.31657940770E+03  0.38610813135E+04  0.38480808708E+04 0.  0.
        4    1    3    3  502    0  0.91655804228E+03  0.16854261843E+04 -0.12230348460E+02  0.19185648965E+04  0.12699999809E+01 0.  1.
       -4    1    3    3    0  502 -0.91655804228E+03 -0.16854261843E+04 -0.30434905924E+03  0.19425164170E+04  0.12699999809E+01 0. -1.
</event>
<event>
 5   0  0.1648000E-07  0.3790787E+04  0.7818609E-02  0.8048135E-01
        1   -1    0    0  501    0  0.00000000000E+00  0.00000000000E+00  0.21716138262E+04  0.21716138262E+04  0.50400001928E-02 0.  1.
       -1   -1    0    0    0  501  0.00000000000E+00  0.00000000000E+00 -0.16543071545E+04  0.16543071545E+04  0.50400001928E-02 0. -1.
    10030    2    1    2    0    0  0.00000000000E+00  0.00000000000E+00  0.51730667163E+03  0.38259209807E+04  0.37907868785E+04 0.  0.
        3    1    3    3  502    0 -0.12955817287E+04  0.89872760131E+03  0.13201967894E+04  0.20564928616E+04  0.10100000352E+00 0.  1.
       -3    1    3    3    0  502  0.12955817287E+04 -0.89872760131E+03 -0.80289011772E+03  0.17694281191E+04  0.10100000352E+00 0. -1.
</event>
<event>
 5   0  0.5325362E-07  0.3802375E+04  0.7818609E-02  0.8045645E-01
        2   -1    0    0  501    0  0.00000000000E+00  0.00000000000E+00  0.27061396060E+04  0.27061396060E+04  0.25500000920E-02 0. -1.
       -2   -1    0    0    0  501  0.00000000000E+00  0.00000000000E+00 -0.13356717917E+04  0.13356717917E+04  0.25500000920E-02 0.  1.
    10030    2    1    2    0    0  0.00000000000E+00  0.00000000000E+00  0.13704678143E+04  0.40418113977E+04  0.38023752240E+04 0.  0.
        4    1    3    3  502    0 -0.90313737087E+03  0.37327073514E+03 -0.10482630206E+04  0.14331242534E+04  0.12699999809E+01 0.  1.
       -4    1    3    3    0  502  0.90313737087E+03 -0.37327073514E+03  0.24187308349E+04  0.26086871443E+04  0.12699999809E+01 0. -1.
</event>
<event>
 5   0  0.1648000E-07  0.3811369E+04  0.7818609E-02  0.8043720E-01
        1   -1    0    0  501    0  0.00000000000E+00  0.00000000000E+00  0.11557027907E+04  0.11557027907E+04  0.50400001928E-02 0. -1.
       -1   -1    0    0    0  501  0.00000000000E+00  0.00000000000E+00 -0.31423590584E+04  0.31423590584E+04  0.50400001928E-02 0.  1.
    10030    2    1    2    0    0  0.00000000000E+00  0.00000000000E+00 -0.19866562677E+04  0.42980618491E+04  0.38113688529E+04 0.  0.
        4    1    3    3  502    0  0.47822313239E+03  0.14542669534E+04 -0.22731710120E+04  0.27406017220E+04  0.12699999809E+01 0.  1.
       -4    1    3    3    0  502 -0.47822313239E+03 -0.14542669534E+04  0.28651474428E+03  0.15574601271E+04  0.12699999809E+01 0. -1.
</event>
<event>
 5   0  0.1648000E-07  0.3851674E+04  0.7818609E-02  0.8035156E-01
        1   -1    0    0  501    0  0.00000000000E+00  0.00000000000E+00  0.11614316890E+04  0.11614316890E+04  0.50400001928E-02 0. -1.
       -1   -1    0    0    0  501  0.00000000000E+00  0.00000000000E+00 -0.31933417522E+04  0.31933417522E+04  0.50400001928E-02 0.  1.
    10030    2    1    2    0    0  0.00000000000E+00  0.00000000000E+00 -0.20319100632E+04  0.43547734412E+04  0.38516740800E+04 0.  0.
        1    1    3    3  502    0 -0.10247474264E+04 -0.19656242494E+03 -0.28460571289E+04  0.30313009181E+04  0.50400001928E-02 0.  1.
       -1    1    3    3    0  502  0.10247474264E+04  0.19656242494E+03  0.81414706569E+03  0.13234725231E+04  0.50400001928E-02 0. -1.
</event>
<event>
 5   0  0.1656617E-07  0.3920841E+04  0.7818609E-02  0.8020709E-01
       -1   -1    0    0    0  501  0.00000000000E+00  0.00000000000E+00  0.24905879920E+04  0.24905879920E+04  0.50400001928E-02 0.  1.
        1   -1    0    0  501    0  0.00000000000E+00  0.00000000000E+00 -0.15431086867E+04  0.15431086867E+04  0.50400001928E-02 0. -1.
    10030    2    1    2    0    0  0.00000000000E+00  0.00000000000E+00  0.94747930530E+03  0.40336966788E+04  0.39208407086E+04 0.  0.
        5    1    3    3  502    0 -0.12667926854E+04 -0.33988213186E+03 -0.10252310152E+04  0.16647535241E+04  0.46999998093E+01 0. -1.
       -5    1    3    3    0  502  0.12667926854E+04  0.33988213186E+03  0.19727103205E+04  0.23689431547E+04  0.46999998093E+01 0.  1.
</event>
<event>
 5   0  0.5325362E-07  0.3453945E+04  0.7818609E-02  0.8124792E-01
        2   -1    0    0  501    0  0.00000000000E+00  0.00000000000E+00  0.22385853449E+04  0.22385853449E+04  0.25500000920E-02 0.  1.
       -2   -1    0    0    0  501  0.00000000000E+00  0.00000000000E+00 -0.13322851591E+04  0.13322851591E+04  0.25500000920E-02 0. -1.
    10030    2    1    2    0    0  0.00000000000E+00  0.00000000000E+00  0.90630018579E+03  0.35708705039E+04  0.34539450096E+04 0.  0.
        4    1    3    3  502    0  0.32732454484E+03  0.12249771419E+04 -0.75902716996E+03  0.14777801641E+04  0.12699999809E+01 0. -1.
       -4    1    3    3    0  502 -0.32732454484E+03 -0.12249771419E+04  0.16653273558E+04  0.20930903398E+04  0.12699999809E+01 0.  1.
</event>
<event>
 5   0  0.5158266E-07  0.3869537E+04  0.7818609E-02  0.8031395E-01
        2   -1    0    0  501    0  0.00000000000E+00  0.00000000000E+00  0.15305036838E+04  0.15305036838E+04  0.25500000920E-02 0. -1.
       -2   -1    0    0    0  501  0.00000000000E+00  0.00000000000E+00 -0.24458149807E+04  0.24458149807E+04  0.25500000920E-02 0.  1.
    10030    2    1    2    0    0  0.00000000000E+00  0.00000000000E+00 -0.91531129689E+03  0.39763186644E+04  0.38695368393E+04 0.  0.
        2    1    3    3  502    0 -0.14741451268E+04  0.87280720472E+03 -0.13815963435E+04  0.22008418225E+04  0.25500000920E-02 0.  1.
       -2    1    3    3    0  502  0.14741451268E+04 -0.87280720472E+03  0.46628504661E+03  0.17754768419E+04  0.25500000920E-02 0. -1.
</event>
<event>
 5   0  0.1656617E-07  0.3783005E+04  0.7818609E-02  0.8049812E-01
        1   -1    0    0  501    0  0.00000000000E+00  0.00000000000E+00  0.12293897666E+04  0.12293897666E+04  0.50400001928E-02 0.  1.
       -1   -1    0    0    0  501  0.00000000000E+00  0.00000000000E+00 -0.29102089899E+04  0.29102089899E+04  0.50400001928E-02 0. -1.
    10030    2    1    2    0    0  0.00000000000E+00  0.00000000000E+00 -0.16808192234E+04  0.41395987565E+04  0.37830047057E+04 0.  0.
        5    1    3    3  502    0  0.46277047974E+02  0.90348638127E+03 -0.26581136673E+04  0.28078496336E+04  0.46999998093E+01 0. -1.
       -5    1    3    3    0  502 -0.46277047974E+02 -0.90348638127E+03  0.97729444396E+03  0.13317491230E+04  0.46999998093E+01 0.  1.
</event>
<event>
 5   0  0.1648000E-07  0.3917066E+04  0.7818609E-02  0.8021489E-01
        1   -1    0    0  501    0  0.00000000000E+00  0.00000000000E+00  0.27448209807E+04  0.27448209807E+04  0.50400001928E-02 0. -1.
       -1   -1    0    0    0  501  0.00000000000E+00  0.00000000000E+00 -0.13974866307E+04  0.13974866307E+04  0.50400001928E-02 0.  1.
    10030    2    1    2    0    0  0.00000000000E+00  0.00000000000E+00  0.13473343500E+04  0.41423076114E+04  0.39170655467E+04 0.  0.
        1    1    3    3  502    0 -0.23877890944E+01 -0.38733168547E+03 -0.13565781323E+04  0.14107926018E+04  0.50400001928E-02 0.  1.
       -1    1    3    3    0  502  0.23877890944E+01  0.38733168547E+03  0.27039124823E+04  0.27315150097E+04  0.50400001928E-02 0. -1.
</event>
<event>
 5   0  0.5132561E-07  0.3850690E+04  0.7818609E-02  0.8035364E-01
        2   -1    0    0  501    0  0.00000000000E+00  0.00000000000E+00  0.18951137004E+04  0.18951137004E+04  0.25500000920E-02 0. -1.
       -2   -1    0    0    0  501  0.00000000000E+00  0.00000000000E+00 -0.19560585045E+04  0.19560585045E+04  0.25500000920E-02 0.  1.
    10030    2    1    2    0    0  0.00000000000E+00  0.00000000000E+00 -0.60944804130E+02  0.38511722050E+04  0.38506899490E+04 0.  0.
        3    1    3    3  502    0  0.13283717801E+04 -0.92226913182E+03 -0.10754962353E+04  0.19421236057E+04  0.10100000352E+00 0.  1.
       -3    1    3    3    0  502 -0.13283717801E+04  0.92226913182E+03  0.10145514312E+04  0.19090485992E+04  0.10100000352E+00 0. -1.
</event>
<event>
 5   0  0.5325362E-07  0.3764098E+04  0.7818609E-02  0.8053903E-01
        2   -1    0    0  501    0  0.00000000000E+00  0.00000000000E+00  0.18994896522E+04  0.18994896522E+04  0.25500000920E-02 0.  1.
       -2   -1    0    0    0  501  0.00000000000E+00  0.00000000000E+00 -0.18647689326E+04  0.18647689326E+04  0.25500000920E-02 0. -1.
    10030    2    1    2    0    0  0.00000000000E+00  0.00000000000E+00  0.34720719622E+02  0.37642585848E+04  0.37640984531E+04 0.  0.
        4    1    3    3  502    0 -0.38379858212E+02 -0.15301039090E+04 -0.10778650715E+04  0.18720271662E+04  0.12699999809E+01 0. -1.
       -4    1    3    3    0  502  0.38379858212E+02  0.15301039090E+04  0.11125857911E+04  0.18922314186E+04  0.12699999809E+01 0.  1.
</event>
<event>
 5   0  0.5325362E-07  0.3797451E+04  0.7818609E-02  0.8046702E-01
        2   -1    0    0  501    0  0.00000000000E+00  0.00000000000E+00  0.25235114141E+04  0.25235114141E+04  0.25500000920E-02 0. -1.
       -2   -1    0    0    0  501  0.00000000000E+00  0.00000000000E+00 -0.14286277095E+04  0.14286277095E+04  0.25500000920E-02 0.  1.
    10030    2    1    2    0    0  0.00000000000E+00  0.00000000000E+00  0.10948837047E+04  0.39521391236E+04  0.37974508984E+04 0.  0.
        4    1    3    3  502    0 -0.97670363590E+03 -0.96451035288E+03 -0.81783654648E+03  0.15978386786E+04  0.12699999809E+01 0.  1.
       -4    1    3    3    0  502  0.97670363590E+03  0.96451035288E+03  0.19127202512E+04  0.23543004450E+04  0.12699999809E+01 0. -1.
</event>
<event>
 5   0  0.1648000E-07  0.3006710E+04  0.7818609E-02  0.8241817E-01
       -1   -1    0    0    0  501  0.00000000000E+00  0.00000000000E+00  0.27060871528E+04  0.27060871529E+04  0.50400001928E-02 0.  1.
        1   -1    0    0  501    0  0.00000000000E+00  0.00000000000E+00 -0.83518238865E+03  0.83518238867E+03  0.50400001928E-02 0. -1.
    10030    2    1    2    0    0  0.00000000000E+00  0.00000000000E+00  0.18709047642E+04  0.35412695415E+04  0.30067100507E+04 0.  0.
        3    1    3    3  502    0 -0.56851204835E+03  0.75203622703E+03  0.23146787613E+04  0.24993003449E+04  0.10100000352E+00 0.  1.
       -3    1    3    3    0  502  0.56851204835E+03 -0.75203622703E+03 -0.44377399714E+03  0.10419691966E+04  0.10100000352E+00 0. -1.
</event>
<event>
 5   0  0.1648000E-07  0.3788298E+04  0.7818609E-02  0.8048671E-01
        1   -1    0    0  501    0  0.00000000000E+00  0.00000000000E+00  0.12774093558E+04  0.12774093559E+04  0.50400001928E-02 0.  1.
       -1   -1    0    0    0  501  0.00000000000E+00  0.00000000000E+00 -0.28086530641E+04  0.28086530641E+04  0.50400001928E-02 0. -1.
    10030    2    1    2    0    0  0.00000000000E+00  0.00000000000E+00 -0.15312437082E+04  0.40860624199E+04  0.37882976131E+04 0.  0.
        3    1    3    3  502    0  0.49557015812E+03  0.11059108317E+04  0.80453819136E+03  0.14546168777E+04  0.10100000352E+00 0.  1.
       -3    1    3    3    0  502 -0.49557015812E+03 -0.11059108317E+04 -0.23357818996E+04  0.26314455422E+04  0.10100000352E+00 0. -1.
</event>
<event>
 5   0  0.1648000E-07  0.3875445E+04  0.7818609E-02  0.8030156E-01
       -1   -1    0    0    0  501  0.00000000000E+00  0.00000000000E+00  0.24974439095E+04  0.24974439095E+04  0.50400001928E-02 0. -1.
        1   -1    0    0  501    0  0.00000000000E+00  0.00000000000E+00 -0.15034449194E+04  0.15034449194E+04  0.50400001928E-02 0.  1.
    10030    2    1    2    0    0  0.00000000000E+00  0.00000000000E+00  0.99399899009E+03  0.40008888288E+04  0.38754454490E+04 0.  0.
        3    1    3    3  502    0  0.18437943965E+04 -0.59550250781E+03  0.52161090734E+03  0.20065589855E+04  0.10100000352E+00 0. -1.
       -3    1    3    3    0  502 -0.18437943965E+04  0.59550250781E+03  0.47238808275E+03  0.19943298434E+04  0.10100000352E+00 0.  1.
</event>
<event>
 5   0  0.1648000E-07  0.3005021E+04  0.7818609E-02  0.8242299E-01
       -1   -1    0    0    0  501  0.00000000000E+00  0.00000000000E+00  0.12187242345E+04  0.12187242345E+04  0.50400001928E-02 0. -1.
        1   -1    0    0  501    0  0.00000000000E+00  0.00000000000E+00 -0.18523773427E+04  0.18523773427E+04  0.50400001928E-02 0.  1.
    10030    2    1    2    0    0  0.00000000000E+00  0.00000000000E+00 -0.63365310815E+03  0.30711015772E+04  0.30050205716E+04 0.  0.
        2    1    3    3  502    0 -0.15020543463E+04  0.28401560535E+02 -0.29257175289E+03  0.15305463530E+04  0.25500000920E-02 0. -1.
       -2    1    3    3    0  502  0.15020543463E+04 -0.28401560535E+02 -0.34108135526E+03  0.15405552242E+04  0.25500000920E-02 0.  1.
</event>
<event>
 5   0  0.5132561E-07  0.3828953E+04  0.7818609E-02  0.8039970E-01
        2   -1    0    0  501    0  0.00000000000E+00  0.00000000000E+00  0.23429419478E+04  0.23429419478E+04  0.25500000920E-02 0. -1.
       -2   -1    0    0    0  501  0.00000000000E+00  0.00000000000E+00 -0.15643665966E+04  0.15643665966E+04  0.25500000920E-02 0.  1.
    10030    2    1    2    0    0  0.00000000000E+00  0.00000000000E+00  0.77857535125E+03  0.39073085444E+04  0.38289529227E+04 0.  0.
        3    1    3    3  502    0 -0.27856414296E+03 -0.11483137149E+04 -0.11478568834E+04  0.16473608604E+04  0.10100000352E+00 0.  1.
       -3    1    3    3    0  502  0.27856414296E+03  0.11483137149E+04  0.19264322346E+04  0.22599476840E+04  0.10100000352E+00 0. -1.
</event>
<event>
 5   0  0.5132561E-07  0.3799544E+04  0.7818609E-02  0.8046253E-01
       -2   -1    0    0    0  501  0.00000000000E+00  0.00000000000E+00  0.20544714842E+04  0.20544714842E+04  0.25500000920E-02 0.  1.
        2   -1    0    0  501    0  0.00000000000E+00  0.00000000000E+00 -0.17567210428E+04  0.17567210428E+04  0.25500000920E-02 0. -1.
    10030    2    1    2    0    0  0.00000000000E+00  0.00000000000E+00  0.29775044145E+03  0.38111925270E+04  0.37995438084E+04 0.  0.
        3    1    3    3  502    0 -0.14962433859E+04  0.25929491103E+03 -0.99618280609E+03  0.18161382971E+04  0.10100000352E+00 0. -1.
       -3    1    3    3    0  502  0.14962433859E+04 -0.25929491103E+03  0.12939332475E+04  0.19950542299E+04  0.10100000352E+00 0.  1.
</event>
<event>
 5   0  0.1648000E-07  0.3641271E+04  0.7818609E-02  0.8081103E-01
       -1   -1    0    0    0  501  0.00000000000E+00  0.00000000000E+00  0.28616190160E+04  0.28616190160E+04  0.50400001928E-02 0. -1.
        1   -1    0    0  501    0  0.00000000000E+00  0.00000000000E+00 -0.11583351693E+04  0.11583351694E+04  0.50400001928E-02 0.  1.
    10030    2    1    2    0    0  0.00000000000E+00  0.00000000000E+00  0.17032838467E+04  0.40199541854E+04  0.36412711778E+04 0.  0.
        3    1    3    3  502    0 -0.88828368292E+03  0.10374561433E+04 -0.47744943821E+03  0.14468314093E+04  0.10100000352E+00 0.  1.
       -3    1    3    3    0  502  0.88828368292E+03 -0.10374561433E+04  0.21807332849E+04  0.25731227761E+04  0.10100000352E+00 0. -1.
</event>
<event>
 5   0  0.5158266E-07  0.3786962E+04  0.7818609E-02  0.8048959E-01
        2   -1    0    0  501    0  0.00000000000E+00  0.00000000000E+00  0.20234331227E+04  0.20234331227E+04  0.25500000920E-02 0. -1.
       -2   -1    0    0    0  501  0.00000000000E+00  0.00000000000E+00 -0.17718747066E+04  0.17718747066E+04  0.25500000920E-02 0.  1.
    10030    2    1    2    0    0  0.00000000000E+00  0.00000000000E+00  0.25155841614E+03  0.37953078293E+04  0.37869618274E+04 0.  0.
        2    1    3    3  502    0  0.16079520618E+04 -0.99829951533E+03  0.18210106114E+03  0.19013870074E+04  0.25500000920E-02 0.  1.
       -2    1    3    3    0  502 -0.16079520618E+04  0.99829951533E+03  0.69457355005E+02  0.18939208219E+04  0.25500000920E-02 0. -1.
</event>
<event>
 5   0  0.5202788E-07  0.3357296E+04  0.7818609E-02  0.8148467E-01
       -2   -1    0    0    0  501  0.00000000000E+00  0.00000000000E+00  0.22884953560E+04  0.22884953560E+04  0.25500000920E-02 0.  1.
        2   -1    0    0  501    0  0.00000000000E+00  0.00000000000E+00 -0.12313153080E+04  0.12313153080E+04  0.25500000920E-02 0. -1.
    10030    2    1    2    0    0  0.00000000000E+00  0.00000000000E+00  0.10571800480E+04  0.35198106640E+04  0.33572961526E+04 0.  0.
        1    1    3    3  502    0  0.12148765754E+04 -0.53815151537E+03  0.16040767423E+04  0.20829292696E+04  0.50400001928E-02 0.  1.
       -1    1    3    3    0  502 -0.12148765754E+04  0.53815151537E+03 -0.54689669438E+03  0.14368813943E+04  0.50400001928E-02 0. -1.
</event>
<event>
 5   0  0.5325362E-07  0.3796037E+04  0.7818609E-02  0.8047006E-01
       -2   -1    0    0    0  501  0.00000000000E+00  0.00000000000E+00  0.15642949806E+04  0.15642949806E+04  0.25500000920E-02 0. -1.
        2   -1    0    0  501    0  0.00000000000E+00  0.00000000000E+00 -0.23029377538E+04  0.23029377538E+04  0.25500000920E-02 0.  1.
    10030    2    1    2    0    0  0.00000000000E+00  0.00000000000E+00 -0.73864277326E+03  0.38672327344E+04  0.37960368643E+04 0.  0.
        4    1    3    3  502    0  0.14445199664E+04  0.11043254857E+04  0.18522190094E+03  0.18276984098E+04  0.12699999809E+01 0. -1.
       -4    1    3    3    0  502 -0.14445199664E+04 -0.11043254857E+04 -0.92386467419E+03  0.20395343245E+04  0.12699999809E+01 0.  1.
</event>
<event>
 5   0  0.1656617E-07  0.3373571E+04  0.7818609E-02  0.8144423E-01
       -1   -1    0    0    0  501  0.00000000000E+00  0.00000000000E+00  0.15398868039E+04  0.15398868039E+04  0.50400001928E-02 0. -1.
        1   -1    0    0  501    0  0.00000000000E+00  0.00000000000E+00 -0.18476976573E+04  0.18476976573E+04  0.50400001928E-02 0.  1.
    10030    2    1    2    0    0  0.00000000000E+00  0.00000000000E+00 -0.30781085340E+03  0.33875844612E+04  0.33735709508E+04 0.  0.
        5    1    3    3  502    0  0.96337756651E+03  0.32735516978E+03  0.11970325827E+04  0.15710400494E+04  0.46999998093E+01 0. -1.
       -5    1    3    3    0  502 -0.96337756651E+03 -0.32735516978E+03 -0.15048434361E+04  0.18165444118E+04  0.46999998093E+01 0.  1.
</event>
<event>
 5   0  0.5202788E-07  0.3798082E+04  0.7818609E-02  0.8046567E-01
       -2   -1    0    0    0  501  0.00000000000E+00  0.00000000000E+00  0.25938142677E+04  0.25938142677E+04  0.25500000920E-02 0.  1.
        2   -1    0    0  501    0  0.00000000000E+00  0.00000000000E+00 -0.13903681972E+04  0.13903681972E+04  0.25500000920E-02 0. -1.
    10030    2    1    2    0    0  0.00000000000E+00  0.00000000000E+00  0.12034460705E+04  0.39841824649E+04  0.37980820777E+04 0.  0.
        1    1    3    3  502    0  0.45038829827E+03  0.82025771787E+03  0.23351703180E+04  0.25156893204E+04  0.50400001928E-02 0.  1.
       -1    1    3    3    0  502 -0.45038829827E+03 -0.82025771787E+03 -0.11317242475E+04  0.14684931444E+04  0.50400001928E-02 0. -1.
</event>
<event>
 5   0  0.5132561E-07  0.3791149E+04  0.7818609E-02  0.8048057E-01
        2   -1    0    0  501    0  0.00000000000E+00  0.00000000000E+00  0.18184922301E+04  0.18184922301E+04  0.25500000920E-02 0. -1.
       -2   -1    0    0    0  501  0.00000000000E+00  0.00000000000E+00 -0.19759238597E+04  0.19759238597E+04  0.25500000920E-02 0.  1.
    10030    2    1    2    0    0  0.00000000000E+00  0.00000000000E+00 -0.15743162965E+03  0.37944160898E+04  0.37911487368E+04 0.  0.
        3    1    3    3  502    0 -0.12495637298E+04 -0.13655665712E+04 -0.48774957119E+03  0.19141789963E+04  0.10100000352E+00 0.  1.
       -3    1    3    3    0  502  0.12495637298E+04  0.13655665712E+04  0.33031794154E+03  0.18802370936E+04  0.10100000352E+00 0. -1.
</event>
<event>
 5   0  0.1648000E-07  0.3692729E+04  0.7818609E-02  0.8069575E-01
        1   -1    0    0  501    0  0.00000000000E+00  0.00000000000E+00  0.13321936060E+04  0.13321936060E+04  0.50400001928E-02 0. -1.
       -1   -1    0    0    0  501  0.00000000000E+00  0.00000000000E+00 -0.25589833940E+04  0.25589833940E+04  0.50400001928E-02 0.  1.
    10030    2    1    2    0    0  0.00000000000E+00  0.00000000000E+00 -0.12267897880E+04  0.38911770000E+04  0.36927287013E+04 0.  0.
        4    1    3    3  502    0  0.16561310248E+03 -0.50411381831E+03  0.12501176953E+04  0.13580700668E+04  0.12699999809E+01 0. -1.
       -4    1    3    3    0  502 -0.16561310248E+03  0.50411381831E+03 -0.24769074833E+04  0.25331069332E+04  0.12699999809E+01 0.  1.
</event>
<event>
 5   0  0.5134434E-07  0.2786900E+04  0.7818609E-02  0.8307347E-01
        2   -1    0    0  501    0  0.00000000000E+00  0.00000000000E+00  0.18087048213E+04  0.18087048213E+04  0.25500000920E-02 0.  1.
       -2   -1    0    0    0  501  0.00000000000E+00  0.00000000000E+00 -0.10735322339E+04  0.10735322339E+04  0.25500000920E-02 0. -1.
    10030    2    1    2    0    0  0.00000000000E+00  0.00000000000E+00  0.73517258738E+03  0.28822370552E+04  0.27869000178E+04 0.  0.
        5    1    3    3  502    0 -0.66305366629E+03 -0.80026121036E+03  0.13275766428E+04  0.16859833931E+04  0.46999998093E+01 0.  1.
       -5    1    3    3    0  502  0.66305366629E+03  0.80026121036E+03 -0.59240405546E+03  0.11962536621E+04  0.46999998093E+01 0. -1.
</event>
<event>
 5   0  0.5158266E-07  0.2878051E+04  0.7818609E-02  0.8279438E-01
        2   -1    0    0  501    0  0.00000000000E+00  0.00000000000E+00  0.16549711317E+04  0.16549711317E+04  0.25500000920E-02 0.  1.
       -2   -1    0    0    0  501  0.00000000000E+00  0.00000000000E+00 -0.12512570992E+04  0.12512570993E+04  0.25500000920E-02 0. -1.
    10030    2    1    2    0    0  0.00000000000E+00  0.00000000000E+00  0.40371403244E+03  0.29062282309E+04  0.28780509916E+04 0.  0.
        2    1    3    3  502    0 -0.12745753540E+04  0.48598828806E+03 -0.26096135804E+03  0.13888224435E+04  0.25500000920E-02 0.  1.
       -2    1    3    3    0  502  0.12745753540E+04 -0.48598828806E+03  0.66467539048E+03  0.15174057875E+04  0.25500000920E-02 0. -1.
</event>
<event>
 5   0  0.5158266E-07  0.3721653E+04  0.7818609E-02  0.8063180E-01
       -2   -1    0    0    0  501  0.00000000000E+00  0.00000000000E+00  0.27864920530E+04  0.27864920530E+04  0.25500000920E-02 0. -1.
        2   -1    0    0  501    0  0.00000000000E+00  0.00000000000E+00 -0.12426645206E+04  0.12426645206E+04  0.25500000920E-02 0.  1.
    10030    2    1    2    0    0  0.00000000000E+00  0.00000000000E+00  0.15438275324E+04  0.40291565736E+04  0.37216527572E+04 0.  0.
        2    1    3    3  502    0 -0.12519952797E+04  0.13557627658E+04  0.10305909597E+04  0.21136940611E+04  0.25500000920E-02 0.  1.
       -2    1    3    3    0  502  0.12519952797E+04 -0.13557627658E+04  0.51323657263E+03  0.19154625125E+04  0.25500000920E-02 0. -1.
</event>
<event>
 5   0  0.1648000E-07  0.3791651E+04  0.7818609E-02  0.8047949E-01
       -1   -1    0    0    0  501  0.00000000000E+00  0.00000000000E+00  0.24950979223E+04  0.24950979223E+04  0.50400001928E-02 0. -1.
        1   -1    0    0  501    0  0.00000000000E+00  0.00000000000E+00 -0.14404859962E+04  0.14404859963E+04  0.50400001928E-02 0.  1.
    10030    2    1    2    0    0  0.00000000000E+00  0.00000000000E+00  0.10546119261E+04  0.39355839186E+04  0.37916506255E+04 0.  0.
        3    1    3    3  502    0  0.54328439526E+03 -0.12379587513E+04 -0.85222675813E+03  0.15981208532E+04  0.10100000352E+00 0.  1.
       -3    1    3    3    0  502 -0.54328439526E+03  0.12379587513E+04  0.19068386842E+04  0.23374630653E+04  0.10100000352E+00 0. -1.
</event>
<event>
 5   0  0.1648000E-07  0.3769852E+04  0.7818609E-02  0.8052656E-01
        1   -1    0    0  501    0  0.00000000000E+00  0.00000000000E+00  0.22765292592E+04  0.22765292592E+04  0.50400001928E-02 0.  1.
       -1   -1    0    0    0  501  0.00000000000E+00  0.00000000000E+00 -0.15606854747E+04  0.15606854747E+04  0.50400001928E-02 0. -1.
    10030    2    1    2    0    0  0.00000000000E+00  0.00000000000E+00  0.71584378443E+03  0.38372147339E+04  0.37698520648E+04 0.  0.
        2    1    3    3  502    0 -0.18795062672E+04 -0.12882277353E+02  0.21312532210E+03  0.18915951375E+04  0.25500000920E-02 0.  1.
       -2    1    3    3    0  502  0.18795062672E+04  0.12882277353E+02  0.50271846233E+03  0.19456195964E+04  0.25500000920E-02 0. -1.
</event>
<event>
 5   0  0.5202788E-07  0.3749309E+04  0.7818609E-02  0.8057121E-01
       -2   -1    0    0    0  501  0.00000000000E+00  0.00000000000E+00  0.21993159077E+04  0.21993159077E+04  0.25500000920E-02 0. -1.
        2   -1    0    0  501    0  0.00000000000E+00  0.00000000000E+00 -0.15979194601E+04  0.15979194601E+04  0.25500000920E-02 0.  1.
    10030    2    1    2    0    0  0.00000000000E+00  0.00000000000E+00  0.60139644768E+03  0.37972353678E+04  0.37493091032E+04 0.  0.
        1    1    3    3  502    0 -0.86205007085E+03  0.15799390407E+04  0.83179821414E+03  0.19827319451E+04  0.50400001928E-02 0.  1.
       -1    1    3    3    0  502  0.86205007085E+03 -0.15799390407E+04 -0.23040176646E+03  0.18145034227E+04  0.50400001928E-02 0. -1.
</event>
<event>
 5   0  0.1648000E-07  0.2927265E+04  0.7818609E-02  0.8264811E-01
       -1   -1    0    0    0  501  0.00000000000E+00  0.00000000000E+00  0.14038767187E+04  0.14038767187E+04  0.50400001928E-02 0. -1.
        1   -1    0    0  501    0  0.00000000000E+00  0.00000000000E+00 -0.15259318658E+04  0.15259318658E+04  0.50400001928E-02 0.  1.
    10030    2    1    2    0    0  0.00000000000E+00  0.00000000000E+00 -0.12205514710E+03  0.29298085846E+04  0.29272650859E+04 0.  0.
        2    1    3    3  502    0 -0.13958690991E+04 -0.28647273646E+03 -0.39553803969E+03  0.14788399208E+04  0.25500000920E-02 0.  1.
       -2    1    3    3    0  502  0.13958690991E+04  0.28647273646E+03  0.27348289258E+03  0.14509686637E+04  0.25500000920E-02 0. -1.
</event>
<event>
 5   0  0.1656617E-07  0.3654102E+04  0.7818609E-02  0.8078210E-01
       -1   -1    0    0    0  501  0.00000000000E+00  0.00000000000E+00  0.13837699510E+04  0.13837699510E+04  0.50400001928E-02 0. -1.
        1   -1    0    0  501    0  0.00000000000E+00  0.00000000000E+00 -0.24123346483E+04  0.24123346483E+04  0.50400001928E-02 0.  1.
    10030    2    1    2    0    0  0.00000000000E+00  0.00000000000E+00 -0.10285646973E+04  0.37961045993E+04  0.36541024605E+04 0.  0.
        5    1    3    3  502    0 -0.23194440807E+02  0.12943180649E+04 -0.18536868181E+04  0.22609675241E+04  0.46999998093E+01 0.  1.
       -5    1    3    3    0  502  0.23194440807E+02 -0.12943180649E+04  0.82512212086E+03  0.15351370752E+04  0.46999998093E+01 0. -1.
</event>
<event>
 5   0  0.5134434E-07  0.3788544E+04  0.7818609E-02  0.8048618E-01
        2   -1    0    0  501    0  0.00000000000E+00  0.00000000000E+00  0.23254948066E+04  0.23254948066E+04  0.25500000920E-02 0. -1.
       -2   -1    0    0    0  501  0.00000000000E+00  0.00000000000E+00 -0.15430123522E+04  0.15430123522E+04  0.25500000920E-02 0.  1.
    10030    2    1    2    0    0  0.00000000000E+00  0.00000000000E+00  0.78248245441E+03  0.38685071589E+04  0.37885444232E+04 0.  0.
        5    1    3    3  502    0 -0.97863762746E+03  0.12090301648E+04 -0.71266863182E+03  0.17109658717E+04  0.46999998093E+01 0.  1.
       -5    1    3    3    0  502  0.97863762746E+03 -0.12090301648E+04  0.14951510862E+04  0.21575412872E+04  0.46999998093E+01 0. -1.
</event>
<event>
 5   0  0.1648000E-07  0.3821198E+04  0.7818609E-02  0.8041621E-01
        1   -1    0    0  501    0  0.00000000000E+00  0.00000000000E+00  0.14495958929E+04  0.14495958929E+04  0.50400001928E-02 0.  1.
       -1   -1    0    0    0  501  0.00000000000E+00  0.00000000000E+00 -0.25182109252E+04  0.25182109252E+04  0.50400001928E-02 0. -1.
    10030    2    1    2    0    0  0.00000000000E+00  0.00000000000E+00 -0.10686150324E+04  0.39678068181E+04  0.38211978304E+04 0.  0.
        2    1    3    3  502    0 -0.29170607648E+03  0.33599126227E+03 -0.24636614563E+04  0.25035195894E+04  0.25500000920E-02 0. -1.
       -2    1    3    3    0  502  0.29170607648E+03 -0.33599126227E+03  0.13950464239E+04  0.14642872287E+04  0.25500000920E-02 0.  1.
</event>
<event>
 5   0  0.1648000E-07  0.3826616E+04  0.7818609E-02  0.8040467E-01
        1   -1    0    0  501    0  0.00000000000E+00  0.00000000000E+00  0.12984087944E+04  0.12984087944E+04  0.50400001928E-02 0.  1.
       -1   -1    0    0    0  501  0.00000000000E+00  0.00000000000E+00 -0.28194101394E+04  0.28194101394E+04  0.50400001928E-02 0. -1.
    10030    2    1    2    0    0  0.00000000000E+00  0.00000000000E+00 -0.15210013450E+04  0.41178189338E+04  0.38266156954E+04 0.  0.
        3    1    3    3  502    0  0.34415360652E+03  0.56771435904E+03 -0.26914937282E+04  0.27721615749E+04  0.10100000352E+00 0. -1.
       -3    1    3    3    0  502 -0.34415360652E+03 -0.56771435904E+03  0.11704923832E+04  0.13456573589E+04  0.10100000352E+00 0.  1.
</event>
<event>
 5   0  0.1656617E-07  0.3809822E+04  0.7818609E-02  0.8044050E-01
       -1   -1    0    0    0  501  0.00000000000E+00  0.00000000000E+00  0.21172543082E+04  0.21172543082E+04  0.50400001928E-02 0.  1.
        1   -1    0    0  501    0  0.00000000000E+00  0.00000000000E+00 -0.17138642995E+04  0.17138642995E+04  0.50400001928E-02 0. -1.
    10030    2    1    2    0    0  0.00000000000E+00  0.00000000000E+00  0.40339000864E+03  0.38311186077E+04  0.38098223433E+04 0.  0.
        5    1    3    3  502    0  0.12742000835E+04  0.35360774571E+01  0.16256138008E+04  0.20654879995E+04  0.46999998093E+01 0.  1.
       -5    1    3    3    0  502 -0.12742000835E+04 -0.35360774571E+01 -0.12222237922E+04  0.17656306082E+04  0.46999998093E+01 0. -1.
</event>
<event>
 5   0  0.5158266E-07  0.3783723E+04  0.7818609E-02  0.8049657E-01
       -2   -1    0    0    0  501  0.00000000000E+00  0.00000000000E+00  0.12529366110E+04  0.12529366110E+04  0.25500000920E-02 0. -1.
        2   -1    0    0  501    0  0.00000000000E+00  0.00000000000E+00 -0.28566002844E+04  0.28566002844E+04  0.25500000920E-02 0.  1.
    10030    2    1    2    0    0  0.00000000000E+00  0.00000000000E+00 -0.16036636735E+04  0.41095368954E+04  0.37837225476E+04 0.  0.
        2    1    3    3  502    0  0.73849000665E+03  0.16468150842E+04 -0.14179265777E+04  0.22951869622E+04  0.25500000920E-02 0.  1.
       -2    1    3    3    0  502 -0.73849000665E+03 -0.16468150842E+04 -0.18573709575E+03  0.18143499332E+04  0.25500000920E-02 0. -1.
</event>
<event>
 5   0  0.5202788E-07  0.3741769E+04  0.7818609E-02  0.8058768E-01
       -2   -1    0    0    0  501  0.00000000000E+00  0.00000000000E+00  0.14742484305E+04  0.14742484305E+04  0.25500000920E-02 0.  1.
        2   -1    0    0  501    0  0.00000000000E+00  0.00000000000E+00 -0.23742321374E+04  0.23742321374E+04  0.25500000920E-02 0. -1.
    10030    2    1    2    0    0  0.00000000000E+00  0.00000000000E+00 -0.89998370690E+03  0.38484805680E+04  0.37417685670E+04 0.  0.
        1    1    3    3  502    0  0.79012788451E+03 -0.10978149002E+04  0.87942965328E+03  0.16133493558E+04  0.50400001928E-02 0.  1.
       -1    1    3    3    0  502 -0.79012788451E+03  0.10978149002E+04 -0.17794133602E+04  0.22351312121E+04  0.50400001928E-02 0. -1.
</event>
<event>
 5   0  0.1648000E-07  0.3244613E+04  0.7818609E-02  0.8177133E-01
        1   -1    0    0  501    0  0.00000000000E+00  0.00000000000E+00  0.11449595624E+04  0.11449595624E+04  0.50400001928E-02 0. -1.
       -1   -1    0    0    0  501  0.00000000000E+00  0.00000000000E+00 -0.22986648614E+04  0.22986648614E+04  0.50400001928E-02 0.  1.
    10030    2    1    2    0    0  0.00000000000E+00  0.00000000000E+00 -0.11537052990E+04  0.34436244238E+04  0.32446129593E+04 0.  0.
        3    1    3    3  502    0 -0.15679462063E+04 -0.36251777582E+03 -0.79437179174E+03  0.17946868800E+04  0.10100000352E+00 0.  1.
       -3    1    3    3    0  502  0.15679462063E+04  0.36251777582E+03 -0.35933350727E+03  0.16489375438E+04  0.10100000352E+00 0. -1.
</event>
<event>
 5   0  0.5202788E-07  0.3765029E+04  0.7818609E-02  0.8053701E-01
        2   -1    0    0  501    0  0.00000000000E+00  0.00000000000E+00  0.30671258387E+04  0.30671258387E+04  0.25500000920E-02 0. -1.
       -2   -1    0    0    0  501  0.00000000000E+00  0.00000000000E+00 -0.11554340671E+04  0.11554340671E+04  0.25500000920E-02 0.  1.
    10030    2    1    2    0    0  0.00000000000E+00  0.00000000000E+00  0.19116917716E+04  0.42225599059E+04  0.37650294460E+04 0.  0.
        1    1    3    3  502    0 -0.11748901139E+04 -0.66208951076E+03  0.24288998467E+04  0.27781799375E+04  0.50400001928E-02 0. -1.
       -1    1    3    3    0  502  0.11748901139E+04  0.66208951076E+03 -0.51720807506E+03  0.14443799684E+04  0.50400001928E-02 0.  1.
</event>
<event>
 5   0  0.5202788E-07  0.3860928E+04  0.7818609E-02  0.8033205E-01
        2   -1    0    0  501    0  0.00000000000E+00  0.00000000000E+00  0.16363842373E+04  0.16363842373E+04  0.25500000920E-02 0.  1.
       -2   -1    0    0    0  501  0.00000000000E+00  0.00000000000E+00 -0.22773936371E+04  0.22773936371E+04  0.25500000920E-02 0. -1.
    10030    2    1    2    0    0  0.00000000000E+00  0.00000000000E+00 -0.64100939976E+03  0.39137778744E+04  0.38609278936E+04 0.  0.
        1    1    3    3  502    0 -0.91314281653E+03 -0.13453737339E+04 -0.13753402927E+04  0.21296528374E+04  0.50400001928E-02 0.  1.
       -1    1    3    3    0  502  0.91314281653E+03  0.13453737339E+04  0.73433089291E+03  0.17841250370E+04  0.50400001928E-02 0. -1.
</event>
<event>
 5   0  0.5134434E-07  0.3664467E+04  0.7818609E-02  0.8075882E-01
       -2   -1    0    0    0  501  0.00000000000E+00  0.00000000000E+00  0.17517395625E+04  0.17517395625E+04  0.25500000920E-02 0. -1.
        2   -1    0    0  501    0  0.00000000000E+00  0.00000000000E+00 -0.19164260893E+04  0.19164260893E+04  0.25500000920E-02 0.  1.
    10030    2    1    2    0    0  0.00000000000E+00  0.00000000000E+00 -0.16468652686E+03  0.36681656518E+04  0.36644668912E+04 0.  0.
        5    1    3    3  502    0  0.15218347388E+04 -0.87808062641E+03 -0.60253186539E+03  0.18574372930E+04  0.46999998093E+01 0. -1.
       -5    1    3    3    0  502 -0.15218347388E+04  0.87808062641E+03  0.43784533853E+03  0.18107283588E+04  0.46999998093E+01 0.  1.
</event>
<event>
 5   0  0.5132561E-07  0.3801740E+04  0.7818609E-02  0.8045782E-01
        2   -1    0    0  501    0  0.00000000000E+00  0.00000000000E+00  0.10723729962E+04  0.10723729962E+04  0.25500000920E-02 0.  1.
       -2   -1    0    0    0  501  0.00000000000E+00  0.00000000000E+00 -0.33694488727E+04  0.33694488727E+04  0.25500000920E-02 0. -1.
    10030    2    1    2    0    0  0.00000000000E+00  0.00000000000E+00 -0.22970758765E+04  0.44418218689E+04  0.38017395930E+04 0.  0.
        3    1    3    3  502    0  0.15014269173E+04  0.81087730520E+03 -0.21271103672E+04  0.27269769556E+04  0.10100000352E+00 0. -1.
       -3    1    3    3    0  502 -0.15014269173E+04 -0.81087730520E+03 -0.16996550924E+03  0.17148449133E+04  0.10100000352E+00 0.  1.
</event>
<event>
 5   0  0.1648000E-07  0.3868013E+04  0.7818609E-02  0.8031715E-01
        1   -1    0    0  501    0  0.00000000000E+00  0.00000000000E+00  0.17982035966E+04  0.17982035966E+04  0.50400001928E-02 0.  1.
       -1   -1    0    0    0  501  0.00000000000E+00  0.00000000000E+00 -0.20800649534E+04  0.20800649535E+04  0.50400001928E-02 0. -1.
    10030    2    1    2    0    0  0.00000000000E+00  0.00000000000E+00 -0.28186135688E+03  0.38782685500E+04  0.38680125545E+04 0.  0.
        1    1    3    3  502    0 -0.15454583230E+04 -0.74373029998E+03 -0.10370588784E+04  0.20042622844E+04  0.50400001928E-02 0. -1.
       -1    1    3    3    0  502  0.15454583230E+04  0.74373029998E+03  0.75519752153E+03  0.18740062657E+04  0.50400001928E-02 0.  1.
</event>
<event>
 5   0  0.1648000E-07  0.3744446E+04  0.7818609E-02  0.8058183E-01
       -1   -1    0    0    0  501  0.00000000000E+00  0.00000000000E+00  0.16764561003E+04  0.16764561003E+04  0.50400001928E-02 0.  1.
        1   -1    0    0  501    0  0.00000000000E+00  0.00000000000E+00 -0.20908500528E+04  0.20908500528E+04  0.50400001928E-02 0. -1.
    10030    2    1    2    0    0  0.00000000000E+00  0.00000000000E+00 -0.41439395243E+03  0.37673061531E+04  0.37444456604E+04 0.  0.
        1    1    3    3  502    0  0.44505940428E+03  0.30039203858E+02  0.16222104828E+04  0.16824229782E+04  0.50400001928E-02 0.  1.
       -1    1    3    3    0  502 -0.44505940428E+03 -0.30039203858E+02 -0.20366044352E+04  0.20848831749E+04  0.50400001928E-02 0. -1.
</event>
<event>
 5   0  0.1648000E-07  0.3824284E+04  0.7818609E-02  0.8040964E-01
        1   -1    0    0  501    0  0.00000000000E+00  0.00000000000E+00  0.21935249747E+04  0.21935249747E+04  0.50400001928E-02 0. -1.
       -1   -1    0    0    0  501  0.00000000000E+00  0.00000000000E+00 -0.16668547736E+04  0.16668547736E+04  0.50400001928E-02 0.  1.
    10030    2    1    2    0    0  0.00000000000E+00  0.00000000000E+00  0.52667020106E+03  0.38603797483E+04  0.38242842860E+04 0.  0.
        3    1    3    3  502    0 -0.16721128142E+04  0.85716405887E+03 -0.94405225149E+02  0.18813834920E+04  0.10100000352E+00 0. -1.
       -3    1    3    3    0  502  0.16721128142E+04 -0.85716405887E+03  0.62107542621E+03  0.19789962563E+04  0.10100000352E+00 0.  1.
</event>
<event>
 5   0  0.5134434E-07  0.2975477E+04  0.7818609E-02  0.8250768E-01
        2   -1    0    0  501    0  0.00000000000E+00  0.00000000000E+00  0.15708650990E+04  0.15708650990E+04  0.25500000920E-02 0. -1.
       -2   -1    0    0    0  501  0.00000000000E+00  0.00000000000E+00 -0.14090109307E+04  0.14090109307E+04  0.25500000920E-02 0.  1.
    10030    2    1    2    0    0  0.00000000000E+00  0.00000000000E+00  0.16185416834E+03  0.29798760298E+04  0.29754771686E+04 0.  0.
        5    1    3    3  502    0 -0.69916829003E+03  0.81802624883E+03 -0.94788944077E+03  0.14340570852E+04  0.46999998093E+01 0.  1.
       -5    1    3    3    0  502  0.69916829003E+03 -0.81802624883E+03  0.11097436091E+04  0.15458189446E+04  0.46999998093E+01 0. -1.
</event>
<event>
 5   0  0.5202788E-07  0.3821608E+04  0.7818609E-02  0.8041534E-01
       -2   -1    0    0    0  501  0.00000000000E+00  0.00000000000E+00  0.26964121450E+04  0.26964121450E+04  0.25500000920E-02 0. -1.
        2   -1    0    0  501    0  0.00000000000E+00  0.00000000000E+00 -0.13540854964E+04  0.13540854964E+04  0.25500000920E-02 0.  1.
    10030    2    1    2    0    0  0.00000000000E+00  0.00000000000E+00  0.13423266486E+04  0.40504976415E+04  0.38216083410E+04 0.  0.
        1    1    3    3  502    0  0.10558962185E+04  0.55048689719E+03  0.22550640396E+04  0.25501502840E+04  0.50400001928E-02 0. -1.
       -1    1    3    3    0  502 -0.10558962185E+04 -0.55048689719E+03 -0.91273739094E+03  0.15003473575E+04  0.50400001928E-02 0.  1.
</event>
<event>
 5   0  0.1656617E-07  0.3776730E+04  0.7818609E-02  0.8051167E-01
        1   -1    0    0  501    0  0.00000000000E+00  0.00000000000E+00  0.19528851611E+04  0.19528851611E+04  0.50400001928E-02 0.  1.
       -1   -1    0    0    0  501  0.00000000000E+00  0.00000000000E+00 -0.18259766328E+04  0.18259766328E+04  0.50400001928E-02 0. -1.
    10030    2    1    2    0    0  0.00000000000E+00  0.00000000000E+00  0.12690852827E+03  0.37788617939E+04  0.37767301575E+04 0.  0.
        5    1    3    3  502    0 -0.17138303445E+04 -0.75985233424E+03 -0.16319193237E+03  0.18818192570E+04  0.46999998093E+01 0. -1.
       -5    1    3    3    0  502  0.17138303445E+04  0.75985233424E+03  0.29010046064E+03  0.18970425369E+04  0.46999998093E+01 0.  1.
</event>
<event>
 5   0  0.1656617E-07  0.3342590E+04  0.7818609E-02  0.8152142E-01
        1   -1    0    0  501    0  0.00000000000E+00  0.00000000000E+00  0.24847853827E+04  0.24847853827E+04  0.50400001928E-02 0.  1.
       -1   -1    0    0    0  501  0.00000000000E+00  0.00000000000E+00 -0.11241321239E+04  0.11241321239E+04  0.50400001928E-02 0. -1.
    10030    2    1    2    0    0  0.00000000000E+00  0.00000000000E+00  0.13606532588E+04  0.36089175066E+04  0.33425900554E+04 0.  0.
        5    1    3    3  502    0 -0.10220660194E+04  0.92862751514E+03  0.16967362559E+04  0.21876709126E+04  0.46999998093E+01 0.  1.
       -5    1    3    3    0  502  0.10220660194E+04 -0.92862751514E+03 -0.33608299712E+03  0.14212465939E+04  0.46999998093E+01 0. -1.
</event>
<event>
 5   0  0.5202788E-07  0.3808190E+04  0.7818609E-02  0.8044400E-01
        2   -1    0    0  501    0  0.00000000000E+00  0.00000000000E+00  0.14033244885E+04  0.14033244885E+04  0.25500000920E-02 0.  1.
       -2   -1    0    0    0  501  0.00000000000E+00  0.00000000000E+00 -0.25835634145E+04  0.25835634145E+04  0.25500000920E-02 0. -1.
    10030    2    1    2    0    0  0.00000000000E+00  0.00000000000E+00 -0.11802389259E+04  0.39868879030E+04  0.38081900200E+04 0.  0.
        1    1    3    3  502    0  0.16368171129E+04 -0.27043889258E+03 -0.15684593774E+04  0.22830620391E+04  0.50400001928E-02 0. -1.
       -1    1    3    3    0  502 -0.16368171129E+04  0.27043889258E+03  0.38822045148E+03  0.17038258639E+04  0.50400001928E-02 0.  1.
</event>
<event>
 5   0  0.1648000E-07  0.3818245E+04  0.7818609E-02  0.8042251E-01
       -1   -1    0    0    0  501  0.00000000000E+00  0.00000000000E+00  0.23069776433E+04  0.23069776433E+04  0.50400001928E-02 0.  1.
        1   -1    0    0  501    0  0.00000000000E+00  0.00000000000E+00 -0.15798802701E+04  0.15798802701E+04  0.50400001928E-02 0. -1.
    10030    2    1    2    0    0  0.00000000000E+00  0.00000000000E+00  0.72709737321E+03  0.38868579133E+04  0.38182448649E+04 0.  0.
        3    1    3    3  502    0 -0.17448020997E+04 -0.59371605084E+03  0.87040701247E+03  0.20382447090E+04  0.10100000352E+00 0.  1.
       -3    1    3    3    0  502  0.17448020997E+04  0.59371605084E+03 -0.14330963926E+03  0.18486132043E+04  0.10100000352E+00 0. -1.
</event>
<event>
 5   0  0.1648000E-07  0.3807324E+04  0.7818609E-02  0.8044585E-01
        1   -1    0    0  501    0  0.00000000000E+00  0.00000000000E+00  0.15527288513E+04  0.15527288513E+04  0.50400001928E-02 0.  1.
       -1   -1    0    0    0  501  0.00000000000E+00  0.00000000000E+00 -0.23339103332E+04  0.23339103332E+04  0.50400001928E-02 0. -1.
    10030    2    1    2    0    0  0.00000000000E+00  0.00000000000E+00 -0.78118148189E+03  0.38866391844E+04  0.38073244729E+04 0.  0.
        2    1    3    3  502    0 -0.34690250364E+03 -0.10544007554E+04 -0.19693622191E+04  0.22606392569E+04  0.25500000920E-02 0. -1.
       -2    1    3    3    0  502  0.34690250364E+03  0.10544007554E+04  0.11881807372E+04  0.16259999275E+04  0.25500000920E-02 0.  1.
</event>
<event>
 5   0  0.1648000E-07  0.3687549E+04  0.7818609E-02  0.8070727E-01
        1   -1    0    0  501    0  0.00000000000E+00  0.00000000000E+00  0.22401383354E+04  0.22401383354E+04  0.50400001928E-02 0. -1.
       -1   -1    0    0    0  501  0.00000000000E+00  0.00000000000E+00 -0.15175419749E+04  0.15175419749E+04  0.50400001928E-02 0.  1.
    10030    2    1    2    0    0  0.00000000000E+00  0.00000000000E+00  0.72259636044E+03  0.37576803103E+04  0.36875487542E+04 0.  0.
        4    1    3    3  502    0 -0.40766586135E+02 -0.52311833711E+03  0.21624512083E+04  0.22251992159E+04  0.12699999809E+01 0. -1.
       -4    1    3    3    0  502  0.40766586135E+02  0.52311833711E+03 -0.14398548478E+04  0.15324810945E+04  0.12699999809E+01 0.  1.
</event>
<event>
 5   0  0.1648000E-07  0.3868564E+04  0.7818609E-02  0.8031599E-01
       -1   -1    0    0    0  501  0.00000000000E+00  0.00000000000E+00  0.23035452069E+04  0.23035452069E+04  0.50400001928E-02 0. -1.
        1   -1    0    0  501    0  0.00000000000E+00  0.00000000000E+00 -0.16242125408E+04  0.16242125408E+04  0.50400001928E-02 0.  1.
    10030    2    1    2    0    0  0.00000000000E+00  0.00000000000E+00  0.67933266611E+03  0.39277577477E+04  0.38685640816E+04 0.  0.
        4    1    3    3  502    0 -0.12125668847E+04  0.60873931402E+03 -0.10600372662E+04  0.17217905276E+04  0.12699999809E+01 0.  1.
       -4    1    3    3    0  502  0.12125668847E+04 -0.60873931402E+03  0.17393699323E+04  0.22059672202E+04  0.12699999809E+01 0. -1.
</event>
<event>
 5   0  0.1648000E-07  0.3755845E+04  0.7818609E-02  0.8055697E-01
        1   -1    0    0  501    0  0.00000000000E+00  0.00000000000E+00  0.21798886364E+04  0.21798886364E+04  0.50400001928E-02 0.  1.
       -1   -1    0    0    0  501  0.00000000000E+00  0.00000000000E+00 -0.16177861179E+04  0.16177861179E+04  0.50400001928E-02 0. -1.
    10030    2    1    2    0    0  0.00000000000E+00  0.00000000000E+00  0.56210251849E+03  0.37976747543E+04  0.37558453506E+04 0.  0.
        1    1    3    3  502    0  0.12001468953E+04  0.10890438472E+04 -0.67831729843E+03  0.17568390446E+04  0.50400001928E-02 0.  1.
       -1    1    3    3    0  502 -0.12001468953E+04 -0.10890438472E+04  0.12404198169E+04  0.20408357096E+04  0.50400001928E-02 0. -1.
</event>
<event>
 5   0  0.1648000E-07  0.3743768E+04  0.7818609E-02  0.8058331E-01
        1   -1    0    0  501    0  0.00000000000E+00  0.00000000000E+00  0.23600113608E+04  0.23600113608E+04  0.50400001928E-02 0.  1.
       -1   -1    0    0    0  501  0.00000000000E+00  0.00000000000E+00 -0.14847170459E+04  0.14847170459E+04  0.50400001928E-02 0. -1.
    10030    2    1    2    0    0  0.00000000000E+00  0.00000000000E+00  0.87529431485E+03  0.38447284067E+04  0.37437676722E+04 0.  0.
        3    1    3    3  502    0 -0.13468964877E+04  0.59685908108E+03  0.16235961657E+04  0.21923584175E+04  0.10100000352E+00 0.  1.
       -3    1    3    3    0  502  0.13468964877E+04 -0.59685908108E+03 -0.74830185083E+03  0.16523699892E+04  0.10100000352E+00 0. -1.
</event>
<event>
 5   0  0.1648000E-07  0.3727900E+04  0.7818609E-02  0.8061807E-01
       -1   -1    0    0    0  501  0.00000000000E+00  0.00000000000E+00  0.12517145567E+04  0.12517145567E+04  0.50400001928E-02 0.  1.
        1   -1    0    0  501    0  0.00000000000E+00  0.00000000000E+00 -0.27756403926E+04  0.27756403926E+04  0.50400001928E-02 0. -1.
    10030    2    1    2    0    0  0.00000000000E+00  0.00000000000E+00 -0.15239258358E+04  0.40273549493E+04  0.37278999362E+04 0.  0.
        4    1    3    3  502    0  0.85817390960E+03  0.12414513241E+04  0.41982119893E+03  0.15664977821E+04  0.12699999809E+01 0.  1.
       -4    1    3    3    0  502 -0.85817390960E+03 -0.12414513241E+04 -0.19437470348E+04  0.24608571672E+04  0.12699999809E+01 0. -1.
</event>
<event>
 5   0  0.5132561E-07  0.3742172E+04  0.7818609E-02  0.8058680E-01
        2   -1    0    0  501    0  0.00000000000E+00  0.00000000000E+00  0.26386682599E+04  0.26386682599E+04  0.25500000920E-02 0.  1.
       -2   -1    0    0    0  501  0.00000000000E+00  0.00000000000E+00 -0.13267916439E+04  0.13267916439E+04  0.25500000920E-02 0. -1.
    10030    2    1    2    0    0  0.00000000000E+00  0.00000000000E+00  0.13118766160E+04  0.39654599038E+04  0.37421720956E+04 0.  0.
        3    1    3    3  502    0 -0.97475123576E+03 -0.11362301790E+04 -0.53344351725E+03  0.15892517068E+04  0.10100000352E+00 0. -1.
       -3    1    3    3    0  502  0.97475123576E+03  0.11362301790E+04  0.18453201333E+04  0.23762081970E+04  0.10100000352E+00 0.  1.
</event>
<event>
 5   0  0.1648000E-07  0.3797433E+04  0.7818609E-02  0.8046706E-01
        1   -1    0    0  501    0  0.00000000000E+00  0.00000000000E+00  0.14695425605E+04  0.14695425605E+04  0.50400001928E-02 0.  1.
       -1   -1    0    0    0  501  0.00000000000E+00  0.00000000000E+00 -0.24532294558E+04  0.24532294558E+04  0.50400001928E-02 0. -1.
    10030    2    1    2    0    0  0.00000000000E+00  0.00000000000E+00 -0.98368689525E+03  0.39227720163E+04  0.37974333943E+04 0.  0.
        2    1    3    3  502    0  0.28653513033E+03  0.17169534065E+03  0.14389507112E+04  0.14772138708E+04  0.25500000920E-02 0.  1.
       -2    1    3    3    0  502 -0.28653513033E+03 -0.17169534065E+03 -0.24226376064E+04  0.24455581455E+04  0.25500000920E-02 0. -1.
</event>
<event>
 5   0  0.1648000E-07  0.3599715E+04  0.7818609E-02  0.8090557E-01
        1   -1    0    0  501    0  0.00000000000E+00  0.00000000000E+00  0.14748314045E+04  0.14748314045E+04  0.50400001928E-02 0.  1.
       -1   -1    0    0    0  501  0.00000000000E+00  0.00000000000E+00 -0.21965132243E+04  0.21965132243E+04  0.50400001928E-02 0. -1.
    10030    2    1    2    0    0  0.00000000000E+00  0.00000000000E+00 -0.72168181980E+03  0.36713446288E+04  0.35997148129E+04 0.  0.
        3    1    3    3  502    0  0.83908568754E+03 -0.64731969215E+03 -0.18445742048E+04  0.21273320338E+04  0.10100000352E+00 0. -1.
       -3    1    3    3    0  502 -0.83908568754E+03  0.64731969215E+03  0.11228923850E+04  0.15440125949E+04  0.10100000352E+00 0.  1.
</event>
<event>
 5   0  0.1648000E-07  0.3843687E+04  0.7818609E-02  0.8036844E-01
       -1   -1    0    0    0  501  0.00000000000E+00  0.00000000000E+00  0.24759779631E+04  0.24759779631E+04  0.50400001928E-02 0. -1.
        1   -1    0    0  501    0  0.00000000000E+00  0.00000000000E+00 -0.14917268448E+04  0.14917268448E+04  0.50400001928E-02 0.  1.
    10030    2    1    2    0    0  0.00000000000E+00  0.00000000000E+00  0.98425111833E+03  0.39677048078E+04  0.38436871853E+04 0.  0.
        2    1    3    3  502    0  0.67546698907E+03  0.13749151873E+04 -0.70585170079E+03  0.16866754427E+04  0.25500000920E-02 0.  1.
       -2    1    3    3    0  502 -0.67546698907E+03 -0.13749151873E+04  0.16901028191E+04  0.22810293652E+04  0.25500000920E-02 0. -1.
</event>
<event>
 5   0  0.5202788E-07  0.3859555E+04  0.7818609E-02  0.8033494E-01
       -2   -1    0    0    0  501  0.00000000000E+00  0.00000000000E+00  0.32717067262E+04  0.32717067262E+04  0.25500000920E-02 0.  1.
        2   -1    0    0  501    0  0.00000000000E+00  0.00000000000E+00 -0.11382565697E+04  0.11382565697E+04  0.25500000920E-02 0. -1.
    10030    2    1    2    0    0  0.00000000000E+00  0.00000000000E+00  0.21334501565E+04  0.44099632959E+04  0.38595552465E+04 0.  0.
        1    1    3    3  502    0  0.33978168260E+03  0.10875517105E+04  0.28463444351E+04  0.30659251390E+04  0.50400001928E-02 0.  1.
       -1    1    3    3    0  502 -0.33978168260E+03 -0.10875517105E+04 -0.71289427856E+03  0.13440381569E+04  0.50400001928E-02 0. -1.
</event>
<event>
 5   0  0.1648000E-07  0.3779490E+04  0.7818609E-02  0.8050571E-01
       -1   -1    0    0    0  501  0.00000000000E+00  0.00000000000E+00  0.18201804495E+04  0.18201804495E+04  0.50400001928E-02 0. -1.
        1   -1    0    0  501    0  0.00000000000E+00  0.00000000000E+00 -0.19619679724E+04  0.19619679724E+04  0.50400001928E-02 0.  1.
    10030    2    1    2    0    0  0.00000000000E+00  0.00000000000E+00 -0.14178752287E+03  0.37821484219E+04  0.37794897782E+04 0.  0.
        1    1    3    3  502    0  0.10843538366E+04 -0.12306850151E+04  0.86823690523E+03  0.18558674988E+04  0.50400001928E-02 0. -1.
       -1    1    3    3    0  502 -0.10843538366E+04  0.12306850151E+04 -0.10100244281E+04  0.19262809231E+04  0.50400001928E-02 0.  1.
</event>
<event>
 5   0  0.5158266E-07  0.2758296E+04  0.7818609E-02  0.8316334E-01
        2   -1    0    0  501    0  0.00000000000E+00  0.00000000000E+00  0.97314648209E+03  0.97314648209E+03  0.25500000920E-02 0.  1.
       -2   -1    0    0    0  501  0.00000000000E+00  0.00000000000E+00 -0.19545356250E+04  0.19545356250E+04  0.25500000920E-02 0. -1.
    10030    2    1    2    0    0  0.00000000000E+00  0.00000000000E+00 -0.98138914293E+03  0.29276821071E+04  0.27582961898E+04 0.  0.
        2    1    3    3  502    0 -0.65088109564E+03  0.17918293819E+02 -0.17811182180E+04  0.18964043272E+04  0.25500000920E-02 0. -1.
       -2    1    3    3    0  502  0.65088109564E+03 -0.17918293819E+02  0.79972907502E+03  0.10312777799E+04  0.25500000920E-02 0.  1.
</event>
<event>
 5   0  0.1648000E-07  0.3828221E+04  0.7818609E-02  0.8040126E-01
       -3   -1    0    0    0  501  0.00000000000E+00  0.00000000000E+00  0.19334993504E+04  0.19334993530E+04  0.10100000352E+00 0. -1.
        3   -1    0    0  501    0  0.00000000000E+00  0.00000000000E+00 -0.18949160059E+04  0.18949160086E+04  0.10100000352E+00 0.  1.
    10030    2    1    2    0    0  0.00000000000E+00  0.00000000000E+00  0.38583344491E+02  0.38284153616E+04  0.38282209323E+04 0.  0.
        1    1    3    3  502    0  0.17438653219E+04 -0.54774291444E+03  0.58741410456E+03  0.19199333039E+04  0.50400001928E-02 0. -1.
       -1    1    3    3    0  502 -0.17438653219E+04  0.54774291444E+03 -0.54883076007E+03  0.19084820577E+04  0.50400001928E-02 0.  1.
</event>
<event>
 5   0  0.1648000E-07  0.3812600E+04  0.7818609E-02  0.8043456E-01
       -1   -1    0    0    0  501  0.00000000000E+00  0.00000000000E+00  0.16563660936E+04  0.16563660936E+04  0.50400001928E-02 0.  1.
        1   -1    0    0  501    0  0.00000000000E+00  0.00000000000E+00 -0.21939470917E+04  0.21939470917E+04  0.50400001928E-02 0. -1.
    10030    2    1    2    0    0  0.00000000000E+00  0.00000000000E+00 -0.53758099810E+03  0.38503131853E+04  0.38125999391E+04 0.  0.
        1    1    3    3  502    0 -0.10032208027E+04  0.72758464143E+03 -0.17316172668E+04  0.21293965690E+04  0.50400001928E-02 0. -1.
       -1    1    3    3    0  502  0.10032208027E+04 -0.72758464143E+03  0.11940362687E+04  0.17209166163E+04  0.50400001928E-02 0.  1.
</event>
<event>
 5   0  0.1648000E-07  0.3830744E+04  0.7818609E-02  0.8039589E-01
       -1   -1    0    0    0  501  0.00000000000E+00  0.00000000000E+00  0.30840176892E+04  0.30840176892E+04  0.50400001928E-02 0. -1.
        1   -1    0    0  501    0  0.00000000000E+00  0.00000000000E+00 -0.11895684780E+04  0.11895684781E+04  0.50400001928E-02 0.  1.
    10030    2    1    2    0    0  0.00000000000E+00  0.00000000000E+00  0.18944492111E+04  0.42735861672E+04  0.38307441725E+04 0.  0.
        3    1    3    3  502    0  0.19016327677E+04 -0.10493769697E+03  0.11743013333E+04  0.22374545213E+04  0.10100000352E+00 0. -1.
       -3    1    3    3    0  502 -0.19016327677E+04  0.10493769697E+03  0.72014787780E+03  0.20361316459E+04  0.10100000352E+00 0.  1.
</event>
<event>
 5   0  0.5132561E-07  0.3780586E+04  0.7818609E-02  0.8050334E-01
       -2   -1    0    0    0  501  0.00000000000E+00  0.00000000000E+00  0.28731945629E+04  0.28731945629E+04  0.25500000920E-02 0.  1.
        2   -1    0    0  501    0  0.00000000000E+00  0.00000000000E+00 -0.12436358849E+04  0.12436358849E+04  0.25500000920E-02 0. -1.
    10030    2    1    2    0    0  0.00000000000E+00  0.00000000000E+00  0.16295586780E+04  0.41168304478E+04  0.37805861253E+04 0.  0.
        3    1    3    3  502    0  0.12732464115E+04 -0.10358739506E+04 -0.20616573906E+03  0.16542961005E+04  0.10100000352E+00 0. -1.
       -3    1    3    3    0  502 -0.12732464115E+04  0.10358739506E+04  0.18357244170E+04  0.24625343473E+04  0.10100000352E+00 0.  1.
</event>
<event>
 5   0  0.5325362E-07  0.3713233E+04  0.7818609E-02  0.8065036E-01
        2   -1    0    0  501    0  0.00000000000E+00  0.00000000000E+00  0.24818044377E+04  0.24818044377E+04  0.25500000920E-02 0. -1.
       -2   -1    0    0    0  501  0.00000000000E+00  0.00000000000E+00 -0.13889187582E+04  0.13889187582E+04  0.25500000920E-02 0.  1.
    10030    2    1    2    0    0  0.00000000000E+00  0.00000000000E+00  0.10928856795E+04  0.38707231959E+04  0.37132329513E+04 0.  0.
        4    1    3    3  502    0 -0.17115380196E+04 -0.23350189810E+03 -0.16296329161E+03  0.17350631620E+04  0.12699999809E+01 0.  1.
       -4    1    3    3    0  502  0.17115380196E+04  0.23350189810E+03  0.12558489711E+04  0.21356600338E+04  0.12699999809E+01 0. -1.
</event>
<event>
 5   0  0.1648000E-07  0.3806824E+04  0.7818609E-02  0.8044692E-01
       -1   -1    0    0    0  501  0.00000000000E+00  0.00000000000E+00  0.22001317264E+04  0.22001317264E+04  0.50400001928E-02 0.  1.
        1   -1    0    0  501    0  0.00000000000E+00  0.00000000000E+00 -0.16467090286E+04  0.16467090286E+04  0.50400001928E-02 0. -1.
    10030    2    1    2    0    0  0.00000000000E+00  0.00000000000E+00  0.55342269775E+03  0.38468407550E+04  0.38068237563E+04 0.  0.
        1    1    3    3  502    0 -0.81206020181E+03 -0.40081735849E+03 -0.14150680220E+04  0.16800338785E+04  0.50400001928E-02 0. -1.
       -1    1    3    3    0  502  0.81206020181E+03  0.40081735849E+03  0.19684907197E+04  0.21668068765E+04  0.50400001928E-02 0.  1.
</event>
<event>
 5   0  0.1656617E-07  0.3790794E+04  0.7818609E-02  0.8048133E-01
        1   -1    0    0  501    0  0.00000000000E+00  0.00000000000E+00  0.17939953162E+04  0.17939953162E+04  0.50400001928E-02 0. -1.
       -1   -1    0    0    0  501  0.00000000000E+00  0.00000000000E+00 -0.20025304652E+04  0.20025304652E+04  0.50400001928E-02 0.  1.
    10030    2    1    2    0    0  0.00000000000E+00  0.00000000000E+00 -0.20853514892E+03  0.37965257814E+04  0.37907942572E+04 0.  0.
        5    1    3    3  502    0  0.10154885858E+03  0.92204501335E+03  0.15511165752E+04  0.18073361329E+04  0.46999998093E+01 0. -1.
       -5    1    3    3    0  502 -0.10154885858E+03 -0.92204501335E+03 -0.17596517242E+04  0.19891896485E+04  0.46999998093E+01 0.  1.
</event>
<event>
 5   0  0.5132561E-07  0.3482894E+04  0.7818609E-02  0.8117856E-01
       -2   -1    0    0    0  501  0.00000000000E+00  0.00000000000E+00  0.14777468160E+04  0.14777468160E+04  0.25500000920E-02 0. -1.
        2   -1    0    0  501    0  0.00000000000E+00  0.00000000000E+00 -0.20522038963E+04  0.20522038963E+04  0.25500000920E-02 0.  1.
    10030    2    1    2    0    0  0.00000000000E+00  0.00000000000E+00 -0.57445708039E+03  0.35299507123E+04  0.34828940687E+04 0.  0.
        3    1    3    3  502    0 -0.20879526087E+03 -0.17287371871E+04 -0.26433933908E+03  0.17612504136E+04  0.10100000352E+00 0.  1.
       -3    1    3    3    0  502  0.20879526087E+03  0.17287371871E+04 -0.31011774130E+03  0.17687002987E+04  0.10100000352E+00 0. -1.
</event>
<event>
 5   0  0.1648000E-07  0.3644657E+04  0.7818609E-02  0.8080338E-01
       -1   -1    0    0    0  501  0.00000000000E+00  0.00000000000E+00  0.26504227746E+04  0.26504227746E+04  0.50400001928E-02 0.  1.
        1   -1    0    0  501    0  0.00000000000E+00  0.00000000000E+00 -0.12529625891E+04  0.12529625891E+04  0.50400001928E-02 0. -1.
    10030    2    1    2    0    0  0.00000000000E+00  0.00000000000E+00  0.13974601856E+04  0.39033853637E+04  0.36446566817E+04 0.  0.
        4    1    3    3  502    0  0.36241172056E+02  0.93573406669E+03  0.23730270962E+04  0.25511116946E+04  0.12699999809E+01 0.  1.
       -4    1    3    3    0  502 -0.36241172056E+02 -0.93573406669E+03 -0.97556691064E+03  0.13522736691E+04  0.12699999809E+01 0. -1.
</event>
<event>
 5   0  0.5132561E-07  0.3806502E+04  0.7818609E-02  0.8044761E-01
       -2   -1    0    0    0  501  0.00000000000E+00  0.00000000000E+00  0.21087297807E+04  0.21087297807E+04  0.25500000920E-02 0. -1.
        2   -1    0    0  501    0  0.00000000000E+00  0.00000000000E+00 -0.17177948163E+04  0.17177948163E+04  0.25500000920E-02 0.  1.
    10030    2    1    2    0    0  0.00000000000E+00  0.00000000000E+00  0.39093496435E+03  0.38265245970E+04  0.38065023768E+04 0.  0.
        3    1    3    3  502    0 -0.12463763152E+04  0.83806132351E+03 -0.97968291430E+03  0.17932036482E+04  0.10100000352E+00 0.  1.
       -3    1    3    3    0  502  0.12463763152E+04 -0.83806132351E+03  0.13706178786E+04  0.20333209488E+04  0.10100000352E+00 0. -1.
</event>
<event>
 5   0  0.1648000E-07  0.3790171E+04  0.7818609E-02  0.8048268E-01
       -3   -1    0    0    0  501  0.00000000000E+00  0.00000000000E+00  0.21687281837E+04  0.21687281860E+04  0.10100000352E+00 0. -1.
        3   -1    0    0  501    0  0.00000000000E+00  0.00000000000E+00 -0.16559697681E+04  0.16559697712E+04  0.10100000352E+00 0.  1.
    10030    2    1    2    0    0  0.00000000000E+00  0.00000000000E+00  0.51275841557E+03  0.38246979572E+04  0.37901706124E+04 0.  0.
        4    1    3    3  502    0 -0.17014022879E+03  0.15494665810E+04 -0.83119217764E+03  0.17665436401E+04  0.12699999809E+01 0.  1.
       -4    1    3    3    0  502  0.17014022879E+03 -0.15494665810E+04  0.13439505932E+04  0.20581543171E+04  0.12699999809E+01 0. -1.
</event>
<event>
 5   0  0.1648000E-07  0.3787951E+04  0.7818609E-02  0.8048746E-01
        1   -1    0    0  501    0  0.00000000000E+00  0.00000000000E+00  0.22214531736E+04  0.22214531736E+04  0.50400001928E-02 0.  1.
       -1   -1    0    0    0  501  0.00000000000E+00  0.00000000000E+00 -0.16147731373E+04  0.16147731373E+04  0.50400001928E-02 0. -1.
    10030    2    1    2    0    0  0.00000000000E+00  0.00000000000E+00  0.60668003635E+03  0.38362263109E+04  0.37879508500E+04 0.  0.
        2    1    3    3  502    0 -0.12301399963E+04 -0.59330924273E+03 -0.10255886138E+04  0.17079497278E+04  0.25500000920E-02 0. -1.
       -2    1    3    3    0  502  0.12301399963E+04  0.59330924273E+03  0.16322686501E+04  0.21282765831E+04  0.25500000920E-02 0.  1.
</event>
<event>
 5   0  0.5134434E-07  0.3806556E+04  0.7818609E-02  0.8044749E-01
        2   -1    0    0  501    0  0.00000000000E+00  0.00000000000E+00  0.19947107529E+04  0.19947107529E+04  0.25500000920E-02 0. -1.
       -2   -1    0    0    0  501  0.00000000000E+00  0.00000000000E+00 -0.18160363029E+04  0.18160363029E+04  0.25500000920E-02 0.  1.
    10030    2    1    2    0    0  0.00000000000E+00  0.00000000000E+00  0.17867445000E+03  0.38107470557E+04  0.38065559977E+04 0.  0.
        5    1    3    3  502    0  0.44798193174E+03 -0.11783730988E+04  0.15168083037E+04  0.19723033467E+04  0.46999998093E+01 0. -1.
       -5    1    3    3    0  502 -0.44798193174E+03  0.11783730988E+04 -0.13381338537E+04  0.18384437091E+04  0.46999998093E+01 0.  1.
</event>
<event>
 5   0  0.1648000E-07  0.3821723E+04  0.7818609E-02  0.8041509E-01
       -1   -1    0    0    0  501  0.00000000000E+00  0.00000000000E+00  0.17662772400E+04  0.17662772400E+04  0.50400001928E-02 0. -1.
        1   -1    0    0  501    0  0.00000000000E+00  0.00000000000E+00 -0.20672809596E+04  0.20672809596E+04  0.50400001928E-02 0.  1.
    10030    2    1    2    0    0  0.00000000000E+00  0.00000000000E+00 -0.30100371967E+03  0.38335581996E+04  0.38217228092E+04 0.  0.
        1    1    3    3  502    0  0.50124692336E+03 -0.72715060850E+02  0.16977174941E+04  0.17716604212E+04  0.50400001928E-02 0. -1.
       -1    1    3    3    0  502 -0.50124692336E+03  0.72715060850E+02 -0.19987212138E+04  0.20618977784E+04  0.50400001928E-02 0.  1.
</event>
<event>
 5   0  0.1648000E-07  0.3759149E+04  0.7818609E-02  0.8054979E-01
       -1   -1    0    0    0  501  0.00000000000E+00  0.00000000000E+00  0.14102926042E+04  0.14102926042E+04  0.50400001928E-02 0.  1.
        1   -1    0    0  501    0  0.00000000000E+00  0.00000000000E+00 -0.25050129267E+04  0.25050129267E+04  0.50400001928E-02 0. -1.
    10030    2    1    2    0    0  0.00000000000E+00  0.00000000000E+00 -0.10947203225E+04  0.39153055309E+04  0.37591494803E+04 0.  0.
        1    1    3    3  502    0  0.70447113327E+03 -0.12860077666E+04  0.67737146053E+03  0.16152175237E+04  0.50400001928E-02 0.  1.
       -1    1    3    3    0  502 -0.70447113327E+03  0.12860077666E+04 -0.17720917830E+04  0.23000880072E+04  0.50400001928E-02 0. -1.
</event>
<event>
 5   0  0.5132561E-07  0.3771666E+04  0.7818609E-02  0.8052263E-01
        2   -1    0    0  501    0  0.00000000000E+00  0.00000000000E+00  0.26121760937E+04  0.26121760937E+04  0.25500000920E-02 0.  1.
       -2   -1    0    0    0  501  0.00000000000E+00  0.00000000000E+00 -0.13614573989E+04  0.13614573989E+04  0.25500000920E-02 0. -1.
    10030    2    1    2    0    0  0.00000000000E+00  0.00000000000E+00  0.12507186948E+04  0.39736334927E+04  0.37716661942E+04 0.  0.
        3    1    3    3  502    0 -0.17690082030E+04 -0.18799333252E+02  0.13134991882E+04  0.22034118010E+04  0.10100000352E+00 0.  1.
       -3    1    3    3    0  502  0.17690082030E+04  0.18799333252E+02 -0.62780493371E+02  0.17702216917E+04  0.10100000352E+00 0. -1.
</event>
<event>
 5   0  0.1648000E-07  0.3806249E+04  0.7818609E-02  0.8044815E-01
       -1   -1    0    0    0  501  0.00000000000E+00  0.00000000000E+00  0.12966206155E+04  0.12966206155E+04  0.50400001928E-02 0. -1.
        1   -1    0    0  501    0  0.00000000000E+00  0.00000000000E+00 -0.27933254474E+04  0.27933254474E+04  0.50400001928E-02 0.  1.
    10030    2    1    2    0    0  0.00000000000E+00  0.00000000000E+00 -0.14967048319E+04  0.40899460629E+04  0.38062492619E+04 0.  0.
        4    1    3    3  502    0  0.13488286766E+04  0.10056417417E+04 -0.17041613354E+04  0.23947487512E+04  0.12699999809E+01 0.  1.
       -4    1    3    3    0  502 -0.13488286766E+04 -0.10056417417E+04  0.20745650348E+03  0.16951973117E+04  0.12699999809E+01 0. -1.
</event>
<event>
 5   0  0.1648000E-07  0.3797244E+04  0.7818609E-02  0.8046747E-01
        1   -1    0    0  501    0  0.00000000000E+00  0.00000000000E+00  0.22520023777E+04  0.22520023777E+04  0.50400001928E-02 0.  1.
       -1   -1    0    0    0  501  0.00000000000E+00  0.00000000000E+00 -0.16006932831E+04  0.16006932831E+04  0.50400001928E-02 0. -1.
    10030    2    1    2    0    0  0.00000000000E+00  0.00000000000E+00  0.65130909458E+03  0.38526956608E+04  0.37972437791E+04 0.  0.
        1    1    3    3  502    0 -0.11402837731E+04 -0.36299350536E+03 -0.11698973038E+04  0.16735205614E+04  0.50400001928E-02 0. -1.
       -1    1    3    3    0  502  0.11402837731E+04  0.36299350536E+03  0.18212063984E+04  0.21791750993E+04  0.50400001928E-02 0.  1.
</event>
<event>
 5   0  0.5134434E-07  0.3254796E+04  0.7818609E-02  0.8174494E-01
       -2   -1    0    0    0  501  0.00000000000E+00  0.00000000000E+00  0.23745574224E+04  0.23745574224E+04  0.25500000920E-02 0.  1.
        2   -1    0    0  501    0  0.00000000000E+00  0.00000000000E+00 -0.11153335839E+04  0.11153335839E+04  0.25500000920E-02 0. -1.
    10030    2    1    2    0    0  0.00000000000E+00  0.00000000000E+00  0.12592238386E+04  0.34898910063E+04  0.32547956249E+04 0.  0.
        5    1    3    3  502    0 -0.10829100174E+04  0.64221708717E+03 -0.47601557275E+03  0.13460125588E+04  0.46999998093E+01 0. -1.
       -5    1    3    3    0  502  0.10829100174E+04 -0.64221708717E+03  0.17352394113E+04  0.21438784475E+04  0.46999998093E+01 0.  1.
</event>
<event>
 5   0  0.1656617E-07  0.3834222E+04  0.7818609E-02  0.8038851E-01
        1   -1    0    0  501    0  0.00000000000E+00  0.00000000000E+00  0.17343445231E+04  0.17343445232E+04  0.50400001928E-02 0. -1.
       -1   -1    0    0    0  501  0.00000000000E+00  0.00000000000E+00 -0.21191371862E+04  0.21191371862E+04  0.50400001928E-02 0.  1.
    10030    2    1    2    0    0  0.00000000000E+00  0.00000000000E+00 -0.38479266307E+03  0.38534817094E+04  0.38342216799E+04 0.  0.
        5    1    3    3  502    0  0.21569426235E+03 -0.44285511598E+02 -0.21063802559E+04  0.21178633322E+04  0.46999998093E+01 0.  1.
       -5    1    3    3    0  502 -0.21569426235E+03  0.44285511598E+02  0.17215875928E+04  0.17356183772E+04  0.46999998093E+01 0. -1.
</event>
<event>
 5   0  0.5132561E-07  0.3807484E+04  0.7818609E-02  0.8044551E-01
       -2   -1    0    0    0  501  0.00000000000E+00  0.00000000000E+00  0.17384220576E+04  0.17384220576E+04  0.25500000920E-02 0. -1.
        2   -1    0    0  501    0  0.00000000000E+00  0.00000000000E+00 -0.20847837656E+04  0.20847837656E+04  0.25500000920E-02 0.  1.
    10030    2    1    2    0    0  0.00000000000E+00  0.00000000000E+00 -0.34636170798E+03  0.38232058232E+04  0.38074842526E+04 0.  0.
        3    1    3    3  502    0  0.12758381632E+04  0.13975786313E+04 -0.38199390228E+03  0.19305202410E+04  0.10100000352E+00 0.  1.
       -3    1    3    3    0  502 -0.12758381632E+04 -0.13975786313E+04  0.35632194299E+02  0.18926855822E+04  0.10100000352E+00 0. -1.
</event>
<event>
 5   0  0.1648000E-07  0.3779752E+04  0.7818609E-02  0.8050514E-01
        1   -1    0    0  501    0  0.00000000000E+00  0.00000000000E+00  0.13774591092E+04  0.13774591092E+04  0.50400001928E-02 0. -1.
       -1   -1    0    0    0  501  0.00000000000E+00  0.00000000000E+00 -0.25929130148E+04  0.25929130148E+04  0.50400001928E-02 0.  1.
    10030    2    1    2    0    0  0.00000000000E+00  0.00000000000E+00 -0.12154539056E+04  0.39703721240E+04  0.37797521885E+04 0.  0.
        2    1    3    3  502    0  0.10703394897E+04  0.44909415375E+03  0.95890315078E+03  0.15055920545E+04  0.25500000920E-02 0. -1.
       -2    1    3    3    0  502 -0.10703394897E+04 -0.44909415375E+03 -0.21743570564E+04  0.24647800694E+04  0.25500000920E-02 0.  1.
</event>
<event>
 5   0  0.1648000E-07  0.3785959E+04  0.7818609E-02  0.8049175E-01
       -1   -1    0    0    0  501  0.00000000000E+00  0.00000000000E+00  0.13389981741E+04  0.13389981741E+04  0.50400001928E-02 0.  1.
        1   -1    0    0  501    0  0.00000000000E+00  0.00000000000E+00 -0.26761588796E+04  0.26761588796E+04  0.50400001928E-02 0. -1.
    10030    2    1    2    0    0  0.00000000000E+00  0.00000000000E+00 -0.13371607055E+04  0.40151570538E+04  0.37859592462E+04 0.  0.
        4    1    3    3  502    0  0.10601879488E+04 -0.13492251223E+04  0.17916334102E+03  0.17252559327E+04  0.12699999809E+01 0.  1.
       -4    1    3    3    0  502 -0.10601879488E+04  0.13492251223E+04 -0.15163240465E+04  0.22899011211E+04  0.12699999809E+01 0. -1.
</event>
<event>
 5   0  0.1648000E-07  0.3597405E+04  0.7818609E-02  0.8091086E-01
       -1   -1    0    0    0  501  0.00000000000E+00  0.00000000000E+00  0.15626507515E+04  0.15626507516E+04  0.50400001928E-02 0.  1.
        1   -1    0    0  501    0  0.00000000000E+00  0.00000000000E+00 -0.20704118058E+04  0.20704118058E+04  0.50400001928E-02 0. -1.
    10030    2    1    2    0    0  0.00000000000E+00  0.00000000000E+00 -0.50776105426E+03  0.36330625574E+04  0.35974049338E+04 0.  0.
        1    1    3    3  502    0  0.69567776373E+03  0.17388463959E+03 -0.19198152010E+04  0.20493642489E+04  0.50400001928E-02 0. -1.
       -1    1    3    3    0  502 -0.69567776373E+03 -0.17388463959E+03  0.14120541467E+04  0.15836983084E+04  0.50400001928E-02 0.  1.
</event>
<event>
 5   0  0.1648000E-07  0.3792873E+04  0.7818609E-02  0.8047686E-01
       -1   -1    0    0    0  501  0.00000000000E+00  0.00000000000E+00  0.19843587330E+04  0.19843587330E+04  0.50400001928E-02 0.  1.
        1   -1    0    0  501    0  0.00000000000E+00  0.00000000000E+00 -0.18124101401E+04  0.18124101402E+04  0.50400001928E-02 0. -1.
    10030    2    1    2    0    0  0.00000000000E+00  0.00000000000E+00  0.17194859288E+03  0.37967688732E+04  0.37928732589E+04 0.  0.
        4    1    3    3  502    0 -0.83266668767E+02 -0.17733224650E+04 -0.58169229133E+03  0.18681470600E+04  0.12699999809E+01 0. -1.
       -4    1    3    3    0  502  0.83266668767E+02  0.17733224650E+04  0.75364088420E+03  0.19286218132E+04  0.12699999809E+01 0.  1.
</event>
<event>
 5   0  0.5158266E-07  0.3695034E+04  0.7818609E-02  0.8069063E-01
       -2   -1    0    0    0  501  0.00000000000E+00  0.00000000000E+00  0.16106241974E+04  0.16106241974E+04  0.25500000920E-02 0. -1.
        2   -1    0    0  501    0  0.00000000000E+00  0.00000000000E+00 -0.21192526816E+04  0.21192526816E+04  0.25500000920E-02 0.  1.
    10030    2    1    2    0    0  0.00000000000E+00  0.00000000000E+00 -0.50862848421E+03  0.37298768790E+04  0.36950343161E+04 0.  0.
        2    1    3    3  502    0  0.69036026546E+03  0.66580148685E+03 -0.18482641694E+04  0.20822990553E+04  0.25500000920E-02 0.  1.
       -2    1    3    3    0  502 -0.69036026546E+03 -0.66580148685E+03  0.13396356852E+04  0.16475778237E+04  0.25500000920E-02 0. -1.
</event>
<event>
 5   0  0.5202788E-07  0.3813768E+04  0.7818609E-02  0.8043207E-01
        2   -1    0    0  501    0  0.00000000000E+00  0.00000000000E+00  0.30011939383E+04  0.30011939383E+04  0.25500000920E-02 0. -1.
       -2   -1    0    0    0  501  0.00000000000E+00  0.00000000000E+00 -0.12115865344E+04  0.12115865344E+04  0.25500000920E-02 0.  1.
    10030    2    1    2    0    0  0.00000000000E+00  0.00000000000E+00  0.17896074039E+04  0.42127804727E+04  0.38137677762E+04 0.  0.
        1    1    3    3  502    0 -0.60458658782E+03 -0.75226568745E+02  0.28907904428E+04  0.29542940549E+04  0.50400001928E-02 0. -1.
       -1    1    3    3    0  502  0.60458658782E+03  0.75226568745E+02 -0.11011830388E+04  0.12584864178E+04  0.50400001928E-02 0.  1.
</event>
<event>
 5   0  0.5132561E-07  0.3745809E+04  0.7818609E-02  0.8057885E-01
        2   -1    0    0  501    0  0.00000000000E+00  0.00000000000E+00  0.19405380856E+04  0.19405380856E+04  0.25500000920E-02 0.  1.
       -2   -1    0    0    0  501  0.00000000000E+00  0.00000000000E+00 -0.18076284689E+04  0.18076284689E+04  0.25500000920E-02 0. -1.
    10030    2    1    2    0    0  0.00000000000E+00  0.00000000000E+00  0.13290961665E+03  0.37481665545E+04  0.37458093323E+04 0.  0.
        3    1    3    3  502    0 -0.18374103283E+04 -0.59765532317E+02 -0.29171351848E+03  0.18613826637E+04  0.10100000352E+00 0. -1.
       -3    1    3    3    0  502  0.18374103283E+04  0.59765532317E+02  0.42462313514E+03  0.18867838908E+04  0.10100000352E+00 0.  1.
</event>
<event>
 5   0  0.5202788E-07  0.3790378E+04  0.7818609E-02  0.8048223E-01
       -2   -1    0    0    0  501  0.00000000000E+00  0.00000000000E+00  0.13415690838E+04  0.13415690838E+04  0.25500000920E-02 0.  1.
        2   -1    0    0  501    0  0.00000000000E+00  0.00000000000E+00 -0.26772683379E+04  0.26772683379E+04  0.25500000920E-02 0. -1.
    10030    2    1    2    0    0  0.00000000000E+00  0.00000000000E+00 -0.13356992541E+04  0.40188374217E+04  0.37903775174E+04 0.  0.
        1    1    3    3  502    0 -0.17202726451E+04  0.79269195594E+03 -0.60044156143E+03  0.19870149922E+04  0.50400001928E-02 0. -1.
       -1    1    3    3    0  502  0.17202726451E+04 -0.79269195594E+03 -0.73525769268E+03  0.20318224295E+04  0.50400001928E-02 0.  1.
</event>
<event>
 5   0  0.5325362E-07  0.3805876E+04  0.7818609E-02  0.8044895E-01
       -2   -1    0    0    0  501  0.00000000000E+00  0.00000000000E+00  0.19875201837E+04  0.19875201837E+04  0.25500000920E-02 0.  1.
        2   -1    0    0  501    0  0.00000000000E+00  0.00000000000E+00 -0.18219553201E+04  0.18219553201E+04  0.25500000920E-02 0. -1.
    10030    2    1    2    0    0  0.00000000000E+00  0.00000000000E+00  0.16556486366E+03  0.38094755038E+04  0.38058759688E+04 0.  0.
        4    1    3    3  502    0 -0.15408790715E+04  0.43691640308E+03 -0.94579205775E+03  0.18600345388E+04  0.12699999809E+01 0. -1.
       -4    1    3    3    0  502  0.15408790715E+04 -0.43691640308E+03  0.11113569214E+04  0.19494409650E+04  0.12699999809E+01 0.  1.
</event>
<event>
 5   0  0.1648000E-07  0.3795369E+04  0.7818609E-02  0.8047149E-01
       -1   -1    0    0    0  501  0.00000000000E+00  0.00000000000E+00  0.21849733911E+04  0.21849733911E+04  0.50400001928E-02 0.  1.
        1   -1    0    0  501    0  0.00000000000E+00  0.00000000000E+00 -0.16481698335E+04  0.16481698335E+04  0.50400001928E-02 0. -1.
    10030    2    1    2    0    0  0.00000000000E+00  0.00000000000E+00  0.53680355759E+03  0.38331432246E+04  0.37953694050E+04 0.  0.
        3    1    3    3  502    0  0.15716888829E+03  0.18139397150E+04  0.80863473737E+03  0.19922272706E+04  0.10100000352E+00 0.  1.
       -3    1    3    3    0  502 -0.15716888829E+03 -0.18139397150E+04 -0.27183117979E+03  0.18409159540E+04  0.10100000352E+00 0. -1.
</event>
<event>
 5   0  0.1648000E-07  0.3491410E+04  0.7818609E-02  0.8115829E-01
       -1   -1    0    0    0  501  0.00000000000E+00  0.00000000000E+00  0.95717869305E+03  0.95717869306E+03  0.50400001928E-02 0.  1.
        1   -1    0    0  501    0  0.00000000000E+00  0.00000000000E+00 -0.31838210080E+04  0.31838210080E+04  0.50400001928E-02 0. -1.
    10030    2    1    2    0    0  0.00000000000E+00  0.00000000000E+00 -0.22266423149E+04  0.41409997011E+04  0.34914098192E+04 0.  0.
        1    1    3    3  502    0  0.86793060904E+03 -0.98563533300E+03  0.25074640289E+03  0.13370319033E+04  0.50400001928E-02 0.  1.
       -1    1    3    3    0  502 -0.86793060904E+03  0.98563533300E+03 -0.24773887178E+04  0.28039677978E+04  0.50400001928E-02 0. -1.
</event>
<event>
 5   0  0.1648000E-07  0.3768197E+04  0.7818609E-02  0.8053014E-01
        3   -1    0    0  501    0  0.00000000000E+00  0.00000000000E+00  0.17901401665E+04  0.17901401693E+04  0.10100000352E+00 0. -1.
       -3   -1    0    0    0  501  0.00000000000E+00  0.00000000000E+00 -0.19829881874E+04  0.19829881899E+04  0.10100000352E+00 0.  1.
    10030    2    1    2    0    0  0.00000000000E+00  0.00000000000E+00 -0.19284802090E+03  0.37731283593E+04  0.37681968176E+04 0.  0.
        3    1    3    3  502    0 -0.17023425944E+04  0.59744636940E+03 -0.64019488209E+03  0.19143568033E+04  0.10100000352E+00 0.  1.
       -3    1    3    3    0  502  0.17023425944E+04 -0.59744636940E+03  0.44734686119E+03  0.18587715560E+04  0.10100000352E+00 0. -1.
</event>
<event>
 5   0  0.1648000E-07  0.2715572E+04  0.7818609E-02  0.8329970E-01
        1   -1    0    0  501    0  0.00000000000E+00  0.00000000000E+00  0.12199763917E+04  0.12199763917E+04  0.50400001928E-02 0. -1.
       -1   -1    0    0    0  501  0.00000000000E+00  0.00000000000E+00 -0.15111629352E+04  0.15111629352E+04  0.50400001928E-02 0.  1.
    10030    2    1    2    0    0  0.00000000000E+00  0.00000000000E+00 -0.29118654355E+03  0.27311393269E+04  0.27155722085E+04 0.  0.
        1    1    3    3  502    0 -0.66759202361E+03 -0.10594274256E+04  0.38231335609E+03  0.13092857146E+04  0.50400001928E-02 0. -1.
       -1    1    3    3    0  502  0.66759202361E+03  0.10594274256E+04 -0.67349989963E+03  0.14218536123E+04  0.50400001928E-02 0.  1.
</event>
<event>
 5   0  0.1648000E-07  0.3838631E+04  0.7818609E-02  0.8037915E-01
        1   -1    0    0  501    0  0.00000000000E+00  0.00000000000E+00  0.26185973247E+04  0.26185973247E+04  0.50400001928E-02 0. -1.
       -1   -1    0    0    0  501  0.00000000000E+00  0.00000000000E+00 -0.14067730019E+04  0.14067730019E+04  0.50400001928E-02 0.  1.
    10030    2    1    2    0    0  0.00000000000E+00  0.00000000000E+00  0.12118243228E+04  0.40253703265E+04  0.38386310159E+04 0.  0.
        4    1    3    3  502    0  0.15122627490E+04 -0.11004318808E+04  0.10580256977E+04  0.21487924368E+04  0.12699999809E+01 0. -1.
       -4    1    3    3    0  502 -0.15122627490E+04  0.11004318808E+04  0.15379862516E+03  0.18765778898E+04  0.12699999809E+01 0.  1.
</event>
<event>
 5   0  0.1648000E-07  0.3166846E+04  0.7818609E-02  0.8197628E-01
       -1   -1    0    0    0  501  0.00000000000E+00  0.00000000000E+00  0.18592625968E+04  0.18592625968E+04  0.50400001928E-02 0.  1.
        1   -1    0    0  501    0  0.00000000000E+00  0.00000000000E+00 -0.13485065936E+04  0.13485065936E+04  0.50400001928E-02 0. -1.
    10030    2    1    2    0    0  0.00000000000E+00  0.00000000000E+00  0.51075600314E+03  0.32077691904E+04  0.31668456679E+04 0.  0.
        3    1    3    3  502    0  0.54791929115E+03 -0.77991772404E+03 -0.10253745276E+04  0.13999571914E+04  0.10100000352E+00 0. -1.
       -3    1    3    3    0  502 -0.54791929115E+03  0.77991772404E+03  0.15361305307E+04  0.18078119989E+04  0.10100000352E+00 0.  1.
</event>
<event>
 5   0  0.5325362E-07  0.3778602E+04  0.7818609E-02  0.8050763E-01
       -2   -1    0    0    0  501  0.00000000000E+00  0.00000000000E+00  0.25720863430E+04  0.25720863430E+04  0.25500000920E-02 0.  1.
        2   -1    0    0  501    0  0.00000000000E+00  0.00000000000E+00 -0.13877674163E+04  0.13877674164E+04  0.25500000920E-02 0. -1.
    10030    2    1    2    0    0  0.00000000000E+00  0.00000000000E+00  0.11843189267E+04  0.39598537594E+04  0.37786016561E+04 0.  0.
        4    1    3    3  502    0 -0.16954020230E+02 -0.14581695877E+04 -0.66667220984E+03  0.16034336386E+04  0.12699999809E+01 0. -1.
       -4    1    3    3    0  502  0.16954020230E+02  0.14581695877E+04  0.18509911365E+04  0.23564201208E+04  0.12699999809E+01 0.  1.
</event>
<event>
 5   0  0.1648000E-07  0.3800336E+04  0.7818609E-02  0.8046083E-01
       -1   -1    0    0    0  501  0.00000000000E+00  0.00000000000E+00  0.23246710927E+04  0.23246710927E+04  0.50400001928E-02 0. -1.
        1   -1    0    0  501    0  0.00000000000E+00  0.00000000000E+00 -0.15531828145E+04  0.15531828145E+04  0.50400001928E-02 0.  1.
    10030    2    1    2    0    0  0.00000000000E+00  0.00000000000E+00  0.77148827824E+03  0.38778539072E+04  0.38003364012E+04 0.  0.
        2    1    3    3  502    0 -0.17806336816E+04 -0.31118717030E+03  0.98347889668E+03  0.20578446256E+04  0.25500000920E-02 0. -1.
       -2    1    3    3    0  502  0.17806336816E+04  0.31118717030E+03 -0.21199061844E+03  0.18200092816E+04  0.25500000920E-02 0.  1.
</event>
<event>
 5   0  0.1648000E-07  0.3822411E+04  0.7818609E-02  0.8041363E-01
        1   -1    0    0  501    0  0.00000000000E+00  0.00000000000E+00  0.15250162168E+04  0.15250162168E+04  0.50400001928E-02 0.  1.
       -1   -1    0    0    0  501  0.00000000000E+00  0.00000000000E+00 -0.23951914237E+04  0.23951914237E+04  0.50400001928E-02 0. -1.
    10030    2    1    2    0    0  0.00000000000E+00  0.00000000000E+00 -0.87017520686E+03  0.39202076405E+04  0.38224106339E+04 0.  0.
        3    1    3    3  502    0 -0.18312016412E+04 -0.25202176940E+03  0.63025217359E+02  0.18495368639E+04  0.10100000352E+00 0.  1.
       -3    1    3    3    0  502  0.18312016412E+04  0.25202176940E+03 -0.93320042422E+03  0.20706707765E+04  0.10100000352E+00 0. -1.
</event>
<event>
 5   0  0.5134434E-07  0.3311761E+04  0.7818609E-02  0.8159909E-01
        2   -1    0    0  501    0  0.00000000000E+00  0.00000000000E+00  0.17717296208E+04  0.17717296208E+04  0.25500000920E-02 0.  1.
       -2   -1    0    0    0  501  0.00000000000E+00  0.00000000000E+00 -0.15476066153E+04  0.15476066153E+04  0.25500000920E-02 0. -1.
    10030    2    1    2    0    0  0.00000000000E+00  0.00000000000E+00  0.22412300551E+03  0.33193362360E+04  0.33117611518E+04 0.  0.
        5    1    3    3  502    0 -0.16381677472E+02  0.20051606684E+03 -0.15353047732E+04  0.15484372409E+04  0.46999998093E+01 0. -1.
       -5    1    3    3    0  502  0.16381677472E+02 -0.20051606684E+03  0.17594277787E+04  0.17708989951E+04  0.46999998093E+01 0.  1.
</event>
<event>
 5   0  0.1648000E-07  0.3880392E+04  0.7818609E-02  0.8029120E-01
        1   -1    0    0  501    0  0.00000000000E+00  0.00000000000E+00  0.27105305347E+04  0.27105305347E+04  0.50400001928E-02 0.  1.
       -1   -1    0    0    0  501  0.00000000000E+00  0.00000000000E+00 -0.13887909319E+04  0.13887909319E+04  0.50400001928E-02 0. -1.
    10030    2    1    2    0    0  0.00000000000E+00  0.00000000000E+00  0.13217396028E+04  0.40993214666E+04  0.38803918499E+04 0.  0.
        2    1    3    3  502    0 -0.37279502130E+03  0.12272650488E+04  0.21987511751E+04  0.25455180923E+04  0.25500000920E-02 0.  1.
       -2    1    3    3    0  502  0.37279502130E+03 -0.12272650488E+04 -0.87701157230E+03  0.15538033743E+04  0.25500000920E-02 0. -1.
</event>
<event>
 5   0  0.1656617E-07  0.3664902E+04  0.7818609E-02  0.8075785E-01
        1   -1    0    0  501    0  0.00000000000E+00  0.00000000000E+00  0.19729708462E+04  0.19729708463E+04  0.50400001928E-02 0. -1.
       -1   -1    0    0    0  501  0.00000000000E+00  0.00000000000E+00 -0.17019390682E+04  0.17019390682E+04  0.50400001928E-02 0.  1.
    10030    2    1    2    0    0  0.00000000000E+00  0.00000000000E+00  0.27103177809E+03  0.36749099144E+04  0.36649017251E+04 0.  0.
        5    1    3    3  502    0 -0.65730917708E+03 -0.69649711081E+03 -0.14310213340E+04  0.17219197798E+04  0.46999998093E+01 0.  1.
       -5    1    3    3    0  502  0.65730917708E+03  0.69649711081E+03  0.17020531121E+04  0.19529901346E+04  0.46999998093E+01 0. -1.
</event>
<event>
 5   0  0.1656617E-07  0.3775777E+04  0.7818609E-02  0.8051373E-01
        1   -1    0    0  501    0  0.00000000000E+00  0.00000000000E+00  0.20896205975E+04  0.20896205975E+04  0.50400001928E-02 0.  1.
       -1   -1    0    0    0  501  0.00000000000E+00  0.00000000000E+00 -0.17056312630E+04  0.17056312630E+04  0.50400001928E-02 0. -1.
    10030    2    1    2    0    0  0.00000000000E+00  0.00000000000E+00  0.38398933450E+03  0.37952518605E+04  0.37757765924E+04 0.  0.
        5    1    3    3  502    0 -0.86015916277E+03  0.16339478783E+04 -0.20302176050E+03  0.18576596511E+04  0.46999998093E+01 0. -1.
       -5    1    3    3    0  502  0.86015916277E+03 -0.16339478783E+04  0.58701109501E+03  0.19375922094E+04  0.46999998093E+01 0.  1.
</event>
<event>
 5   0  0.5158266E-07  0.3804709E+04  0.7818609E-02  0.8045145E-01
       -2   -1    0    0    0  501  0.00000000000E+00  0.00000000000E+00  0.15522096454E+04  0.15522096454E+04  0.25500000920E-02 0.  1.
        2   -1    0    0  501    0  0.00000000000E+00  0.00000000000E+00 -0.23314846444E+04  0.23314846444E+04  0.25500000920E-02 0. -1.
    10030    2    1    2    0    0  0.00000000000E+00  0.00000000000E+00 -0.77927499892E+03  0.38836942898E+04  0.38047091627E+04 0.  0.
        2    1    3    3  502    0 -0.15623713994E+04 -0.10628125905E+04 -0.16512147041E+03  0.18967973250E+04  0.25500000920E-02 0. -1.
       -2    1    3    3    0  502  0.15623713994E+04  0.10628125905E+04 -0.61415352851E+03  0.19868969648E+04  0.25500000920E-02 0.  1.
</event>
<event>
 5   0  0.5158266E-07  0.3834941E+04  0.7818609E-02  0.8038698E-01
       -2   -1    0    0    0  501  0.00000000000E+00  0.00000000000E+00  0.26370750016E+04  0.26370750016E+04  0.25500000920E-02 0. -1.
        2   -1    0    0  501    0  0.00000000000E+00  0.00000000000E+00 -0.13942315819E+04  0.13942315819E+04  0.25500000920E-02 0.  1.
    10030    2    1    2    0    0  0.00000000000E+00  0.00000000000E+00  0.12428434198E+04  0.40313065835E+04  0.38349410692E+04 0.  0.
        2    1    3    3  502    0  0.13379298239E+04 -0.13662608391E+04  0.76996679864E+03  0.20614494331E+04  0.25500000920E-02 0. -1.
       -2    1    3    3    0  502 -0.13379298239E+04  0.13662608391E+04  0.47287662113E+03  0.19698571504E+04  0.25500000920E-02 0.  1.
</event>
<event>
 5   0  0.5134434E-07  0.3718865E+04  0.7818609E-02  0.8063794E-01
       -2   -1    0    0    0  501  0.00000000000E+00  0.00000000000E+00  0.16863168766E+04  0.16863168766E+04  0.25500000920E-02 0. -1.
        2   -1    0    0  501    0  0.00000000000E+00  0.00000000000E+00 -0.20503198065E+04  0.20503198065E+04  0.25500000920E-02 0.  1.
    10030    2    1    2    0    0  0.00000000000E+00  0.00000000000E+00 -0.36400292986E+03  0.37366366831E+04  0.37188648226E+04 0.  0.
        5    1    3    3  502    0 -0.40114140819E+03  0.18053543063E+04  0.11918773049E+02  0.18494276811E+04  0.46999998093E+01 0. -1.
       -5    1    3    3    0  502  0.40114140819E+03 -0.18053543063E+04 -0.37592170291E+03  0.18872090020E+04  0.46999998093E+01 0.  1.
</event>
<event>
 5   0  0.5325362E-07  0.3796692E+04  0.7818609E-02  0.8046865E-01
       -2   -1    0    0    0  501  0.00000000000E+00  0.00000000000E+00  0.19870105959E+04  0.19870105959E+04  0.25500000920E-02 0. -1.
        2   -1    0    0  501    0  0.00000000000E+00  0.00000000000E+00 -0.18136376872E+04  0.18136376872E+04  0.25500000920E-02 0.  1.
    10030    2    1    2    0    0  0.00000000000E+00  0.00000000000E+00  0.17337290873E+03  0.38006482832E+04  0.37966918767E+04 0.  0.
        4    1    3    3  502    0  0.42868598832E+03  0.18158011056E+04  0.43749472629E+03  0.19163268458E+04  0.12699999809E+01 0. -1.
       -4    1    3    3    0  502 -0.42868598832E+03 -0.18158011056E+04 -0.26412181756E+03  0.18843214373E+04  0.12699999809E+01 0.  1.
</event>
<event>
 5   0  0.1648000E-07  0.3667135E+04  0.7818609E-02  0.8075284E-01
       -1   -1    0    0    0  501  0.00000000000E+00  0.00000000000E+00  0.29196415016E+04  0.29196415016E+04  0.50400001928E-02 0.  1.
        1   -1    0    0  501    0  0.00000000000E+00  0.00000000000E+00 -0.11515009980E+04  0.11515009980E+04  0.50400001928E-02 0. -1.
    10030    2    1    2    0    0  0.00000000000E+00  0.00000000000E+00  0.17681405035E+04  0.40711424996E+04  0.36671351777E+04 0.  0.
        1    1    3    3  502    0 -0.10742323532E+04 -0.37710441839E+02  0.25331760647E+04  0.27517954505E+04  0.50400001928E-02 0.  1.
       -1    1    3    3    0  502  0.10742323532E+04  0.37710441839E+02 -0.76503556121E+03  0.13193470491E+04  0.50400001928E-02 0. -1.
</event>
<event>
 5   0  0.5325362E-07  0.3812850E+04  0.7818609E-02  0.8043403E-01
        2   -1    0    0  501    0  0.00000000000E+00  0.00000000000E+00  0.23602832994E+04  0.23602832994E+04  0.25500000920E-02 0.  1.
       -2   -1    0    0    0  501  0.00000000000E+00  0.00000000000E+00 -0.15398389434E+04  0.15398389434E+04  0.25500000920E-02 0. -1.
    10030    2    1    2    0    0  0.00000000000E+00  0.00000000000E+00  0.82044435598E+03  0.39001222427E+04  0.38128499272E+04 0.  0.
        4    1    3    3  502    0  0.15942996796E+04  0.84296563719E+02 -0.65552662524E+03  0.17258662023E+04  0.12699999809E+01 0. -1.
       -4    1    3    3    0  502 -0.15942996796E+04 -0.84296563719E+02  0.14759709812E+04  0.21742560404E+04  0.12699999809E+01 0.  1.
</event>
<event>
 5   0  0.1648000E-07  0.3794857E+04  0.7818609E-02  0.8047259E-01
       -1   -1    0    0    0  501  0.00000000000E+00  0.00000000000E+00  0.22738300137E+04  0.22738300137E+04  0.50400001928E-02 0. -1.
        1   -1    0    0  501    0  0.00000000000E+00  0.00000000000E+00 -0.15833354633E+04  0.15833354633E+04  0.50400001928E-02 0.  1.
    10030    2    1    2    0    0  0.00000000000E+00  0.00000000000E+00  0.69049455037E+03  0.38571654770E+04  0.37948574141E+04 0.  0.
        4    1    3    3  502    0 -0.98635318581E+03  0.39304950205E+03  0.19435977278E+04  0.22147131324E+04  0.12699999809E+01 0. -1.
       -4    1    3    3    0  502  0.98635318581E+03 -0.39304950205E+03 -0.12531031774E+04  0.16424523447E+04  0.12699999809E+01 0.  1.
</event>
<event>
 5   0  0.5202788E-07  0.3754445E+04  0.7818609E-02  0.8056002E-01
        2   -1    0    0  501    0  0.00000000000E+00  0.00000000000E+00  0.24613117150E+04  0.24613117150E+04  0.25500000920E-02 0. -1.
       -2   -1    0    0    0  501  0.00000000000E+00  0.00000000000E+00 -0.14317422217E+04  0.14317422217E+04  0.25500000920E-02 0.  1.
    10030    2    1    2    0    0  0.00000000000E+00  0.00000000000E+00  0.10295694932E+04  0.38930539367E+04  0.37544447809E+04 0.  0.
        1    1    3    3  502    0 -0.18451201129E+04 -0.25819311883E+03  0.75312267777E+03  0.20095585798E+04  0.50400001928E-02 0. -1.
       -1    1    3    3    0  502  0.18451201129E+04  0.25819311883E+03  0.27644681548E+03  0.18834953569E+04  0.50400001928E-02 0.  1.
</event>
<event>
 5   0  0.1648000E-07  0.3824491E+04  0.7818609E-02  0.8040919E-01
       -1   -1    0    0    0  501  0.00000000000E+00  0.00000000000E+00  0.10526072522E+04  0.10526072522E+04  0.50400001928E-02 0.  1.
        1   -1    0    0  501    0  0.00000000000E+00  0.00000000000E+00 -0.34739298327E+04  0.34739298327E+04  0.50400001928E-02 0. -1.
    10030    2    1    2    0    0  0.00000000000E+00  0.00000000000E+00 -0.24213225805E+04  0.45265370849E+04  0.38244914619E+04 0.  0.
        3    1    3    3  502    0  0.17834045606E+04 -0.55700389778E+03 -0.72858731087E+03  0.20053988752E+04  0.10100000352E+00 0. -1.
       -3    1    3    3    0  502 -0.17834045606E+04  0.55700389778E+03 -0.16927352696E+04  0.25211382097E+04  0.10100000352E+00 0.  1.
</event>
<event>
 5   0  0.5132561E-07  0.3214525E+04  0.7818609E-02  0.8184992E-01
        2   -1    0    0  501    0  0.00000000000E+00  0.00000000000E+00  0.19485992269E+04  0.19485992269E+04  0.25500000920E-02 0. -1.
       -2   -1    0    0    0  501  0.00000000000E+00  0.00000000000E+00 -0.13257181619E+04  0.13257181619E+04  0.25500000920E-02 0.  1.
    10030    2    1    2    0    0  0.00000000000E+00  0.00000000000E+00  0.62288106496E+03  0.32743173888E+04  0.32145253991E+04 0.  0.
        3    1    3    3  502    0 -0.73106180601E+03  0.16905145031E+03 -0.11363573408E+04  0.13617407144E+04  0.10100000352E+00 0.  1.
       -3    1    3    3    0  502  0.73106180601E+03 -0.16905145031E+03  0.17592384057E+04  0.19125766744E+04  0.10100000352E+00 0. -1.
</event>
<event>
 5   0  0.1656617E-07  0.3591704E+04  0.7818609E-02  0.8092395E-01
       -1   -1    0    0    0  501  0.00000000000E+00  0.00000000000E+00  0.18882896583E+04  0.18882896583E+04  0.50400001928E-02 0. -1.
        1   -1    0    0  501    0  0.00000000000E+00  0.00000000000E+00 -0.17079396266E+04  0.17079396266E+04  0.50400001928E-02 0.  1.
    10030    2    1    2    0    0  0.00000000000E+00  0.00000000000E+00  0.18035003175E+03  0.35962292849E+04  0.35917041827E+04 0.  0.
        5    1    3    3  502    0 -0.96853891873E+02  0.98615645216E+03  0.15897860425E+04  0.18733197740E+04  0.46999998093E+01 0. -1.
       -5    1    3    3    0  502  0.96853891873E+02 -0.98615645216E+03 -0.14094360108E+04  0.17229095110E+04  0.46999998093E+01 0.  1.
</event>
<event>
 5   0  0.5202788E-07  0.3810635E+04  0.7818609E-02  0.8043877E-01
        2   -1    0    0  501    0  0.00000000000E+00  0.00000000000E+00  0.13482551163E+04  0.13482551163E+04  0.25500000920E-02 0. -1.
       -2   -1    0    0    0  501  0.00000000000E+00  0.00000000000E+00 -0.26925427915E+04  0.26925427915E+04  0.25500000920E-02 0.  1.
    10030    2    1    2    0    0  0.00000000000E+00  0.00000000000E+00 -0.13442876752E+04  0.40407979078E+04  0.38106349048E+04 0.  0.
        1    1    3    3  502    0  0.13704195105E+04  0.12684818093E+04 -0.10733324201E+04  0.21538658778E+04  0.50400001928E-02 0. -1.
       -1    1    3    3    0  502 -0.13704195105E+04 -0.12684818093E+04 -0.27095525502E+03  0.18869320300E+04  0.50400001928E-02 0.  1.
</event>
<event>
 5   0  0.5132561E-07  0.3856469E+04  0.7818609E-02  0.8034144E-01
       -2   -1    0    0    0  501  0.00000000000E+00  0.00000000000E+00  0.16562050764E+04  0.16562050764E+04  0.25500000920E-02 0. -1.
        2   -1    0    0  501    0  0.00000000000E+00  0.00000000000E+00 -0.22449439897E+04  0.22449439897E+04  0.25500000920E-02 0.  1.
    10030    2    1    2    0    0  0.00000000000E+00  0.00000000000E+00 -0.58873891326E+03  0.39011490662E+04  0.38564686604E+04 0.  0.
        3    1    3    3  502    0 -0.51084658747E+02  0.11441778174E+04  0.12748395498E+04  0.17137585618E+04  0.10100000352E+00 0. -1.
       -3    1    3    3    0  502  0.51084658747E+02 -0.11441778174E+04 -0.18635784631E+04  0.21873905043E+04  0.10100000352E+00 0.  1.
</event>
<event>
 5   0  0.1648000E-07  0.3767838E+04  0.7818609E-02  0.8053092E-01
        3   -1    0    0  501    0  0.00000000000E+00  0.00000000000E+00  0.11760750731E+04  0.11760750774E+04  0.10100000352E+00 0. -1.
       -3   -1    0    0    0  501  0.00000000000E+00  0.00000000000E+00 -0.30177924958E+04  0.30177924975E+04  0.10100000352E+00 0.  1.
    10030    2    1    2    0    0  0.00000000000E+00  0.00000000000E+00 -0.18417174227E+04  0.41938675749E+04  0.37678378641E+04 0.  0.
        3    1    3    3  502    0 -0.45521131211E+03 -0.52091392378E+02  0.11131134412E+04  0.12037243849E+04  0.10100000352E+00 0. -1.
       -3    1    3    3    0  502  0.45521131211E+03  0.52091392378E+02 -0.29548308639E+04  0.29901431899E+04  0.10100000352E+00 0.  1.
</event>
<event>
 5   0  0.1648000E-07  0.4069275E+04  0.7818609E-02  0.7990716E-01
        1   -1    0    0  501    0  0.00000000000E+00  0.00000000000E+00  0.25267805444E+04  0.25267805444E+04  0.50400001928E-02 0.  1.
       -1   -1    0    0    0  501  0.00000000000E+00  0.00000000000E+00 -0.16383496564E+04  0.16383496564E+04  0.50400001928E-02 0. -1.
    10030    2    1    2    0    0  0.00000000000E+00  0.00000000000E+00  0.88843088802E+03  0.41651302008E+04  0.40692751378E+04 0.  0.
        4    1    3    3  502    0 -0.76353752376E+03  0.18783498981E+04  0.61719496458E+03  0.21194619900E+04  0.12699999809E+01 0. -1.
       -4    1    3    3    0  502  0.76353752376E+03 -0.18783498981E+04  0.27123592344E+03  0.20456682108E+04  0.12699999809E+01 0.  1.
</event>
<event>
 5   0  0.1648000E-07  0.3768664E+04  0.7818609E-02  0.8052913E-01
        1   -1    0    0  501    0  0.00000000000E+00  0.00000000000E+00  0.21566073246E+04  0.21566073246E+04  0.50400001928E-02 0. -1.
       -1   -1    0    0    0  501  0.00000000000E+00  0.00000000000E+00 -0.16464321236E+04  0.16464321236E+04  0.50400001928E-02 0.  1.
    10030    2    1    2    0    0  0.00000000000E+00  0.00000000000E+00  0.51017520103E+03  0.38030394482E+04  0.37686642606E+04 0.  0.
        2    1    3    3  502    0  0.43228869936E+03 -0.16035758650E+04 -0.64318824866E+03  0.17810166191E+04  0.25500000920E-02 0.  1.
       -2    1    3    3    0  502 -0.43228869936E+03  0.16035758650E+04  0.11533634497E+04  0.20220228291E+04  0.25500000920E-02 0. -1.
</event>
<event>
 5   0  0.5325362E-07  0.3774146E+04  0.7818609E-02  0.8051726E-01
       -2   -1    0    0    0  501  0.00000000000E+00  0.00000000000E+00  0.16053073822E+04  0.16053073822E+04  0.25500000920E-02 0. -1.
        2   -1    0    0  501    0  0.00000000000E+00  0.00000000000E+00 -0.22182940785E+04  0.22182940785E+04  0.25500000920E-02 0.  1.
    10030    2    1    2    0    0  0.00000000000E+00  0.00000000000E+00 -0.61298669636E+03  0.38236014607E+04  0.37741456570E+04 0.  0.
        4    1    3    3  502    0 -0.18424502934E+04  0.27694363072E+03 -0.30329973360E+01  0.18631510058E+04  0.12699999809E+01 0. -1.
       -4    1    3    3    0  502  0.18424502934E+04 -0.27694363072E+03 -0.60995369903E+03  0.19604504549E+04  0.12699999809E+01 0.  1.
</event>
<event>
 5   0  0.5202788E-07  0.3790290E+04  0.7818609E-02  0.8048242E-01
        2   -1    0    0  501    0  0.00000000000E+00  0.00000000000E+00  0.17590258396E+04  0.17590258396E+04  0.25500000920E-02 0.  1.
       -2   -1    0    0    0  501  0.00000000000E+00  0.00000000000E+00 -0.20417972970E+04  0.20417972970E+04  0.25500000920E-02 0. -1.
    10030    2    1    2    0    0  0.00000000000E+00  0.00000000000E+00 -0.28277145741E+03  0.38008231367E+04  0.37902898067E+04 0.  0.
        1    1    3    3  502    0  0.89624443538E+03  0.15537543841E+04 -0.75477790785E+03  0.19460463675E+04  0.50400001928E-02 0. -1.
       -1    1    3    3    0  502 -0.89624443538E+03 -0.15537543841E+04  0.47200645045E+03  0.18547767692E+04  0.50400001928E-02 0.  1.
</event>
<event>
 5   0  0.1648000E-07  0.3641744E+04  0.7818609E-02  0.8080996E-01
        1   -1    0    0  501    0  0.00000000000E+00  0.00000000000E+00  0.25129884814E+04  0.25129884814E+04  0.50400001928E-02 0. -1.
       -1   -1    0    0    0  501  0.00000000000E+00  0.00000000000E+00 -0.13193755337E+04  0.13193755337E+04  0.50400001928E-02 0.  1.
    10030    2    1    2    0    0  0.00000000000E+00  0.00000000000E+00  0.11936129477E+04  0.38323640150E+04  0.36417443725E+04 0.  0.
        1    1    3    3  502    0  0.75865172752E+03  0.19235539723E+03 -0.11333370213E+04  0.13773183534E+04  0.50400001928E-02 0.  1.
       -1    1    3    3    0  502 -0.75865172752E+03 -0.19235539723E+03  0.23269499690E+04  0.24550456617E+04  0.50400001928E-02 0. -1.
</event>
<event>
 5   0  0.5134434E-07  0.3612479E+04  0.7818609E-02  0.8087639E-01
        2   -1    0    0  501    0  0.00000000000E+00  0.00000000000E+00  0.15313757732E+04  0.15313757732E+04  0.25500000920E-02 0.  1.
       -2   -1    0    0    0  501  0.00000000000E+00  0.00000000000E+00 -0.21304375975E+04  0.21304375975E+04  0.25500000920E-02 0. -1.
    10030    2    1    2    0    0  0.00000000000E+00  0.00000000000E+00 -0.59906182434E+03  0.36618133707E+04  0.36124786633E+04 0.  0.
        5    1    3    3  502    0  0.13086665724E+04  0.87271847996E+03  0.60041858083E+03  0.16836776132E+04  0.46999998093E+01 0.  1.
       -5    1    3    3    0  502 -0.13086665724E+04 -0.87271847996E+03 -0.11994804052E+04  0.19781357575E+04  0.46999998093E+01 0. -1.
</event>
<event>
 5   0  0.1648000E-07  0.3755940E+04  0.7818609E-02  0.8055677E-01
        1   -1    0    0  501    0  0.00000000000E+00  0.00000000000E+00  0.26321715879E+04  0.26321715879E+04  0.50400001928E-02 0.  1.
       -1   -1    0    0    0  501  0.00000000000E+00  0.00000000000E+00 -0.13398710199E+04  0.13398710199E+04  0.50400001928E-02 0. -1.
    10030    2    1    2    0    0  0.00000000000E+00  0.00000000000E+00  0.12923005680E+04  0.39720426078E+04  0.37559395256E+04 0.  0.
        4    1    3    3  502    0  0.49168579714E+03 -0.17775635597E+04  0.10204668958E+04  0.21078048843E+04  0.12699999809E+01 0.  1.
       -4    1    3    3    0  502 -0.49168579714E+03  0.17775635597E+04  0.27183367225E+03  0.18642377236E+04  0.12699999809E+01 0. -1.
</event>
<event>
 5   0  0.1656617E-07  0.4052755E+04  0.7818609E-02  0.7993988E-01
        1   -1    0    0  501    0  0.00000000000E+00  0.00000000000E+00  0.30905694247E+04  0.30905694247E+04  0.50400001928E-02 0. -1.
       -1   -1    0    0    0  501  0.00000000000E+00  0.00000000000E+00 -0.13286242482E+04  0.13286242482E+04  0.50400001928E-02 0.  1.
    10030    2    1    2    0    0  0.00000000000E+00  0.00000000000E+00  0.17619451765E+04  0.44191936729E+04  0.40527548549E+04 0.  0.
        5    1    3    3  502    0  0.90018355863E+03  0.17639052601E+04  0.41261182192E+03  0.20228600573E+04  0.46999998093E+01 0.  1.
       -5    1    3    3    0  502 -0.90018355863E+03 -0.17639052601E+04  0.13493333546E+04  0.23963336157E+04  0.46999998093E+01 0. -1.
</event>
<event>
 5   0  0.1648000E-07  0.3820869E+04  0.7818609E-02  0.8041691E-01
        1   -1    0    0  501    0  0.00000000000E+00  0.00000000000E+00  0.16059902535E+04  0.16059902535E+04  0.50400001928E-02 0.  1.
       -1   -1    0    0    0  501  0.00000000000E+00  0.00000000000E+00 -0.22725914116E+04  0.22725914116E+04  0.50400001928E-02 0. -1.
    10030    2    1    2    0    0  0.00000000000E+00  0.00000000000E+00 -0.66660115813E+03  0.38785816651E+04  0.38208688317E+04 0.  0.
        2    1    3    3  502    0  0.10874839027E+04 -0.13127628543E+04 -0.12087611557E+04  0.20897538329E+04  0.25500000920E-02 0. -1.
       -2    1    3    3    0  502 -0.10874839027E+04  0.13127628543E+04  0.54215999761E+03  0.17888278322E+04  0.25500000920E-02 0.  1.
</event>
<event>
 5   0  0.5325362E-07  0.3671493E+04  0.7818609E-02  0.8074309E-01
       -2   -1    0    0    0  501  0.00000000000E+00  0.00000000000E+00  0.18153094371E+04  0.18153094371E+04  0.25500000920E-02 0. -1.
        2   -1    0    0  501    0  0.00000000000E+00  0.00000000000E+00 -0.18564140770E+04  0.18564140770E+04  0.25500000920E-02 0.  1.
    10030    2    1    2    0    0  0.00000000000E+00  0.00000000000E+00 -0.41104639912E+02  0.36717235141E+04  0.36714934254E+04 0.  0.
        4    1    3    3  502    0 -0.11753100247E+04 -0.10388777170E+03  0.13858850090E+04  0.18201168079E+04  0.12699999809E+01 0. -1.
       -4    1    3    3    0  502  0.11753100247E+04  0.10388777170E+03 -0.14269896489E+04  0.18516067062E+04  0.12699999809E+01 0.  1.
</event>
<event>
 5   0  0.1648000E-07  0.3789366E+04  0.7818609E-02  0.8048441E-01
       -1   -1    0    0    0  501  0.00000000000E+00  0.00000000000E+00  0.17322220060E+04  0.17322220060E+04  0.50400001928E-02 0.  1.
        1   -1    0    0  501    0  0.00000000000E+00  0.00000000000E+00 -0.20723808642E+04  0.20723808642E+04  0.50400001928E-02 0. -1.
    10030    2    1    2    0    0  0.00000000000E+00  0.00000000000E+00 -0.34015885814E+03  0.38046028702E+04  0.37893660356E+04 0.  0.
        1    1    3    3  502    0  0.53627654546E+03  0.12638497257E+03  0.16500136744E+04  0.17395720221E+04  0.50400001928E-02 0.  1.
       -1    1    3    3    0  502 -0.53627654546E+03 -0.12638497257E+03 -0.19901725325E+04  0.20650308481E+04  0.50400001928E-02 0. -1.
</event>
<event>
 5   0  0.1648000E-07  0.3871356E+04  0.7818609E-02  0.8031013E-01
        1   -1    0    0  501    0  0.00000000000E+00  0.00000000000E+00  0.22077158626E+04  0.22077158626E+04  0.50400001928E-02 0.  1.
       -1   -1    0    0    0  501  0.00000000000E+00  0.00000000000E+00 -0.16971608144E+04  0.16971608144E+04  0.50400001928E-02 0. -1.
    10030    2    1    2    0    0  0.00000000000E+00  0.00000000000E+00  0.51055504821E+03  0.39048766771E+04  0.38713557581E+04 0.  0.
        3    1    3    3  502    0  0.16063064251E+04  0.77116392478E+03 -0.50753438985E+03  0.18527021610E+04  0.10100000352E+00 0.  1.
       -3    1    3    3    0  502 -0.16063064251E+04 -0.77116392478E+03  0.10180894381E+04  0.20521745161E+04  0.10100000352E+00 0. -1.
</event>
<event>
 5   0  0.5158266E-07  0.3742006E+04  0.7818609E-02  0.8058716E-01
       -2   -1    0    0    0  501  0.00000000000E+00  0.00000000000E+00  0.15429653801E+04  0.15429653801E+04  0.25500000920E-02 0.  1.
        2   -1    0    0  501    0  0.00000000000E+00  0.00000000000E+00 -0.22687826412E+04  0.22687826412E+04  0.25500000920E-02 0. -1.
    10030    2    1    2    0    0  0.00000000000E+00  0.00000000000E+00 -0.72581726108E+03  0.38117480214E+04  0.37420064514E+04 0.  0.
        2    1    3    3  502    0 -0.58449054944E+03  0.13185985966E+04 -0.15768927313E+04  0.21370358320E+04  0.25500000920E-02 0. -1.
       -2    1    3    3    0  502  0.58449054944E+03 -0.13185985966E+04  0.85107547018E+03  0.16747121894E+04  0.25500000920E-02 0.  1.
</event>
<event>
 5   0  0.5325362E-07  0.3817766E+04  0.7818609E-02  0.8042353E-01
        2   -1    0    0  501    0  0.00000000000E+00  0.00000000000E+00  0.29752323377E+04  0.29752323377E+04  0.25500000920E-02 0. -1.
       -2   -1    0    0    0  501  0.00000000000E+00  0.00000000000E+00 -0.12247227267E+04  0.12247227267E+04  0.25500000920E-02 0.  1.
    10030    2    1    2    0    0  0.00000000000E+00  0.00000000000E+00  0.17505096109E+04  0.41999550644E+04  0.38177661852E+04 0.  0.
        4    1    3    3  502    0 -0.40920785692E+03 -0.18449178493E+04  0.57871477007E+03  0.19763818808E+04  0.12699999809E+01 0.  1.
       -4    1    3    3    0  502  0.40920785692E+03  0.18449178493E+04  0.11717948409E+04  0.22235731836E+04  0.12699999809E+01 0. -1.
</event>
<event>
 5   0  0.1656617E-07  0.3906391E+04  0.7818609E-02  0.8023701E-01
        1   -1    0    0  501    0  0.00000000000E+00  0.00000000000E+00  0.17272485644E+04  0.17272485644E+04  0.50400001928E-02 0. -1.
       -1   -1    0    0    0  501  0.00000000000E+00  0.00000000000E+00 -0.22086993062E+04  0.22086993062E+04  0.50400001928E-02 0.  1.
    10030    2    1    2    0    0  0.00000000000E+00  0.00000000000E+00 -0.48145074177E+03  0.39359478706E+04  0.39063910228E+04 0.  0.
        5    1    3    3  502    0  0.87594944402E+03 -0.78356502812E+03 -0.18125575197E+04  0.21602426794E+04  0.46999998093E+01 0.  1.
       -5    1    3    3    0  502 -0.87594944402E+03  0.78356502812E+03  0.13311067779E+04  0.17757051912E+04  0.46999998093E+01 0. -1.
</event>
<event>
 5   0  0.5325362E-07  0.3557288E+04  0.7818609E-02  0.8100346E-01
        2   -1    0    0  501    0  0.00000000000E+00  0.00000000000E+00  0.16328512418E+04  0.16328512418E+04  0.25500000920E-02 0. -1.
       -2   -1    0    0    0  501  0.00000000000E+00  0.00000000000E+00 -0.19374546514E+04  0.19374546514E+04  0.25500000920E-02 0.  1.
    10030    2    1    2    0    0  0.00000000000E+00  0.00000000000E+00 -0.30460340962E+03  0.35703058931E+04  0.35572884243E+04 0.  0.
        4    1    3    3  502    0  0.34983007407E+03  0.16472435526E+04  0.42231517572E+03  0.17361290628E+04  0.12699999809E+01 0. -1.
       -4    1    3    3    0  502 -0.34983007407E+03 -0.16472435526E+04 -0.72691858534E+03  0.18341768303E+04  0.12699999809E+01 0.  1.
</event>
<event>
 5   0  0.1648000E-07  0.3810401E+04  0.7818609E-02  0.8043927E-01
       -1   -1    0    0    0  501  0.00000000000E+00  0.00000000000E+00  0.17603678999E+04  0.17603678999E+04  0.50400001928E-02 0. -1.
        1   -1    0    0  501    0  0.00000000000E+00  0.00000000000E+00 -0.20619489825E+04  0.20619489825E+04  0.50400001928E-02 0.  1.
    10030    2    1    2    0    0  0.00000000000E+00  0.00000000000E+00 -0.30158108257E+03  0.38223168824E+04  0.38104009238E+04 0.  0.
        2    1    3    3  502    0 -0.50875739472E+03 -0.18215342494E+04  0.80076288075E+02  0.18929430314E+04  0.25500000920E-02 0.  1.
       -2    1    3    3    0  502  0.50875739472E+03  0.18215342494E+04 -0.38165737065E+03  0.19293738510E+04  0.25500000920E-02 0. -1.
</event>
<event>
 5   0  0.5134434E-07  0.3603687E+04  0.7818609E-02  0.8089648E-01
        2   -1    0    0  501    0  0.00000000000E+00  0.00000000000E+00  0.24875106745E+04  0.24875106745E+04  0.25500000920E-02 0.  1.
       -2   -1    0    0    0  501  0.00000000000E+00  0.00000000000E+00 -0.13051764602E+04  0.13051764602E+04  0.25500000920E-02 0. -1.
    10030    2    1    2    0    0  0.00000000000E+00  0.00000000000E+00  0.11823342144E+04  0.37926871347E+04  0.36036872099E+04 0.  0.
        5    1    3    3  502    0 -0.12318113330E+04  0.40691006522E+03  0.19072229954E+04  0.23066114986E+04  0.46999998093E+01 0.  1.
       -5    1    3    3    0  502  0.12318113330E+04 -0.40691006522E+03 -0.72488878101E+03  0.14860756361E+04  0.46999998093E+01 0. -1.
</event>
<event>
 5   0  0.1648000E-07  0.3770207E+04  0.7818609E-02  0.8052579E-01
       -1   -1    0    0    0  501  0.00000000000E+00  0.00000000000E+00  0.20171205817E+04  0.20171205817E+04  0.50400001928E-02 0.  1.
        1   -1    0    0  501    0  0.00000000000E+00  0.00000000000E+00 -0.17617265986E+04  0.17617265986E+04  0.50400001928E-02 0. -1.
    10030    2    1    2    0    0  0.00000000000E+00  0.00000000000E+00  0.25539398314E+03  0.37788471803E+04  0.37702068810E+04 0.  0.
        4    1    3    3  502    0 -0.17414668590E+04 -0.48369332334E+03 -0.40920526745E+03  0.18531369663E+04  0.12699999809E+01 0. -1.
       -4    1    3    3    0  502  0.17414668590E+04  0.48369332334E+03  0.66459925059E+03  0.19257102141E+04  0.12699999809E+01 0.  1.
</event>
<event>
 5   0  0.5132561E-07  0.3809507E+04  0.7818609E-02  0.8044118E-01
       -2   -1    0    0    0  501  0.00000000000E+00  0.00000000000E+00  0.14824313111E+04  0.14824313111E+04  0.25500000920E-02 0.  1.
        2   -1    0    0  501    0  0.00000000000E+00  0.00000000000E+00 -0.24473882592E+04  0.24473882592E+04  0.25500000920E-02 0. -1.
    10030    2    1    2    0    0  0.00000000000E+00  0.00000000000E+00 -0.96495694815E+03  0.39298195703E+04  0.38095065223E+04 0.  0.
        3    1    3    3  502    0  0.83027467162E+03 -0.11398416180E+04  0.83838606142E+03  0.16405749427E+04  0.10100000352E+00 0.  1.
       -3    1    3    3    0  502 -0.83027467162E+03  0.11398416180E+04 -0.18033430096E+04  0.22892446276E+04  0.10100000352E+00 0. -1.
</event>
<event>
 5   0  0.1648000E-07  0.3864811E+04  0.7818609E-02  0.8032388E-01
        1   -1    0    0  501    0  0.00000000000E+00  0.00000000000E+00  0.29041256865E+04  0.29041256865E+04  0.50400001928E-02 0. -1.
       -1   -1    0    0    0  501  0.00000000000E+00  0.00000000000E+00 -0.12858227868E+04  0.12858227868E+04  0.50400001928E-02 0.  1.
    10030    2    1    2    0    0  0.00000000000E+00  0.00000000000E+00  0.16183028996E+04  0.41899484733E+04  0.38648109830E+04 0.  0.
        2    1    3    3  502    0 -0.13682893869E+04 -0.92722208572E+03 -0.27618668616E+03  0.16757791406E+04  0.25500000920E-02 0.  1.
       -2    1    3    3    0  502  0.13682893869E+04  0.92722208572E+03  0.18944895858E+04  0.25141693327E+04  0.25500000920E-02 0. -1.
</event>
<event>
 5   0  0.5158266E-07  0.3189937E+04  0.7818609E-02  0.8191480E-01
       -2   -1    0    0    0  501  0.00000000000E+00  0.00000000000E+00  0.10417047087E+04  0.10417047087E+04  0.25500000920E-02 0.  1.
        2   -1    0    0  501    0  0.00000000000E+00  0.00000000000E+00 -0.24420785882E+04  0.24420785882E+04  0.25500000920E-02 0. -1.
    10030    2    1    2    0    0  0.00000000000E+00  0.00000000000E+00 -0.14003738795E+04  0.34837832968E+04  0.31899371556E+04 0.  0.
        2    1    3    3  502    0  0.13280829227E+04 -0.87736280466E+03 -0.81132032693E+03  0.17865638566E+04  0.25500000920E-02 0. -1.
       -2    1    3    3    0  502 -0.13280829227E+04  0.87736280466E+03 -0.58905355257E+03  0.16972194403E+04  0.25500000920E-02 0.  1.
</event>
<event>
 5   0  0.5325362E-07  0.3894707E+04  0.7818609E-02  0.8026131E-01
       -2   -1    0    0    0  501  0.00000000000E+00  0.00000000000E+00  0.13528198838E+04  0.13528198838E+04  0.25500000920E-02 0. -1.
        2   -1    0    0  501    0  0.00000000000E+00  0.00000000000E+00 -0.28031710247E+04  0.28031710247E+04  0.25500000920E-02 0.  1.
    10030    2    1    2    0    0  0.00000000000E+00  0.00000000000E+00 -0.14503511409E+04  0.41559909085E+04  0.38947069209E+04 0.  0.
        4    1    3    3  502    0  0.51477153395E+03  0.32563957030E+03  0.12485467688E+04  0.13892089507E+04  0.12699999809E+01 0. -1.
       -4    1    3    3    0  502 -0.51477153395E+03 -0.32563957030E+03 -0.26988979098E+04  0.27667819578E+04  0.12699999809E+01 0.  1.
</event>
<event>
 5   0  0.5134434E-07  0.3831244E+04  0.7818609E-02  0.8039483E-01
       -2   -1    0    0    0  501  0.00000000000E+00  0.00000000000E+00  0.16699236805E+04  0.16699236805E+04  0.25500000920E-02 0. -1.
        2   -1    0    0  501    0  0.00000000000E+00  0.00000000000E+00 -0.21974707039E+04  0.21974707039E+04  0.25500000920E-02 0.  1.
    10030    2    1    2    0    0  0.00000000000E+00  0.00000000000E+00 -0.52754702334E+03  0.38673943844E+04  0.38312443752E+04 0.  0.
        5    1    3    3  502    0 -0.26286096121E+03  0.38567783407E+03 -0.21391904510E+04  0.21895207585E+04  0.46999998093E+01 0.  1.
       -5    1    3    3    0  502  0.26286096121E+03 -0.38567783407E+03  0.16116434276E+04  0.16778736259E+04  0.46999998093E+01 0. -1.
</event>
<event>
 5   0  0.1648000E-07  0.3028308E+04  0.7818609E-02  0.8235693E-01
        1   -1    0    0  501    0  0.00000000000E+00  0.00000000000E+00  0.21575549110E+04  0.21575549110E+04  0.50400001928E-02 0.  1.
       -1   -1    0    0    0  501  0.00000000000E+00  0.00000000000E+00 -0.10626203501E+04  0.10626203501E+04  0.50400001928E-02 0. -1.
    10030    2    1    2    0    0  0.00000000000E+00  0.00000000000E+00  0.10949345609E+04  0.32201752611E+04  0.30283076164E+04 0.  0.
        4    1    3    3  502    0  0.41100479152E+03 -0.14413107422E+04  0.31851528523E+03  0.15322386217E+04  0.12699999809E+01 0. -1.
       -4    1    3    3    0  502 -0.41100479152E+03  0.14413107422E+04  0.77641927565E+03  0.16879366394E+04  0.12699999809E+01 0.  1.
</event>
<event>
 5   0  0.1648000E-07  0.3498574E+04  0.7818609E-02  0.8114128E-01
       -1   -1    0    0    0  501  0.00000000000E+00  0.00000000000E+00  0.13505232044E+04  0.13505232044E+04  0.50400001928E-02 0.  1.
        1   -1    0    0  501    0  0.00000000000E+00  0.00000000000E+00 -0.22657927326E+04  0.22657927326E+04  0.50400001928E-02 0. -1.
    10030    2    1    2    0    0  0.00000000000E+00  0.00000000000E+00 -0.91526952820E+03  0.36163159369E+04  0.34985743734E+04 0.  0.
        2    1    3    3  502    0 -0.24857381338E+03 -0.79274081277E+03 -0.20488508214E+04  0.22108859368E+04  0.25500000920E-02 0. -1.
       -2    1    3    3    0  502  0.24857381338E+03  0.79274081277E+03  0.11335812932E+04  0.14054300001E+04  0.25500000920E-02 0.  1.
</event>
<event>
 5   0  0.5134434E-07  0.3044527E+04  0.7818609E-02  0.8231129E-01
        2   -1    0    0  501    0  0.00000000000E+00  0.00000000000E+00  0.10328820592E+04  0.10328820592E+04  0.25500000920E-02 0. -1.
       -2   -1    0    0    0  501  0.00000000000E+00  0.00000000000E+00 -0.22435140657E+04  0.22435140657E+04  0.25500000920E-02 0.  1.
    10030    2    1    2    0    0  0.00000000000E+00  0.00000000000E+00 -0.12106320065E+04  0.32763961249E+04  0.30445265169E+04 0.  0.
        5    1    3    3  502    0 -0.13000849671E+03 -0.28193347296E+03 -0.22090733751E+04  0.22307881923E+04  0.46999998093E+01 0.  1.
       -5    1    3    3    0  502  0.13000849671E+03  0.28193347296E+03  0.99844136854E+03  0.10456079326E+04  0.46999998093E+01 0. -1.
</event>
<event>
 5   0  0.1648000E-07  0.3820008E+04  0.7818609E-02  0.8041875E-01
       -1   -1    0    0    0  501  0.00000000000E+00  0.00000000000E+00  0.15322988591E+04  0.15322988591E+04  0.50400001928E-02 0. -1.
        1   -1    0    0  501    0  0.00000000000E+00  0.00000000000E+00 -0.23808118452E+04  0.23808118452E+04  0.50400001928E-02 0.  1.
    10030    2    1    2    0    0  0.00000000000E+00  0.00000000000E+00 -0.84851298606E+03  0.39131107043E+04  0.38200079969E+04 0.  0.
        3    1    3    3  502    0  0.65001530162E+03 -0.14034172442E+04  0.72377908285E+03  0.17076170603E+04  0.10100000352E+00 0. -1.
       -3    1    3    3    0  502 -0.65001530162E+03  0.14034172442E+04 -0.15722920689E+04  0.22054936440E+04  0.10100000352E+00 0.  1.
</event>
<event>
 5   0  0.5202788E-07  0.3801387E+04  0.7818609E-02  0.8045857E-01
        2   -1    0    0  501    0  0.00000000000E+00  0.00000000000E+00  0.27134697628E+04  0.27134697628E+04  0.25500000920E-02 0. -1.
       -2   -1    0    0    0  501  0.00000000000E+00  0.00000000000E+00 -0.13313709680E+04  0.13313709680E+04  0.25500000920E-02 0.  1.
    10030    2    1    2    0    0  0.00000000000E+00  0.00000000000E+00  0.13820987948E+04  0.40448407308E+04  0.38013865180E+04 0.  0.
        1    1    3    3  502    0 -0.57174039572E+03  0.13904061287E+04 -0.54641016413E+03  0.15995875563E+04  0.50400001928E-02 0.  1.
       -1    1    3    3    0  502  0.57174039572E+03 -0.13904061287E+04  0.19285089589E+04  0.24452531745E+04  0.50400001928E-02 0. -1.
</event>
<event>
 5   0  0.1648000E-07  0.3754934E+04  0.7818609E-02  0.8055896E-01
        1   -1    0    0  501    0  0.00000000000E+00  0.00000000000E+00  0.16826557774E+04  0.16826557774E+04  0.50400001928E-02 0.  1.
       -1   -1    0    0    0  501  0.00000000000E+00  0.00000000000E+00 -0.20948327219E+04  0.20948327219E+04  0.50400001928E-02 0. -1.
    10030    2    1    2    0    0  0.00000000000E+00  0.00000000000E+00 -0.41217694450E+03  0.37774884993E+04  0.37549340245E+04 0.  0.
        1    1    3    3  502    0  0.15913978397E+04 -0.78009409579E+03 -0.82931627361E+03  0.19567471386E+04  0.50400001928E-02 0.  1.
       -1    1    3    3    0  502 -0.15913978397E+04  0.78009409579E+03  0.41713932911E+03  0.18207413607E+04  0.50400001928E-02 0. -1.
</event>
<event>
 5   0  0.5202788E-07  0.3516778E+04  0.7818609E-02  0.8109825E-01
        2   -1    0    0  501    0  0.00000000000E+00  0.00000000000E+00  0.14243434102E+04  0.14243434102E+04  0.25500000920E-02 0.  1.
       -2   -1    0    0    0  501  0.00000000000E+00  0.00000000000E+00 -0.21707766928E+04  0.21707766928E+04  0.25500000920E-02 0. -1.
    10030    2    1    2    0    0  0.00000000000E+00  0.00000000000E+00 -0.74643328253E+03  0.35951201030E+04  0.35167777737E+04 0.  0.
        1    1    3    3  502    0 -0.24124501307E+02 -0.12362964540E+04 -0.16512345224E+04  0.20629072596E+04  0.50400001928E-02 0. -1.
       -1    1    3    3    0  502  0.24124501307E+02  0.12362964540E+04  0.90480123985E+03  0.15322128434E+04  0.50400001928E-02 0.  1.
</event>
<event>
 5   0  0.5202788E-07  0.3834527E+04  0.7818609E-02  0.8038786E-01
       -2   -1    0    0    0  501  0.00000000000E+00  0.00000000000E+00  0.13282968521E+04  0.13282968521E+04  0.25500000920E-02 0.  1.
        2   -1    0    0  501    0  0.00000000000E+00  0.00000000000E+00 -0.27673776579E+04  0.27673776579E+04  0.25500000920E-02 0. -1.
    10030    2    1    2    0    0  0.00000000000E+00  0.00000000000E+00 -0.14390808058E+04  0.40956745100E+04  0.38345268451E+04 0.  0.
        1    1    3    3  502    0 -0.94831763981E+03 -0.85425520614E+03  0.80857332653E+03  0.15109100329E+04  0.50400001928E-02 0.  1.
       -1    1    3    3    0  502  0.94831763981E+03  0.85425520614E+03 -0.22476541324E+04  0.25847644771E+04  0.50400001928E-02 0. -1.
</event>
<event>
 5   0  0.5134434E-07  0.3734019E+04  0.7818609E-02  0.8060464E-01
       -2   -1    0    0    0  501  0.00000000000E+00  0.00000000000E+00  0.15365940406E+04  0.15365940406E+04  0.25500000920E-02 0. -1.
        2   -1    0    0  501    0  0.00000000000E+00  0.00000000000E+00 -0.22684741612E+04  0.22684741612E+04  0.25500000920E-02 0.  1.
    10030    2    1    2    0    0  0.00000000000E+00  0.00000000000E+00 -0.73188012065E+03  0.38050682018E+04  0.37340186809E+04 0.  0.
        5    1    3    3  502    0  0.16626156123E+04 -0.11918349074E+03  0.49101698364E+03  0.17377039871E+04  0.46999998093E+01 0. -1.
       -5    1    3    3    0  502 -0.16626156123E+04  0.11918349074E+03 -0.12228971043E+04  0.20673642147E+04  0.46999998093E+01 0.  1.
</event>
<event>
 5   0  0.5132561E-07  0.3742129E+04  0.7818609E-02  0.8058689E-01
       -2   -1    0    0    0  501  0.00000000000E+00  0.00000000000E+00  0.14426589194E+04  0.14426589194E+04  0.25500000920E-02 0. -1.
        2   -1    0    0  501    0  0.00000000000E+00  0.00000000000E+00 -0.24266872227E+04  0.24266872227E+04  0.25500000920E-02 0.  1.
    10030    2    1    2    0    0  0.00000000000E+00  0.00000000000E+00 -0.98402830331E+03  0.38693461421E+04  0.37421287880E+04 0.  0.
        3    1    3    3  502    0 -0.49994416596E+03 -0.17044705467E+04  0.11595257616E+03  0.17800587136E+04  0.10100000352E+00 0. -1.
       -3    1    3    3    0  502  0.49994416596E+03  0.17044705467E+04 -0.10999808795E+04  0.20892874285E+04  0.10100000352E+00 0.  1.
</event>
<event>
 5   0  0.1648000E-07  0.3880643E+04  0.7818609E-02  0.8029067E-01
       -1   -1    0    0    0  501  0.00000000000E+00  0.00000000000E+00  0.12155932461E+04  0.12155932461E+04  0.50400001928E-02 0.  1.
        1   -1    0    0  501    0  0.00000000000E+00  0.00000000000E+00 -0.30971271042E+04  0.30971271042E+04  0.50400001928E-02 0. -1.
    10030    2    1    2    0    0  0.00000000000E+00  0.00000000000E+00 -0.18815338580E+04  0.43127203503E+04  0.38806426221E+04 0.  0.
        2    1    3    3  502    0  0.16544903797E+03 -0.85716153695E+03  0.98501477429E+03  0.13161889645E+04  0.25500000920E-02 0.  1.
       -2    1    3    3    0  502 -0.16544903797E+03  0.85716153695E+03 -0.28665486323E+04  0.29965313858E+04  0.25500000920E-02 0. -1.
</event>
<event>
 5   0  0.1648000E-07  0.3787105E+04  0.7818609E-02  0.8048928E-01
       -1   -1    0    0    0  501  0.00000000000E+00  0.00000000000E+00  0.16083317438E+04  0.16083317438E+04  0.50400001928E-02 0.  1.
        1   -1    0    0  501    0  0.00000000000E+00  0.00000000000E+00 -0.22293545185E+04  0.22293545185E+04  0.50400001928E-02 0. -1.
    10030    2    1    2    0    0  0.00000000000E+00  0.00000000000E+00 -0.62102277464E+03  0.38376862623E+04  0.37871053010E+04 0.  0.
        3    1    3    3  502    0 -0.14616880641E+04 -0.11918264623E+04 -0.13925925162E+03  0.18911307364E+04  0.10100000352E+00 0.  1.
       -3    1    3    3    0  502  0.14616880641E+04  0.11918264623E+04 -0.48176352302E+03  0.19465555259E+04  0.10100000352E+00 0. -1.
</event>
<event>
 5   0  0.1648000E-07  0.3183314E+04  0.7818609E-02  0.8193238E-01
       -1   -1    0    0    0  501  0.00000000000E+00  0.00000000000E+00  0.18463481363E+04  0.18463481363E+04  0.50400001928E-02 0. -1.
        1   -1    0    0  501    0  0.00000000000E+00  0.00000000000E+00 -0.13720990352E+04  0.13720990352E+04  0.50400001928E-02 0.  1.
    10030    2    1    2    0    0  0.00000000000E+00  0.00000000000E+00  0.47424910104E+03  0.32184471715E+04  0.31833143084E+04 0.  0.
        2    1    3    3  502    0  0.79032218398E+02 -0.20361971543E+03  0.18311241155E+04  0.18441048252E+04  0.25500000920E-02 0. -1.
       -2    1    3    3    0  502 -0.79032218398E+02  0.20361971543E+03 -0.13568750144E+04  0.13743423463E+04  0.25500000920E-02 0.  1.
</event>
<event>
 5   0  0.1648000E-07  0.3691736E+04  0.7818609E-02  0.8069796E-01
        1   -1    0    0  501    0  0.00000000000E+00  0.00000000000E+00  0.21197280099E+04  0.21197280099E+04  0.50400001928E-02 0.  1.
       -1   -1    0    0    0  501  0.00000000000E+00  0.00000000000E+00 -0.16073898553E+04  0.16073898553E+04  0.50400001928E-02 0. -1.
    10030    2    1    2    0    0  0.00000000000E+00  0.00000000000E+00  0.51233815465E+03  0.37271178652E+04  0.36917363390E+04 0.  0.
        1    1    3    3  502    0 -0.99016024995E+03  0.15523909098E+04  0.38739341037E+03  0.18815973299E+04  0.50400001928E-02 0.  1.
       -1    1    3    3    0  502  0.99016024995E+03 -0.15523909098E+04  0.12494474428E+03  0.18455205354E+04  0.50400001928E-02 0. -1.
</event>
<event>
 5   0  0.5202788E-07  0.3691641E+04  0.7818609E-02  0.8069817E-01
       -2   -1    0    0    0  501  0.00000000000E+00  0.00000000000E+00  0.29579199608E+04  0.29579199608E+04  0.25500000920E-02 0. -1.
        2   -1    0    0  501    0  0.00000000000E+00  0.00000000000E+00 -0.11518408304E+04  0.11518408304E+04  0.25500000920E-02 0.  1.
    10030    2    1    2    0    0  0.00000000000E+00  0.00000000000E+00  0.18060791304E+04  0.41097607911E+04  0.36916408188E+04 0.  0.
        1    1    3    3  502    0 -0.84618546097E+03 -0.61763864982E+02 -0.92189701789E+03  0.12528921426E+04  0.50400001928E-02 0.  1.
       -1    1    3    3    0  502  0.84618546097E+03  0.61763864982E+02  0.27279761483E+04  0.28568686485E+04  0.50400001928E-02 0. -1.
</event>
<event>
 5   0  0.1648000E-07  0.2822387E+04  0.7818609E-02  0.8296352E-01
        1   -1    0    0  501    0  0.00000000000E+00  0.00000000000E+00  0.27789238475E+04  0.27789238475E+04  0.50400001928E-02 0.  1.
       -1   -1    0    0    0  501  0.00000000000E+00  0.00000000000E+00 -0.71663250273E+03  0.71663250274E+03  0.50400001928E-02 0. -1.
    10030    2    1    2    0    0  0.00000000000E+00  0.00000000000E+00  0.20622913448E+04  0.34955563502E+04  0.28223870406E+04 0.  0.
        3    1    3    3  502    0 -0.95262548504E+03 -0.10344997483E+04  0.11765433258E+04  0.18335591760E+04  0.10100000352E+00 0.  1.
       -3    1    3    3    0  502  0.95262548504E+03  0.10344997483E+04  0.88574801893E+03  0.16619971743E+04  0.10100000352E+00 0. -1.
</event>
<event>
 5   0  0.5158266E-07  0.3521208E+04  0.7818609E-02  0.8108782E-01
       -2   -1    0    0    0  501  0.00000000000E+00  0.00000000000E+00  0.14903321026E+04  0.14903321026E+04  0.25500000920E-02 0.  1.
        2   -1    0    0  501    0  0.00000000000E+00  0.00000000000E+00 -0.20798898352E+04  0.20798898352E+04  0.25500000920E-02 0. -1.
    10030    2    1    2    0    0  0.00000000000E+00  0.00000000000E+00 -0.58955773260E+03  0.35702219378E+04  0.35212080831E+04 0.  0.
        2    1    3    3  502    0  0.14045865536E+04  0.93125212010E+03 -0.81141313938E+03  0.18704237970E+04  0.25500000920E-02 0. -1.
       -2    1    3    3    0  502 -0.14045865536E+04 -0.93125212010E+03  0.22185540678E+03  0.16997981407E+04  0.25500000920E-02 0.  1.
</event>
<event>
 5   0  0.1656617E-07  0.3822098E+04  0.7818609E-02  0.8041429E-01
        1   -1    0    0  501    0  0.00000000000E+00  0.00000000000E+00  0.23854507789E+04  0.23854507790E+04  0.50400001928E-02 0. -1.
       -1   -1    0    0    0  501  0.00000000000E+00  0.00000000000E+00 -0.15309931716E+04  0.15309931716E+04  0.50400001928E-02 0.  1.
    10030    2    1    2    0    0  0.00000000000E+00  0.00000000000E+00  0.85445760733E+03  0.39164439506E+04  0.38220983001E+04 0.  0.
        5    1    3    3  502    0 -0.27687723294E+03  0.16162162771E+04  0.14329190544E+04  0.21776352227E+04  0.46999998093E+01 0. -1.
       -5    1    3    3    0  502  0.27687723294E+03 -0.16162162771E+04 -0.57846144707E+03  0.17388087279E+04  0.46999998093E+01 0.  1.
</event>
<event>
 5   0  0.5325362E-07  0.3676703E+04  0.7818609E-02  0.8073145E-01
        2   -1    0    0  501    0  0.00000000000E+00  0.00000000000E+00  0.17472808142E+04  0.17472808142E+04  0.25500000920E-02 0. -1.
       -2   -1    0    0    0  501  0.00000000000E+00  0.00000000000E+00 -0.19341684513E+04  0.19341684513E+04  0.25500000920E-02 0.  1.
    10030    2    1    2    0    0  0.00000000000E+00  0.00000000000E+00 -0.18688763709E+03  0.36814492656E+04  0.36767025588E+04 0.  0.
        4    1    3    3  502    0  0.16878458079E+04 -0.66262392725E+03  0.20966778576E+03  0.18253372656E+04  0.12699999809E+01 0. -1.
       -4    1    3    3    0  502 -0.16878458079E+04  0.66262392725E+03 -0.39655542285E+03  0.18561119999E+04  0.12699999809E+01 0.  1.
</event>
<event>
 5   0  0.5202788E-07  0.3895431E+04  0.7818609E-02  0.8025980E-01
       -2   -1    0    0    0  501  0.00000000000E+00  0.00000000000E+00  0.16602749723E+04  0.16602749723E+04  0.25500000920E-02 0. -1.
        2   -1    0    0  501    0  0.00000000000E+00  0.00000000000E+00 -0.22849197971E+04  0.22849197971E+04  0.25500000920E-02 0.  1.
    10030    2    1    2    0    0  0.00000000000E+00  0.00000000000E+00 -0.62464482482E+03  0.39451947694E+04  0.38954307350E+04 0.  0.
        1    1    3    3  502    0  0.12627767027E+04 -0.15244043984E+02 -0.18140862967E+04  0.22103724740E+04  0.50400001928E-02 0.  1.
       -1    1    3    3    0  502 -0.12627767027E+04  0.15244043984E+02  0.11894414719E+04  0.17348222954E+04  0.50400001928E-02 0. -1.
</event>
<event>
 5   0  0.5202788E-07  0.3776622E+04  0.7818609E-02  0.8051190E-01
       -2   -1    0    0    0  501  0.00000000000E+00  0.00000000000E+00  0.13942763443E+04  0.13942763443E+04  0.25500000920E-02 0. -1.
        2   -1    0    0  501    0  0.00000000000E+00  0.00000000000E+00 -0.25573974904E+04  0.25573974904E+04  0.25500000920E-02 0.  1.
    10030    2    1    2    0    0  0.00000000000E+00  0.00000000000E+00 -0.11631211461E+04  0.39516738347E+04  0.37766222071E+04 0.  0.
        1    1    3    3  502    0  0.12304340646E+04 -0.13187253963E+04  0.35680271359E+01  0.18036123167E+04  0.50400001928E-02 0. -1.
       -1    1    3    3    0  502 -0.12304340646E+04  0.13187253963E+04 -0.11666891732E+04  0.21480615180E+04  0.50400001928E-02 0.  1.
</event>
<event>
 5   0  0.1648000E-07  0.3845300E+04  0.7818609E-02  0.8036503E-01
       -1   -1    0    0    0  501  0.00000000000E+00  0.00000000000E+00  0.17316843218E+04  0.17316843218E+04  0.50400001928E-02 0.  1.
        1   -1    0    0  501    0  0.00000000000E+00  0.00000000000E+00 -0.21346749626E+04  0.21346749626E+04  0.50400001928E-02 0. -1.
    10030    2    1    2    0    0  0.00000000000E+00  0.00000000000E+00 -0.40299064081E+03  0.38663592844E+04  0.38453000741E+04 0.  0.
        4    1    3    3  502    0  0.11581307759E+04 -0.12978169912E+04 -0.10251185930E+04  0.20190258986E+04  0.12699999809E+01 0. -1.
       -4    1    3    3    0  502 -0.11581307759E+04  0.12978169912E+04  0.62212795218E+03  0.18473333858E+04  0.12699999809E+01 0.  1.
</event>
<event>
 5   0  0.5325362E-07  0.3836315E+04  0.7818609E-02  0.8038406E-01
        2   -1    0    0  501    0  0.00000000000E+00  0.00000000000E+00  0.16865558577E+04  0.16865558577E+04  0.25500000920E-02 0.  1.
       -2   -1    0    0    0  501  0.00000000000E+00  0.00000000000E+00 -0.21815637660E+04  0.21815637660E+04  0.25500000920E-02 0. -1.
    10030    2    1    2    0    0  0.00000000000E+00  0.00000000000E+00 -0.49500790832E+03  0.38681196237E+04  0.38363154972E+04 0.  0.
        4    1    3    3  502    0 -0.80415787363E+03  0.33367031835E+03  0.14758531456E+04  0.17135197365E+04  0.12699999809E+01 0.  1.
       -4    1    3    3    0  502  0.80415787363E+03 -0.33367031835E+03 -0.19708610539E+04  0.21545998872E+04  0.12699999809E+01 0. -1.
</event>
<event>
 5   0  0.5325362E-07  0.3777057E+04  0.7818609E-02  0.8051096E-01
       -2   -1    0    0    0  501  0.00000000000E+00  0.00000000000E+00  0.17554377915E+04  0.17554377915E+04  0.25500000920E-02 0. -1.
        2   -1    0    0  501    0  0.00000000000E+00  0.00000000000E+00 -0.20317093569E+04  0.20317093569E+04  0.25500000920E-02 0.  1.
    10030    2    1    2    0    0  0.00000000000E+00  0.00000000000E+00 -0.27627156537E+03  0.37871471484E+04  0.37770567305E+04 0.  0.
        4    1    3    3  502    0 -0.10885428156E+04  0.52913735222E+03 -0.15917072372E+04  0.19996112974E+04  0.12699999809E+01 0.  1.
       -4    1    3    3    0  502  0.10885428156E+04 -0.52913735222E+03  0.13154356718E+04  0.17875358510E+04  0.12699999809E+01 0. -1.
</event>
<event>
 5   0  0.1648000E-07  0.3192846E+04  0.7818609E-02  0.8190709E-01
        1   -1    0    0  501    0  0.00000000000E+00  0.00000000000E+00  0.97418989292E+03  0.97418989293E+03  0.50400001928E-02 0. -1.
       -1   -1    0    0    0  501  0.00000000000E+00  0.00000000000E+00 -0.26160884822E+04  0.26160884822E+04  0.50400001928E-02 0.  1.
    10030    2    1    2    0    0  0.00000000000E+00  0.00000000000E+00 -0.16418985892E+04  0.35902783751E+04  0.31928463529E+04 0.  0.
        2    1    3    3  502    0  0.48318836496E+03 -0.73844059012E+03  0.67498451445E+03  0.11110218701E+04  0.25500000920E-02 0. -1.
       -2    1    3    3    0  502 -0.48318836496E+03  0.73844059012E+03 -0.23168831037E+04  0.24792565050E+04  0.25500000920E-02 0.  1.
</event>
<event>
 5   0  0.5202788E-07  0.3701326E+04  0.7818609E-02  0.8067668E-01
       -2   -1    0    0    0  501  0.00000000000E+00  0.00000000000E+00  0.17827092737E+04  0.17827092737E+04  0.25500000920E-02 0. -1.
        2   -1    0    0  501    0  0.00000000000E+00  0.00000000000E+00 -0.19212072258E+04  0.19212072258E+04  0.25500000920E-02 0.  1.
    10030    2    1    2    0    0  0.00000000000E+00  0.00000000000E+00 -0.13849795211E+03  0.37039164995E+04  0.37013262154E+04 0.  0.
        1    1    3    3  502    0 -0.31685908677E+03 -0.68482190044E+03 -0.17602757142E+04  0.19151896267E+04  0.50400001928E-02 0.  1.
       -1    1    3    3    0  502  0.31685908677E+03  0.68482190044E+03  0.16217777620E+04  0.17887268729E+04  0.50400001928E-02 0. -1.
</event>
<event>
 5   0  0.1656617E-07  0.3753688E+04  0.7818609E-02  0.8056167E-01
        1   -1    0    0  501    0  0.00000000000E+00  0.00000000000E+00  0.17061769498E+04  0.17061769498E+04  0.50400001928E-02 0.  1.
       -1   -1    0    0    0  501  0.00000000000E+00  0.00000000000E+00 -0.20645831080E+04  0.20645831080E+04  0.50400001928E-02 0. -1.
    10030    2    1    2    0    0  0.00000000000E+00  0.00000000000E+00 -0.35840615821E+03  0.37707600578E+04  0.37536883780E+04 0.  0.
        5    1    3    3  502    0 -0.11873560864E+04  0.94263027329E+03  0.93224457630E+03  0.17797382808E+04  0.46999998093E+01 0.  1.
       -5    1    3    3    0  502  0.11873560864E+04 -0.94263027329E+03 -0.12906507345E+04  0.19910217770E+04  0.46999998093E+01 0. -1.
</event>
<event>
 5   0  0.1656617E-07  0.3750948E+04  0.7818609E-02  0.8056764E-01
        1   -1    0    0  501    0  0.00000000000E+00  0.00000000000E+00  0.14376882455E+04  0.14376882455E+04  0.50400001928E-02 0. -1.
       -1   -1    0    0    0  501  0.00000000000E+00  0.00000000000E+00 -0.24465680264E+04  0.24465680264E+04  0.50400001928E-02 0.  1.
    10030    2    1    2    0    0  0.00000000000E+00  0.00000000000E+00 -0.10088797809E+04  0.38842562719E+04  0.37509476633E+04 0.  0.
        5    1    3    3  502    0 -0.10355859346E+04 -0.28476025588E+03 -0.20965648039E+04  0.23556597161E+04  0.46999998093E+01 0.  1.
       -5    1    3    3    0  502  0.10355859346E+04  0.28476025588E+03  0.10876850229E+04  0.15285965558E+04  0.46999998093E+01 0. -1.
</event>
<event>
 5   0  0.1656617E-07  0.3849904E+04  0.7818609E-02  0.8035530E-01
       -1   -1    0    0    0  501  0.00000000000E+00  0.00000000000E+00  0.27877981064E+04  0.27877981064E+04  0.50400001928E-02 0.  1.
        1   -1    0    0  501    0  0.00000000000E+00  0.00000000000E+00 -0.13291637433E+04  0.13291637433E+04  0.50400001928E-02 0. -1.
    10030    2    1    2    0    0  0.00000000000E+00  0.00000000000E+00  0.14586343631E+04  0.41169618498E+04  0.38499039815E+04 0.  0.
        5    1    3    3  502    0  0.71343079308E+03  0.15723563313E+04  0.16393043299E+04  0.23808882177E+04  0.46999998093E+01 0.  1.
       -5    1    3    3    0  502 -0.71343079308E+03 -0.15723563313E+04 -0.18066996683E+03  0.17360736321E+04  0.46999998093E+01 0. -1.
</event>
<event>
 5   0  0.1648000E-07  0.3845929E+04  0.7818609E-02  0.8036370E-01
        1   -1    0    0  501    0  0.00000000000E+00  0.00000000000E+00  0.20157159141E+04  0.20157159141E+04  0.50400001928E-02 0.  1.
       -1   -1    0    0    0  501  0.00000000000E+00  0.00000000000E+00 -0.18344805182E+04  0.18344805182E+04  0.50400001928E-02 0. -1.
    10030    2    1    2    0    0  0.00000000000E+00  0.00000000000E+00  0.18123539589E+03  0.38501964322E+04  0.38459285352E+04 0.  0.
        2    1    3    3  502    0  0.46793427299E+03 -0.84808051280E+03  0.17536620943E+04  0.20033805882E+04  0.25500000920E-02 0.  1.
       -2    1    3    3    0  502 -0.46793427299E+03  0.84808051280E+03 -0.15724266984E+04  0.18468158441E+04  0.25500000920E-02 0. -1.
</event>
<event>
 5   0  0.5132561E-07  0.3776645E+04  0.7818609E-02  0.8051185E-01
       -2   -1    0    0    0  501  0.00000000000E+00  0.00000000000E+00  0.15776290233E+04  0.15776290233E+04  0.25500000920E-02 0. -1.
        2   -1    0    0  501    0  0.00000000000E+00  0.00000000000E+00 -0.22602029326E+04  0.22602029326E+04  0.25500000920E-02 0.  1.
    10030    2    1    2    0    0  0.00000000000E+00  0.00000000000E+00 -0.68257390933E+03  0.38378319559E+04  0.37766449370E+04 0.  0.
        3    1    3    3  502    0 -0.42806740868E+03 -0.56970103520E+03  0.14357471073E+04  0.16028632949E+04  0.10100000352E+00 0. -1.
       -3    1    3    3    0  502  0.42806740868E+03  0.56970103520E+03 -0.21183210167E+04  0.22349686610E+04  0.10100000352E+00 0.  1.
</event>
<event>
 5   0  0.5134434E-07  0.3799207E+04  0.7818609E-02  0.8046325E-01
        2   -1    0    0  501    0  0.00000000000E+00  0.00000000000E+00  0.19840757210E+04  0.19840757210E+04  0.25500000920E-02 0. -1.
       -2   -1    0    0    0  501  0.00000000000E+00  0.00000000000E+00 -0.18187275121E+04  0.18187275121E+04  0.25500000920E-02 0.  1.
    10030    2    1    2    0    0  0.00000000000E+00  0.00000000000E+00  0.16534820891E+03  0.38028032331E+04  0.37992068119E+04 0.  0.
        5    1    3    3  502    0 -0.25084245791E+03  0.18385386677E+04  0.48966032917E+03  0.19190976263E+04  0.46999998093E+01 0.  1.
       -5    1    3    3    0  502  0.25084245791E+03 -0.18385386677E+04 -0.32431212026E+03  0.18837056067E+04  0.46999998093E+01 0. -1.
</event>
<event>
 5   0  0.5158266E-07  0.3751903E+04  0.7818609E-02  0.8056556E-01
        2   -1    0    0  501    0  0.00000000000E+00  0.00000000000E+00  0.23837950173E+04  0.23837950173E+04  0.25500000920E-02 0.  1.
       -2   -1    0    0    0  501  0.00000000000E+00  0.00000000000E+00 -0.14762988206E+04  0.14762988206E+04  0.25500000920E-02 0. -1.
    10030    2    1    2    0    0  0.00000000000E+00  0.00000000000E+00  0.90749619667E+03  0.38600938380E+04  0.37519028627E+04 0.  0.
        2    1    3    3  502    0  0.73796734867E+03  0.10025710370E+04 -0.99009059730E+03  0.15906048795E+04  0.25500000920E-02 0. -1.
       -2    1    3    3    0  502 -0.73796734867E+03 -0.10025710370E+04  0.18975867940E+04  0.22694889584E+04  0.25500000920E-02 0.  1.
</event>
<event>
 5   0  0.1648000E-07  0.3221081E+04  0.7818609E-02  0.8183272E-01
       -1   -1    0    0    0  501  0.00000000000E+00  0.00000000000E+00  0.18618476010E+04  0.18618476010E+04  0.50400001928E-02 0.  1.
        1   -1    0    0  501    0  0.00000000000E+00  0.00000000000E+00 -0.13931543553E+04  0.13931543553E+04  0.50400001928E-02 0. -1.
    10030    2    1    2    0    0  0.00000000000E+00  0.00000000000E+00  0.46869324567E+03  0.32550019564E+04  0.32210812435E+04 0.  0.
        4    1    3    3  502    0  0.15748660911E+04  0.10226839841E+03  0.55894173258E+03  0.16742399779E+04  0.12699999809E+01 0.  1.
       -4    1    3    3    0  502 -0.15748660911E+04 -0.10226839841E+03 -0.90248486907E+02  0.15807619785E+04  0.12699999809E+01 0. -1.
</event>
<event>
 5   0  0.5202788E-07  0.3342981E+04  0.7818609E-02  0.8152044E-01
        2   -1    0    0  501    0  0.00000000000E+00  0.00000000000E+00  0.25212793369E+04  0.25212793369E+04  0.25500000920E-02 0. -1.
       -2   -1    0    0    0  501  0.00000000000E+00  0.00000000000E+00 -0.11081203969E+04  0.11081203969E+04  0.25500000920E-02 0.  1.
    10030    2    1    2    0    0  0.00000000000E+00  0.00000000000E+00  0.14131589400E+04  0.36293997338E+04  0.33429813398E+04 0.  0.
        1    1    3    3  502    0  0.13608091455E+04  0.53089567330E+03  0.15887412784E+04  0.21581822435E+04  0.50400001928E-02 0. -1.
       -1    1    3    3    0  502 -0.13608091455E+04 -0.53089567330E+03 -0.17558233836E+03  0.14712174903E+04  0.50400001928E-02 0.  1.
</event>
<event>
 5   0  0.1648000E-07  0.3819158E+04  0.7818609E-02  0.8042056E-01
        1   -1    0    0  501    0  0.00000000000E+00  0.00000000000E+00  0.27792486985E+04  0.27792486985E+04  0.50400001928E-02 0. -1.
       -1   -1    0    0    0  501  0.00000000000E+00  0.00000000000E+00 -0.13120424127E+04  0.13120424127E+04  0.50400001928E-02 0.  1.
    10030    2    1    2    0    0  0.00000000000E+00  0.00000000000E+00  0.14672062859E+04  0.40912911112E+04  0.38191581103E+04 0.  0.
        2    1    3    3  502    0  0.72125637749E+03  0.27685855774E+03 -0.11371495230E+04  0.13747619651E+04  0.25500000920E-02 0.  1.
       -2    1    3    3    0  502 -0.72125637749E+03 -0.27685855774E+03  0.26043558088E+04  0.27165291462E+04  0.25500000920E-02 0. -1.
</event>
<event>
 5   0  0.1648000E-07  0.3813198E+04  0.7818609E-02  0.8043329E-01
        1   -1    0    0  501    0  0.00000000000E+00  0.00000000000E+00  0.15089911738E+04  0.15089911738E+04  0.50400001928E-02 0. -1.
       -1   -1    0    0    0  501  0.00000000000E+00  0.00000000000E+00 -0.24089734196E+04  0.24089734196E+04  0.50400001928E-02 0.  1.
    10030    2    1    2    0    0  0.00000000000E+00  0.00000000000E+00 -0.89998224574E+03  0.39179645934E+04  0.38131979377E+04 0.  0.
        1    1    3    3  502    0  0.35965436423E+03  0.13557615793E+04  0.87687582290E+03  0.16541922290E+04  0.50400001928E-02 0. -1.
       -1    1    3    3    0  502 -0.35965436423E+03 -0.13557615793E+04 -0.17768580686E+04  0.22637723644E+04  0.50400001928E-02 0.  1.
</event>
<event>
 5   0  0.1648000E-07  0.3855684E+04  0.7818609E-02  0.8034310E-01
       -1   -1    0    0    0  501  0.00000000000E+00  0.00000000000E+00  0.26942623536E+04  0.26942623536E+04  0.50400001928E-02 0. -1.
        1   -1    0    0  501    0  0.00000000000E+00  0.00000000000E+00 -0.13794408797E+04  0.13794408797E+04  0.50400001928E-02 0.  1.
    10030    2    1    2    0    0  0.00000000000E+00  0.00000000000E+00  0.13148214739E+04  0.40737032333E+04  0.38556844431E+04 0.  0.
        3    1    3    3  502    0  0.19976355254E+03 -0.42870932503E+03 -0.13171915764E+04  0.13995323581E+04  0.10100000352E+00 0.  1.
       -3    1    3    3    0  502 -0.19976355254E+03  0.42870932503E+03  0.26320130503E+04  0.26741708751E+04  0.10100000352E+00 0. -1.
</event>
<event>
 5   0  0.1648000E-07  0.3779560E+04  0.7818609E-02  0.8050555E-01
       -1   -1    0    0    0  501  0.00000000000E+00  0.00000000000E+00  0.15166888841E+04  0.15166888841E+04  0.50400001928E-02 0. -1.
        1   -1    0    0  501    0  0.00000000000E+00  0.00000000000E+00 -0.23546485708E+04  0.23546485708E+04  0.50400001928E-02 0.  1.
    10030    2    1    2    0    0  0.00000000000E+00  0.00000000000E+00 -0.83795968672E+03  0.38713374549E+04  0.37795604576E+04 0.  0.
        2    1    3    3  502    0 -0.98216902878E+02 -0.18169757409E+03 -0.23430525793E+04  0.23521385924E+04  0.25500000920E-02 0.  1.
       -2    1    3    3    0  502  0.98216902878E+02  0.18169757409E+03  0.15050928926E+04  0.15191988625E+04  0.25500000920E-02 0. -1.
</event>
<event>
 5   0  0.1648000E-07  0.3813144E+04  0.7818609E-02  0.8043340E-01
       -1   -1    0    0    0  501  0.00000000000E+00  0.00000000000E+00  0.13710356059E+04  0.13710356059E+04  0.50400001928E-02 0.  1.
        1   -1    0    0  501    0  0.00000000000E+00  0.00000000000E+00 -0.26512928497E+04  0.26512928497E+04  0.50400001928E-02 0. -1.
    10030    2    1    2    0    0  0.00000000000E+00  0.00000000000E+00 -0.12802572438E+04  0.40223284557E+04  0.38131440564E+04 0.  0.
        3    1    3    3  502    0 -0.18746760086E+04 -0.33554757380E+03 -0.54569326536E+03  0.19811066255E+04  0.10100000352E+00 0. -1.
       -3    1    3    3    0  502  0.18746760086E+04  0.33554757380E+03 -0.73456397844E+03  0.20412218302E+04  0.10100000352E+00 0.  1.
</event>
<event>
 5   0  0.1648000E-07  0.3856667E+04  0.7818609E-02  0.8034103E-01
       -1   -1    0    0    0  501  0.00000000000E+00  0.00000000000E+00  0.18821455213E+04  0.18821455213E+04  0.50400001928E-02 0. -1.
        1   -1    0    0  501    0  0.00000000000E+00  0.00000000000E+00 -0.19756548083E+04  0.19756548083E+04  0.50400001928E-02 0.  1.
    10030    2    1    2    0    0  0.00000000000E+00  0.00000000000E+00 -0.93509286963E+02  0.38578003296E+04  0.38566668765E+04 0.  0.
        1    1    3    3  502    0  0.30756706740E+03 -0.81224179061E+02 -0.19492271105E+04  0.19750142269E+04  0.50400001928E-02 0.  1.
       -1    1    3    3    0  502 -0.30756706740E+03  0.81224179061E+02  0.18557178235E+04  0.18827861027E+04  0.50400001928E-02 0. -1.
</event>
<event>
 5   0  0.1648000E-07  0.2988983E+04  0.7818609E-02  0.8246884E-01
        1   -1    0    0  501    0  0.00000000000E+00  0.00000000000E+00  0.20503003084E+04  0.20503003085E+04  0.50400001928E-02 0.  1.
       -1   -1    0    0    0  501  0.00000000000E+00  0.00000000000E+00 -0.10893547648E+04  0.10893547648E+04  0.50400001928E-02 0. -1.
    10030    2    1    2    0    0  0.00000000000E+00  0.00000000000E+00  0.96094554369E+03  0.31396550732E+04  0.29889827100E+04 0.  0.
        2    1    3    3  502    0  0.12872472093E+04  0.72901048866E+03  0.70340401344E+03  0.16380594851E+04  0.25500000920E-02 0.  1.
       -2    1    3    3    0  502 -0.12872472093E+04 -0.72901048866E+03  0.25754153025E+03  0.15015955881E+04  0.25500000920E-02 0. -1.
</event>
<event>
 5   0  0.5158266E-07  0.3812163E+04  0.7818609E-02  0.8043550E-01
        2   -1    0    0  501    0  0.00000000000E+00  0.00000000000E+00  0.23161210934E+04  0.23161210934E+04  0.25500000920E-02 0. -1.
       -2   -1    0    0    0  501  0.00000000000E+00  0.00000000000E+00 -0.15686340568E+04  0.15686340568E+04  0.25500000920E-02 0.  1.
    10030    2    1    2    0    0  0.00000000000E+00  0.00000000000E+00  0.74748703669E+03  0.38847551502E+04  0.38121628647E+04 0.  0.
        2    1    3    3  502    0  0.30249329797E+03  0.68820353315E+03 -0.14111869666E+04  0.15989293146E+04  0.25500000920E-02 0.  1.
       -2    1    3    3    0  502 -0.30249329797E+03 -0.68820353315E+03  0.21586740033E+04  0.22858258356E+04  0.25500000920E-02 0. -1.
</event>
<event>
 5   0  0.1648000E-07  0.3978815E+04  0.7818609E-02  0.8008834E-01
       -1   -1    0    0    0  501  0.00000000000E+00  0.00000000000E+00  0.22736038100E+04  0.22736038100E+04  0.50400001928E-02 0.  1.
        1   -1    0    0  501    0  0.00000000000E+00  0.00000000000E+00 -0.17407351880E+04  0.17407351880E+04  0.50400001928E-02 0. -1.
    10030    2    1    2    0    0  0.00000000000E+00  0.00000000000E+00  0.53286862202E+03  0.40143389980E+04  0.39788149772E+04 0.  0.
        2    1    3    3  502    0  0.11166422549E+04 -0.56931468082E+03 -0.12922645627E+04  0.18002657668E+04  0.25500000920E-02 0. -1.
       -2    1    3    3    0  502 -0.11166422549E+04  0.56931468082E+03  0.18251331847E+04  0.22140732312E+04  0.25500000920E-02 0.  1.
</event>
<event>
 5   0  0.1656617E-07  0.3840627E+04  0.7818609E-02  0.8037492E-01
       -1   -1    0    0    0  501  0.00000000000E+00  0.00000000000E+00  0.19775598907E+04  0.19775598907E+04  0.50400001928E-02 0. -1.
        1   -1    0    0  501    0  0.00000000000E+00  0.00000000000E+00 -0.18647238939E+04  0.18647238939E+04  0.50400001928E-02 0.  1.
    10030    2    1    2    0    0  0.00000000000E+00  0.00000000000E+00  0.11283599686E+03  0.38422837846E+04  0.38406266051E+04 0.  0.
        5    1    3    3  502    0  0.18559455217E+04  0.16131079697E+02  0.54936491508E+03  0.19356182194E+04  0.46999998093E+01 0. -1.
       -5    1    3    3    0  502 -0.18559455217E+04 -0.16131079697E+02 -0.43652891822E+03  0.19066655653E+04  0.46999998093E+01 0.  1.
</event>
<event>
 5   0  0.5132561E-07  0.3921550E+04  0.7818609E-02  0.8020562E-01
        2   -1    0    0  501    0  0.00000000000E+00  0.00000000000E+00  0.19271965579E+04  0.19271965579E+04  0.25500000920E-02 0. -1.
       -2   -1    0    0    0  501  0.00000000000E+00  0.00000000000E+00 -0.19949387619E+04  0.19949387619E+04  0.25500000920E-02 0.  1.
    10030    2    1    2    0    0  0.00000000000E+00  0.00000000000E+00 -0.67742203990E+02  0.39221353198E+04  0.39215502624E+04 0.  0.
        3    1    3    3  502    0  0.22929281267E+03 -0.15519244453E+04  0.11425672924E+04  0.19407484911E+04  0.10100000352E+00 0.  1.
       -3    1    3    3    0  502 -0.22929281267E+03  0.15519244453E+04 -0.12103094963E+04  0.19813868287E+04  0.10100000352E+00 0. -1.
</event>
<event>
 5   0  0.5132561E-07  0.4056261E+04  0.7818609E-02  0.7993292E-01
        2   -1    0    0  501    0  0.00000000000E+00  0.00000000000E+00  0.15254180250E+04  0.15254180250E+04  0.25500000920E-02 0. -1.
       -2   -1    0    0    0  501  0.00000000000E+00  0.00000000000E+00 -0.26965159068E+04  0.26965159068E+04  0.25500000920E-02 0.  1.
    10030    2    1    2    0    0  0.00000000000E+00  0.00000000000E+00 -0.11710978818E+04  0.42219339318E+04  0.40562613175E+04 0.  0.
        3    1    3    3  502    0 -0.18969091611E+04  0.37836303630E+03  0.49187371995E+02  0.19349011242E+04  0.10100000352E+00 0. -1.
       -3    1    3    3    0  502  0.18969091611E+04 -0.37836303630E+03 -0.12202852538E+04  0.22870328077E+04  0.10100000352E+00 0.  1.
</event>
<event>
 5   0  0.5325362E-07  0.3759455E+04  0.7818609E-02  0.8054912E-01
       -2   -1    0    0    0  501  0.00000000000E+00  0.00000000000E+00  0.15976503749E+04  0.15976503749E+04  0.25500000920E-02 0. -1.
        2   -1    0    0  501    0  0.00000000000E+00  0.00000000000E+00 -0.22116069248E+04  0.22116069248E+04  0.25500000920E-02 0.  1.
    10030    2    1    2    0    0  0.00000000000E+00  0.00000000000E+00 -0.61395654996E+03  0.38092572997E+04  0.37594545522E+04 0.  0.
        4    1    3    3  502    0  0.10609361277E+04 -0.53324031276E+03 -0.17834859332E+04  0.21426045797E+04  0.12699999809E+01 0.  1.
       -4    1    3    3    0  502 -0.10609361277E+04  0.53324031276E+03  0.11695293832E+04  0.16666527200E+04  0.12699999809E+01 0. -1.
</event>
<event>
 5   0  0.5132561E-07  0.3813671E+04  0.7818609E-02  0.8043228E-01
       -2   -1    0    0    0  501  0.00000000000E+00  0.00000000000E+00  0.24443748819E+04  0.24443748819E+04  0.25500000920E-02 0.  1.
        2   -1    0    0  501    0  0.00000000000E+00  0.00000000000E+00 -0.14875056340E+04  0.14875056340E+04  0.25500000920E-02 0. -1.
    10030    2    1    2    0    0  0.00000000000E+00  0.00000000000E+00  0.95686924794E+03  0.39318805160E+04  0.38136708870E+04 0.  0.
        3    1    3    3  502    0 -0.48544441025E+03  0.81045889618E+03  0.21861334676E+04  0.23815288044E+04  0.10100000352E+00 0.  1.
       -3    1    3    3    0  502  0.48544441025E+03 -0.81045889618E+03 -0.12292642196E+04  0.15503517116E+04  0.10100000352E+00 0. -1.
</event>
<event>
 5   0  0.5202788E-07  0.2852458E+04  0.7818609E-02  0.8287165E-01
        2   -1    0    0  501    0  0.00000000000E+00  0.00000000000E+00  0.25465806579E+04  0.25465806579E+04  0.25500000920E-02 0. -1.
       -2   -1    0    0    0  501  0.00000000000E+00  0.00000000000E+00 -0.79876877187E+03  0.79876877188E+03  0.25500000920E-02 0.  1.
    10030    2    1    2    0    0  0.00000000000E+00  0.00000000000E+00  0.17478118860E+04  0.33453494298E+04  0.28524579608E+04 0.  0.
        1    1    3    3  502    0  0.13562617583E+04 -0.91309274284E+02  0.13801757149E+04  0.19371805142E+04  0.50400001928E-02 0. -1.
       -1    1    3    3    0  502 -0.13562617583E+04  0.91309274284E+02  0.36763617110E+03  0.14081689156E+04  0.50400001928E-02 0.  1.
</event>
<event>
 5   0  0.5132561E-07  0.3785060E+04  0.7818609E-02  0.8049369E-01
       -2   -1    0    0    0  501  0.00000000000E+00  0.00000000000E+00  0.14893396641E+04  0.14893396641E+04  0.25500000920E-02 0. -1.
        2   -1    0    0  501    0  0.00000000000E+00  0.00000000000E+00 -0.24048712946E+04  0.24048712946E+04  0.25500000920E-02 0.  1.
    10030    2    1    2    0    0  0.00000000000E+00  0.00000000000E+00 -0.91553163056E+03  0.38942109587E+04  0.37850602141E+04 0.  0.
        3    1    3    3  502    0 -0.46737871370E+03 -0.39090986228E+03  0.13856673320E+04  0.15137130995E+04  0.10100000352E+00 0. -1.
       -3    1    3    3    0  502  0.46737871370E+03  0.39090986228E+03 -0.23011989625E+04  0.23804978592E+04  0.10100000352E+00 0.  1.
</event>
<event>
 5   0  0.5134434E-07  0.3787628E+04  0.7818609E-02  0.8048815E-01
       -2   -1    0    0    0  501  0.00000000000E+00  0.00000000000E+00  0.16182863777E+04  0.16182863777E+04  0.25500000920E-02 0. -1.
        2   -1    0    0  501    0  0.00000000000E+00  0.00000000000E+00 -0.22162522020E+04  0.22162522020E+04  0.25500000920E-02 0.  1.
    10030    2    1    2    0    0  0.00000000000E+00  0.00000000000E+00 -0.59796582431E+03  0.38345385797E+04  0.37876276205E+04 0.  0.
        5    1    3    3  502    0 -0.73744295529E+02  0.55391185242E+02  0.16160054614E+04  0.16186420684E+04  0.46999998093E+01 0. -1.
       -5    1    3    3    0  502  0.73744295529E+02 -0.55391185242E+02 -0.22139712857E+04  0.22158965112E+04  0.46999998093E+01 0.  1.
</event>
<event>
 5   0  0.1648000E-07  0.3745420E+04  0.7818609E-02  0.8057970E-01
       -1   -1    0    0    0  501  0.00000000000E+00  0.00000000000E+00  0.15473106723E+04  0.15473106723E+04  0.50400001928E-02 0. -1.
        1   -1    0    0  501    0  0.00000000000E+00  0.00000000000E+00 -0.22665403419E+04  0.22665403419E+04  0.50400001928E-02 0.  1.
    10030    2    1    2    0    0  0.00000000000E+00  0.00000000000E+00 -0.71922966959E+03  0.38138510141E+04  0.37454196348E+04 0.  0.
        3    1    3    3  502    0 -0.10576859576E+03 -0.13781786803E+03 -0.22583173384E+04  0.22649896185E+04  0.10100000352E+00 0.  1.
       -3    1    3    3    0  502  0.10576859576E+03  0.13781786803E+03  0.15390876688E+04  0.15488613957E+04  0.10100000352E+00 0. -1.
</event>
<event>
 5   0  0.1648000E-07  0.3469054E+04  0.7818609E-02  0.8121163E-01
       -1   -1    0    0    0  501  0.00000000000E+00  0.00000000000E+00  0.13146032350E+04  0.13146032350E+04  0.50400001928E-02 0.  1.
        1   -1    0    0  501    0  0.00000000000E+00  0.00000000000E+00 -0.22885865978E+04  0.22885865978E+04  0.50400001928E-02 0. -1.
    10030    2    1    2    0    0  0.00000000000E+00  0.00000000000E+00 -0.97398336273E+03  0.36031898328E+04  0.34690536721E+04 0.  0.
        1    1    3    3  502    0 -0.92297161456E+03  0.77901878905E+03  0.80606946514E+03  0.14520657208E+04  0.50400001928E-02 0.  1.
       -1    1    3    3    0  502  0.92297161456E+03 -0.77901878905E+03 -0.17800528279E+04  0.21511241119E+04  0.50400001928E-02 0. -1.
</event>
<event>
 5   0  0.1648000E-07  0.3704345E+04  0.7818609E-02  0.8067000E-01
       -1   -1    0    0    0  501  0.00000000000E+00  0.00000000000E+00  0.27754421019E+04  0.27754421019E+04  0.50400001928E-02 0. -1.
        1   -1    0    0  501    0  0.00000000000E+00  0.00000000000E+00 -0.12360344992E+04  0.12360344992E+04  0.50400001928E-02 0.  1.
    10030    2    1    2    0    0  0.00000000000E+00  0.00000000000E+00  0.15394076027E+04  0.40114766011E+04  0.37043445782E+04 0.  0.
        3    1    3    3  502    0  0.23081421058E+03  0.56162789771E+03  0.26645946935E+04  0.27329043134E+04  0.10100000352E+00 0. -1.
       -3    1    3    3    0  502 -0.23081421058E+03 -0.56162789771E+03 -0.11251870908E+04  0.12785722877E+04  0.10100000352E+00 0.  1.
</event>
<event>
 5   0  0.1648000E-07  0.3984876E+04  0.7818609E-02  0.8007604E-01
        1   -1    0    0  501    0  0.00000000000E+00  0.00000000000E+00  0.15889365979E+04  0.15889365979E+04  0.50400001928E-02 0.  1.
       -1   -1    0    0    0  501  0.00000000000E+00  0.00000000000E+00 -0.24984064241E+04  0.24984064241E+04  0.50400001928E-02 0. -1.
    10030    2    1    2    0    0  0.00000000000E+00  0.00000000000E+00 -0.90946982621E+03  0.40873430220E+04  0.39848761103E+04 0.  0.
        1    1    3    3  502    0  0.12827891383E+03 -0.67502914989E+02  0.15835208654E+04  0.15901416461E+04  0.50400001928E-02 0.  1.
       -1    1    3    3    0  502 -0.12827891383E+03  0.67502914989E+02 -0.24929906916E+04  0.24972013759E+04  0.50400001928E-02 0. -1.
</event>
<event>
 5   0  0.1648000E-07  0.3833604E+04  0.7818609E-02  0.8038982E-01
       -1   -1    0    0    0  501  0.00000000000E+00  0.00000000000E+00  0.27832053365E+04  0.27832053365E+04  0.50400001928E-02 0.  1.
        1   -1    0    0  501    0  0.00000000000E+00  0.00000000000E+00 -0.13201073046E+04  0.13201073046E+04  0.50400001928E-02 0. -1.
    10030    2    1    2    0    0  0.00000000000E+00  0.00000000000E+00  0.14630980320E+04  0.41033126411E+04  0.38336038892E+04 0.  0.
        4    1    3    3  502    0  0.42618957032E+03 -0.17879170993E+04  0.14936804786E+03  0.18440709126E+04  0.12699999809E+01 0. -1.
       -4    1    3    3    0  502 -0.42618957032E+03  0.17879170993E+04  0.13137299841E+04  0.22592417285E+04  0.12699999809E+01 0.  1.
</event>
<event>
 5   0  0.5325362E-07  0.3507188E+04  0.7818609E-02  0.8112089E-01
        2   -1    0    0  501    0  0.00000000000E+00  0.00000000000E+00  0.23869241266E+04  0.23869241266E+04  0.25500000920E-02 0. -1.
       -2   -1    0    0    0  501  0.00000000000E+00  0.00000000000E+00 -0.12883074278E+04  0.12883074278E+04  0.25500000920E-02 0.  1.
    10030    2    1    2    0    0  0.00000000000E+00  0.00000000000E+00  0.10986166989E+04  0.36752315544E+04  0.35071880941E+04 0.  0.
        4    1    3    3  502    0  0.96084140779E+03  0.12781417016E+04  0.13036812972E+04  0.20631163220E+04  0.12699999809E+01 0. -1.
       -4    1    3    3    0  502 -0.96084140779E+03 -0.12781417016E+04 -0.20506459835E+03  0.16121152325E+04  0.12699999809E+01 0.  1.
</event>
<event>
 5   0  0.5134434E-07  0.3736726E+04  0.7818609E-02  0.8059871E-01
        2   -1    0    0  501    0  0.00000000000E+00  0.00000000000E+00  0.20976512533E+04  0.20976512533E+04  0.25500000920E-02 0. -1.
       -2   -1    0    0    0  501  0.00000000000E+00  0.00000000000E+00 -0.16641375873E+04  0.16641375873E+04  0.25500000920E-02 0.  1.
    10030    2    1    2    0    0  0.00000000000E+00  0.00000000000E+00  0.43351366596E+03  0.37617888406E+04  0.37367259978E+04 0.  0.
        5    1    3    3  502    0  0.17993056659E+04 -0.18095698802E+03  0.68949337127E+03  0.19353732224E+04  0.46999998093E+01 0. -1.
       -5    1    3    3    0  502 -0.17993056659E+04  0.18095698802E+03 -0.25597970531E+03  0.18264156182E+04  0.46999998093E+01 0.  1.
</event>
<event>
 5   0  0.1648000E-07  0.3800396E+04  0.7818609E-02  0.8046070E-01
        1   -1    0    0  501    0  0.00000000000E+00  0.00000000000E+00  0.29636471043E+04  0.29636471043E+04  0.50400001928E-02 0. -1.
       -1   -1    0    0    0  501  0.00000000000E+00  0.00000000000E+00 -0.12183476607E+04  0.12183476607E+04  0.50400001928E-02 0.  1.
    10030    2    1    2    0    0  0.00000000000E+00  0.00000000000E+00  0.17452994436E+04  0.41819947650E+04  0.38003960407E+04 0.  0.
        1    1    3    3  502    0  0.81647473060E+03 -0.18294345897E+03 -0.10047202234E+04  0.13075022074E+04  0.50400001928E-02 0.  1.
       -1    1    3    3    0  502 -0.81647473060E+03  0.18294345897E+03  0.27500196670E+04  0.28744925576E+04  0.50400001928E-02 0. -1.
</event>
<event>
 5   0  0.5132561E-07  0.3819992E+04  0.7818609E-02  0.8041878E-01
        2   -1    0    0  501    0  0.00000000000E+00  0.00000000000E+00  0.16891069003E+04  0.16891069003E+04  0.25500000920E-02 0.  1.
       -2   -1    0    0    0  501  0.00000000000E+00  0.00000000000E+00 -0.21597716796E+04  0.21597716796E+04  0.25500000920E-02 0. -1.
    10030    2    1    2    0    0  0.00000000000E+00  0.00000000000E+00 -0.47066477928E+03  0.38488785800E+04  0.38199922760E+04 0.  0.
        3    1    3    3  502    0 -0.24333130011E+03 -0.12267349782E+04  0.12191893242E+04  0.17465713403E+04  0.10100000352E+00 0.  1.
       -3    1    3    3    0  502  0.24333130011E+03  0.12267349782E+04 -0.16898541035E+04  0.21023072396E+04  0.10100000352E+00 0. -1.
</event>
<event>
 5   0  0.5202788E-07  0.3600915E+04  0.7818609E-02  0.8090282E-01
       -2   -1    0    0    0  501  0.00000000000E+00  0.00000000000E+00  0.20265922272E+04  0.20265922272E+04  0.25500000920E-02 0.  1.
        2   -1    0    0  501    0  0.00000000000E+00  0.00000000000E+00 -0.15995557627E+04  0.15995557628E+04  0.25500000920E-02 0. -1.
    10030    2    1    2    0    0  0.00000000000E+00  0.00000000000E+00  0.42703646449E+03  0.36261479900E+04  0.36009150370E+04 0.  0.
        1    1    3    3  502    0 -0.74208734988E+02  0.16221625081E+04 -0.56957432663E+03  0.17208524203E+04  0.50400001928E-02 0. -1.
       -1    1    3    3    0  502  0.74208734988E+02 -0.16221625081E+04  0.99661079112E+03  0.19052955697E+04  0.50400001928E-02 0.  1.
</event>
<event>
 5   0  0.5158266E-07  0.3839046E+04  0.7818609E-02  0.8037827E-01
       -2   -1    0    0    0  501  0.00000000000E+00  0.00000000000E+00  0.15911343887E+04  0.15911343887E+04  0.25500000920E-02 0. -1.
        2   -1    0    0  501    0  0.00000000000E+00  0.00000000000E+00 -0.23156863123E+04  0.23156863123E+04  0.25500000920E-02 0.  1.
    10030    2    1    2    0    0  0.00000000000E+00  0.00000000000E+00 -0.72455192357E+03  0.39068207011E+04  0.38390457799E+04 0.  0.
        2    1    3    3  502    0  0.41655983062E+03  0.79828927637E+03  0.13628744579E+04  0.16334670640E+04  0.25500000920E-02 0. -1.
       -2    1    3    3    0  502 -0.41655983062E+03 -0.79828927637E+03 -0.20874263814E+04  0.22733536371E+04  0.25500000920E-02 0.  1.
</event>
<event>
 5   0  0.1648000E-07  0.3083942E+04  0.7818609E-02  0.8220159E-01
       -1   -1    0    0    0  501  0.00000000000E+00  0.00000000000E+00  0.15982393347E+04  0.15982393347E+04  0.50400001928E-02 0.  1.
        1   -1    0    0  501    0  0.00000000000E+00  0.00000000000E+00 -0.14876837189E+04  0.14876837189E+04  0.50400001928E-02 0. -1.
    10030    2    1    2    0    0  0.00000000000E+00  0.00000000000E+00  0.11055561582E+03  0.30859230536E+04  0.30839420469E+04 0.  0.
        2    1    3    3  502    0  0.25595058646E+03 -0.49307652426E+03 -0.13840617884E+04  0.14913960559E+04  0.25500000920E-02 0. -1.
       -2    1    3    3    0  502 -0.25595058646E+03  0.49307652426E+03  0.14946174042E+04  0.15945269977E+04  0.25500000920E-02 0.  1.
</event>
<event>
 5   0  0.1648000E-07  0.3956137E+04  0.7818609E-02  0.8013454E-01
       -1   -1    0    0    0  501  0.00000000000E+00  0.00000000000E+00  0.17073331051E+04  0.17073331051E+04  0.50400001928E-02 0.  1.
        1   -1    0    0  501    0  0.00000000000E+00  0.00000000000E+00 -0.22917354086E+04  0.22917354086E+04  0.50400001928E-02 0. -1.
    10030    2    1    2    0    0  0.00000000000E+00  0.00000000000E+00 -0.58440230344E+03  0.39990685137E+04  0.39561373744E+04 0.  0.
        4    1    3    3  502    0 -0.90395887791E+03 -0.16278195067E+04 -0.96714145814E+03  0.20981663929E+04  0.12699999809E+01 0. -1.
       -4    1    3    3    0  502  0.90395887791E+03  0.16278195067E+04  0.38273915470E+03  0.19009021208E+04  0.12699999809E+01 0.  1.
</event>
<event>
 5   0  0.5134434E-07  0.3841376E+04  0.7818609E-02  0.8037333E-01
        2   -1    0    0  501    0  0.00000000000E+00  0.00000000000E+00  0.13600412814E+04  0.13600412814E+04  0.25500000920E-02 0. -1.
       -2   -1    0    0    0  501  0.00000000000E+00  0.00000000000E+00 -0.27124492540E+04  0.27124492540E+04  0.25500000920E-02 0.  1.
    10030    2    1    2    0    0  0.00000000000E+00  0.00000000000E+00 -0.13524079726E+04  0.40724905354E+04  0.38413762946E+04 0.  0.
        5    1    3    3  502    0 -0.96015613466E+02  0.79188812661E+03 -0.25285254824E+04  0.26513711563E+04  0.46999998093E+01 0.  1.
       -5    1    3    3    0  502  0.96015613466E+02 -0.79188812661E+03  0.11761175098E+04  0.14211193792E+04  0.46999998093E+01 0. -1.
</event>
<event>
 5   0  0.1648000E-07  0.3755085E+04  0.7818609E-02  0.8055863E-01
        1   -1    0    0  501    0  0.00000000000E+00  0.00000000000E+00  0.13006311897E+04  0.13006311897E+04  0.50400001928E-02 0. -1.
       -1   -1    0    0    0  501  0.00000000000E+00  0.00000000000E+00 -0.27103497482E+04  0.27103497482E+04  0.50400001928E-02 0.  1.
    10030    2    1    2    0    0  0.00000000000E+00  0.00000000000E+00 -0.14097185585E+04  0.40109809379E+04  0.37550847753E+04 0.  0.
        2    1    3    3  502    0  0.31542924542E+03 -0.11456013410E+04  0.84791409737E+03  0.14597453058E+04  0.25500000920E-02 0. -1.
       -2    1    3    3    0  502 -0.31542924542E+03  0.11456013410E+04 -0.22576326559E+04  0.25512356321E+04  0.25500000920E-02 0.  1.
</event>
<event>
 5   0  0.1656617E-07  0.3431443E+04  0.7818609E-02  0.8130232E-01
        1   -1    0    0  501    0  0.00000000000E+00  0.00000000000E+00  0.27652376997E+04  0.27652376997E+04  0.50400001928E-02 0. -1.
       -1   -1    0    0    0  501  0.00000000000E+00  0.00000000000E+00 -0.10645380839E+04  0.10645380839E+04  0.50400001928E-02 0.  1.
    10030    2    1    2    0    0  0.00000000000E+00  0.00000000000E+00  0.17006996159E+04  0.38297757836E+04  0.34314433362E+04 0.  0.
        5    1    3    3  502    0  0.30593570457E+02  0.39085360404E+02  0.27644290435E+04  0.27648785974E+04  0.46999998093E+01 0. -1.
       -5    1    3    3    0  502 -0.30593570457E+02 -0.39085360404E+02 -0.10637294276E+04  0.10648971862E+04  0.46999998093E+01 0.  1.
</event>
<event>
 5   0  0.1648000E-07  0.3804185E+04  0.7818609E-02  0.8045257E-01
        1   -1    0    0  501    0  0.00000000000E+00  0.00000000000E+00  0.18810516084E+04  0.18810516084E+04  0.50400001928E-02 0. -1.
       -1   -1    0    0    0  501  0.00000000000E+00  0.00000000000E+00 -0.19233688624E+04  0.19233688624E+04  0.50400001928E-02 0.  1.
    10030    2    1    2    0    0  0.00000000000E+00  0.00000000000E+00 -0.42317254062E+02  0.38044204708E+04  0.38041851123E+04 0.  0.
        4    1    3    3  502    0  0.15982761175E+04 -0.10248061861E+04 -0.13623186824E+03  0.19034902158E+04  0.12699999809E+01 0.  1.
       -4    1    3    3    0  502 -0.15982761175E+04  0.10248061861E+04  0.93914614183E+02  0.19009302550E+04  0.12699999809E+01 0. -1.
</event>
<event>
 5   0  0.1648000E-07  0.3773541E+04  0.7818609E-02  0.8051857E-01
       -1   -1    0    0    0  501  0.00000000000E+00  0.00000000000E+00  0.31251344734E+04  0.31251344734E+04  0.50400001928E-02 0.  1.
        1   -1    0    0  501    0  0.00000000000E+00  0.00000000000E+00 -0.11391201566E+04  0.11391201566E+04  0.50400001928E-02 0. -1.
    10030    2    1    2    0    0  0.00000000000E+00  0.00000000000E+00  0.19860143168E+04  0.42642546300E+04  0.37735413980E+04 0.  0.
        3    1    3    3  502    0  0.57019135625E+03 -0.10135619305E+04 -0.68595988895E+03  0.13501729331E+04  0.10100000352E+00 0. -1.
       -3    1    3    3    0  502 -0.57019135625E+03  0.10135619305E+04  0.26719742058E+04  0.29140816969E+04  0.10100000352E+00 0.  1.
</event>
<event>
 5   0  0.1656617E-07  0.3567741E+04  0.7818609E-02  0.8097921E-01
        1   -1    0    0  501    0  0.00000000000E+00  0.00000000000E+00  0.20459632054E+04  0.20459632054E+04  0.50400001928E-02 0.  1.
       -1   -1    0    0    0  501  0.00000000000E+00  0.00000000000E+00 -0.15553521336E+04  0.15553521336E+04  0.50400001928E-02 0. -1.
    10030    2    1    2    0    0  0.00000000000E+00  0.00000000000E+00  0.49061107175E+03  0.36013153390E+04  0.35677405942E+04 0.  0.
        5    1    3    3  502    0  0.14862117332E+04  0.18499446132E+03  0.12235087641E+04  0.19339193500E+04  0.46999998093E+01 0.  1.
       -5    1    3    3    0  502 -0.14862117332E+04 -0.18499446132E+03 -0.73289769237E+03  0.16673959890E+04  0.46999998093E+01 0. -1.
</event>
<event>
 5   0  0.1648000E-07  0.3811534E+04  0.7818609E-02  0.8043684E-01
        1   -1    0    0  501    0  0.00000000000E+00  0.00000000000E+00  0.23393137069E+04  0.23393137069E+04  0.50400001928E-02 0. -1.
       -1   -1    0    0    0  501  0.00000000000E+00  0.00000000000E+00 -0.15525700126E+04  0.15525700126E+04  0.50400001928E-02 0.  1.
    10030    2    1    2    0    0  0.00000000000E+00  0.00000000000E+00  0.78674369434E+03  0.38918837195E+04  0.38115342378E+04 0.  0.
        1    1    3    3  502    0  0.42316692541E+03 -0.42368021120E+03 -0.14540147491E+04  0.15724929439E+04  0.50400001928E-02 0.  1.
       -1    1    3    3    0  502 -0.42316692541E+03  0.42368021120E+03  0.22407584434E+04  0.23193907756E+04  0.50400001928E-02 0. -1.
</event>
<event>
 5   0  0.5202788E-07  0.3845437E+04  0.7818609E-02  0.8036474E-01
        2   -1    0    0  501    0  0.00000000000E+00  0.00000000000E+00  0.27004710591E+04  0.27004710591E+04  0.25500000920E-02 0.  1.
       -2   -1    0    0    0  501  0.00000000000E+00  0.00000000000E+00 -0.13689633663E+04  0.13689633663E+04  0.25500000920E-02 0. -1.
    10030    2    1    2    0    0  0.00000000000E+00  0.00000000000E+00  0.13315076928E+04  0.40694344254E+04  0.38454367511E+04 0.  0.
        1    1    3    3  502    0 -0.39353582866E+03 -0.33916612047E+03 -0.12932791431E+04  0.13937270349E+04  0.50400001928E-02 0. -1.
       -1    1    3    3    0  502  0.39353582866E+03  0.33916612047E+03  0.26247868360E+04  0.26757073906E+04  0.50400001928E-02 0.  1.
</event>
<event>
 5   0  0.1648000E-07  0.3777901E+04  0.7818609E-02  0.8050914E-01
       -1   -1    0    0    0  501  0.00000000000E+00  0.00000000000E+00  0.23097662233E+04  0.23097662233E+04  0.50400001928E-02 0. -1.
        1   -1    0    0  501    0  0.00000000000E+00  0.00000000000E+00 -0.15448031023E+04  0.15448031023E+04  0.50400001928E-02 0.  1.
    10030    2    1    2    0    0  0.00000000000E+00  0.00000000000E+00  0.76496312098E+03  0.38545693256E+04  0.37779010190E+04 0.  0.
        1    1    3    3  502    0 -0.56625589244E+03 -0.17306437587E+04 -0.13006810135E+03  0.18255660126E+04  0.50400001928E-02 0.  1.
       -1    1    3    3    0  502  0.56625589244E+03  0.17306437587E+04  0.89503122233E+03  0.20290033130E+04  0.50400001928E-02 0. -1.
</event>
<event>
 5   0  0.5325362E-07  0.3809008E+04  0.7818609E-02  0.8044224E-01
        2   -1    0    0  501    0  0.00000000000E+00  0.00000000000E+00  0.24329538231E+04  0.24329538231E+04  0.25500000920E-02 0. -1.
       -2   -1    0    0    0  501  0.00000000000E+00  0.00000000000E+00 -0.14908363453E+04  0.14908363453E+04  0.25500000920E-02 0.  1.
    10030    2    1    2    0    0  0.00000000000E+00  0.00000000000E+00  0.94211747783E+03  0.39237901683E+04  0.38090082624E+04 0.  0.
        4    1    3    3  502    0  0.69101016472E+03 -0.72284189758E+03 -0.11986294644E+04  0.15609963685E+04  0.12699999809E+01 0.  1.
       -4    1    3    3    0  502 -0.69101016472E+03  0.72284189758E+03  0.21407469423E+04  0.23627937998E+04  0.12699999809E+01 0. -1.
</event>
<event>
 5   0  0.5134434E-07  0.3811844E+04  0.7818609E-02  0.8043618E-01
       -2   -1    0    0    0  501  0.00000000000E+00  0.00000000000E+00  0.18801000134E+04  0.18801000134E+04  0.25500000920E-02 0.  1.
        2   -1    0    0  501    0  0.00000000000E+00  0.00000000000E+00 -0.19320987434E+04  0.19320987434E+04  0.25500000920E-02 0. -1.
    10030    2    1    2    0    0  0.00000000000E+00  0.00000000000E+00 -0.51998730020E+02  0.38121987567E+04  0.38118441066E+04 0.  0.
        5    1    3    3  502    0 -0.10056669041E+04  0.14320332885E+04  0.72934007616E+03  0.18957964812E+04  0.46999998093E+01 0.  1.
       -5    1    3    3    0  502  0.10056669041E+04 -0.14320332885E+04 -0.78133880618E+03  0.19164022755E+04  0.46999998093E+01 0. -1.
</event>
<event>
 5   0  0.1648000E-07  0.3896458E+04  0.7818609E-02  0.8025766E-01
        1   -1    0    0  501    0  0.00000000000E+00  0.00000000000E+00  0.31817832306E+04  0.31817832306E+04  0.50400001928E-02 0.  1.
       -1   -1    0    0    0  501  0.00000000000E+00  0.00000000000E+00 -0.11929146756E+04  0.11929146757E+04  0.50400001928E-02 0. -1.
    10030    2    1    2    0    0  0.00000000000E+00  0.00000000000E+00  0.19888685549E+04  0.43746979062E+04  0.38964578327E+04 0.  0.
        2    1    3    3  502    0  0.14520869186E+04 -0.21506279290E+03  0.24325845079E+04  0.28411750760E+04  0.25500000920E-02 0.  1.
       -2    1    3    3    0  502 -0.14520869186E+04  0.21506279290E+03 -0.44371595300E+03  0.15335228303E+04  0.25500000920E-02 0. -1.
</event>
<event>
 5   0  0.1648000E-07  0.3599271E+04  0.7818609E-02  0.8090659E-01
        1   -1    0    0  501    0  0.00000000000E+00  0.00000000000E+00  0.21414650607E+04  0.21414650607E+04  0.50400001928E-02 0. -1.
       -1   -1    0    0    0  501  0.00000000000E+00  0.00000000000E+00 -0.15123702380E+04  0.15123702380E+04  0.50400001928E-02 0.  1.
    10030    2    1    2    0    0  0.00000000000E+00  0.00000000000E+00  0.62909482265E+03  0.36538352987E+04  0.35992710504E+04 0.  0.
        1    1    3    3  502    0  0.38244669630E+03  0.32442651789E+03  0.20690918889E+04  0.21290042944E+04  0.50400001928E-02 0. -1.
       -1    1    3    3    0  502 -0.38244669630E+03 -0.32442651789E+03 -0.14399970662E+04  0.15248310043E+04  0.50400001928E-02 0.  1.
</event>
<event>
 5   0  0.5158266E-07  0.3804725E+04  0.7818609E-02  0.8045142E-01
        2   -1    0    0  501    0  0.00000000000E+00  0.00000000000E+00  0.18394446701E+04  0.18394446701E+04  0.25500000920E-02 0.  1.
       -2   -1    0    0    0  501  0.00000000000E+00  0.00000000000E+00 -0.19674319724E+04  0.19674319724E+04  0.25500000920E-02 0. -1.
    10030    2    1    2    0    0  0.00000000000E+00  0.00000000000E+00 -0.12798730232E+03  0.38068766425E+04  0.38047245659E+04 0.  0.
        2    1    3    3  502    0 -0.38066347969E+03 -0.18547387287E+04 -0.24854802719E+03  0.19096430447E+04  0.25500000920E-02 0.  1.
       -2    1    3    3    0  502  0.38066347969E+03  0.18547387287E+04  0.12056072486E+03  0.18972335978E+04  0.25500000920E-02 0. -1.
</event>
<event>
 5   0  0.1648000E-07  0.3955857E+04  0.7818609E-02  0.8013511E-01
       -1   -1    0    0    0  501  0.00000000000E+00  0.00000000000E+00  0.16065889041E+04  0.16065889041E+04  0.50400001928E-02 0. -1.
        1   -1    0    0  501    0  0.00000000000E+00  0.00000000000E+00 -0.24350980699E+04  0.24350980699E+04  0.50400001928E-02 0.  1.
    10030    2    1    2    0    0  0.00000000000E+00  0.00000000000E+00 -0.82850916581E+03  0.40416869740E+04  0.39558571964E+04 0.  0.
        3    1    3    3  502    0 -0.98304774431E+03 -0.82538219745E+03 -0.19517515305E+04  0.23360164140E+04  0.10100000352E+00 0.  1.
       -3    1    3    3    0  502  0.98304774431E+03  0.82538219745E+03  0.11232423646E+04  0.17056705600E+04  0.10100000352E+00 0. -1.
</event>
<event>
 5   0  0.1648000E-07  0.3765061E+04  0.7818609E-02  0.8053694E-01
       -1   -1    0    0    0  501  0.00000000000E+00  0.00000000000E+00  0.28535786483E+04  0.28535786484E+04  0.50400001928E-02 0.  1.
        1   -1    0    0  501    0  0.00000000000E+00  0.00000000000E+00 -0.12419218328E+04  0.12419218328E+04  0.50400001928E-02 0. -1.
    10030    2    1    2    0    0  0.00000000000E+00  0.00000000000E+00  0.16116568155E+04  0.40955004812E+04  0.37650612877E+04 0.  0.
        3    1    3    3  502    0 -0.14922497452E+04  0.41250985298E+03 -0.35912024362E+03  0.15893209369E+04  0.10100000352E+00 0. -1.
       -3    1    3    3    0  502  0.14922497452E+04 -0.41250985298E+03  0.19707770591E+04  0.25061795443E+04  0.10100000352E+00 0.  1.
</event>
<event>
 5   0  0.5158266E-07  0.3825125E+04  0.7818609E-02  0.8040785E-01
       -2   -1    0    0    0  501  0.00000000000E+00  0.00000000000E+00  0.10636395682E+04  0.10636395682E+04  0.25500000920E-02 0.  1.
        2   -1    0    0  501    0  0.00000000000E+00  0.00000000000E+00 -0.34390363190E+04  0.34390363190E+04  0.25500000920E-02 0. -1.
    10030    2    1    2    0    0  0.00000000000E+00  0.00000000000E+00 -0.23753967508E+04  0.45026758871E+04  0.38251248896E+04 0.  0.
        2    1    3    3  502    0 -0.80454477494E+03  0.40938284281E+02  0.85418476554E+03  0.11741379185E+04  0.25500000920E-02 0.  1.
       -2    1    3    3    0  502  0.80454477494E+03 -0.40938284281E+02 -0.32295815163E+04  0.33285379686E+04  0.25500000920E-02 0. -1.
</event>
<event>
 5   0  0.1656617E-07  0.3577978E+04  0.7818609E-02  0.8095555E-01
        1   -1    0    0  501    0  0.00000000000E+00  0.00000000000E+00  0.11316987362E+04  0.11316987362E+04  0.50400001928E-02 0. -1.
       -1   -1    0    0    0  501  0.00000000000E+00  0.00000000000E+00 -0.28280334931E+04  0.28280334931E+04  0.50400001928E-02 0.  1.
    10030    2    1    2    0    0  0.00000000000E+00  0.00000000000E+00 -0.16963347569E+04  0.39597322293E+04  0.35779781610E+04 0.  0.
        5    1    3    3  502    0  0.69737496618E+03 -0.10226922439E+04  0.58123964087E+03  0.13675133928E+04  0.46999998093E+01 0. -1.
       -5    1    3    3    0  502 -0.69737496618E+03  0.10226922439E+04 -0.22775743977E+04  0.25922188365E+04  0.46999998093E+01 0.  1.
</event>
<event>
 5   0  0.5132561E-07  0.3807480E+04  0.7818609E-02  0.8044552E-01
       -2   -1    0    0    0  501  0.00000000000E+00  0.00000000000E+00  0.17929524467E+04  0.17929524467E+04  0.25500000920E-02 0. -1.
        2   -1    0    0  501    0  0.00000000000E+00  0.00000000000E+00 -0.20213734808E+04  0.20213734808E+04  0.25500000920E-02 0.  1.
    10030    2    1    2    0    0  0.00000000000E+00  0.00000000000E+00 -0.22842103418E+03  0.38143259275E+04  0.38074802839E+04 0.  0.
        3    1    3    3  502    0  0.56698589190E+03  0.16903104257E+04  0.55452557875E+03  0.18671156806E+04  0.10100000352E+00 0. -1.
       -3    1    3    3    0  502 -0.56698589190E+03 -0.16903104257E+04 -0.78294661293E+03  0.19472102469E+04  0.10100000352E+00 0.  1.
</event>
<event>
 5   0  0.5132561E-07  0.3786470E+04  0.7818609E-02  0.8049065E-01
       -2   -1    0    0    0  501  0.00000000000E+00  0.00000000000E+00  0.14512158428E+04  0.14512158428E+04  0.25500000920E-02 0.  1.
        2   -1    0    0  501    0  0.00000000000E+00  0.00000000000E+00 -0.24698863378E+04  0.24698863378E+04  0.25500000920E-02 0. -1.
    10030    2    1    2    0    0  0.00000000000E+00  0.00000000000E+00 -0.10186704950E+04  0.39211021806E+04  0.37864696927E+04 0.  0.
        3    1    3    3  502    0 -0.25354127889E+01  0.38414560745E+03 -0.24291022539E+04  0.24592909641E+04  0.10100000352E+00 0. -1.
       -3    1    3    3    0  502  0.25354127889E+01 -0.38414560745E+03  0.14104317589E+04  0.14618112165E+04  0.10100000352E+00 0.  1.
</event>
<event>
 5   0  0.5158266E-07  0.3811825E+04  0.7818609E-02  0.8043622E-01
        2   -1    0    0  501    0  0.00000000000E+00  0.00000000000E+00  0.17533248077E+04  0.17533248077E+04  0.25500000920E-02 0. -1.
       -2   -1    0    0    0  501  0.00000000000E+00  0.00000000000E+00 -0.20717790895E+04  0.20717790895E+04  0.25500000920E-02 0.  1.
    10030    2    1    2    0    0  0.00000000000E+00  0.00000000000E+00 -0.31845428179E+03  0.38251038971E+04  0.38118245886E+04 0.  0.
        2    1    3    3  502    0  0.91503494202E+03  0.49403981041E+03  0.14435651800E+04  0.17791134614E+04  0.25500000920E-02 0. -1.
       -2    1    3    3    0  502 -0.91503494202E+03 -0.49403981041E+03 -0.17620194618E+04  0.20459904358E+04  0.25500000920E-02 0.  1.
</event>
<event>
 5   0  0.1648000E-07  0.3900304E+04  0.7818609E-02  0.8024966E-01
        1   -1    0    0  501    0  0.00000000000E+00  0.00000000000E+00  0.26911005355E+04  0.26911005355E+04  0.50400001928E-02 0.  1.
       -1   -1    0    0    0  501  0.00000000000E+00  0.00000000000E+00 -0.14132108443E+04  0.14132108443E+04  0.50400001928E-02 0. -1.
    10030    2    1    2    0    0  0.00000000000E+00  0.00000000000E+00  0.12778896912E+04  0.41043113798E+04  0.39003038137E+04 0.  0.
        4    1    3    3  502    0 -0.82706260045E+02 -0.24172745110E+03 -0.13955236105E+04  0.14187178178E+04  0.12699999809E+01 0. -1.
       -4    1    3    3    0  502  0.82706260045E+02  0.24172745110E+03  0.26734133017E+04  0.26855935620E+04  0.12699999809E+01 0.  1.
</event>
<event>
 5   0  0.5202788E-07  0.3777449E+04  0.7818609E-02  0.8051012E-01
        2   -1    0    0  501    0  0.00000000000E+00  0.00000000000E+00  0.14201422777E+04  0.14201422777E+04  0.25500000920E-02 0.  1.
       -2   -1    0    0    0  501  0.00000000000E+00  0.00000000000E+00 -0.25119173522E+04  0.25119173522E+04  0.25500000920E-02 0. -1.
    10030    2    1    2    0    0  0.00000000000E+00  0.00000000000E+00 -0.10917750745E+04  0.39320596299E+04  0.37774488904E+04 0.  0.
        1    1    3    3  502    0  0.11990882035E+04 -0.81260505237E+03 -0.18075790153E+04  0.23163508775E+04  0.50400001928E-02 0. -1.
       -1    1    3    3    0  502 -0.11990882035E+04  0.81260505237E+03  0.71580394083E+03  0.16157087524E+04  0.50400001928E-02 0.  1.
</event>
<event>
 5   0  0.5158266E-07  0.3745260E+04  0.7818609E-02  0.8058005E-01
       -2   -1    0    0    0  501  0.00000000000E+00  0.00000000000E+00  0.16802234119E+04  0.16802234119E+04  0.25500000920E-02 0.  1.
        2   -1    0    0  501    0  0.00000000000E+00  0.00000000000E+00 -0.20870697386E+04  0.20870697386E+04  0.25500000920E-02 0. -1.
    10030    2    1    2    0    0  0.00000000000E+00  0.00000000000E+00 -0.40684632671E+03  0.37672931506E+04  0.37452601710E+04 0.  0.
        2    1    3    3  502    0 -0.17128140817E+04  0.48889966702E+03 -0.78474035113E+03  0.19464255397E+04  0.25500000920E-02 0. -1.
       -2    1    3    3    0  502  0.17128140817E+04 -0.48889966702E+03  0.37789402442E+03  0.18208676109E+04  0.25500000920E-02 0.  1.
</event>
<event>
 5   0  0.5202788E-07  0.3755391E+04  0.7818609E-02  0.8055796E-01
        2   -1    0    0  501    0  0.00000000000E+00  0.00000000000E+00  0.25820175457E+04  0.25820175457E+04  0.25500000920E-02 0.  1.
       -2   -1    0    0    0  501  0.00000000000E+00  0.00000000000E+00 -0.13654980764E+04  0.13654980764E+04  0.25500000920E-02 0. -1.
    10030    2    1    2    0    0  0.00000000000E+00  0.00000000000E+00  0.12165194693E+04  0.39475156221E+04  0.37553907876E+04 0.  0.
        1    1    3    3  502    0  0.35190852422E+02  0.55327060261E+03 -0.12775083192E+04  0.13926141826E+04  0.50400001928E-02 0. -1.
       -1    1    3    3    0  502 -0.35190852422E+02 -0.55327060261E+03  0.24940277885E+04  0.25549014395E+04  0.50400001928E-02 0.  1.
</event>
<event>
 5   0  0.5132561E-07  0.3759391E+04  0.7818609E-02  0.8054926E-01
        2   -1    0    0  501    0  0.00000000000E+00  0.00000000000E+00  0.20011483321E+04  0.20011483321E+04  0.25500000920E-02 0. -1.
       -2   -1    0    0    0  501  0.00000000000E+00  0.00000000000E+00 -0.17656141149E+04  0.17656141149E+04  0.25500000920E-02 0.  1.
    10030    2    1    2    0    0  0.00000000000E+00  0.00000000000E+00  0.23553421717E+03  0.37667624470E+04  0.37593913024E+04 0.  0.
        3    1    3    3  502    0  0.88050485719E+03  0.69094115012E+03  0.16308828237E+04  0.19779957713E+04  0.10100000352E+00 0. -1.
       -3    1    3    3    0  502 -0.88050485719E+03 -0.69094115012E+03 -0.13953486065E+04  0.17887666758E+04  0.10100000352E+00 0.  1.
</event>
<event>
 5   0  0.1648000E-07  0.3782248E+04  0.7818609E-02  0.8049975E-01
       -1   -1    0    0    0  501  0.00000000000E+00  0.00000000000E+00  0.15470313826E+04  0.15470313826E+04  0.50400001928E-02 0. -1.
        1   -1    0    0  501    0  0.00000000000E+00  0.00000000000E+00 -0.23117499479E+04  0.23117499480E+04  0.50400001928E-02 0.  1.
    10030    2    1    2    0    0  0.00000000000E+00  0.00000000000E+00 -0.76471856536E+03  0.38587813306E+04  0.37822478598E+04 0.  0.
        2    1    3    3  502    0 -0.36148763775E+03  0.88481541145E+03 -0.20471807624E+04  0.22593186359E+04  0.25500000920E-02 0.  1.
       -2    1    3    3    0  502  0.36148763775E+03 -0.88481541145E+03  0.12824621971E+04  0.15994626946E+04  0.25500000920E-02 0. -1.
</event>
<event>
 5   0  0.5202788E-07  0.2763979E+04  0.7818609E-02  0.8314540E-01
        2   -1    0    0  501    0  0.00000000000E+00  0.00000000000E+00  0.18321046799E+04  0.18321046799E+04  0.25500000920E-02 0. -1.
       -2   -1    0    0    0  501  0.00000000000E+00  0.00000000000E+00 -0.10424593226E+04  0.10424593226E+04  0.25500000920E-02 0.  1.
    10030    2    1    2    0    0  0.00000000000E+00  0.00000000000E+00  0.78964535730E+03  0.28745640026E+04  0.27639787290E+04 0.  0.
        1    1    3    3  502    0 -0.81852858766E+03 -0.52962346368E+03  0.14135035971E+04  0.17171145801E+04  0.50400001928E-02 0. -1.
       -1    1    3    3    0  502  0.81852858766E+03  0.52962346368E+03 -0.62385823983E+03  0.11574494224E+04  0.50400001928E-02 0.  1.
</event>
<event>
 5   0  0.5325362E-07  0.3730046E+04  0.7818609E-02  0.8061336E-01
       -2   -1    0    0    0  501  0.00000000000E+00  0.00000000000E+00  0.15198788027E+04  0.15198788027E+04  0.25500000920E-02 0. -1.
        2   -1    0    0  501    0  0.00000000000E+00  0.00000000000E+00 -0.22885450333E+04  0.22885450333E+04  0.25500000920E-02 0.  1.
    10030    2    1    2    0    0  0.00000000000E+00  0.00000000000E+00 -0.76866623060E+03  0.38084238360E+04  0.37300461579E+04 0.  0.
        4    1    3    3  502    0  0.69006693798E+03  0.17129978092E+04 -0.11856451910E+03  0.18505710015E+04  0.12699999809E+01 0. -1.
       -4    1    3    3    0  502 -0.69006693798E+03 -0.17129978092E+04 -0.65010171149E+03  0.19578528345E+04  0.12699999809E+01 0.  1.
</event>
<event>
 5   0  0.1648000E-07  0.3786926E+04  0.7818609E-02  0.8048966E-01
       -1   -1    0    0    0  501  0.00000000000E+00  0.00000000000E+00  0.12616797327E+04  0.12616797327E+04  0.50400001928E-02 0.  1.
        1   -1    0    0  501    0  0.00000000000E+00  0.00000000000E+00 -0.28416106436E+04  0.28416106436E+04  0.50400001928E-02 0. -1.
    10030    2    1    2    0    0  0.00000000000E+00  0.00000000000E+00 -0.15799309110E+04  0.41032903763E+04  0.37869262244E+04 0.  0.
        1    1    3    3  502    0 -0.12570282894E+04  0.84360321826E+03  0.44232909979E+03  0.15771624972E+04  0.50400001928E-02 0.  1.
       -1    1    3    3    0  502  0.12570282894E+04 -0.84360321826E+03 -0.20222600107E+04  0.25261278790E+04  0.50400001928E-02 0. -1.
</event>
<event>
 5   0  0.1648000E-07  0.3822987E+04  0.7818609E-02  0.8041240E-01
        1   -1    0    0  501    0  0.00000000000E+00  0.00000000000E+00  0.26009396198E+04  0.26009396198E+04  0.50400001928E-02 0. -1.
       -1   -1    0    0    0  501  0.00000000000E+00  0.00000000000E+00 -0.14048028939E+04  0.14048028939E+04  0.50400001928E-02 0.  1.
    10030    2    1    2    0    0  0.00000000000E+00  0.00000000000E+00  0.11961367259E+04  0.40057425138E+04  0.38229870546E+04 0.  0.
        2    1    3    3  502    0  0.11277953159E+04 -0.67726875296E+03 -0.85501842594E+03  0.15689715571E+04  0.25500000920E-02 0.  1.
       -2    1    3    3    0  502 -0.11277953159E+04  0.67726875296E+03  0.20511551519E+04  0.24367709567E+04  0.25500000920E-02 0. -1.
</event>
<event>
 5   0  0.1656617E-07  0.3801853E+04  0.7818609E-02  0.8045757E-01
       -1   -1    0    0    0  501  0.00000000000E+00  0.00000000000E+00  0.12921064056E+04  0.12921064056E+04  0.50400001928E-02 0. -1.
        1   -1    0    0  501    0  0.00000000000E+00  0.00000000000E+00 -0.27966135025E+04  0.27966135025E+04  0.50400001928E-02 0.  1.
    10030    2    1    2    0    0  0.00000000000E+00  0.00000000000E+00 -0.15045070969E+04  0.40887199081E+04  0.38018533483E+04 0.  0.
        5    1    3    3  502    0 -0.16615236561E+04  0.76475105281E+03 -0.19550970209E+03  0.18394975309E+04  0.46999998093E+01 0. -1.
       -5    1    3    3    0  502  0.16615236561E+04 -0.76475105281E+03 -0.13089973948E+04  0.22492223772E+04  0.46999998093E+01 0.  1.
</event>
<event>
 5   0  0.1648000E-07  0.3803415E+04  0.7818609E-02  0.8045422E-01
       -1   -1    0    0    0  501  0.00000000000E+00  0.00000000000E+00  0.15474957184E+04  0.15474957184E+04  0.50400001928E-02 0. -1.
        1   -1    0    0  501    0  0.00000000000E+00  0.00000000000E+00 -0.23369965265E+04  0.23369965265E+04  0.50400001928E-02 0.  1.
    10030    2    1    2    0    0  0.00000000000E+00  0.00000000000E+00 -0.78950080807E+03  0.38844922449E+04  0.38034153697E+04 0.  0.
        3    1    3    3  502    0 -0.21023566806E+03 -0.14282533494E+04 -0.16590340213E+04  0.21992045290E+04  0.10100000352E+00 0.  1.
       -3    1    3    3    0  502  0.21023566806E+03  0.14282533494E+04  0.86953321328E+03  0.16852877159E+04  0.10100000352E+00 0. -1.
</event>
<event>
 5   0  0.5325362E-07  0.3853001E+04  0.7818609E-02  0.8034876E-01
        2   -1    0    0  501    0  0.00000000000E+00  0.00000000000E+00  0.17036812746E+04  0.17036812746E+04  0.25500000920E-02 0. -1.
       -2   -1    0    0    0  501  0.00000000000E+00  0.00000000000E+00 -0.21784620636E+04  0.21784620636E+04  0.25500000920E-02 0.  1.
    10030    2    1    2    0    0  0.00000000000E+00  0.00000000000E+00 -0.47478078896E+03  0.38821433382E+04  0.38530014405E+04 0.  0.
        4    1    3    3  502    0 -0.86152331757E+03 -0.15014493400E+03  0.14921700719E+04  0.17295488037E+04  0.12699999809E+01 0. -1.
       -4    1    3    3    0  502  0.86152331757E+03  0.15014493400E+03 -0.19669508609E+04  0.21525945345E+04  0.12699999809E+01 0.  1.
</event>
<event>
 5   0  0.1648000E-07  0.3727059E+04  0.7818609E-02  0.8061991E-01
        1   -1    0    0  501    0  0.00000000000E+00  0.00000000000E+00  0.22370276979E+04  0.22370276979E+04  0.50400001928E-02 0. -1.
       -1   -1    0    0    0  501  0.00000000000E+00  0.00000000000E+00 -0.15523915491E+04  0.15523915491E+04  0.50400001928E-02 0.  1.
    10030    2    1    2    0    0  0.00000000000E+00  0.00000000000E+00  0.68463614879E+03  0.37894192471E+04  0.37270593735E+04 0.  0.
        1    1    3    3  502    0 -0.36469778740E+03  0.14357719253E+04 -0.80721718666E+03  0.16870225499E+04  0.50400001928E-02 0.  1.
       -1    1    3    3    0  502  0.36469778740E+03 -0.14357719253E+04  0.14918533354E+04  0.21023966971E+04  0.50400001928E-02 0. -1.
</event>
<event>
 5   0  0.5134434E-07  0.3780283E+04  0.7818609E-02  0.8050399E-01
        2   -1    0    0  501    0  0.00000000000E+00  0.00000000000E+00  0.19053541762E+04  0.19053541762E+04  0.25500000920E-02 0.  1.
       -2   -1    0    0    0  501  0.00000000000E+00  0.00000000000E+00 -0.18750504738E+04  0.18750504738E+04  0.25500000920E-02 0. -1.
    10030    2    1    2    0    0  0.00000000000E+00  0.00000000000E+00  0.30303702426E+02  0.37804046501E+04  0.37802831910E+04 0.  0.
        5    1    3    3  502    0 -0.51847117525E+03 -0.23385612308E+01  0.18328447943E+04  0.19047729415E+04  0.46999998093E+01 0.  1.
       -5    1    3    3    0  502  0.51847117525E+03  0.23385612308E+01 -0.18025410919E+04  0.18756317086E+04  0.46999998093E+01 0. -1.
</event>
<event>
 5   0  0.5134434E-07  0.3252918E+04  0.7818609E-02  0.8174980E-01
       -2   -1    0    0    0  501  0.00000000000E+00  0.00000000000E+00  0.11097445932E+04  0.11097445932E+04  0.25500000920E-02 0.  1.
        2   -1    0    0  501    0  0.00000000000E+00  0.00000000000E+00 -0.23837637388E+04  0.23837637388E+04  0.25500000920E-02 0. -1.
    10030    2    1    2    0    0  0.00000000000E+00  0.00000000000E+00 -0.12740191456E+04  0.34935083321E+04  0.32529180259E+04 0.  0.
        5    1    3    3  502    0  0.70239124078E+03  0.30662762337E+03 -0.21776755339E+04  0.23086071072E+04  0.46999998093E+01 0. -1.
       -5    1    3    3    0  502 -0.70239124078E+03 -0.30662762337E+03  0.90365638831E+03  0.11849012249E+04  0.46999998093E+01 0.  1.
</event>
<event>
 5   0  0.5134434E-07  0.3132651E+04  0.7818609E-02  0.8206834E-01
        2   -1    0    0  501    0  0.00000000000E+00  0.00000000000E+00  0.21042096641E+04  0.21042096641E+04  0.25500000920E-02 0. -1.
       -2   -1    0    0    0  501  0.00000000000E+00  0.00000000000E+00 -0.11659368410E+04  0.11659368410E+04  0.25500000920E-02 0.  1.
    10030    2    1    2    0    0  0.00000000000E+00  0.00000000000E+00  0.93827282309E+03  0.32701465051E+04  0.31326509979E+04 0.  0.
        5    1    3    3  502    0 -0.34021013755E+03  0.23354949127E+03  0.20464365846E+04  0.20876333699E+04  0.46999998093E+01 0. -1.
       -5    1    3    3    0  502  0.34021013755E+03 -0.23354949127E+03 -0.11081637615E+04  0.11825131352E+04  0.46999998093E+01 0.  1.
</event>
<event>
 5   0  0.5158266E-07  0.3839828E+04  0.7818609E-02  0.8037661E-01
        2   -1    0    0  501    0  0.00000000000E+00  0.00000000000E+00  0.23902814746E+04  0.23902814746E+04  0.25500000920E-02 0.  1.
       -2   -1    0    0    0  501  0.00000000000E+00  0.00000000000E+00 -0.15421072682E+04  0.15421072682E+04  0.25500000920E-02 0. -1.
    10030    2    1    2    0    0  0.00000000000E+00  0.00000000000E+00  0.84817420643E+03  0.39323887428E+04  0.38398283477E+04 0.  0.
        2    1    3    3  502    0 -0.65186933794E+03 -0.59605192673E+03  0.21698364774E+04  0.23427338457E+04  0.25500000920E-02 0.  1.
       -2    1    3    3    0  502  0.65186933794E+03  0.59605192673E+03 -0.13216622710E+04  0.15896548970E+04  0.25500000920E-02 0. -1.
</event>
<event>
 5   0  0.1648000E-07  0.3760868E+04  0.7818609E-02  0.8054605E-01
       -1   -1    0    0    0  501  0.00000000000E+00  0.00000000000E+00  0.17071887977E+04  0.17071887978E+04  0.50400001928E-02 0.  1.
        1   -1    0    0  501    0  0.00000000000E+00  0.00000000000E+00 -0.20712600233E+04  0.20712600233E+04  0.50400001928E-02 0. -1.
    10030    2    1    2    0    0  0.00000000000E+00  0.00000000000E+00 -0.36407122555E+03  0.37784488211E+04  0.37608679365E+04 0.  0.
        4    1    3    3  502    0  0.10024596675E+04  0.13133950704E+04  0.71999123379E+03  0.18023099027E+04  0.12699999809E+01 0.  1.
       -4    1    3    3    0  502 -0.10024596675E+04 -0.13133950704E+04 -0.10840624593E+04  0.19761389183E+04  0.12699999809E+01 0. -1.
</event>
<event>
 5   0  0.5202788E-07  0.3497114E+04  0.7818609E-02  0.8114474E-01
       -2   -1    0    0    0  501  0.00000000000E+00  0.00000000000E+00  0.23760060887E+04  0.23760060887E+04  0.25500000920E-02 0.  1.
        2   -1    0    0  501    0  0.00000000000E+00  0.00000000000E+00 -0.12868026398E+04  0.12868026398E+04  0.25500000920E-02 0. -1.
    10030    2    1    2    0    0  0.00000000000E+00  0.00000000000E+00  0.10892034488E+04  0.36628087285E+04  0.34971136139E+04 0.  0.
        1    1    3    3  502    0 -0.11574141155E+04 -0.60414144824E+03  0.17628347764E+04  0.21936683371E+04  0.50400001928E-02 0.  1.
       -1    1    3    3    0  502  0.11574141155E+04  0.60414144824E+03 -0.67363132760E+03  0.14691403914E+04  0.50400001928E-02 0. -1.
</event>
<event>
 5   0  0.5134434E-07  0.3814875E+04  0.7818609E-02  0.8042970E-01
       -2   -1    0    0    0  501  0.00000000000E+00  0.00000000000E+00  0.17111463705E+04  0.17111463705E+04  0.25500000920E-02 0.  1.
        2   -1    0    0  501    0  0.00000000000E+00  0.00000000000E+00 -0.21262462660E+04  0.21262462660E+04  0.25500000920E-02 0. -1.
    10030    2    1    2    0    0  0.00000000000E+00  0.00000000000E+00 -0.41509989553E+03  0.38373926365E+04  0.38148754008E+04 0.  0.
        5    1    3    3  502    0  0.38777880887E+03 -0.12209090163E+04  0.12140523047E+04  0.17649182188E+04  0.46999998093E+01 0.  1.
       -5    1    3    3    0  502 -0.38777880887E+03  0.12209090163E+04 -0.16291522002E+04  0.20724744177E+04  0.46999998093E+01 0. -1.
</event>
<event>
 5   0  0.5325362E-07  0.3341739E+04  0.7818609E-02  0.8152355E-01
       -2   -1    0    0    0  501  0.00000000000E+00  0.00000000000E+00  0.11439660913E+04  0.11439660913E+04  0.25500000920E-02 0.  1.
        2   -1    0    0  501    0  0.00000000000E+00  0.00000000000E+00 -0.24404613535E+04  0.24404613535E+04  0.25500000920E-02 0. -1.
    10030    2    1    2    0    0  0.00000000000E+00  0.00000000000E+00 -0.12964952622E+04  0.35844274448E+04  0.33417390895E+04 0.  0.
        4    1    3    3  502    0  0.10093984089E+03 -0.12224610579E+04  0.56869713354E+03  0.13520421340E+04  0.12699999809E+01 0.  1.
       -4    1    3    3    0  502 -0.10093984089E+03  0.12224610579E+04 -0.18651923958E+04  0.22323853108E+04  0.12699999809E+01 0. -1.
</event>
<event>
 5   0  0.5132561E-07  0.3452787E+04  0.7818609E-02  0.8125071E-01
        2   -1    0    0  501    0  0.00000000000E+00  0.00000000000E+00  0.26090369656E+04  0.26090369656E+04  0.25500000920E-02 0.  1.
       -2   -1    0    0    0  501  0.00000000000E+00  0.00000000000E+00 -0.11423501153E+04  0.11423501153E+04  0.25500000920E-02 0. -1.
    10030    2    1    2    0    0  0.00000000000E+00  0.00000000000E+00  0.14666868504E+04  0.37513870809E+04  0.34527865143E+04 0.  0.
        3    1    3    3  502    0 -0.52669748166E+03  0.80931593450E+03  0.22882003440E+04  0.24835988693E+04  0.10100000352E+00 0.  1.
       -3    1    3    3    0  502  0.52669748166E+03 -0.80931593450E+03 -0.82151349364E+03  0.12677882116E+04  0.10100000352E+00 0. -1.
</event>
<event>
 5   0  0.5134434E-07  0.3766385E+04  0.7818609E-02  0.8053407E-01
        2   -1    0    0  501    0  0.00000000000E+00  0.00000000000E+00  0.26177725164E+04  0.26177725164E+04  0.25500000920E-02 0.  1.
       -2   -1    0    0    0  501  0.00000000000E+00  0.00000000000E+00 -0.13547448383E+04  0.13547448383E+04  0.25500000920E-02 0. -1.
    10030    2    1    2    0    0  0.00000000000E+00  0.00000000000E+00  0.12630276781E+04  0.39725173547E+04  0.37663849004E+04 0.  0.
        5    1    3    3  502    0  0.17934246822E+04  0.38630719357E+03  0.10799740869E+04  0.21288427506E+04  0.46999998093E+01 0.  1.
       -5    1    3    3    0  502 -0.17934246822E+04 -0.38630719357E+03  0.18305359116E+03  0.18436746041E+04  0.46999998093E+01 0. -1.
</event>
<event>
 5   0  0.1648000E-07  0.3234042E+04  0.7818609E-02  0.8179884E-01
       -1   -1    0    0    0  501  0.00000000000E+00  0.00000000000E+00  0.13284921981E+04  0.13284921981E+04  0.50400001928E-02 0.  1.
        1   -1    0    0  501    0  0.00000000000E+00  0.00000000000E+00 -0.19682141383E+04  0.19682141383E+04  0.50400001928E-02 0. -1.
    10030    2    1    2    0    0  0.00000000000E+00  0.00000000000E+00 -0.63972194022E+03  0.32967063364E+04  0.32340421314E+04 0.  0.
        4    1    3    3  502    0 -0.27433176180E+02  0.13004462101E+04  0.65939990664E+03  0.14583287607E+04  0.12699999809E+01 0.  1.
       -4    1    3    3    0  502  0.27433176180E+02 -0.13004462101E+04 -0.12991218469E+04  0.18383775756E+04  0.12699999809E+01 0. -1.
</event>
<event>
 5   0  0.1648000E-07  0.3747549E+04  0.7818609E-02  0.8057505E-01
       -1   -1    0    0    0  501  0.00000000000E+00  0.00000000000E+00  0.14116558738E+04  0.14116558738E+04  0.50400001928E-02 0. -1.
        1   -1    0    0  501    0  0.00000000000E+00  0.00000000000E+00 -0.24871724486E+04  0.24871724486E+04  0.50400001928E-02 0.  1.
    10030    2    1    2    0    0  0.00000000000E+00  0.00000000000E+00 -0.10755165748E+04  0.38988283225E+04  0.37475493840E+04 0.  0.
        3    1    3    3  502    0  0.12783238697E+04 -0.11994015587E+02 -0.19630145131E+04  0.23425801504E+04  0.10100000352E+00 0.  1.
       -3    1    3    3    0  502 -0.12783238697E+04  0.11994015587E+02  0.88749793832E+03  0.15562481720E+04  0.10100000352E+00 0. -1.
</event>
<event>
 5   0  0.1656617E-07  0.3815123E+04  0.7818609E-02  0.8042917E-01
        1   -1    0    0  501    0  0.00000000000E+00  0.00000000000E+00  0.26140112498E+04  0.26140112498E+04  0.50400001928E-02 0. -1.
       -1   -1    0    0    0  501  0.00000000000E+00  0.00000000000E+00 -0.13920334797E+04  0.13920334797E+04  0.50400001928E-02 0.  1.
    10030    2    1    2    0    0  0.00000000000E+00  0.00000000000E+00  0.12219777701E+04  0.40060447295E+04  0.38151231571E+04 0.  0.
        5    1    3    3  502    0 -0.16750951722E+04  0.63977014047E+03  0.12943399809E+04  0.22114673285E+04  0.46999998093E+01 0.  1.
       -5    1    3    3    0  502  0.16750951722E+04 -0.63977014047E+03 -0.72362210793E+02  0.17945774010E+04  0.46999998093E+01 0. -1.
</event>
<event>
 5   0  0.5202788E-07  0.3773695E+04  0.7818609E-02  0.8051824E-01
        2   -1    0    0  501    0  0.00000000000E+00  0.00000000000E+00  0.24612728022E+04  0.24612728022E+04  0.25500000920E-02 0. -1.
       -2   -1    0    0    0  501  0.00000000000E+00  0.00000000000E+00 -0.14464844161E+04  0.14464844161E+04  0.25500000920E-02 0.  1.
    10030    2    1    2    0    0  0.00000000000E+00  0.00000000000E+00  0.10147883861E+04  0.39077572183E+04  0.37736946099E+04 0.  0.
        1    1    3    3  502    0  0.13479694266E+04 -0.78708131521E+03  0.16050875182E+04  0.22389337893E+04  0.50400001928E-02 0. -1.
       -1    1    3    3    0  502 -0.13479694266E+04  0.78708131521E+03 -0.59029913209E+03  0.16688234290E+04  0.50400001928E-02 0.  1.
</event>
<event>
 5   0  0.5134434E-07  0.3657347E+04  0.7818609E-02  0.8077480E-01
       -2   -1    0    0    0  501  0.00000000000E+00  0.00000000000E+00  0.18185810884E+04  0.18185810884E+04  0.25500000920E-02 0.  1.
        2   -1    0    0  501    0  0.00000000000E+00  0.00000000000E+00 -0.18388222558E+04  0.18388222558E+04  0.25500000920E-02 0. -1.
    10030    2    1    2    0    0  0.00000000000E+00  0.00000000000E+00 -0.20241167426E+02  0.36574033443E+04  0.36573473335E+04 0.  0.
        5    1    3    3  502    0  0.21453533993E+03 -0.18137316108E+04 -0.10165078671E+03  0.18292082277E+04  0.46999998093E+01 0. -1.
       -5    1    3    3    0  502 -0.21453533993E+03  0.18137316108E+04  0.81409619288E+02  0.18281951165E+04  0.46999998093E+01 0.  1.
</event>
<event>
 5   0  0.1656617E-07  0.3793047E+04  0.7818609E-02  0.8047649E-01
        1   -1    0    0  501    0  0.00000000000E+00  0.00000000000E+00  0.12544366219E+04  0.12544366219E+04  0.50400001928E-02 0.  1.
       -1   -1    0    0    0  501  0.00000000000E+00  0.00000000000E+00 -0.28672636256E+04  0.28672636256E+04  0.50400001928E-02 0. -1.
    10030    2    1    2    0    0  0.00000000000E+00  0.00000000000E+00 -0.16128270037E+04  0.41217002475E+04  0.37930465310E+04 0.  0.
        5    1    3    3  502    0  0.13460881412E+04 -0.58041906819E+03  0.50115166047E+03  0.15491980685E+04  0.46999998093E+01 0.  1.
       -5    1    3    3    0  502 -0.13460881412E+04  0.58041906819E+03 -0.21139786641E+04  0.25725021790E+04  0.46999998093E+01 0. -1.
</event>
<event>
 5   0  0.1648000E-07  0.3614871E+04  0.7818609E-02  0.8087094E-01
        1   -1    0    0  501    0  0.00000000000E+00  0.00000000000E+00  0.24970722831E+04  0.24970722831E+04  0.50400001928E-02 0.  1.
       -1   -1    0    0    0  501  0.00000000000E+00  0.00000000000E+00 -0.13082609861E+04  0.13082609861E+04  0.50400001928E-02 0. -1.
    10030    2    1    2    0    0  0.00000000000E+00  0.00000000000E+00  0.11888112970E+04  0.38053332692E+04  0.36148705357E+04 0.  0.
        1    1    3    3  502    0 -0.62025795485E+03  0.47929335169E+03 -0.11200167766E+04  0.13670697229E+04  0.50400001928E-02 0. -1.
       -1    1    3    3    0  502  0.62025795485E+03 -0.47929335169E+03  0.23088280736E+04  0.24382635462E+04  0.50400001928E-02 0.  1.
</event>
<event>
 5   0  0.5325362E-07  0.3773763E+04  0.7818609E-02  0.8051809E-01
        2   -1    0    0  501    0  0.00000000000E+00  0.00000000000E+00  0.21448715474E+04  0.21448715474E+04  0.25500000920E-02 0. -1.
       -2   -1    0    0    0  501  0.00000000000E+00  0.00000000000E+00 -0.16599233302E+04  0.16599233302E+04  0.25500000920E-02 0.  1.
    10030    2    1    2    0    0  0.00000000000E+00  0.00000000000E+00  0.48494821726E+03  0.38047948776E+04  0.37737632791E+04 0.  0.
        4    1    3    3  502    0 -0.55414298544E+03  0.14828513940E+03 -0.15698772467E+04  0.16714003451E+04  0.12699999809E+01 0.  1.
       -4    1    3    3    0  502  0.55414298544E+03 -0.14828513940E+03  0.20548254640E+04  0.21333945325E+04  0.12699999809E+01 0. -1.
</event>
<event>
 5   0  0.1648000E-07  0.3790396E+04  0.7818609E-02  0.8048219E-01
        1   -1    0    0  501    0  0.00000000000E+00  0.00000000000E+00  0.27499662405E+04  0.27499662405E+04  0.50400001928E-02 0. -1.
       -1   -1    0    0    0  501  0.00000000000E+00  0.00000000000E+00 -0.13061162634E+04  0.13061162634E+04  0.50400001928E-02 0.  1.
    10030    2    1    2    0    0  0.00000000000E+00  0.00000000000E+00  0.14438499771E+04  0.40560825039E+04  0.37903960904E+04 0.  0.
        1    1    3    3  502    0  0.30660876037E+03 -0.69152907097E+03 -0.11375639647E+04  0.13661160865E+04  0.50400001928E-02 0.  1.
       -1    1    3    3    0  502 -0.30660876037E+03  0.69152907097E+03  0.25814139418E+04  0.26899664174E+04  0.50400001928E-02 0. -1.
</event>
<event>
 5   0  0.5325362E-07  0.3771055E+04  0.7818609E-02  0.8052395E-01
        2   -1    0    0  501    0  0.00000000000E+00  0.00000000000E+00  0.23005297147E+04  0.23005297147E+04  0.25500000920E-02 0. -1.
       -2   -1    0    0    0  501  0.00000000000E+00  0.00000000000E+00 -0.15453895626E+04  0.15453895626E+04  0.25500000920E-02 0.  1.
    10030    2    1    2    0    0  0.00000000000E+00  0.00000000000E+00  0.75514015214E+03  0.38459192773E+04  0.37710553480E+04 0.  0.
        4    1    3    3  502    0  0.17011028267E+04 -0.49284159468E+03  0.10373832165E+04  0.20525129026E+04  0.12699999809E+01 0.  1.
       -4    1    3    3    0  502 -0.17011028267E+04  0.49284159468E+03 -0.28224306438E+03  0.17934063747E+04  0.12699999809E+01 0. -1.
</event>
<event>
 5   0  0.5202788E-07  0.3820594E+04  0.7818609E-02  0.8041750E-01
        2   -1    0    0  501    0  0.00000000000E+00  0.00000000000E+00  0.25897359567E+04  0.25897359567E+04  0.25500000920E-02 0.  1.
       -2   -1    0    0    0  501  0.00000000000E+00  0.00000000000E+00 -0.14091145603E+04  0.14091145603E+04  0.25500000920E-02 0. -1.
    10030    2    1    2    0    0  0.00000000000E+00  0.00000000000E+00  0.11806213964E+04  0.39988505170E+04  0.38205940082E+04 0.  0.
        1    1    3    3  502    0 -0.33512340977E+03 -0.15653676594E+04  0.16813222387E+04  0.23215357157E+04  0.50400001928E-02 0.  1.
       -1    1    3    3    0  502  0.33512340977E+03  0.15653676594E+04 -0.50070084228E+03  0.16773148012E+04  0.50400001928E-02 0. -1.
</event>
<event>
 5   0  0.1648000E-07  0.3748382E+04  0.7818609E-02  0.8057324E-01
        4   -1    0    0  501    0  0.00000000000E+00  0.00000000000E+00  0.22622519876E+04  0.22622523441E+04  0.12699999809E+01 0.  1.
       -4   -1    0    0    0  501  0.00000000000E+00  0.00000000000E+00 -0.15526959563E+04  0.15526964757E+04  0.12699999809E+01 0. -1.
    10030    2    1    2    0    0  0.00000000000E+00  0.00000000000E+00  0.70955603131E+03  0.38149488198E+04  0.37483816156E+04 0.  0.
        1    1    3    3  502    0  0.77014905821E+03  0.49769217467E+02  0.20930270137E+04  0.22307775835E+04  0.50400001928E-02 0.  1.
       -1    1    3    3    0  502 -0.77014905821E+03 -0.49769217467E+02 -0.13834709824E+04  0.15841712363E+04  0.50400001928E-02 0. -1.
</event>
<event>
 5   0  0.1648000E-07  0.3709507E+04  0.7818609E-02  0.8065858E-01
       -1   -1    0    0    0  501  0.00000000000E+00  0.00000000000E+00  0.27230966485E+04  0.27230966485E+04  0.50400001928E-02 0. -1.
        1   -1    0    0  501    0  0.00000000000E+00  0.00000000000E+00 -0.12633084373E+04  0.12633084373E+04  0.50400001928E-02 0.  1.
    10030    2    1    2    0    0  0.00000000000E+00  0.00000000000E+00  0.14597882112E+04  0.39864050858E+04  0.37095072296E+04 0.  0.
        1    1    3    3  502    0  0.10011794925E+04  0.13610040875E+04 -0.92345545947E+02  0.16921052574E+04  0.50400001928E-02 0.  1.
       -1    1    3    3    0  502 -0.10011794925E+04 -0.13610040875E+04  0.15521337572E+04  0.22942998284E+04  0.50400001928E-02 0. -1.
</event>
<event>
 5   0  0.1648000E-07  0.3838679E+04  0.7818609E-02  0.8037905E-01
        3   -1    0    0  501    0  0.00000000000E+00  0.00000000000E+00  0.15576988852E+04  0.15576988884E+04  0.10100000352E+00 0.  1.
       -3   -1    0    0    0  501  0.00000000000E+00  0.00000000000E+00 -0.23649402514E+04  0.23649402536E+04  0.10100000352E+00 0. -1.
    10030    2    1    2    0    0  0.00000000000E+00  0.00000000000E+00 -0.80724136628E+03  0.39226391420E+04  0.38386793582E+04 0.  0.
        5    1    3    3  502    0 -0.91265064605E+03  0.58407055421E+03  0.12152559344E+04  0.16281703505E+04  0.46999998093E+01 0.  1.
       -5    1    3    3    0  502  0.91265064605E+03 -0.58407055421E+03 -0.20224973007E+04  0.22944687916E+04  0.46999998093E+01 0. -1.
</event>
<event>
 5   0  0.5325362E-07  0.3921311E+04  0.7818609E-02  0.8020611E-01
       -2   -1    0    0    0  501  0.00000000000E+00  0.00000000000E+00  0.21648648235E+04  0.21648648235E+04  0.25500000920E-02 0. -1.
        2   -1    0    0  501    0  0.00000000000E+00  0.00000000000E+00 -0.17757093068E+04  0.17757093068E+04  0.25500000920E-02 0.  1.
    10030    2    1    2    0    0  0.00000000000E+00  0.00000000000E+00  0.38915551663E+03  0.39405741303E+04  0.39213113190E+04 0.  0.
        4    1    3    3  502    0  0.58146669070E+03 -0.27871158520E+03  0.20552633460E+04  0.21540410150E+04  0.12699999809E+01 0. -1.
       -4    1    3    3    0  502 -0.58146669070E+03  0.27871158520E+03 -0.16661078294E+04  0.17865331153E+04  0.12699999809E+01 0.  1.
</event>
<event>
 5   0  0.1648000E-07  0.3765855E+04  0.7818609E-02  0.8053522E-01
       -1   -1    0    0    0  501  0.00000000000E+00  0.00000000000E+00  0.16402320292E+04  0.16402320292E+04  0.50400001928E-02 0.  1.
        1   -1    0    0  501    0  0.00000000000E+00  0.00000000000E+00 -0.21615336245E+04  0.21615336245E+04  0.50400001928E-02 0. -1.
    10030    2    1    2    0    0  0.00000000000E+00  0.00000000000E+00 -0.52130159533E+03  0.38017656537E+04  0.37658553786E+04 0.  0.
        4    1    3    3  502    0 -0.90346084635E+02  0.14370970696E+04 -0.14854821618E+04  0.20688328275E+04  0.12699999809E+01 0. -1.
       -4    1    3    3    0  502  0.90346084635E+02 -0.14370970696E+04  0.96418056645E+03  0.17329328262E+04  0.12699999809E+01 0.  1.
</event>
<event>
 5   0  0.5325362E-07  0.3397140E+04  0.7818609E-02  0.8138609E-01
       -2   -1    0    0    0  501  0.00000000000E+00  0.00000000000E+00  0.14759341524E+04  0.14759341524E+04  0.25500000920E-02 0. -1.
        2   -1    0    0  501    0  0.00000000000E+00  0.00000000000E+00 -0.19547893480E+04  0.19547893480E+04  0.25500000920E-02 0.  1.
    10030    2    1    2    0    0  0.00000000000E+00  0.00000000000E+00 -0.47885519563E+03  0.34307235003E+04  0.33971401851E+04 0.  0.
        4    1    3    3  502    0 -0.13225218037E+04 -0.29083022233E+03 -0.12749878212E+04  0.18599036794E+04  0.12699999809E+01 0. -1.
       -4    1    3    3    0  502  0.13225218037E+04  0.29083022233E+03  0.79613262558E+03  0.15708198210E+04  0.12699999809E+01 0.  1.
</event>
<event>
 5   0  0.1648000E-07  0.3831477E+04  0.7818609E-02  0.8039434E-01
       -1   -1    0    0    0  501  0.00000000000E+00  0.00000000000E+00  0.27101609542E+04  0.27101609542E+04  0.50400001928E-02 0.  1.
        1   -1    0    0  501    0  0.00000000000E+00  0.00000000000E+00 -0.13541830875E+04  0.13541830875E+04  0.50400001928E-02 0. -1.
    10030    2    1    2    0    0  0.00000000000E+00  0.00000000000E+00  0.13559778667E+04  0.40643440417E+04  0.38314770669E+04 0.  0.
        2    1    3    3  502    0  0.83489637457E+02 -0.18088238817E+04  0.13414962749E+04  0.22535364675E+04  0.25500000920E-02 0.  1.
       -2    1    3    3    0  502 -0.83489637457E+02  0.18088238817E+04  0.14481591730E+02  0.18108075743E+04  0.25500000920E-02 0. -1.
</event>
<event>
 5   0  0.5202788E-07  0.3791073E+04  0.7818609E-02  0.8048073E-01
        2   -1    0    0  501    0  0.00000000000E+00  0.00000000000E+00  0.10950715602E+04  0.10950715602E+04  0.25500000920E-02 0. -1.
       -2   -1    0    0    0  501  0.00000000000E+00  0.00000000000E+00 -0.32811184698E+04  0.32811184698E+04  0.25500000920E-02 0.  1.
    10030    2    1    2    0    0  0.00000000000E+00  0.00000000000E+00 -0.21860469096E+04  0.43761900300E+04  0.37910734743E+04 0.  0.
        1    1    3    3  502    0 -0.25666146662E+03  0.98461712342E+03 -0.29391434307E+04  0.31102909983E+04  0.50400001928E-02 0.  1.
       -1    1    3    3    0  502  0.25666146662E+03 -0.98461712342E+03  0.75309652112E+03  0.12658990316E+04  0.50400001928E-02 0. -1.
</event>
<event>
 5   0  0.1648000E-07  0.3899920E+04  0.7818609E-02  0.8025046E-01
       -1   -1    0    0    0  501  0.00000000000E+00  0.00000000000E+00  0.16225005415E+04  0.16225005415E+04  0.50400001928E-02 0.  1.
        1   -1    0    0  501    0  0.00000000000E+00  0.00000000000E+00 -0.23435082894E+04  0.23435082894E+04  0.50400001928E-02 0. -1.
    10030    2    1    2    0    0  0.00000000000E+00  0.00000000000E+00 -0.72100774790E+03  0.39660088308E+04  0.38999197266E+04 0.  0.
        3    1    3    3  502    0 -0.88421618799E+03  0.66243024819E+03 -0.19944967903E+04  0.22800591127E+04  0.10100000352E+00 0. -1.
       -3    1    3    3    0  502  0.88421618799E+03 -0.66243024819E+03  0.12734890424E+04  0.16859497181E+04  0.10100000352E+00 0.  1.
</event>
<event>
 5   0  0.1648000E-07  0.3803497E+04  0.7818609E-02  0.8045405E-01
        1   -1    0    0  501    0  0.00000000000E+00  0.00000000000E+00  0.29060195015E+04  0.29060195015E+04  0.50400001928E-02 0.  1.
       -1   -1    0    0    0  501  0.00000000000E+00  0.00000000000E+00 -0.12445364869E+04  0.12445364869E+04  0.50400001928E-02 0. -1.
    10030    2    1    2    0    0  0.00000000000E+00  0.00000000000E+00  0.16614830146E+04  0.41505559884E+04  0.38034969705E+04 0.  0.
        1    1    3    3  502    0 -0.15257011932E+04 -0.10689271320E+04  0.12481032571E+04  0.22423494565E+04  0.50400001928E-02 0.  1.
       -1    1    3    3    0  502  0.15257011932E+04  0.10689271320E+04  0.41337975751E+03  0.19082065319E+04  0.50400001928E-02 0. -1.
</event>
<event>
 5   0  0.1648000E-07  0.3737758E+04  0.7818609E-02  0.8059645E-01
       -1   -1    0    0    0  501  0.00000000000E+00  0.00000000000E+00  0.25796778221E+04  0.25796778221E+04  0.50400001928E-02 0. -1.
        1   -1    0    0  501    0  0.00000000000E+00  0.00000000000E+00 -0.13539321676E+04  0.13539321676E+04  0.50400001928E-02 0.  1.
    10030    2    1    2    0    0  0.00000000000E+00  0.00000000000E+00  0.12257456545E+04  0.39336099897E+04  0.37377580367E+04 0.  0.
        3    1    3    3  502    0 -0.56857075143E+03  0.17762791665E+04  0.73858221997E+03  0.20059770892E+04  0.10100000352E+00 0. -1.
       -3    1    3    3    0  502  0.56857075143E+03 -0.17762791665E+04  0.48716343455E+03  0.19276329004E+04  0.10100000352E+00 0.  1.
</event>
<event>
 5   0  0.5132561E-07  0.3372794E+04  0.7818609E-02  0.8144616E-01
        2   -1    0    0  501    0  0.00000000000E+00  0.00000000000E+00  0.19125605404E+04  0.19125605404E+04  0.25500000920E-02 0.  1.
       -2   -1    0    0    0  501  0.00000000000E+00  0.00000000000E+00 -0.14869772912E+04  0.14869772912E+04  0.25500000920E-02 0. -1.
    10030    2    1    2    0    0  0.00000000000E+00  0.00000000000E+00  0.42558324921E+03  0.33995378316E+04  0.33727935553E+04 0.  0.
        3    1    3    3  502    0 -0.11175638025E+04  0.82342658025E+03 -0.75237849707E+03  0.15789406571E+04  0.10100000352E+00 0. -1.
       -3    1    3    3    0  502  0.11175638025E+04 -0.82342658025E+03  0.11779617463E+04  0.18205971744E+04  0.10100000352E+00 0.  1.
</event>
<event>
 5   0  0.5158266E-07  0.3816467E+04  0.7818609E-02  0.8042630E-01
        2   -1    0    0  501    0  0.00000000000E+00  0.00000000000E+00  0.20460217688E+04  0.20460217688E+04  0.25500000920E-02 0.  1.
       -2   -1    0    0    0  501  0.00000000000E+00  0.00000000000E+00 -0.17797243961E+04  0.17797243961E+04  0.25500000920E-02 0. -1.
    10030    2    1    2    0    0  0.00000000000E+00  0.00000000000E+00  0.26629737262E+03  0.38257461649E+04  0.38164668776E+04 0.  0.
        2    1    3    3  502    0  0.37685203214E+03  0.18473164788E+04  0.42841404575E+03  0.19334255149E+04  0.25500000920E-02 0. -1.
       -2    1    3    3    0  502 -0.37685203214E+03 -0.18473164788E+04 -0.16211667313E+03  0.18923206501E+04  0.25500000920E-02 0.  1.
</event>
<event>
 5   0  0.1648000E-07  0.3792586E+04  0.7818609E-02  0.8047748E-01
       -1   -1    0    0    0  501  0.00000000000E+00  0.00000000000E+00  0.18617232907E+04  0.18617232907E+04  0.50400001928E-02 0.  1.
        1   -1    0    0  501    0  0.00000000000E+00  0.00000000000E+00 -0.19315048791E+04  0.19315048791E+04  0.50400001928E-02 0. -1.
    10030    2    1    2    0    0  0.00000000000E+00  0.00000000000E+00 -0.69781588397E+02  0.37932281698E+04  0.37925862519E+04 0.  0.
        4    1    3    3  502    0 -0.18566116869E+03  0.71977630181E+03  0.17099324975E+04  0.18645156887E+04  0.12699999809E+01 0.  1.
       -4    1    3    3    0  502  0.18566116869E+03 -0.71977630181E+03 -0.17797140859E+04  0.19287124811E+04  0.12699999809E+01 0. -1.
</event>
<event>
 5   0  0.5202788E-07  0.3644774E+04  0.7818609E-02  0.8080312E-01
       -2   -1    0    0    0  501  0.00000000000E+00  0.00000000000E+00  0.14998242755E+04  0.14998242755E+04  0.25500000920E-02 0.  1.
        2   -1    0    0  501    0  0.00000000000E+00  0.00000000000E+00 -0.22143223898E+04  0.22143223898E+04  0.25500000920E-02 0. -1.
    10030    2    1    2    0    0  0.00000000000E+00  0.00000000000E+00 -0.71449811429E+03  0.37141466652E+04  0.36447740527E+04 0.  0.
        1    1    3    3  502    0 -0.14064916324E+04 -0.65231700639E+03  0.61876917958E+03  0.16693146756E+04  0.50400001928E-02 0.  1.
       -1    1    3    3    0  502  0.14064916324E+04  0.65231700639E+03 -0.13332672939E+04  0.20448319896E+04  0.50400001928E-02 0. -1.
</event>
<event>
 5   0  0.5134434E-07  0.3878928E+04  0.7818609E-02  0.8029426E-01
       -2   -1    0    0    0  501  0.00000000000E+00  0.00000000000E+00  0.14973232635E+04  0.14973232635E+04  0.25500000920E-02 0.  1.
        2   -1    0    0  501    0  0.00000000000E+00  0.00000000000E+00 -0.25121637034E+04  0.25121637034E+04  0.25500000920E-02 0. -1.
    10030    2    1    2    0    0  0.00000000000E+00  0.00000000000E+00 -0.10148404399E+04  0.40094869669E+04  0.38789282823E+04 0.  0.
        5    1    3    3  502    0 -0.13686258626E+04  0.13686930644E+04 -0.63419246953E+03  0.20368307820E+04  0.46999998093E+01 0. -1.
       -5    1    3    3    0  502  0.13686258626E+04 -0.13686930644E+04 -0.38064797034E+03  0.19726561848E+04  0.46999998093E+01 0.  1.
</event>
<event>
 5   0  0.1648000E-07  0.3720720E+04  0.7818609E-02  0.8063385E-01
       -1   -1    0    0    0  501  0.00000000000E+00  0.00000000000E+00  0.15597490765E+04  0.15597490765E+04  0.50400001928E-02 0. -1.
        1   -1    0    0  501    0  0.00000000000E+00  0.00000000000E+00 -0.22189081999E+04  0.22189081999E+04  0.50400001928E-02 0.  1.
    10030    2    1    2    0    0  0.00000000000E+00  0.00000000000E+00 -0.65915912345E+03  0.37786572764E+04  0.37207203688E+04 0.  0.
        4    1    3    3  502    0  0.13395164264E+04 -0.19038150574E+03 -0.16263290746E+04  0.21155371059E+04  0.12699999809E+01 0.  1.
       -4    1    3    3    0  502 -0.13395164264E+04  0.19038150574E+03  0.96716995119E+03  0.16631201706E+04  0.12699999809E+01 0. -1.
</event>
<event>
 5   0  0.5202788E-07  0.3787496E+04  0.7818609E-02  0.8048844E-01
        2   -1    0    0  501    0  0.00000000000E+00  0.00000000000E+00  0.19580448981E+04  0.19580448981E+04  0.25500000920E-02 0.  1.
       -2   -1    0    0    0  501  0.00000000000E+00  0.00000000000E+00 -0.18315621384E+04  0.18315621384E+04  0.25500000920E-02 0. -1.
    10030    2    1    2    0    0  0.00000000000E+00  0.00000000000E+00  0.12648275970E+03  0.37896070365E+04  0.37874956901E+04 0.  0.
        1    1    3    3  502    0  0.13087227428E+04  0.33492942304E+03 -0.12646562990E+04  0.18504833126E+04  0.50400001928E-02 0. -1.
       -1    1    3    3    0  502 -0.13087227428E+04 -0.33492942304E+03  0.13911390587E+04  0.19391237238E+04  0.50400001928E-02 0.  1.
</event>
<event>
 5   0  0.1648000E-07  0.3762478E+04  0.7818609E-02  0.8054255E-01
       -1   -1    0    0    0  501  0.00000000000E+00  0.00000000000E+00  0.26833980510E+04  0.26833980510E+04  0.50400001928E-02 0.  1.
        1   -1    0    0  501    0  0.00000000000E+00  0.00000000000E+00 -0.13188724403E+04  0.13188724403E+04  0.50400001928E-02 0. -1.
    10030    2    1    2    0    0  0.00000000000E+00  0.00000000000E+00  0.13645256107E+04  0.40022704914E+04  0.37624777665E+04 0.  0.
        1    1    3    3  502    0  0.23716932595E+03 -0.17870463901E+04  0.12543845193E+04  0.21961932091E+04  0.50400001928E-02 0.  1.
       -1    1    3    3    0  502 -0.23716932595E+03  0.17870463901E+04  0.11014109137E+03  0.18060772822E+04  0.50400001928E-02 0. -1.
</event>
<event>
 5   0  0.5202788E-07  0.3837235E+04  0.7818609E-02  0.8038211E-01
        2   -1    0    0  501    0  0.00000000000E+00  0.00000000000E+00  0.19212408102E+04  0.19212408102E+04  0.25500000920E-02 0. -1.
       -2   -1    0    0    0  501  0.00000000000E+00  0.00000000000E+00 -0.19159976307E+04  0.19159976307E+04  0.25500000920E-02 0.  1.
    10030    2    1    2    0    0  0.00000000000E+00  0.00000000000E+00  0.52431794466E+01  0.38372384409E+04  0.38372348587E+04 0.  0.
        1    1    3    3  502    0  0.16505678240E+04 -0.61970824714E+03 -0.75413560805E+03  0.19175851920E+04  0.50400001928E-02 0.  1.
       -1    1    3    3    0  502 -0.16505678240E+04  0.61970824714E+03  0.75937878749E+03  0.19196532489E+04  0.50400001928E-02 0. -1.
</event>
<event>
 5   0  0.1648000E-07  0.3791211E+04  0.7818609E-02  0.8048044E-01
        1   -1    0    0  501    0  0.00000000000E+00  0.00000000000E+00  0.22460529414E+04  0.22460529414E+04  0.50400001928E-02 0.  1.
       -1   -1    0    0    0  501  0.00000000000E+00  0.00000000000E+00 -0.15998375010E+04  0.15998375010E+04  0.50400001928E-02 0. -1.
    10030    2    1    2    0    0  0.00000000000E+00  0.00000000000E+00  0.64621544040E+03  0.38458904424E+04  0.37912107433E+04 0.  0.
        4    1    3    3  502    0 -0.16328476751E+04 -0.61793414664E+03 -0.42597598202E+03  0.17970785431E+04  0.12699999809E+01 0.  1.
       -4    1    3    3    0  502  0.16328476751E+04  0.61793414664E+03  0.10721914224E+04  0.20488118994E+04  0.12699999809E+01 0. -1.
</event>
<event>
 5   0  0.5158266E-07  0.3850390E+04  0.7818609E-02  0.8035427E-01
        2   -1    0    0  501    0  0.00000000000E+00  0.00000000000E+00  0.27604686659E+04  0.27604686659E+04  0.25500000920E-02 0.  1.
       -2   -1    0    0    0  501  0.00000000000E+00  0.00000000000E+00 -0.13426619816E+04  0.13426619816E+04  0.25500000920E-02 0. -1.
    10030    2    1    2    0    0  0.00000000000E+00  0.00000000000E+00  0.14178066842E+04  0.41031306475E+04  0.38503902811E+04 0.  0.
        2    1    3    3  502    0 -0.16045162111E+04 -0.85985538743E+02  0.18389395502E+04  0.24420410426E+04  0.25500000920E-02 0.  1.
       -2    1    3    3    0  502  0.16045162111E+04  0.85985538743E+02 -0.42113286600E+03  0.16610896048E+04  0.25500000920E-02 0. -1.
</event>
<event>
 5   0  0.5158266E-07  0.3811308E+04  0.7818609E-02  0.8043733E-01
        2   -1    0    0  501    0  0.00000000000E+00  0.00000000000E+00  0.16900292521E+04  0.16900292521E+04  0.25500000920E-02 0.  1.
       -2   -1    0    0    0  501  0.00000000000E+00  0.00000000000E+00 -0.21487889915E+04  0.21487889915E+04  0.25500000920E-02 0. -1.
    10030    2    1    2    0    0  0.00000000000E+00  0.00000000000E+00 -0.45875973937E+03  0.38388182436E+04  0.38113075196E+04 0.  0.
        2    1    3    3  502    0  0.27406434862E+02 -0.11031504086E+04  0.13354833652E+04  0.17323994214E+04  0.25500000920E-02 0.  1.
       -2    1    3    3    0  502 -0.27406434862E+02  0.11031504086E+04 -0.17942431045E+04  0.21064188222E+04  0.25500000920E-02 0. -1.
</event>
<event>
 5   0  0.1648000E-07  0.3549584E+04  0.7818609E-02  0.8102139E-01
       -1   -1    0    0    0  501  0.00000000000E+00  0.00000000000E+00  0.23819928881E+04  0.23819928881E+04  0.50400001928E-02 0. -1.
        1   -1    0    0  501    0  0.00000000000E+00  0.00000000000E+00 -0.13223747957E+04  0.13223747957E+04  0.50400001928E-02 0.  1.
    10030    2    1    2    0    0  0.00000000000E+00  0.00000000000E+00  0.10596180924E+04  0.37043676839E+04  0.35495844032E+04 0.  0.
        4    1    3    3  502    0 -0.11355725941E+04 -0.93657072060E+03  0.15646095038E+04  0.21481839641E+04  0.12699999809E+01 0. -1.
       -4    1    3    3    0  502  0.11355725941E+04  0.93657072060E+03 -0.50499141140E+03  0.15561837198E+04  0.12699999809E+01 0.  1.
</event>
<event>
 5   0  0.1656617E-07  0.3181209E+04  0.7818609E-02  0.8193798E-01
       -1   -1    0    0    0  501  0.00000000000E+00  0.00000000000E+00  0.10499531181E+04  0.10499531181E+04  0.50400001928E-02 0. -1.
        1   -1    0    0  501    0  0.00000000000E+00  0.00000000000E+00 -0.24096523324E+04  0.24096523324E+04  0.50400001928E-02 0.  1.
    10030    2    1    2    0    0  0.00000000000E+00  0.00000000000E+00 -0.13596992142E+04  0.34596054505E+04  0.31812085628E+04 0.  0.
        5    1    3    3  502    0 -0.14381750045E+04 -0.40253895472E+03 -0.12751225733E+04  0.19637577805E+04  0.46999998093E+01 0.  1.
       -5    1    3    3    0  502  0.14381750045E+04  0.40253895472E+03 -0.84576640934E+02  0.14958476700E+04  0.46999998093E+01 0. -1.
</event>
<event>
 5   0  0.1648000E-07  0.3838268E+04  0.7818609E-02  0.8037992E-01
       -1   -1    0    0    0  501  0.00000000000E+00  0.00000000000E+00  0.25014063369E+04  0.25014063369E+04  0.50400001928E-02 0.  1.
        1   -1    0    0  501    0  0.00000000000E+00  0.00000000000E+00 -0.14724016842E+04  0.14724016842E+04  0.50400001928E-02 0. -1.
    10030    2    1    2    0    0  0.00000000000E+00  0.00000000000E+00  0.10290046527E+04  0.39738080211E+04  0.38382677881E+04 0.  0.
        2    1    3    3  502    0 -0.10421824148E+02 -0.18198563217E+04 -0.11618020452E+03  0.18235908220E+04  0.25500000920E-02 0. -1.
       -2    1    3    3    0  502  0.10421824148E+02  0.18198563217E+04  0.11451848573E+04  0.21502171991E+04  0.25500000920E-02 0.  1.
</event>
<event>
 5   0  0.5132561E-07  0.3815387E+04  0.7818609E-02  0.8042861E-01
        2   -1    0    0  501    0  0.00000000000E+00  0.00000000000E+00  0.22102371678E+04  0.22102371678E+04  0.25500000920E-02 0. -1.
       -2   -1    0    0    0  501  0.00000000000E+00  0.00000000000E+00 -0.16465632943E+04  0.16465632943E+04  0.25500000920E-02 0.  1.
    10030    2    1    2    0    0  0.00000000000E+00  0.00000000000E+00  0.56367387348E+03  0.38568004621E+04  0.38153874729E+04 0.  0.
        3    1    3    3  502    0  0.16344270504E+04  0.16854206647E+03  0.12616551418E+04  0.20716012933E+04  0.10100000352E+00 0.  1.
       -3    1    3    3    0  502 -0.16344270504E+04 -0.16854206647E+03 -0.69798126837E+03  0.17851991688E+04  0.10100000352E+00 0. -1.
</event>
<event>
 5   0  0.1648000E-07  0.3808466E+04  0.7818609E-02  0.8044341E-01
        1   -1    0    0  501    0  0.00000000000E+00  0.00000000000E+00  0.25643775680E+04  0.25643775680E+04  0.50400001928E-02 0.  1.
       -1   -1    0    0    0  501  0.00000000000E+00  0.00000000000E+00 -0.14140285670E+04  0.14140285670E+04  0.50400001928E-02 0. -1.
    10030    2    1    2    0    0  0.00000000000E+00  0.00000000000E+00  0.11503490010E+04  0.39784061350E+04  0.38084659052E+04 0.  0.
        2    1    3    3  502    0 -0.16852346175E+04 -0.58254091047E+03 -0.12303106916E+03  0.17873181789E+04  0.25500000920E-02 0. -1.
       -2    1    3    3    0  502  0.16852346175E+04  0.58254091047E+03  0.12733800701E+04  0.21910879561E+04  0.25500000920E-02 0.  1.
</event>
<event>
 5   0  0.1648000E-07  0.4042665E+04  0.7818609E-02  0.7995995E-01
       -1   -1    0    0    0  501  0.00000000000E+00  0.00000000000E+00  0.25985636692E+04  0.25985636692E+04  0.50400001928E-02 0.  1.
        1   -1    0    0  501    0  0.00000000000E+00  0.00000000000E+00 -0.15723246264E+04  0.15723246264E+04  0.50400001928E-02 0. -1.
    10030    2    1    2    0    0  0.00000000000E+00  0.00000000000E+00  0.10262390428E+04  0.41708882956E+04  0.40426652844E+04 0.  0.
        1    1    3    3  502    0  0.12920118247E+04  0.12674134300E+04  0.14417536541E+04  0.23139327900E+04  0.50400001928E-02 0.  1.
       -1    1    3    3    0  502 -0.12920118247E+04 -0.12674134300E+04 -0.41551461126E+03  0.18569555056E+04  0.50400001928E-02 0. -1.
</event>
<event>
 5   0  0.5202788E-07  0.3651629E+04  0.7818609E-02  0.8078767E-01
       -2   -1    0    0    0  501  0.00000000000E+00  0.00000000000E+00  0.34053843376E+04  0.34053843376E+04  0.25500000920E-02 0. -1.
        2   -1    0    0  501    0  0.00000000000E+00  0.00000000000E+00 -0.97891986758E+03  0.97891986758E+03  0.25500000920E-02 0.  1.
    10030    2    1    2    0    0  0.00000000000E+00  0.00000000000E+00  0.24264644700E+04  0.43843042052E+04  0.36516288885E+04 0.  0.
        1    1    3    3  502    0 -0.35418927209E+02 -0.16435583964E+04  0.21670145447E+04  0.27200166800E+04  0.50400001928E-02 0. -1.
       -1    1    3    3    0  502  0.35418927209E+02  0.16435583964E+04  0.25944992534E+03  0.16642875252E+04  0.50400001928E-02 0.  1.
</event>
<event>
 5   0  0.1648000E-07  0.3525745E+04  0.7818609E-02  0.8107716E-01
       -3   -1    0    0    0  501  0.00000000000E+00  0.00000000000E+00  0.17443745697E+04  0.17443745726E+04  0.10100000352E+00 0. -1.
        3   -1    0    0  501    0  0.00000000000E+00  0.00000000000E+00 -0.17815665766E+04  0.17815665794E+04  0.10100000352E+00 0.  1.
    10030    2    1    2    0    0  0.00000000000E+00  0.00000000000E+00 -0.37192006890E+02  0.35259411520E+04  0.35257449939E+04 0.  0.
        4    1    3    3  502    0  0.86678036937E+03 -0.60144439851E+03 -0.14310039515E+04  0.17778688071E+04  0.12699999809E+01 0.  1.
       -4    1    3    3    0  502 -0.86678036937E+03  0.60144439851E+03  0.13938119446E+04  0.17480723449E+04  0.12699999809E+01 0. -1.
</event>
<event>
 5   0  0.1656617E-07  0.3182492E+04  0.7818609E-02  0.8193456E-01
        1   -1    0    0  501    0  0.00000000000E+00  0.00000000000E+00  0.24953528135E+04  0.24953528135E+04  0.50400001928E-02 0. -1.
       -1   -1    0    0    0  501  0.00000000000E+00  0.00000000000E+00 -0.10147115383E+04  0.10147115383E+04  0.50400001928E-02 0.  1.
    10030    2    1    2    0    0  0.00000000000E+00  0.00000000000E+00  0.14806412752E+04  0.35100643518E+04  0.31824916603E+04 0.  0.
        5    1    3    3  502    0  0.44374656435E+03 -0.10616529070E+04  0.19525518410E+04  0.22663844973E+04  0.46999998093E+01 0. -1.
       -5    1    3    3    0  502 -0.44374656435E+03  0.10616529070E+04 -0.47191056575E+03  0.12436798544E+04  0.46999998093E+01 0.  1.
</event>
<event>
 5   0  0.5158266E-07  0.3446142E+04  0.7818609E-02  0.8126674E-01
       -2   -1    0    0    0  501  0.00000000000E+00  0.00000000000E+00  0.95336680520E+03  0.95336680521E+03  0.25500000920E-02 0. -1.
        2   -1    0    0  501    0  0.00000000000E+00  0.00000000000E+00 -0.31141983045E+04  0.31141983045E+04  0.25500000920E-02 0.  1.
    10030    2    1    2    0    0  0.00000000000E+00  0.00000000000E+00 -0.21608314993E+04  0.40675651098E+04  0.34461417779E+04 0.  0.
        2    1    3    3  502    0  0.83371829543E+03  0.11609607031E+04 -0.22162639947E+04  0.26371844919E+04  0.25500000920E-02 0.  1.
       -2    1    3    3    0  502 -0.83371829543E+03 -0.11609607031E+04  0.55432495351E+02  0.14303806178E+04  0.25500000920E-02 0. -1.
</event>
<event>
 5   0  0.5158266E-07  0.3696236E+04  0.7818609E-02  0.8068796E-01
       -2   -1    0    0    0  501  0.00000000000E+00  0.00000000000E+00  0.15769086221E+04  0.15769086221E+04  0.25500000920E-02 0.  1.
        2   -1    0    0  501    0  0.00000000000E+00  0.00000000000E+00 -0.21659723625E+04  0.21659723625E+04  0.25500000920E-02 0. -1.
    10030    2    1    2    0    0  0.00000000000E+00  0.00000000000E+00 -0.58906374043E+03  0.37428809846E+04  0.36962361904E+04 0.  0.
        2    1    3    3  502    0 -0.83154705570E+03  0.14486291946E+04  0.50636213211E+03  0.17453938404E+04  0.25500000920E-02 0.  1.
       -2    1    3    3    0  502  0.83154705570E+03 -0.14486291946E+04 -0.10954258725E+04  0.19974871443E+04  0.25500000920E-02 0. -1.
</event>
<event>
 5   0  0.1648000E-07  0.3808366E+04  0.7818609E-02  0.8044362E-01
       -1   -1    0    0    0  501  0.00000000000E+00  0.00000000000E+00  0.13496057052E+04  0.13496057052E+04  0.50400001928E-02 0.  1.
        1   -1    0    0  501    0  0.00000000000E+00  0.00000000000E+00 -0.26866454661E+04  0.26866454661E+04  0.50400001928E-02 0. -1.
    10030    2    1    2    0    0  0.00000000000E+00  0.00000000000E+00 -0.13370397609E+04  0.40362511714E+04  0.38083655544E+04 0.  0.
        3    1    3    3  502    0  0.15763542550E+04  0.56976313465E+03 -0.16261288387E+04  0.23353410409E+04  0.10100000352E+00 0. -1.
       -3    1    3    3    0  502 -0.15763542550E+04 -0.56976313465E+03  0.28908907778E+03  0.17009101305E+04  0.10100000352E+00 0.  1.
</event>
<event>
 5   0  0.5134434E-07  0.3731237E+04  0.7818609E-02  0.8061074E-01
       -2   -1    0    0    0  501  0.00000000000E+00  0.00000000000E+00  0.20136364748E+04  0.20136364748E+04  0.25500000920E-02 0. -1.
        2   -1    0    0  501    0  0.00000000000E+00  0.00000000000E+00 -0.17284805513E+04  0.17284805513E+04  0.25500000920E-02 0.  1.
    10030    2    1    2    0    0  0.00000000000E+00  0.00000000000E+00  0.28515592355E+03  0.37421170261E+04  0.37312365157E+04 0.  0.
        5    1    3    3  502    0 -0.44005353893E+03 -0.25305154471E+03  0.19430363795E+04  0.20082566229E+04  0.46999998093E+01 0. -1.
       -5    1    3    3    0  502  0.44005353893E+03  0.25305154471E+03 -0.16578804560E+04  0.17338604032E+04  0.46999998093E+01 0.  1.
</event>
<event>
 5   0  0.1648000E-07  0.3756620E+04  0.7818609E-02  0.8055529E-01
       -1   -1    0    0    0  501  0.00000000000E+00  0.00000000000E+00  0.18462911086E+04  0.18462911086E+04  0.50400001928E-02 0. -1.
        1   -1    0    0  501    0  0.00000000000E+00  0.00000000000E+00 -0.19108840206E+04  0.19108840206E+04  0.50400001928E-02 0.  1.
    10030    2    1    2    0    0  0.00000000000E+00  0.00000000000E+00 -0.64592912024E+02  0.37571751292E+04  0.37566198513E+04 0.  0.
        4    1    3    3  502    0 -0.95121814733E+02  0.14675662421E+04  0.11363144127E+04  0.18584969443E+04  0.12699999809E+01 0. -1.
       -4    1    3    3    0  502  0.95121814733E+02 -0.14675662421E+04 -0.12009073247E+04  0.18986781849E+04  0.12699999809E+01 0.  1.
</event>
<event>
 5   0  0.5158266E-07  0.3833894E+04  0.7818609E-02  0.8038920E-01
        2   -1    0    0  501    0  0.00000000000E+00  0.00000000000E+00  0.10918197900E+04  0.10918197900E+04  0.25500000920E-02 0. -1.
       -2   -1    0    0    0  501  0.00000000000E+00  0.00000000000E+00 -0.33656529238E+04  0.33656529238E+04  0.25500000920E-02 0.  1.
    10030    2    1    2    0    0  0.00000000000E+00  0.00000000000E+00 -0.22738331337E+04  0.44574727138E+04  0.38338943483E+04 0.  0.
        2    1    3    3  502    0  0.17432005934E+04 -0.44294720527E+03 -0.36593404917E+03  0.18354449770E+04  0.25500000920E-02 0. -1.
       -2    1    3    3    0  502 -0.17432005934E+04  0.44294720527E+03 -0.19078990846E+04  0.26220277368E+04  0.25500000920E-02 0.  1.
</event>
<event>
 5   0  0.1656617E-07  0.3692817E+04  0.7818609E-02  0.8069555E-01
       -1   -1    0    0    0  501  0.00000000000E+00  0.00000000000E+00  0.13850585529E+04  0.13850585529E+04  0.50400001928E-02 0. -1.
        1   -1    0    0  501    0  0.00000000000E+00  0.00000000000E+00 -0.24614303111E+04  0.24614303111E+04  0.50400001928E-02 0.  1.
    10030    2    1    2    0    0  0.00000000000E+00  0.00000000000E+00 -0.10763717582E+04  0.38464888640E+04  0.36928174094E+04 0.  0.
        5    1    3    3  502    0  0.37774468720E+03 -0.17089736297E+04 -0.11508115215E+04  0.20946768638E+04  0.46999998093E+01 0.  1.
       -5    1    3    3    0  502 -0.37774468720E+03  0.17089736297E+04  0.74439763321E+02  0.17518120002E+04  0.46999998093E+01 0. -1.
</event>
<event>
 5   0  0.1648000E-07  0.3511589E+04  0.7818609E-02  0.8111049E-01
        3   -1    0    0  501    0  0.00000000000E+00  0.00000000000E+00  0.28498160421E+04  0.28498160439E+04  0.10100000352E+00 0.  1.
       -3   -1    0    0    0  501  0.00000000000E+00  0.00000000000E+00 -0.10817591126E+04  0.10817591173E+04  0.10100000352E+00 0. -1.
    10030    2    1    2    0    0  0.00000000000E+00  0.00000000000E+00  0.17680569295E+04  0.39315751611E+04  0.35115890907E+04 0.  0.
        4    1    3    3  502    0 -0.95745027223E+03  0.14139947541E+04  0.13411773164E+04  0.21713706260E+04  0.12699999809E+01 0.  1.
       -4    1    3    3    0  502  0.95745027223E+03 -0.14139947541E+04  0.42687961312E+03  0.17602045351E+04  0.12699999809E+01 0. -1.
</event>
<event>
 5   0  0.1648000E-07  0.3804920E+04  0.7818609E-02  0.8045100E-01
        1   -1    0    0  501    0  0.00000000000E+00  0.00000000000E+00  0.22058388850E+04  0.22058388850E+04  0.50400001928E-02 0.  1.
       -1   -1    0    0    0  501  0.00000000000E+00  0.00000000000E+00 -0.16408063318E+04  0.16408063318E+04  0.50400001928E-02 0. -1.
    10030    2    1    2    0    0  0.00000000000E+00  0.00000000000E+00  0.56503255316E+03  0.38466452168E+04  0.38049201881E+04 0.  0.
        2    1    3    3  502    0 -0.18348266917E+04  0.49268365989E+03  0.38375549288E+03  0.19381936063E+04  0.25500000920E-02 0. -1.
       -2    1    3    3    0  502  0.18348266917E+04 -0.49268365989E+03  0.18127706028E+03  0.19084516105E+04  0.25500000920E-02 0.  1.
</event>
<event>
 5   0  0.1656617E-07  0.3692935E+04  0.7818609E-02  0.8069529E-01
        1   -1    0    0  501    0  0.00000000000E+00  0.00000000000E+00  0.20167352066E+04  0.20167352066E+04  0.50400001928E-02 0. -1.
       -1   -1    0    0    0  501  0.00000000000E+00  0.00000000000E+00 -0.16905746939E+04  0.16905746939E+04  0.50400001928E-02 0.  1.
    10030    2    1    2    0    0  0.00000000000E+00  0.00000000000E+00  0.32616051273E+03  0.37073099006E+04  0.36929346080E+04 0.  0.
        5    1    3    3  502    0  0.60946089083E+03  0.82485712201E+03 -0.13783404532E+04  0.17180443371E+04  0.46999998093E+01 0.  1.
       -5    1    3    3    0  502 -0.60946089083E+03 -0.82485712201E+03  0.17045009659E+04  0.19892655635E+04  0.46999998093E+01 0. -1.
</event>
<event>
 5   0  0.5158266E-07  0.3777947E+04  0.7818609E-02  0.8050904E-01
       -2   -1    0    0    0  501  0.00000000000E+00  0.00000000000E+00  0.19251013236E+04  0.19251013236E+04  0.25500000920E-02 0. -1.
        2   -1    0    0  501    0  0.00000000000E+00  0.00000000000E+00 -0.18535233490E+04  0.18535233490E+04  0.25500000920E-02 0.  1.
    10030    2    1    2    0    0  0.00000000000E+00  0.00000000000E+00  0.71577974564E+02  0.37786246726E+04  0.37779466658E+04 0.  0.
        2    1    3    3  502    0  0.17162881487E+03  0.80933574777E+03  0.17342514095E+04  0.19214860796E+04  0.25500000920E-02 0. -1.
       -2    1    3    3    0  502 -0.17162881487E+03 -0.80933574777E+03 -0.16626734349E+04  0.18571385931E+04  0.25500000920E-02 0.  1.
</event>
<event>
 5   0  0.5158266E-07  0.3055733E+04  0.7818609E-02  0.8227993E-01
        2   -1    0    0  501    0  0.00000000000E+00  0.00000000000E+00  0.15652982202E+04  0.15652982202E+04  0.25500000920E-02 0.  1.
       -2   -1    0    0    0  501  0.00000000000E+00  0.00000000000E+00 -0.14913296782E+04  0.14913296782E+04  0.25500000920E-02 0. -1.
    10030    2    1    2    0    0  0.00000000000E+00  0.00000000000E+00  0.73968542032E+02  0.30566278984E+04  0.30557327704E+04 0.  0.
        2    1    3    3  502    0  0.61592290979E+02  0.41394088796E+03 -0.14328797479E+04  0.14927441311E+04  0.25500000920E-02 0. -1.
       -2    1    3    3    0  502 -0.61592290979E+02 -0.41394088796E+03  0.15068482899E+04  0.15638837673E+04  0.25500000920E-02 0.  1.
</event>
<event>
 5   0  0.1648000E-07  0.3617720E+04  0.7818609E-02  0.8086445E-01
        1   -1    0    0  501    0  0.00000000000E+00  0.00000000000E+00  0.27475316238E+04  0.27475316238E+04  0.50400001928E-02 0.  1.
       -1   -1    0    0    0  501  0.00000000000E+00  0.00000000000E+00 -0.11908775116E+04  0.11908775117E+04  0.50400001928E-02 0. -1.
    10030    2    1    2    0    0  0.00000000000E+00  0.00000000000E+00  0.15566541122E+04  0.39384091355E+04  0.36177195156E+04 0.  0.
        4    1    3    3  502    0 -0.49502715012E+03  0.50502223704E+00  0.26723550780E+04  0.27178181341E+04  0.12699999809E+01 0.  1.
       -4    1    3    3    0  502  0.49502715012E+03 -0.50502223704E+00 -0.11157009658E+04  0.12205910013E+04  0.12699999809E+01 0. -1.
</event>
<event>
 5   0  0.5325362E-07  0.3823480E+04  0.7818609E-02  0.8041135E-01
       -2   -1    0    0    0  501  0.00000000000E+00  0.00000000000E+00  0.23623019926E+04  0.23623019926E+04  0.25500000920E-02 0. -1.
        2   -1    0    0  501    0  0.00000000000E+00  0.00000000000E+00 -0.15471133421E+04  0.15471133421E+04  0.25500000920E-02 0.  1.
    10030    2    1    2    0    0  0.00000000000E+00  0.00000000000E+00  0.81518865044E+03  0.39094153347E+04  0.38234795309E+04 0.  0.
        4    1    3    3  502    0 -0.33888028219E+03  0.55742870134E+03 -0.14297866605E+04  0.15715782227E+04  0.12699999809E+01 0.  1.
       -4    1    3    3    0  502  0.33888028219E+03 -0.55742870134E+03  0.22449753109E+04  0.23378371120E+04  0.12699999809E+01 0. -1.
</event>
<event>
 5   0  0.1648000E-07  0.3795526E+04  0.7818609E-02  0.8047116E-01
       -3   -1    0    0    0  501  0.00000000000E+00  0.00000000000E+00  0.15934646017E+04  0.15934646049E+04  0.10100000352E+00 0.  1.
        3   -1    0    0  501    0  0.00000000000E+00  0.00000000000E+00 -0.22601723983E+04  0.22601724005E+04  0.10100000352E+00 0. -1.
    10030    2    1    2    0    0  0.00000000000E+00  0.00000000000E+00 -0.66670779662E+03  0.38536370054E+04  0.37955261669E+04 0.  0.
        4    1    3    3  502    0 -0.65974614500E+03 -0.66996623982E+03  0.13403332081E+04  0.16372582142E+04  0.12699999809E+01 0.  1.
       -4    1    3    3    0  502  0.65974614500E+03  0.66996623982E+03 -0.20070410047E+04  0.22163787912E+04  0.12699999809E+01 0. -1.
</event>
<event>
 5   0  0.1648000E-07  0.3865763E+04  0.7818609E-02  0.8032188E-01
        1   -1    0    0  501    0  0.00000000000E+00  0.00000000000E+00  0.28891607737E+04  0.28891607737E+04  0.50400001928E-02 0. -1.
       -1   -1    0    0    0  501  0.00000000000E+00  0.00000000000E+00 -0.12931200246E+04  0.12931200246E+04  0.50400001928E-02 0.  1.
    10030    2    1    2    0    0  0.00000000000E+00  0.00000000000E+00  0.15960407491E+04  0.41822807983E+04  0.38657633920E+04 0.  0.
        3    1    3    3  502    0 -0.10375280020E+04 -0.12856142119E+04 -0.28750911193E+03  0.16768809607E+04  0.10100000352E+00 0. -1.
       -3    1    3    3    0  502  0.10375280020E+04  0.12856142119E+04  0.18835498611E+04  0.25053998376E+04  0.10100000352E+00 0.  1.
</event>
<event>
 5   0  0.5158266E-07  0.3926947E+04  0.7818609E-02  0.8019448E-01
        2   -1    0    0  501    0  0.00000000000E+00  0.00000000000E+00  0.17160818636E+04  0.17160818636E+04  0.25500000920E-02 0. -1.
       -2   -1    0    0    0  501  0.00000000000E+00  0.00000000000E+00 -0.22465288324E+04  0.22465288324E+04  0.25500000920E-02 0.  1.
    10030    2    1    2    0    0  0.00000000000E+00  0.00000000000E+00 -0.53044696883E+03  0.39626106960E+04  0.39269465927E+04 0.  0.
        2    1    3    3  502    0  0.13809825133E+04  0.64508456093E+03  0.98374949961E+03  0.18141140733E+04  0.25500000920E-02 0. -1.
       -2    1    3    3    0  502 -0.13809825133E+04 -0.64508456093E+03 -0.15141964684E+04  0.21484966227E+04  0.25500000920E-02 0.  1.
</event>
<event>
 5   0  0.1648000E-07  0.3038862E+04  0.7818609E-02  0.8232720E-01
        1   -1    0    0  501    0  0.00000000000E+00  0.00000000000E+00  0.22688243076E+04  0.22688243077E+04  0.50400001928E-02 0. -1.
       -1   -1    0    0    0  501  0.00000000000E+00  0.00000000000E+00 -0.10175623806E+04  0.10175623806E+04  0.50400001928E-02 0.  1.
    10030    2    1    2    0    0  0.00000000000E+00  0.00000000000E+00  0.12512619271E+04  0.32863866883E+04  0.30388618025E+04 0.  0.
        1    1    3    3  502    0 -0.72243773900E+03  0.13991156965E+03 -0.81200176219E+03  0.10958277218E+04  0.50400001928E-02 0.  1.
       -1    1    3    3    0  502  0.72243773900E+03 -0.13991156965E+03  0.20632636893E+04  0.21905589664E+04  0.50400001928E-02 0. -1.
</event>
<event>
 5   0  0.5158266E-07  0.3877679E+04  0.7818609E-02  0.8029688E-01
        2   -1    0    0  501    0  0.00000000000E+00  0.00000000000E+00  0.16876012638E+04  0.16876012638E+04  0.25500000920E-02 0. -1.
       -2   -1    0    0    0  501  0.00000000000E+00  0.00000000000E+00 -0.22274797877E+04  0.22274797877E+04  0.25500000920E-02 0.  1.
    10030    2    1    2    0    0  0.00000000000E+00  0.00000000000E+00 -0.53987852391E+03  0.39150810516E+04  0.38776785349E+04 0.  0.
        2    1    3    3  502    0 -0.19024566662E+04 -0.35834210962E+03 -0.37749031339E+03  0.19723715094E+04  0.25500000920E-02 0. -1.
       -2    1    3    3    0  502  0.19024566662E+04  0.35834210962E+03 -0.16238821052E+03  0.19427095422E+04  0.25500000920E-02 0.  1.
</event>
<event>
 5   0  0.5158266E-07  0.3804374E+04  0.7818609E-02  0.8045217E-01
       -2   -1    0    0    0  501  0.00000000000E+00  0.00000000000E+00  0.19274680402E+04  0.19274680402E+04  0.25500000920E-02 0. -1.
        2   -1    0    0  501    0  0.00000000000E+00  0.00000000000E+00 -0.18772376929E+04  0.18772376929E+04  0.25500000920E-02 0.  1.
    10030    2    1    2    0    0  0.00000000000E+00  0.00000000000E+00  0.50230347311E+02  0.38047057332E+04  0.38043741441E+04 0.  0.
        2    1    3    3  502    0  0.57159212345E+03  0.43260415466E+03  0.17872141885E+04  0.19256163860E+04  0.25500000920E-02 0. -1.
       -2    1    3    3    0  502 -0.57159212345E+03 -0.43260415466E+03 -0.17369838412E+04  0.18790893472E+04  0.25500000920E-02 0.  1.
</event>
<event>
 5   0  0.1648000E-07  0.3372331E+04  0.7818609E-02  0.8144731E-01
        1   -1    0    0  501    0  0.00000000000E+00  0.00000000000E+00  0.19404732937E+04  0.19404732937E+04  0.50400001928E-02 0.  1.
       -1   -1    0    0    0  501  0.00000000000E+00  0.00000000000E+00 -0.14651859692E+04  0.14651859692E+04  0.50400001928E-02 0. -1.
    10030    2    1    2    0    0  0.00000000000E+00  0.00000000000E+00  0.47528732452E+03  0.34056592630E+04  0.33723310891E+04 0.  0.
        3    1    3    3  502    0 -0.94426313589E+03  0.61218018762E+03 -0.10304558691E+04  0.15258560745E+04  0.10100000352E+00 0. -1.
       -3    1    3    3    0  502  0.94426313589E+03 -0.61218018762E+03  0.15057431936E+04  0.18798031884E+04  0.10100000352E+00 0.  1.
</event>
<event>
 5   0  0.1648000E-07  0.3764325E+04  0.7818609E-02  0.8053854E-01
       -1   -1    0    0    0  501  0.00000000000E+00  0.00000000000E+00  0.21390919870E+04  0.21390919870E+04  0.50400001928E-02 0. -1.
        1   -1    0    0  501    0  0.00000000000E+00  0.00000000000E+00 -0.16560935650E+04  0.16560935650E+04  0.50400001928E-02 0.  1.
    10030    2    1    2    0    0  0.00000000000E+00  0.00000000000E+00  0.48299842197E+03  0.37951855521E+04  0.37643254242E+04 0.  0.
        1    1    3    3  502    0  0.13351561400E+02  0.12854501109E+04 -0.11445352343E+04  0.17211975931E+04  0.50400001928E-02 0.  1.
       -1    1    3    3    0  502 -0.13351561400E+02 -0.12854501109E+04  0.16275336563E+04  0.20739879590E+04  0.50400001928E-02 0. -1.
</event>
<event>
 5   0  0.1648000E-07  0.3203718E+04  0.7818609E-02  0.8187836E-01
        1   -1    0    0  501    0  0.00000000000E+00  0.00000000000E+00  0.21759602156E+04  0.21759602156E+04  0.50400001928E-02 0.  1.
       -1   -1    0    0    0  501  0.00000000000E+00  0.00000000000E+00 -0.11792273979E+04  0.11792273979E+04  0.50400001928E-02 0. -1.
    10030    2    1    2    0    0  0.00000000000E+00  0.00000000000E+00  0.99673281770E+03  0.33551876135E+04  0.32037177797E+04 0.  0.
        3    1    3    3  502    0  0.10350227107E+04 -0.98424133661E+03 -0.26114503611E+03  0.14519641044E+04  0.10100000352E+00 0.  1.
       -3    1    3    3    0  502 -0.10350227107E+04  0.98424133661E+03  0.12578778538E+04  0.19032235091E+04  0.10100000352E+00 0. -1.
</event>
<event>
 5   0  0.1648000E-07  0.3881773E+04  0.7818609E-02  0.8028831E-01
       -3   -1    0    0    0  501  0.00000000000E+00  0.00000000000E+00  0.18781895822E+04  0.18781895849E+04  0.10100000352E+00 0. -1.
        3   -1    0    0  501    0  0.00000000000E+00  0.00000000000E+00 -0.20056762853E+04  0.20056762879E+04  0.10100000352E+00 0.  1.
    10030    2    1    2    0    0  0.00000000000E+00  0.00000000000E+00 -0.12748670313E+03  0.38838658728E+04  0.38817729529E+04 0.  0.
        5    1    3    3  502    0 -0.13671984390E+04  0.75367913022E+03  0.10900281704E+04  0.19040607409E+04  0.46999998093E+01 0. -1.
       -5    1    3    3    0  502  0.13671984390E+04 -0.75367913022E+03 -0.12175148735E+04  0.19798051319E+04  0.46999998093E+01 0.  1.
</event>
<event>
 5   0  0.1648000E-07  0.3794016E+04  0.7818609E-02  0.8047440E-01
        1   -1    0    0  501    0  0.00000000000E+00  0.00000000000E+00  0.19648923799E+04  0.19648923799E+04  0.50400001928E-02 0. -1.
       -1   -1    0    0    0  501  0.00000000000E+00  0.00000000000E+00 -0.18314692372E+04  0.18314692372E+04  0.50400001928E-02 0.  1.
    10030    2    1    2    0    0  0.00000000000E+00  0.00000000000E+00  0.13342314266E+03  0.37963616171E+04  0.37940163143E+04 0.  0.
        4    1    3    3  502    0 -0.37371770955E+03  0.51913305090E+03  0.18537254782E+04  0.19609854187E+04  0.12699999809E+01 0.  1.
       -4    1    3    3    0  502  0.37371770955E+03 -0.51913305090E+03 -0.17203023356E+04  0.18353761984E+04  0.12699999809E+01 0. -1.
</event>
<event>
 5   0  0.1648000E-07  0.3020413E+04  0.7818609E-02  0.8237926E-01
        1   -1    0    0  501    0  0.00000000000E+00  0.00000000000E+00  0.15118657301E+04  0.15118657301E+04  0.50400001928E-02 0.  1.
       -1   -1    0    0    0  501  0.00000000000E+00  0.00000000000E+00 -0.15085489061E+04  0.15085489061E+04  0.50400001928E-02 0. -1.
    10030    2    1    2    0    0  0.00000000000E+00  0.00000000000E+00  0.33168240140E+01  0.30204146362E+04  0.30204128150E+04 0.  0.
        4    1    3    3  502    0  0.11861766524E+04  0.92130242553E+03  0.15948299988E+03  0.15103806309E+04  0.12699999809E+01 0. -1.
       -4    1    3    3    0  502 -0.11861766524E+04 -0.92130242553E+03 -0.15616617587E+03  0.15100340053E+04  0.12699999809E+01 0.  1.
</event>
<event>
 5   0  0.5202788E-07  0.2724657E+04  0.7818609E-02  0.8327049E-01
        2   -1    0    0  501    0  0.00000000000E+00  0.00000000000E+00  0.16840956212E+04  0.16840956212E+04  0.25500000920E-02 0.  1.
       -2   -1    0    0    0  501  0.00000000000E+00  0.00000000000E+00 -0.11020392445E+04  0.11020392445E+04  0.25500000920E-02 0. -1.
    10030    2    1    2    0    0  0.00000000000E+00  0.00000000000E+00  0.58205637662E+03  0.27861348657E+04  0.27246573848E+04 0.  0.
        1    1    3    3  502    0 -0.53139730599E+03  0.35023068099E+03 -0.94068106434E+03  0.11357488682E+04  0.50400001928E-02 0. -1.
       -1    1    3    3    0  502  0.53139730599E+03 -0.35023068099E+03  0.15227374410E+04  0.16503859975E+04  0.50400001928E-02 0.  1.
</event>
<event>
 5   0  0.5132561E-07  0.3769194E+04  0.7818609E-02  0.8052798E-01
       -2   -1    0    0    0  501  0.00000000000E+00  0.00000000000E+00  0.26105006121E+04  0.26105006121E+04  0.25500000920E-02 0. -1.
        2   -1    0    0  501    0  0.00000000000E+00  0.00000000000E+00 -0.13605460475E+04  0.13605460475E+04  0.25500000920E-02 0.  1.
    10030    2    1    2    0    0  0.00000000000E+00  0.00000000000E+00  0.12499545646E+04  0.39710466596E+04  0.37691942321E+04 0.  0.
        3    1    3    3  502    0  0.79434569688E+03  0.34780967867E+03  0.23878301621E+04  0.25404112958E+04  0.10100000352E+00 0. -1.
       -3    1    3    3    0  502 -0.79434569688E+03 -0.34780967867E+03 -0.11378755975E+04  0.14306353638E+04  0.10100000352E+00 0.  1.
</event>
<event>
 5   0  0.1648000E-07  0.3744650E+04  0.7818609E-02  0.8058138E-01
        3   -1    0    0  501    0  0.00000000000E+00  0.00000000000E+00  0.20173432442E+04  0.20173432467E+04  0.10100000352E+00 0. -1.
       -3   -1    0    0    0  501  0.00000000000E+00  0.00000000000E+00 -0.17377315712E+04  0.17377315741E+04  0.10100000352E+00 0.  1.
    10030    2    1    2    0    0  0.00000000000E+00  0.00000000000E+00  0.27961167304E+03  0.37550748208E+04  0.37446500801E+04 0.  0.
        4    1    3    3  502    0  0.11933112855E+04 -0.10900484664E+04 -0.80802493496E+03  0.18069597095E+04  0.12699999809E+01 0.  1.
       -4    1    3    3    0  502 -0.11933112855E+04  0.10900484664E+04  0.10876366080E+04  0.19481151114E+04  0.12699999809E+01 0. -1.
</event>
<event>
 5   0  0.5158266E-07  0.3770676E+04  0.7818609E-02  0.8052477E-01
       -2   -1    0    0    0  501  0.00000000000E+00  0.00000000000E+00  0.12798999271E+04  0.12798999271E+04  0.25500000920E-02 0. -1.
        2   -1    0    0  501    0  0.00000000000E+00  0.00000000000E+00 -0.27771691005E+04  0.27771691005E+04  0.25500000920E-02 0.  1.
    10030    2    1    2    0    0  0.00000000000E+00  0.00000000000E+00 -0.14972691734E+04  0.40570690276E+04  0.37706755519E+04 0.  0.
        2    1    3    3  502    0 -0.11637218634E+03 -0.46324514143E+03 -0.27109908484E+04  0.27527458886E+04  0.25500000920E-02 0.  1.
       -2    1    3    3    0  502  0.11637218634E+03  0.46324514143E+03  0.12137216750E+04  0.13043231391E+04  0.25500000920E-02 0. -1.
</event>
<event>
 5   0  0.5325362E-07  0.3762202E+04  0.7818609E-02  0.8054315E-01
        2   -1    0    0  501    0  0.00000000000E+00  0.00000000000E+00  0.15092725148E+04  0.15092725149E+04  0.25500000920E-02 0.  1.
       -2   -1    0    0    0  501  0.00000000000E+00  0.00000000000E+00 -0.23445346585E+04  0.23445346585E+04  0.25500000920E-02 0. -1.
    10030    2    1    2    0    0  0.00000000000E+00  0.00000000000E+00 -0.83526214363E+03  0.38538071733E+04  0.37622023976E+04 0.  0.
        4    1    3    3  502    0 -0.76534546859E+03 -0.32894283412E+03  0.13100243704E+04  0.15524569361E+04  0.12699999809E+01 0.  1.
       -4    1    3    3    0  502  0.76534546859E+03  0.32894283412E+03 -0.21452865140E+04  0.23013502373E+04  0.12699999809E+01 0. -1.
</event>
<event>
 5   0  0.1648000E-07  0.3718283E+04  0.7818609E-02  0.8063922E-01
       -1   -1    0    0    0  501  0.00000000000E+00  0.00000000000E+00  0.22604768143E+04  0.22604768143E+04  0.50400001928E-02 0.  1.
        1   -1    0    0  501    0  0.00000000000E+00  0.00000000000E+00 -0.15290609928E+04  0.15290609928E+04  0.50400001928E-02 0. -1.
    10030    2    1    2    0    0  0.00000000000E+00  0.00000000000E+00  0.73141582151E+03  0.37895378071E+04  0.37182828950E+04 0.  0.
        4    1    3    3  502    0  0.30013857197E+03  0.11848177541E+04  0.17934568987E+04  0.21703376542E+04  0.12699999809E+01 0.  1.
       -4    1    3    3    0  502 -0.30013857197E+03 -0.11848177541E+04 -0.10620410771E+04  0.16192001529E+04  0.12699999809E+01 0. -1.
</event>
<event>
 5   0  0.5134434E-07  0.3798199E+04  0.7818609E-02  0.8046541E-01
        2   -1    0    0  501    0  0.00000000000E+00  0.00000000000E+00  0.24525962271E+04  0.24525962271E+04  0.25500000920E-02 0.  1.
       -2   -1    0    0    0  501  0.00000000000E+00  0.00000000000E+00 -0.14705150960E+04  0.14705150960E+04  0.25500000920E-02 0. -1.
    10030    2    1    2    0    0  0.00000000000E+00  0.00000000000E+00  0.98208113115E+03  0.39231113231E+04  0.37981994557E+04 0.  0.
        5    1    3    3  502    0 -0.70866723861E+03 -0.13381274949E+04 -0.69284961234E+03  0.16651898159E+04  0.46999998093E+01 0. -1.
       -5    1    3    3    0  502  0.70866723861E+03  0.13381274949E+04  0.16749307435E+04  0.22579215073E+04  0.46999998093E+01 0.  1.
</event>
<event>
 5   0  0.5202788E-07  0.3826586E+04  0.7818609E-02  0.8040474E-01
        2   -1    0    0  501    0  0.00000000000E+00  0.00000000000E+00  0.25973623777E+04  0.25973623777E+04  0.25500000920E-02 0.  1.
       -2   -1    0    0    0  501  0.00000000000E+00  0.00000000000E+00 -0.14093873104E+04  0.14093873104E+04  0.25500000920E-02 0. -1.
    10030    2    1    2    0    0  0.00000000000E+00  0.00000000000E+00  0.11879750673E+04  0.40067496881E+04  0.38265857239E+04 0.  0.
        1    1    3    3  502    0  0.45038502490E+03 -0.79344467375E+03  0.23549196537E+04  0.25254796963E+04  0.50400001928E-02 0.  1.
       -1    1    3    3    0  502 -0.45038502490E+03  0.79344467375E+03 -0.11669445864E+04  0.14812699918E+04  0.50400001928E-02 0. -1.
</event>
<event>
 5   0  0.1648000E-07  0.3806502E+04  0.7818609E-02  0.8044761E-01
       -1   -1    0    0    0  501  0.00000000000E+00  0.00000000000E+00  0.22991997692E+04  0.22991997692E+04  0.50400001928E-02 0.  1.
        1   -1    0    0  501    0  0.00000000000E+00  0.00000000000E+00 -0.15754894387E+04  0.15754894387E+04  0.50400001928E-02 0. -1.
    10030    2    1    2    0    0  0.00000000000E+00  0.00000000000E+00  0.72371033045E+03  0.38746892079E+04  0.38065023073E+04 0.  0.
        4    1    3    3  502    0  0.11218356938E+04 -0.14917300078E+04 -0.17089762092E+02  0.18665656733E+04  0.12699999809E+01 0. -1.
       -4    1    3    3    0  502 -0.11218356938E+04  0.14917300078E+04  0.74080009254E+03  0.20081235346E+04  0.12699999809E+01 0.  1.
</event>
<event>
 5   0  0.1648000E-07  0.3640372E+04  0.7818609E-02  0.8081306E-01
        1   -1    0    0  501    0  0.00000000000E+00  0.00000000000E+00  0.94236505309E+03  0.94236505311E+03  0.50400001928E-02 0.  1.
       -1   -1    0    0    0  501  0.00000000000E+00  0.00000000000E+00 -0.35157039530E+04  0.35157039530E+04  0.50400001928E-02 0. -1.
    10030    2    1    2    0    0  0.00000000000E+00  0.00000000000E+00 -0.25733388999E+04  0.44580690061E+04  0.36403717076E+04 0.  0.
        3    1    3    3  502    0  0.45045692899E+03 -0.12095641555E+04 -0.28583476493E+04  0.31362570344E+04  0.10100000352E+00 0. -1.
       -3    1    3    3    0  502 -0.45045692899E+03  0.12095641555E+04  0.28500874946E+03  0.13218119717E+04  0.10100000352E+00 0.  1.
</event>
<event>
 5   0  0.5325362E-07  0.3744107E+04  0.7818609E-02  0.8058257E-01
        2   -1    0    0  501    0  0.00000000000E+00  0.00000000000E+00  0.22358158126E+04  0.22358158126E+04  0.25500000920E-02 0.  1.
       -2   -1    0    0    0  501  0.00000000000E+00  0.00000000000E+00 -0.15674747250E+04  0.15674747250E+04  0.25500000920E-02 0. -1.
    10030    2    1    2    0    0  0.00000000000E+00  0.00000000000E+00  0.66834108759E+03  0.38032905377E+04  0.37441072507E+04 0.  0.
        4    1    3    3  502    0 -0.25538845957E+03  0.18543525950E+04  0.30660581306E+03  0.18968013996E+04  0.12699999809E+01 0. -1.
       -4    1    3    3    0  502  0.25538845957E+03 -0.18543525950E+04  0.36173527453E+03  0.19064891381E+04  0.12699999809E+01 0.  1.
</event>
<event>
 5   0  0.5132561E-07  0.2854303E+04  0.7818609E-02  0.8286605E-01
       -2   -1    0    0    0  501  0.00000000000E+00  0.00000000000E+00  0.10364003283E+04  0.10364003283E+04  0.25500000920E-02 0.  1.
        2   -1    0    0  501    0  0.00000000000E+00  0.00000000000E+00 -0.19652268577E+04  0.19652268577E+04  0.25500000920E-02 0. -1.
    10030    2    1    2    0    0  0.00000000000E+00  0.00000000000E+00 -0.92882652937E+03  0.30016271860E+04  0.28543032499E+04 0.  0.
        3    1    3    3  502    0  0.10444471922E+04 -0.90162779217E+03 -0.80957092477E+02  0.13821565302E+04  0.10100000352E+00 0. -1.
       -3    1    3    3    0  502 -0.10444471922E+04  0.90162779217E+03 -0.84786943689E+03  0.16194706558E+04  0.10100000352E+00 0.  1.
</event>
<event>
 5   0  0.5158266E-07  0.2972949E+04  0.7818609E-02  0.8251498E-01
        2   -1    0    0  501    0  0.00000000000E+00  0.00000000000E+00  0.22780686424E+04  0.22780686424E+04  0.25500000920E-02 0. -1.
       -2   -1    0    0    0  501  0.00000000000E+00  0.00000000000E+00 -0.96994709650E+03  0.96994709651E+03  0.25500000920E-02 0.  1.
    10030    2    1    2    0    0  0.00000000000E+00  0.00000000000E+00  0.13081215459E+04  0.32480157389E+04  0.29729487485E+04 0.  0.
        2    1    3    3  502    0  0.75503835450E+03 -0.11052045048E+04 -0.52326421017E+02  0.13395140793E+04  0.25500000920E-02 0.  1.
       -2    1    3    3    0  502 -0.75503835450E+03  0.11052045048E+04  0.13604479669E+04  0.19085016596E+04  0.25500000920E-02 0. -1.
</event>
<event>
 5   0  0.5158266E-07  0.3794337E+04  0.7818609E-02  0.8047371E-01
       -2   -1    0    0    0  501  0.00000000000E+00  0.00000000000E+00  0.15566094853E+04  0.15566094853E+04  0.25500000920E-02 0. -1.
        2   -1    0    0  501    0  0.00000000000E+00  0.00000000000E+00 -0.23122362591E+04  0.23122362591E+04  0.25500000920E-02 0.  1.
    10030    2    1    2    0    0  0.00000000000E+00  0.00000000000E+00 -0.75562677380E+03  0.38688457445E+04  0.37943373035E+04 0.  0.
        2    1    3    3  502    0 -0.66402690507E+03  0.15177510311E+03  0.14276294696E+04  0.15818006559E+04  0.25500000920E-02 0. -1.
       -2    1    3    3    0  502  0.66402690507E+03 -0.15177510311E+03 -0.21832562434E+04  0.22870450885E+04  0.25500000920E-02 0.  1.
</event>
<event>
 5   0  0.5325362E-07  0.3766121E+04  0.7818609E-02  0.8053464E-01
        2   -1    0    0  501    0  0.00000000000E+00  0.00000000000E+00  0.16027752412E+04  0.16027752412E+04  0.25500000920E-02 0. -1.
       -2   -1    0    0    0  501  0.00000000000E+00  0.00000000000E+00 -0.22123612050E+04  0.22123612050E+04  0.25500000920E-02 0.  1.
    10030    2    1    2    0    0  0.00000000000E+00  0.00000000000E+00 -0.60958596384E+03  0.38151364462E+04  0.37661214872E+04 0.  0.
        4    1    3    3  502    0 -0.31175417607E+03  0.24380700829E+03 -0.21697537762E+04  0.22055533514E+04  0.12699999809E+01 0.  1.
       -4    1    3    3    0  502  0.31175417607E+03 -0.24380700829E+03  0.15601678124E+04  0.16095830948E+04  0.12699999809E+01 0. -1.
</event>
<event>
 5   0  0.5134434E-07  0.3818194E+04  0.7818609E-02  0.8042262E-01
       -2   -1    0    0    0  501  0.00000000000E+00  0.00000000000E+00  0.27350284494E+04  0.27350284494E+04  0.25500000920E-02 0.  1.
        2   -1    0    0  501    0  0.00000000000E+00  0.00000000000E+00 -0.13325822913E+04  0.13325822913E+04  0.25500000920E-02 0. -1.
    10030    2    1    2    0    0  0.00000000000E+00  0.00000000000E+00  0.14024461581E+04  0.40676107407E+04  0.38181935404E+04 0.  0.
        5    1    3    3  502    0  0.16089252135E+04  0.48719307566E+03  0.16651087575E+04  0.23661375065E+04  0.46999998093E+01 0.  1.
       -5    1    3    3    0  502 -0.16089252135E+04 -0.48719307566E+03 -0.26266259944E+03  0.17014732342E+04  0.46999998093E+01 0. -1.
</event>
<event>
 5   0  0.5134434E-07  0.3680748E+04  0.7818609E-02  0.8072242E-01
       -2   -1    0    0    0  501  0.00000000000E+00  0.00000000000E+00  0.20438354687E+04  0.20438354687E+04  0.25500000920E-02 0. -1.
        2   -1    0    0  501    0  0.00000000000E+00  0.00000000000E+00 -0.16571665435E+04  0.16571665435E+04  0.25500000920E-02 0.  1.
    10030    2    1    2    0    0  0.00000000000E+00  0.00000000000E+00  0.38666892515E+03  0.37010020122E+04  0.36807476192E+04 0.  0.
        5    1    3    3  502    0 -0.59732590433E+02 -0.92806605462E+03 -0.14035100554E+04  0.16836677670E+04  0.46999998093E+01 0.  1.
       -5    1    3    3    0  502  0.59732590433E+02  0.92806605462E+03  0.17901789806E+04  0.20173342451E+04  0.46999998093E+01 0. -1.
</event>
<event>
 5   0  0.5132561E-07  0.3879580E+04  0.7818609E-02  0.8029290E-01
        2   -1    0    0  501    0  0.00000000000E+00  0.00000000000E+00  0.22266985943E+04  0.22266985943E+04  0.25500000920E-02 0. -1.
       -2   -1    0    0    0  501  0.00000000000E+00  0.00000000000E+00 -0.16898498053E+04  0.16898498053E+04  0.25500000920E-02 0.  1.
    10030    2    1    2    0    0  0.00000000000E+00  0.00000000000E+00  0.53684878891E+03  0.39165483996E+04  0.38795804856E+04 0.  0.
        3    1    3    3  502    0 -0.12820677855E+04  0.14255557316E+04 -0.29137079750E+02  0.19174868787E+04  0.10100000352E+00 0.  1.
       -3    1    3    3    0  502  0.12820677855E+04 -0.14255557316E+04  0.56598586866E+03  0.19990615209E+04  0.10100000352E+00 0. -1.
</event>
<event>
 5   0  0.1648000E-07  0.3725715E+04  0.7818609E-02  0.8062287E-01
       -1   -1    0    0    0  501  0.00000000000E+00  0.00000000000E+00  0.17854521829E+04  0.17854521829E+04  0.50400001928E-02 0. -1.
        1   -1    0    0  501    0  0.00000000000E+00  0.00000000000E+00 -0.19436186185E+04  0.19436186185E+04  0.50400001928E-02 0.  1.
    10030    2    1    2    0    0  0.00000000000E+00  0.00000000000E+00 -0.15816643567E+03  0.37290708014E+04  0.37257150214E+04 0.  0.
        1    1    3    3  502    0  0.55231179857E+03 -0.11999814730E+04 -0.13937480077E+04  0.19202961666E+04  0.50400001928E-02 0.  1.
       -1    1    3    3    0  502 -0.55231179857E+03  0.11999814730E+04  0.12355815720E+04  0.18087746348E+04  0.50400001928E-02 0. -1.
</event>
<event>
 5   0  0.1648000E-07  0.3785478E+04  0.7818609E-02  0.8049278E-01
        1   -1    0    0  501    0  0.00000000000E+00  0.00000000000E+00  0.20844481516E+04  0.20844481516E+04  0.50400001928E-02 0. -1.
       -1   -1    0    0    0  501  0.00000000000E+00  0.00000000000E+00 -0.17186619352E+04  0.17186619352E+04  0.50400001928E-02 0.  1.
    10030    2    1    2    0    0  0.00000000000E+00  0.00000000000E+00  0.36578621637E+03  0.38031100868E+04  0.37854784078E+04 0.  0.
        1    1    3    3  502    0  0.22839776160E+03  0.75029174631E+03  0.19135187308E+04  0.20680080211E+04  0.50400001928E-02 0. -1.
       -1    1    3    3    0  502 -0.22839776160E+03 -0.75029174631E+03 -0.15477325144E+04  0.17351020657E+04  0.50400001928E-02 0.  1.
</event>
<event>
 5   0  0.5158266E-07  0.3775349E+04  0.7818609E-02  0.8051466E-01
        2   -1    0    0  501    0  0.00000000000E+00  0.00000000000E+00  0.12252878939E+04  0.12252878939E+04  0.25500000920E-02 0. -1.
       -2   -1    0    0    0  501  0.00000000000E+00  0.00000000000E+00 -0.29081443836E+04  0.29081443836E+04  0.25500000920E-02 0.  1.
    10030    2    1    2    0    0  0.00000000000E+00  0.00000000000E+00 -0.16828564897E+04  0.41334322775E+04  0.37753485174E+04 0.  0.
        2    1    3    3  502    0 -0.40162580608E+03  0.17790459231E+04 -0.30842011336E+03  0.18497109641E+04  0.25500000920E-02 0.  1.
       -2    1    3    3    0  502  0.40162580608E+03 -0.17790459231E+04 -0.13744363764E+04  0.22837213134E+04  0.25500000920E-02 0. -1.
</event>
<event>
 5   0  0.5325362E-07  0.3516861E+04  0.7818609E-02  0.8109806E-01
       -2   -1    0    0    0  501  0.00000000000E+00  0.00000000000E+00  0.18156828807E+04  0.18156828807E+04  0.25500000920E-02 0. -1.
        2   -1    0    0  501    0  0.00000000000E+00  0.00000000000E+00 -0.17029836920E+04  0.17029836920E+04  0.25500000920E-02 0.  1.
    10030    2    1    2    0    0  0.00000000000E+00  0.00000000000E+00  0.11269918872E+03  0.35186665726E+04  0.35168612913E+04 0.  0.
        4    1    3    3  502    0 -0.99880612453E+03  0.12656654588E+04  0.75853176574E+03  0.17818234426E+04  0.12699999809E+01 0. -1.
       -4    1    3    3    0  502  0.99880612453E+03 -0.12656654588E+04 -0.64583257703E+03  0.17368431301E+04  0.12699999809E+01 0.  1.
</event>
<event>
 5   0  0.1656617E-07  0.3804732E+04  0.7818609E-02  0.8045140E-01
        1   -1    0    0  501    0  0.00000000000E+00  0.00000000000E+00  0.22498213414E+04  0.22498213414E+04  0.50400001928E-02 0. -1.
       -1   -1    0    0    0  501  0.00000000000E+00  0.00000000000E+00 -0.16085706186E+04  0.16085706187E+04  0.50400001928E-02 0.  1.
    10030    2    1    2    0    0  0.00000000000E+00  0.00000000000E+00  0.64125072273E+03  0.38583919600E+04  0.38047320573E+04 0.  0.
        5    1    3    3  502    0 -0.52807671881E+03 -0.23123400724E+03  0.21591029909E+04  0.22347442812E+04  0.46999998093E+01 0. -1.
       -5    1    3    3    0  502  0.52807671881E+03  0.23123400724E+03 -0.15178522682E+04  0.16236476788E+04  0.46999998093E+01 0.  1.
</event>
<event>
 5   0  0.5202788E-07  0.3809866E+04  0.7818609E-02  0.8044041E-01
        2   -1    0    0  501    0  0.00000000000E+00  0.00000000000E+00  0.17935372610E+04  0.17935372610E+04  0.25500000920E-02 0. -1.
       -2   -1    0    0    0  501  0.00000000000E+00  0.00000000000E+00 -0.20232478191E+04  0.20232478191E+04  0.25500000920E-02 0.  1.
    10030    2    1    2    0    0  0.00000000000E+00  0.00000000000E+00 -0.22971055807E+03  0.38167850801E+04  0.38098663241E+04 0.  0.
        1    1    3    3  502    0  0.71371649207E+03 -0.96942935020E+03  0.13641678256E+04  0.18193785622E+04  0.50400001928E-02 0. -1.
       -1    1    3    3    0  502 -0.71371649207E+03  0.96942935020E+03 -0.15938783836E+04  0.19974065179E+04  0.50400001928E-02 0.  1.
</event>
<event>
 5   0  0.1656617E-07  0.3691054E+04  0.7818609E-02  0.8069947E-01
        1   -1    0    0  501    0  0.00000000000E+00  0.00000000000E+00  0.24092660243E+04  0.24092660243E+04  0.50400001928E-02 0.  1.
       -1   -1    0    0    0  501  0.00000000000E+00  0.00000000000E+00 -0.14136960362E+04  0.14136960362E+04  0.50400001928E-02 0. -1.
    10030    2    1    2    0    0  0.00000000000E+00  0.00000000000E+00  0.99556998816E+03  0.38229620605E+04  0.36910539572E+04 0.  0.
        5    1    3    3  502    0  0.16695282498E+04  0.63692694516E+03  0.19831556128E+02  0.17870131200E+04  0.46999998093E+01 0.  1.
       -5    1    3    3    0  502 -0.16695282498E+04 -0.63692694516E+03  0.97573843203E+03  0.20359489405E+04  0.46999998093E+01 0. -1.
</event>
<event>
 5   0  0.1648000E-07  0.3855982E+04  0.7818609E-02  0.8034247E-01
        1   -1    0    0  501    0  0.00000000000E+00  0.00000000000E+00  0.33110733122E+04  0.33110733122E+04  0.50400001928E-02 0.  1.
       -1   -1    0    0    0  501  0.00000000000E+00  0.00000000000E+00 -0.11226419844E+04  0.11226419844E+04  0.50400001928E-02 0. -1.
    10030    2    1    2    0    0  0.00000000000E+00  0.00000000000E+00  0.21884313278E+04  0.44337152966E+04  0.38559823204E+04 0.  0.
        4    1    3    3  502    0 -0.10365262250E+04 -0.14242364415E+04  0.19300285848E+03  0.17720292810E+04  0.12699999809E+01 0.  1.
       -4    1    3    3    0  502  0.10365262250E+04  0.14242364415E+04  0.19954284693E+04  0.26616860156E+04  0.12699999809E+01 0. -1.
</event>
<event>
 5   0  0.1648000E-07  0.3795976E+04  0.7818609E-02  0.8047019E-01
        1   -1    0    0  501    0  0.00000000000E+00  0.00000000000E+00  0.15698586479E+04  0.15698586480E+04  0.50400001928E-02 0. -1.
       -1   -1    0    0    0  501  0.00000000000E+00  0.00000000000E+00 -0.22947019513E+04  0.22947019513E+04  0.50400001928E-02 0.  1.
    10030    2    1    2    0    0  0.00000000000E+00  0.00000000000E+00 -0.72484330336E+03  0.38645605993E+04  0.37959756073E+04 0.  0.
        1    1    3    3  502    0 -0.10255070391E+03 -0.10203076155E+04  0.12635615548E+04  0.16273082314E+04  0.50400001928E-02 0. -1.
       -1    1    3    3    0  502  0.10255070391E+03  0.10203076155E+04 -0.19884048582E+04  0.22372523678E+04  0.50400001928E-02 0.  1.
</event>
<event>
 5   0  0.1648000E-07  0.3791842E+04  0.7818609E-02  0.8047908E-01
        1   -1    0    0  501    0  0.00000000000E+00  0.00000000000E+00  0.18998310144E+04  0.18998310145E+04  0.50400001928E-02 0.  1.
       -1   -1    0    0    0  501  0.00000000000E+00  0.00000000000E+00 -0.18920194397E+04  0.18920194397E+04  0.50400001928E-02 0. -1.
    10030    2    1    2    0    0  0.00000000000E+00  0.00000000000E+00  0.78115747779E+01  0.37918504541E+04  0.37918424078E+04 0.  0.
        1    1    3    3  502    0  0.73361709987E+03  0.82233671894E+03 -0.15388500533E+04  0.18927470024E+04  0.50400001928E-02 0. -1.
       -1    1    3    3    0  502 -0.73361709987E+03 -0.82233671894E+03  0.15466616281E+04  0.18991034517E+04  0.50400001928E-02 0.  1.
</event>
<event>
 5   0  0.1648000E-07  0.3712709E+04  0.7818609E-02  0.8065151E-01
       -1   -1    0    0    0  501  0.00000000000E+00  0.00000000000E+00  0.22252927895E+04  0.22252927895E+04  0.50400001928E-02 0. -1.
        1   -1    0    0  501    0  0.00000000000E+00  0.00000000000E+00 -0.15485835300E+04  0.15485835300E+04  0.50400001928E-02 0.  1.
    10030    2    1    2    0    0  0.00000000000E+00  0.00000000000E+00  0.67670925947E+03  0.37738763195E+04  0.37127088564E+04 0.  0.
        1    1    3    3  502    0 -0.16999448079E+04  0.52322498334E+03 -0.20188544999E+03  0.17900654926E+04  0.50400001928E-02 0.  1.
       -1    1    3    3    0  502  0.16999448079E+04 -0.52322498334E+03  0.87859470946E+03  0.19838108268E+04  0.50400001928E-02 0. -1.
</event>
<event>
 5   0  0.1648000E-07  0.3800297E+04  0.7818609E-02  0.8046091E-01
       -1   -1    0    0    0  501  0.00000000000E+00  0.00000000000E+00  0.30093668718E+04  0.30093668718E+04  0.50400001928E-02 0.  1.
        1   -1    0    0  501    0  0.00000000000E+00  0.00000000000E+00 -0.11997756895E+04  0.11997756895E+04  0.50400001928E-02 0. -1.
    10030    2    1    2    0    0  0.00000000000E+00  0.00000000000E+00  0.18095911823E+04  0.42091425613E+04  0.38002974693E+04 0.  0.
        2    1    3    3  502    0  0.92154435527E+03  0.19247743808E+03 -0.92331055101E+03  0.13186333594E+04  0.25500000920E-02 0. -1.
       -2    1    3    3    0  502 -0.92154435527E+03 -0.19247743808E+03  0.27329017333E+04  0.28905092020E+04  0.25500000920E-02 0.  1.
</event>
<event>
 5   0  0.1656617E-07  0.3802642E+04  0.7818609E-02  0.8045588E-01
       -1   -1    0    0    0  501  0.00000000000E+00  0.00000000000E+00  0.13551901556E+04  0.13551901556E+04  0.50400001928E-02 0.  1.
        1   -1    0    0  501    0  0.00000000000E+00  0.00000000000E+00 -0.26675389072E+04  0.26675389072E+04  0.50400001928E-02 0. -1.
    10030    2    1    2    0    0  0.00000000000E+00  0.00000000000E+00 -0.13123487516E+04  0.40227290628E+04  0.38026424848E+04 0.  0.
        5    1    3    3  502    0  0.15147256560E+03  0.13745498334E+04 -0.20365599957E+04  0.24616924846E+04  0.46999998093E+01 0. -1.
       -5    1    3    3    0  502 -0.15147256560E+03 -0.13745498334E+04  0.72421124413E+03  0.15610365783E+04  0.46999998093E+01 0.  1.
</event>
<event>
 5   0  0.5132561E-07  0.3811902E+04  0.7818609E-02  0.8043605E-01
       -2   -1    0    0    0  501  0.00000000000E+00  0.00000000000E+00  0.26850625085E+04  0.26850625085E+04  0.25500000920E-02 0.  1.
        2   -1    0    0  501    0  0.00000000000E+00  0.00000000000E+00 -0.13529107327E+04  0.13529107327E+04  0.25500000920E-02 0. -1.
    10030    2    1    2    0    0  0.00000000000E+00  0.00000000000E+00  0.13321517758E+04  0.40379732412E+04  0.38119023523E+04 0.  0.
        3    1    3    3  502    0 -0.90687279644E+01  0.82337567852E+02  0.26831547712E+04  0.26844331345E+04  0.10100000352E+00 0.  1.
       -3    1    3    3    0  502  0.90687279644E+01 -0.82337567852E+02 -0.13510029954E+04  0.13535401068E+04  0.10100000352E+00 0. -1.
</event>
<event>
 5   0  0.1648000E-07  0.3772928E+04  0.7818609E-02  0.8051990E-01
        1   -1    0    0  501    0  0.00000000000E+00  0.00000000000E+00  0.27520397993E+04  0.27520397993E+04  0.50400001928E-02 0.  1.
       -1   -1    0    0    0  501  0.00000000000E+00  0.00000000000E+00 -0.12931303137E+04  0.12931303137E+04  0.50400001928E-02 0. -1.
    10030    2    1    2    0    0  0.00000000000E+00  0.00000000000E+00  0.14589094857E+04  0.40451701130E+04  0.37729278228E+04 0.  0.
        3    1    3    3  502    0 -0.44959260814E+03 -0.85661121428E+03  0.24658290334E+04  0.26488165505E+04  0.10100000352E+00 0.  1.
       -3    1    3    3    0  502  0.44959260814E+03  0.85661121428E+03 -0.10069195478E+04  0.13963535626E+04  0.10100000352E+00 0. -1.
</event>
<event>
 5   0  0.1648000E-07  0.3743157E+04  0.7818609E-02  0.8058464E-01
        1   -1    0    0  501    0  0.00000000000E+00  0.00000000000E+00  0.25927836299E+04  0.25927836299E+04  0.50400001928E-02 0.  1.
       -1   -1    0    0    0  501  0.00000000000E+00  0.00000000000E+00 -0.13509826456E+04  0.13509826456E+04  0.50400001928E-02 0. -1.
    10030    2    1    2    0    0  0.00000000000E+00  0.00000000000E+00  0.12418009843E+04  0.39437662755E+04  0.37431567896E+04 0.  0.
        2    1    3    3  502    0  0.13657002377E+03 -0.89588951755E+03 -0.11044009661E+04  0.14286255258E+04  0.25500000920E-02 0. -1.
       -2    1    3    3    0  502 -0.13657002377E+03  0.89588951755E+03  0.23462019504E+04  0.25151407497E+04  0.25500000920E-02 0.  1.
</event>
<event>
 5   0  0.5134434E-07  0.3793359E+04  0.7818609E-02  0.8047582E-01
        2   -1    0    0  501    0  0.00000000000E+00  0.00000000000E+00  0.21628573080E+04  0.21628573080E+04  0.25500000920E-02 0.  1.
       -2   -1    0    0    0  501  0.00000000000E+00  0.00000000000E+00 -0.16632594914E+04  0.16632594914E+04  0.25500000920E-02 0. -1.
    10030    2    1    2    0    0  0.00000000000E+00  0.00000000000E+00  0.49959781666E+03  0.38261167994E+04  0.37933589053E+04 0.  0.
        5    1    3    3  502    0  0.32140166699E+03  0.87399665398E+03 -0.14168021480E+04  0.16954408274E+04  0.46999998093E+01 0. -1.
       -5    1    3    3    0  502 -0.32140166699E+03 -0.87399665398E+03  0.19163999647E+04  0.21306759719E+04  0.46999998093E+01 0.  1.
</event>
<event>
 5   0  0.5132561E-07  0.3793440E+04  0.7818609E-02  0.8047564E-01
       -2   -1    0    0    0  501  0.00000000000E+00  0.00000000000E+00  0.22033789179E+04  0.22033789179E+04  0.25500000920E-02 0. -1.
        2   -1    0    0  501    0  0.00000000000E+00  0.00000000000E+00 -0.16327404212E+04  0.16327404212E+04  0.25500000920E-02 0.  1.
    10030    2    1    2    0    0  0.00000000000E+00  0.00000000000E+00  0.57063849669E+03  0.38361193391E+04  0.37934395065E+04 0.  0.
        3    1    3    3  502    0 -0.12169404181E+04 -0.69965222564E+02 -0.11842015778E+04  0.16994624151E+04  0.10100000352E+00 0.  1.
       -3    1    3    3    0  502  0.12169404181E+04  0.69965222564E+02  0.17548400744E+04  0.21366569239E+04  0.10100000352E+00 0. -1.
</event>
<event>
 5   0  0.1648000E-07  0.2996917E+04  0.7818609E-02  0.8244612E-01
       -1   -1    0    0    0  501  0.00000000000E+00  0.00000000000E+00  0.12167022638E+04  0.12167022638E+04  0.50400001928E-02 0. -1.
        1   -1    0    0  501    0  0.00000000000E+00  0.00000000000E+00 -0.18454620891E+04  0.18454620891E+04  0.50400001928E-02 0.  1.
    10030    2    1    2    0    0  0.00000000000E+00  0.00000000000E+00 -0.62875982525E+03  0.30621643529E+04  0.29969170169E+04 0.  0.
        1    1    3    3  502    0 -0.80613030388E+03  0.12602537997E+04 -0.40163342525E+03  0.15489981003E+04  0.50400001928E-02 0. -1.
       -1    1    3    3    0  502  0.80613030388E+03 -0.12602537997E+04 -0.22712640000E+03  0.15131662526E+04  0.50400001928E-02 0.  1.
</event>
<event>
 5   0  0.5325362E-07  0.3804980E+04  0.7818609E-02  0.8045087E-01
       -2   -1    0    0    0  501  0.00000000000E+00  0.00000000000E+00  0.12866865250E+04  0.12866865250E+04  0.25500000920E-02 0.  1.
        2   -1    0    0  501    0  0.00000000000E+00  0.00000000000E+00 -0.28130150503E+04  0.28130150503E+04  0.25500000920E-02 0. -1.
    10030    2    1    2    0    0  0.00000000000E+00  0.00000000000E+00 -0.15263285253E+04  0.40997015753E+04  0.38049801891E+04 0.  0.
        4    1    3    3  502    0  0.96510194065E+03  0.96794500211E+03  0.66263619362E+03  0.15190219291E+04  0.12699999809E+01 0.  1.
       -4    1    3    3    0  502 -0.96510194065E+03 -0.96794500211E+03 -0.21889647189E+04  0.25806796462E+04  0.12699999809E+01 0. -1.
</event>
<event>
 5   0  0.5202788E-07  0.2961150E+04  0.7818609E-02  0.8254912E-01
       -2   -1    0    0    0  501  0.00000000000E+00  0.00000000000E+00  0.14109773871E+04  0.14109773871E+04  0.25500000920E-02 0. -1.
        2   -1    0    0  501    0  0.00000000000E+00  0.00000000000E+00 -0.15536057675E+04  0.15536057675E+04  0.25500000920E-02 0.  1.
    10030    2    1    2    0    0  0.00000000000E+00  0.00000000000E+00 -0.14262838045E+03  0.29645831546E+04  0.29611501863E+04 0.  0.
        1    1    3    3  502    0 -0.83994095759E+03  0.31977410295E+03 -0.12492607184E+04  0.15389634927E+04  0.50400001928E-02 0.  1.
       -1    1    3    3    0  502  0.83994095759E+03 -0.31977410295E+03  0.11066323379E+04  0.14256196620E+04  0.50400001928E-02 0. -1.
</event>
<event>
 5   0  0.5132561E-07  0.3719603E+04  0.7818609E-02  0.8063631E-01
       -2   -1    0    0    0  501  0.00000000000E+00  0.00000000000E+00  0.17570909561E+04  0.17570909561E+04  0.25500000920E-02 0. -1.
        2   -1    0    0  501    0  0.00000000000E+00  0.00000000000E+00 -0.19685159890E+04  0.19685159890E+04  0.25500000920E-02 0.  1.
    10030    2    1    2    0    0  0.00000000000E+00  0.00000000000E+00 -0.21142503288E+03  0.37256069452E+04  0.37196030118E+04 0.  0.
        3    1    3    3  502    0 -0.91151961164E+03 -0.13612049255E+04 -0.98753963985E+03  0.19128464136E+04  0.10100000352E+00 0.  1.
       -3    1    3    3    0  502  0.91151961164E+03  0.13612049255E+04  0.77611460697E+03  0.18127605316E+04  0.10100000352E+00 0. -1.
</event>
<event>
 5   0  0.1656617E-07  0.3719593E+04  0.7818609E-02  0.8063634E-01
       -1   -1    0    0    0  501  0.00000000000E+00  0.00000000000E+00  0.17143809215E+04  0.17143809215E+04  0.50400001928E-02 0.  1.
        1   -1    0    0  501    0  0.00000000000E+00  0.00000000000E+00 -0.20175461857E+04  0.20175461857E+04  0.50400001928E-02 0. -1.
    10030    2    1    2    0    0  0.00000000000E+00  0.00000000000E+00 -0.30316526417E+03  0.37319271073E+04  0.37195928213E+04 0.  0.
        5    1    3    3  502    0  0.10339961716E+04  0.14931931503E+04 -0.55296764931E+03  0.18985702984E+04  0.46999998093E+01 0.  1.
       -5    1    3    3    0  502 -0.10339961716E+04 -0.14931931503E+04  0.24980238514E+03  0.18333568088E+04  0.46999998093E+01 0. -1.
</event>
<event>
 5   0  0.1648000E-07  0.3797687E+04  0.7818609E-02  0.8046652E-01
        1   -1    0    0  501    0  0.00000000000E+00  0.00000000000E+00  0.17533879135E+04  0.17533879135E+04  0.50400001928E-02 0. -1.
       -1   -1    0    0    0  501  0.00000000000E+00  0.00000000000E+00 -0.20563651399E+04  0.20563651399E+04  0.50400001928E-02 0.  1.
    10030    2    1    2    0    0  0.00000000000E+00  0.00000000000E+00 -0.30297722645E+03  0.38097530534E+04  0.37976865495E+04 0.  0.
        2    1    3    3  502    0  0.60142181750E+03  0.10829542157E+04 -0.15951955921E+04  0.20196898309E+04  0.25500000920E-02 0.  1.
       -2    1    3    3    0  502 -0.60142181750E+03 -0.10829542157E+04  0.12922183657E+04  0.17900632225E+04  0.25500000920E-02 0. -1.
</event>
<event>
 5   0  0.1648000E-07  0.3796320E+04  0.7818609E-02  0.8046945E-01
        1   -1    0    0  501    0  0.00000000000E+00  0.00000000000E+00  0.28162457678E+04  0.28162457678E+04  0.50400001928E-02 0.  1.
       -1   -1    0    0    0  501  0.00000000000E+00  0.00000000000E+00 -0.12793669675E+04  0.12793669675E+04  0.50400001928E-02 0. -1.
    10030    2    1    2    0    0  0.00000000000E+00  0.00000000000E+00  0.15368788003E+04  0.40956127354E+04  0.37963202224E+04 0.  0.
        3    1    3    3  502    0  0.85596935479E+03 -0.10789392883E+04  0.21776416921E+04  0.25766095695E+04  0.10100000352E+00 0.  1.
       -3    1    3    3    0  502 -0.85596935479E+03  0.10789392883E+04 -0.64076289183E+03  0.15190031659E+04  0.10100000352E+00 0. -1.
</event>
<event>
 5   0  0.5158266E-07  0.3818384E+04  0.7818609E-02  0.8042221E-01
       -2   -1    0    0    0  501  0.00000000000E+00  0.00000000000E+00  0.15237680069E+04  0.15237680069E+04  0.25500000920E-02 0. -1.
        2   -1    0    0  501    0  0.00000000000E+00  0.00000000000E+00 -0.23921051847E+04  0.23921051847E+04  0.25500000920E-02 0.  1.
    10030    2    1    2    0    0  0.00000000000E+00  0.00000000000E+00 -0.86833717779E+03  0.39158731916E+04  0.38183836107E+04 0.  0.
        2    1    3    3  502    0 -0.86437209073E+03  0.74264182342E+03  0.11367227352E+04  0.16095945346E+04  0.25500000920E-02 0. -1.
       -2    1    3    3    0  502  0.86437209073E+03 -0.74264182342E+03 -0.20050599130E+04  0.23062786570E+04  0.25500000920E-02 0.  1.
</event>
<event>
 5   0  0.5325362E-07  0.4202610E+04  0.7818609E-02  0.7964876E-01
        2   -1    0    0  501    0  0.00000000000E+00  0.00000000000E+00  0.16400198440E+04  0.16400198440E+04  0.25500000920E-02 0. -1.
       -2   -1    0    0    0  501  0.00000000000E+00  0.00000000000E+00 -0.26923342911E+04  0.26923342911E+04  0.25500000920E-02 0.  1.
    10030    2    1    2    0    0  0.00000000000E+00  0.00000000000E+00 -0.10523144471E+04  0.43323541352E+04  0.42026095056E+04 0.  0.
        4    1    3    3  502    0  0.21919855013E+03  0.11503841180E+04  0.12724266275E+04  0.17293070169E+04  0.12699999809E+01 0. -1.
       -4    1    3    3    0  502 -0.21919855013E+03 -0.11503841180E+04 -0.23247410746E+04  0.26030471183E+04  0.12699999809E+01 0.  1.
</event>
<event>
 5   0  0.1648000E-07  0.3792262E+04  0.7818609E-02  0.8047817E-01
       -1   -1    0    0    0  501  0.00000000000E+00  0.00000000000E+00  0.17748852314E+04  0.17748852315E+04  0.50400001928E-02 0. -1.
        1   -1    0    0  501    0  0.00000000000E+00  0.00000000000E+00 -0.20256594692E+04  0.20256594692E+04  0.50400001928E-02 0.  1.
    10030    2    1    2    0    0  0.00000000000E+00  0.00000000000E+00 -0.25077423771E+03  0.38005447006E+04  0.37922621617E+04 0.  0.
        2    1    3    3  502    0  0.84272242294E+03 -0.83763826853E+03 -0.16062795245E+04  0.19979872026E+04  0.25500000920E-02 0.  1.
       -2    1    3    3    0  502 -0.84272242294E+03  0.83763826853E+03  0.13555052868E+04  0.18025574980E+04  0.25500000920E-02 0. -1.
</event>
<event>
 5   0  0.1656617E-07  0.3968989E+04  0.7818609E-02  0.8010832E-01
        1   -1    0    0  501    0  0.00000000000E+00  0.00000000000E+00  0.20289876740E+04  0.20289876740E+04  0.50400001928E-02 0. -1.
       -1   -1    0    0    0  501  0.00000000000E+00  0.00000000000E+00 -0.19409766236E+04  0.19409766236E+04  0.50400001928E-02 0.  1.
    10030    2    1    2    0    0  0.00000000000E+00  0.00000000000E+00  0.88011050399E+02  0.39699642977E+04  0.39689886092E+04 0.  0.
        5    1    3    3  502    0  0.15619581154E+04  0.46527960559E+03  0.11765370560E+04  0.20100895005E+04  0.46999998093E+01 0. -1.
       -5    1    3    3    0  502 -0.15619581154E+04 -0.46527960559E+03 -0.10885260056E+04  0.19598747972E+04  0.46999998093E+01 0.  1.
</event>
<event>
 5   0  0.1648000E-07  0.3835804E+04  0.7818609E-02  0.8038515E-01
       -1   -1    0    0    0  501  0.00000000000E+00  0.00000000000E+00  0.27303544708E+04  0.27303544708E+04  0.50400001928E-02 0. -1.
        1   -1    0    0  501    0  0.00000000000E+00  0.00000000000E+00 -0.13472050583E+04  0.13472050583E+04  0.50400001928E-02 0.  1.
    10030    2    1    2    0    0  0.00000000000E+00  0.00000000000E+00  0.13831494125E+04  0.40775595291E+04  0.38358036207E+04 0.  0.
        2    1    3    3  502    0 -0.38473708487E+03 -0.18087809503E+04  0.15095906867E+03  0.18553974752E+04  0.25500000920E-02 0.  1.
       -2    1    3    3    0  502  0.38473708487E+03  0.18087809503E+04  0.12321903438E+04  0.22221620539E+04  0.25500000920E-02 0. -1.
</event>
<event>
 5   0  0.5158266E-07  0.3784227E+04  0.7818609E-02  0.8049548E-01
       -2   -1    0    0    0  501  0.00000000000E+00  0.00000000000E+00  0.28710301921E+04  0.28710301921E+04  0.25500000920E-02 0. -1.
        2   -1    0    0  501    0  0.00000000000E+00  0.00000000000E+00 -0.12469717379E+04  0.12469717379E+04  0.25500000920E-02 0.  1.
    10030    2    1    2    0    0  0.00000000000E+00  0.00000000000E+00  0.16240584542E+04  0.41180019301E+04  0.37842270061E+04 0.  0.
        2    1    3    3  502    0 -0.10306354436E+04 -0.50761373701E+02  0.25378865797E+04  0.27396449453E+04  0.25500000920E-02 0. -1.
       -2    1    3    3    0  502  0.10306354436E+04  0.50761373701E+02 -0.91382812552E+03  0.13783569848E+04  0.25500000920E-02 0.  1.
</event>
<event>
 5   0  0.5132561E-07  0.3000815E+04  0.7818609E-02  0.8243498E-01
        2   -1    0    0  501    0  0.00000000000E+00  0.00000000000E+00  0.18351096694E+04  0.18351096694E+04  0.25500000920E-02 0.  1.
       -2   -1    0    0    0  501  0.00000000000E+00  0.00000000000E+00 -0.12267509048E+04  0.12267509048E+04  0.25500000920E-02 0. -1.
    10030    2    1    2    0    0  0.00000000000E+00  0.00000000000E+00  0.60835876459E+03  0.30618605743E+04  0.30008148543E+04 0.  0.
        3    1    3    3  502    0  0.14664553470E+04  0.11940165198E+03  0.41319023750E+01  0.14713140800E+04  0.10100000352E+00 0. -1.
       -3    1    3    3    0  502 -0.14664553470E+04 -0.11940165198E+03  0.60422686221E+03  0.15905464943E+04  0.10100000352E+00 0.  1.
</event>
<event>
 5   0  0.5158266E-07  0.3765773E+04  0.7818609E-02  0.8053540E-01
        2   -1    0    0  501    0  0.00000000000E+00  0.00000000000E+00  0.24826166210E+04  0.24826166210E+04  0.25500000920E-02 0. -1.
       -2   -1    0    0    0  501  0.00000000000E+00  0.00000000000E+00 -0.14280341571E+04  0.14280341571E+04  0.25500000920E-02 0.  1.
    10030    2    1    2    0    0  0.00000000000E+00  0.00000000000E+00  0.10545824639E+04  0.39106507780E+04  0.37657728735E+04 0.  0.
        2    1    3    3  502    0 -0.51216533860E+03 -0.13368448070E+04 -0.74278795803E+03  0.16128240210E+04  0.25500000920E-02 0.  1.
       -2    1    3    3    0  502  0.51216533860E+03  0.13368448070E+04  0.17973704219E+04  0.22978267571E+04  0.25500000920E-02 0. -1.
</event>
<event>
 5   0  0.1648000E-07  0.3833107E+04  0.7818609E-02  0.8039087E-01
        1   -1    0    0  501    0  0.00000000000E+00  0.00000000000E+00  0.18067495689E+04  0.18067495689E+04  0.50400001928E-02 0. -1.
       -1   -1    0    0    0  501  0.00000000000E+00  0.00000000000E+00 -0.20330302301E+04  0.20330302301E+04  0.50400001928E-02 0.  1.
    10030    2    1    2    0    0  0.00000000000E+00  0.00000000000E+00 -0.22628066117E+03  0.38397797990E+04  0.38331065688E+04 0.  0.
        3    1    3    3  502    0  0.14067648818E+04 -0.11123495931E+04 -0.79023676325E+03  0.19597916221E+04  0.10100000352E+00 0.  1.
       -3    1    3    3    0  502 -0.14067648818E+04  0.11123495931E+04  0.56395610209E+03  0.18799881769E+04  0.10100000352E+00 0. -1.
</event>
<event>
 5   0  0.1656617E-07  0.2880674E+04  0.7818609E-02  0.8278651E-01
        1   -1    0    0  501    0  0.00000000000E+00  0.00000000000E+00  0.14678558677E+04  0.14678558677E+04  0.50400001928E-02 0. -1.
       -1   -1    0    0    0  501  0.00000000000E+00  0.00000000000E+00 -0.14133343682E+04  0.14133343682E+04  0.50400001928E-02 0.  1.
    10030    2    1    2    0    0  0.00000000000E+00  0.00000000000E+00  0.54521499550E+02  0.28811902359E+04  0.28806743276E+04 0.  0.
        5    1    3    3  502    0 -0.11799254301E+04 -0.75679755404E+03  0.35835250653E+03  0.14468604519E+04  0.46999998093E+01 0. -1.
       -5    1    3    3    0  502  0.11799254301E+04  0.75679755404E+03 -0.30383100698E+03  0.14343297840E+04  0.46999998093E+01 0.  1.
</event>
<event>
 5   0  0.5134434E-07  0.3799268E+04  0.7818609E-02  0.8046312E-01
       -2   -1    0    0    0  501  0.00000000000E+00  0.00000000000E+00  0.20114198385E+04  0.20114198385E+04  0.25500000920E-02 0.  1.
        2   -1    0    0  501    0  0.00000000000E+00  0.00000000000E+00 -0.17940610809E+04  0.17940610809E+04  0.25500000920E-02 0. -1.
    10030    2    1    2    0    0  0.00000000000E+00  0.00000000000E+00  0.21735875756E+03  0.38054809194E+04  0.37992683767E+04 0.  0.
        5    1    3    3  502    0  0.14363151360E+04  0.71942295262E+03 -0.90689049595E+03  0.18447338606E+04  0.46999998093E+01 0. -1.
       -5    1    3    3    0  502 -0.14363151360E+04 -0.71942295262E+03  0.11242492535E+04  0.19607470588E+04  0.46999998093E+01 0.  1.
</event>
<event>
 5   0  0.1656617E-07  0.3923015E+04  0.7818609E-02  0.8020259E-01
       -1   -1    0    0    0  501  0.00000000000E+00  0.00000000000E+00  0.11856412506E+04  0.11856412506E+04  0.50400001928E-02 0. -1.
        1   -1    0    0  501    0  0.00000000000E+00  0.00000000000E+00 -0.32450896281E+04  0.32450896281E+04  0.50400001928E-02 0.  1.
    10030    2    1    2    0    0  0.00000000000E+00  0.00000000000E+00 -0.20594483774E+04  0.44307308787E+04  0.39230152307E+04 0.  0.
        5    1    3    3  502    0  0.26781591189E+03 -0.25943043487E+03 -0.32046888640E+04  0.32263109456E+04  0.46999998093E+01 0.  1.
       -5    1    3    3    0  502 -0.26781591189E+03  0.25943043487E+03  0.11452404865E+04  0.12044199331E+04  0.46999998093E+01 0. -1.
</event>
<event>
 5   0  0.1648000E-07  0.3866851E+04  0.7818609E-02  0.8031959E-01
       -1   -1    0    0    0  501  0.00000000000E+00  0.00000000000E+00  0.16059434507E+04  0.16059434507E+04  0.50400001928E-02 0. -1.
        1   -1    0    0  501    0  0.00000000000E+00  0.00000000000E+00 -0.23276876229E+04  0.23276876229E+04  0.50400001928E-02 0.  1.
    10030    2    1    2    0    0  0.00000000000E+00  0.00000000000E+00 -0.72174417221E+03  0.39336310736E+04  0.38668512737E+04 0.  0.
        2    1    3    3  502    0 -0.61494483288E+03 -0.55891686053E+03 -0.21367552537E+04  0.22926552769E+04  0.25500000920E-02 0.  1.
       -2    1    3    3    0  502  0.61494483288E+03  0.55891686053E+03  0.14150110815E+04  0.16409757967E+04  0.25500000920E-02 0. -1.
</event>
<event>
 5   0  0.5134434E-07  0.3877276E+04  0.7818609E-02  0.8029772E-01
       -2   -1    0    0    0  501  0.00000000000E+00  0.00000000000E+00  0.20295966031E+04  0.20295966031E+04  0.25500000920E-02 0.  1.
        2   -1    0    0  501    0  0.00000000000E+00  0.00000000000E+00 -0.18517558242E+04  0.18517558242E+04  0.25500000920E-02 0. -1.
    10030    2    1    2    0    0  0.00000000000E+00  0.00000000000E+00  0.17784077891E+03  0.38813524273E+04  0.38772760183E+04 0.  0.
        5    1    3    3  502    0  0.15781606707E+04  0.48854219239E+03  0.11043983868E+04  0.19872046857E+04  0.46999998093E+01 0. -1.
       -5    1    3    3    0  502 -0.15781606707E+04 -0.48854219239E+03 -0.92655760787E+03  0.18941477416E+04  0.46999998093E+01 0.  1.
</event>
<event>
 5   0  0.1648000E-07  0.3739259E+04  0.7818609E-02  0.8059317E-01
       -1   -1    0    0    0  501  0.00000000000E+00  0.00000000000E+00  0.26960883807E+04  0.26960883807E+04  0.50400001928E-02 0.  1.
        1   -1    0    0  501    0  0.00000000000E+00  0.00000000000E+00 -0.12965133034E+04  0.12965133034E+04  0.50400001928E-02 0. -1.
    10030    2    1    2    0    0  0.00000000000E+00  0.00000000000E+00  0.13995750773E+04  0.39926016842E+04  0.37392589923E+04 0.  0.
        1    1    3    3  502    0 -0.81335899266E+03 -0.12818887673E+04 -0.46534618290E+03  0.15878723918E+04  0.50400001928E-02 0. -1.
       -1    1    3    3    0  502  0.81335899266E+03  0.12818887673E+04  0.18649212602E+04  0.24047292923E+04  0.50400001928E-02 0.  1.
</event>
<event>
 5   0  0.5132561E-07  0.3558748E+04  0.7818609E-02  0.8100007E-01
        2   -1    0    0  501    0  0.00000000000E+00  0.00000000000E+00  0.10959464440E+04  0.10959464440E+04  0.25500000920E-02 0. -1.
       -2   -1    0    0    0  501  0.00000000000E+00  0.00000000000E+00 -0.28889845731E+04  0.28889845731E+04  0.25500000920E-02 0.  1.
    10030    2    1    2    0    0  0.00000000000E+00  0.00000000000E+00 -0.17930381291E+04  0.39849310171E+04  0.35587483023E+04 0.  0.
        3    1    3    3  502    0 -0.14795772634E+04 -0.90585899892E+03 -0.13394148426E+04  0.21917485109E+04  0.10100000352E+00 0. -1.
       -3    1    3    3    0  502  0.14795772634E+04  0.90585899892E+03 -0.45362328649E+03  0.17931825062E+04  0.10100000352E+00 0.  1.
</event>
<event>
 5   0  0.5202788E-07  0.3777697E+04  0.7818609E-02  0.8050958E-01
       -2   -1    0    0    0  501  0.00000000000E+00  0.00000000000E+00  0.15114240879E+04  0.15114240879E+04  0.25500000920E-02 0.  1.
        2   -1    0    0  501    0  0.00000000000E+00  0.00000000000E+00 -0.23605215245E+04  0.23605215245E+04  0.25500000920E-02 0. -1.
    10030    2    1    2    0    0  0.00000000000E+00  0.00000000000E+00 -0.84909743665E+03  0.38719456124E+04  0.37776972309E+04 0.  0.
        1    1    3    3  502    0  0.13477353393E+04 -0.19704689190E+03  0.91673709232E+03  0.16418358379E+04  0.50400001928E-02 0.  1.
       -1    1    3    3    0  502 -0.13477353393E+04  0.19704689190E+03 -0.17658345290E+04  0.22301097744E+04  0.50400001928E-02 0. -1.
</event>
<event>
 5   0  0.5132561E-07  0.3814250E+04  0.7818609E-02  0.8043104E-01
        2   -1    0    0  501    0  0.00000000000E+00  0.00000000000E+00  0.20019743741E+04  0.20019743741E+04  0.25500000920E-02 0. -1.
       -2   -1    0    0    0  501  0.00000000000E+00  0.00000000000E+00 -0.18167696039E+04  0.18167696039E+04  0.25500000920E-02 0.  1.
    10030    2    1    2    0    0  0.00000000000E+00  0.00000000000E+00  0.18520477023E+03  0.38187439780E+04  0.38142502229E+04 0.  0.
        3    1    3    3  502    0  0.14237669299E+04  0.67450649357E+03 -0.98339861713E+03  0.18571871556E+04  0.10100000352E+00 0.  1.
       -3    1    3    3    0  502 -0.14237669299E+04 -0.67450649357E+03  0.11686033874E+04  0.19615568224E+04  0.10100000352E+00 0. -1.
</event>
<event>
 5   0  0.1648000E-07  0.3806806E+04  0.7818609E-02  0.8044696E-01
       -1   -1    0    0    0  501  0.00000000000E+00  0.00000000000E+00  0.23057698975E+04  0.23057698975E+04  0.50400001928E-02 0.  1.
        1   -1    0    0  501    0  0.00000000000E+00  0.00000000000E+00 -0.15712512328E+04  0.15712512328E+04  0.50400001928E-02 0. -1.
    10030    2    1    2    0    0  0.00000000000E+00  0.00000000000E+00  0.73451866471E+03  0.38770211304E+04  0.38068064275E+04 0.  0.
        2    1    3    3  502    0 -0.31545206480E+03 -0.97928608694E+03  0.19981806685E+04  0.22474957685E+04  0.25500000920E-02 0.  1.
       -2    1    3    3    0  502  0.31545206480E+03  0.97928608694E+03 -0.12636620038E+04  0.16295253619E+04  0.25500000920E-02 0. -1.
</event>
<event>
 5   0  0.5325362E-07  0.3475258E+04  0.7818609E-02  0.8119679E-01
        2   -1    0    0  501    0  0.00000000000E+00  0.00000000000E+00  0.19832600015E+04  0.19832600015E+04  0.25500000920E-02 0. -1.
       -2   -1    0    0    0  501  0.00000000000E+00  0.00000000000E+00 -0.15224202135E+04  0.15224202135E+04  0.25500000920E-02 0.  1.
    10030    2    1    2    0    0  0.00000000000E+00  0.00000000000E+00  0.46083978808E+03  0.35056802150E+04  0.34752583299E+04 0.  0.
        4    1    3    3  502    0  0.13338729089E+04  0.49557755461E+03  0.12364157983E+04  0.18850834700E+04  0.12699999809E+01 0. -1.
       -4    1    3    3    0  502 -0.13338729089E+04 -0.49557755461E+03 -0.77557601017E+03  0.16205967451E+04  0.12699999809E+01 0.  1.
</event>
<event>
 5   0  0.1656617E-07  0.2881998E+04  0.7818609E-02  0.8278254E-01
       -1   -1    0    0    0  501  0.00000000000E+00  0.00000000000E+00  0.16756705861E+04  0.16756705861E+04  0.50400001928E-02 0.  1.
        1   -1    0    0  501    0  0.00000000000E+00  0.00000000000E+00 -0.12391926948E+04  0.12391926948E+04  0.50400001928E-02 0. -1.
    10030    2    1    2    0    0  0.00000000000E+00  0.00000000000E+00  0.43647789132E+03  0.29148632809E+04  0.28819984380E+04 0.  0.
        5    1    3    3  502    0  0.34986847348E+03  0.10481217794E+04  0.11537130638E+04  0.15975115451E+04  0.46999998093E+01 0.  1.
       -5    1    3    3    0  502 -0.34986847348E+03 -0.10481217794E+04 -0.71723517244E+03  0.13173517358E+04  0.46999998093E+01 0. -1.
</event>
<event>
 5   0  0.1648000E-07  0.3839235E+04  0.7818609E-02  0.8037787E-01
        1   -1    0    0  501    0  0.00000000000E+00  0.00000000000E+00  0.15400598534E+04  0.15400598534E+04  0.50400001928E-02 0. -1.
       -1   -1    0    0    0  501  0.00000000000E+00  0.00000000000E+00 -0.23927195177E+04  0.23927195178E+04  0.50400001928E-02 0.  1.
    10030    2    1    2    0    0  0.00000000000E+00  0.00000000000E+00 -0.85265966438E+03  0.39327793711E+04  0.38392349601E+04 0.  0.
        2    1    3    3  502    0  0.19021329145E+03  0.51047462260E+03  0.14592165538E+04  0.15575873611E+04  0.25500000920E-02 0. -1.
       -2    1    3    3    0  502 -0.19021329145E+03 -0.51047462260E+03 -0.23118762182E+04  0.23751920101E+04  0.25500000920E-02 0.  1.
</event>
<event>
 5   0  0.1648000E-07  0.3709781E+04  0.7818609E-02  0.8065798E-01
        1   -1    0    0  501    0  0.00000000000E+00  0.00000000000E+00  0.23999273736E+04  0.23999273736E+04  0.50400001928E-02 0.  1.
       -1   -1    0    0    0  501  0.00000000000E+00  0.00000000000E+00 -0.14336345934E+04  0.14336345934E+04  0.50400001928E-02 0. -1.
    10030    2    1    2    0    0  0.00000000000E+00  0.00000000000E+00  0.96629278022E+03  0.38335619671E+04  0.37097810742E+04 0.  0.
        2    1    3    3  502    0 -0.16652837147E+04  0.74225401213E+03  0.13042471658E+03  0.18278734846E+04  0.25500000920E-02 0.  1.
       -2    1    3    3    0  502  0.16652837147E+04 -0.74225401213E+03  0.83586806364E+03  0.20056884825E+04  0.25500000920E-02 0. -1.
</event>
<event>
 5   0  0.1648000E-07  0.3958007E+04  0.7818609E-02  0.8013072E-01
       -1   -1    0    0    0  501  0.00000000000E+00  0.00000000000E+00  0.18732039835E+04  0.18732039835E+04  0.50400001928E-02 0. -1.
        1   -1    0    0  501    0  0.00000000000E+00  0.00000000000E+00 -0.20907791372E+04  0.20907791372E+04  0.50400001928E-02 0.  1.
    10030    2    1    2    0    0  0.00000000000E+00  0.00000000000E+00 -0.21757515368E+03  0.39639831207E+04  0.39580074828E+04 0.  0.
        3    1    3    3  502    0 -0.20985043092E+03  0.38761975723E+03  0.18234176818E+04  0.18759366546E+04  0.10100000352E+00 0. -1.
       -3    1    3    3    0  502  0.20985043092E+03 -0.38761975723E+03 -0.20409928355E+04  0.20880464661E+04  0.10100000352E+00 0.  1.
</event>
<event>
 5   0  0.1656617E-07  0.3783005E+04  0.7818609E-02  0.8049812E-01
       -1   -1    0    0    0  501  0.00000000000E+00  0.00000000000E+00  0.19731598698E+04  0.19731598699E+04  0.50400001928E-02 0.  1.
        1   -1    0    0  501    0  0.00000000000E+00  0.00000000000E+00 -0.18132242196E+04  0.18132242196E+04  0.50400001928E-02 0. -1.
    10030    2    1    2    0    0  0.00000000000E+00  0.00000000000E+00  0.15993565029E+03  0.37863840894E+04  0.37830047661E+04 0.  0.
        5    1    3    3  502    0  0.14783763943E+04  0.11142001831E+04 -0.30860618110E+03  0.18767788032E+04  0.46999998093E+01 0.  1.
       -5    1    3    3    0  502 -0.14783763943E+04 -0.11142001831E+04  0.46854183139E+03  0.19096052862E+04  0.46999998093E+01 0. -1.
</event>
<event>
 5   0  0.5134434E-07  0.3929854E+04  0.7818609E-02  0.8018849E-01
        2   -1    0    0  501    0  0.00000000000E+00  0.00000000000E+00  0.18142188243E+04  0.18142188243E+04  0.25500000920E-02 0.  1.
       -2   -1    0    0    0  501  0.00000000000E+00  0.00000000000E+00 -0.21281543123E+04  0.21281543123E+04  0.25500000920E-02 0. -1.
    10030    2    1    2    0    0  0.00000000000E+00  0.00000000000E+00 -0.31393548798E+03  0.39423731366E+04  0.39298537451E+04 0.  0.
        5    1    3    3  502    0  0.10918831783E+03 -0.43645053246E+03  0.17618473585E+04  0.18183892215E+04  0.46999998093E+01 0.  1.
       -5    1    3    3    0  502 -0.10918831783E+03  0.43645053246E+03 -0.20757828465E+04  0.21239839151E+04  0.46999998093E+01 0. -1.
</event>
<event>
 5   0  0.1648000E-07  0.3775205E+04  0.7818609E-02  0.8051497E-01
        1   -1    0    0  501    0  0.00000000000E+00  0.00000000000E+00  0.22884057171E+04  0.22884057171E+04  0.50400001928E-02 0. -1.
       -1   -1    0    0    0  501  0.00000000000E+00  0.00000000000E+00 -0.15569982860E+04  0.15569982860E+04  0.50400001928E-02 0.  1.
    10030    2    1    2    0    0  0.00000000000E+00  0.00000000000E+00  0.73140743111E+03  0.38454040031E+04  0.37752053079E+04 0.  0.
        1    1    3    3  502    0  0.26469023261E+03  0.19392349658E+03 -0.15277255660E+04  0.15625660456E+04  0.50400001928E-02 0.  1.
       -1    1    3    3    0  502 -0.26469023261E+03 -0.19392349658E+03  0.22591329971E+04  0.22828379576E+04  0.50400001928E-02 0. -1.
</event>
<event>
 5   0  0.1656617E-07  0.3683773E+04  0.7818609E-02  0.8071568E-01
       -1   -1    0    0    0  501  0.00000000000E+00  0.00000000000E+00  0.17655769492E+04  0.17655769492E+04  0.50400001928E-02 0. -1.
        1   -1    0    0  501    0  0.00000000000E+00  0.00000000000E+00 -0.19214937534E+04  0.19214937534E+04  0.50400001928E-02 0.  1.
    10030    2    1    2    0    0  0.00000000000E+00  0.00000000000E+00 -0.15591680416E+03  0.36870707026E+04  0.36837725657E+04 0.  0.
        5    1    3    3  502    0  0.14075506134E+04  0.11350070156E+04  0.27318804850E+03  0.18286862646E+04  0.46999998093E+01 0.  1.
       -5    1    3    3    0  502 -0.14075506134E+04 -0.11350070156E+04 -0.42910485265E+03  0.18583844380E+04  0.46999998093E+01 0. -1.
</event>
<event>
 5   0  0.1648000E-07  0.3765119E+04  0.7818609E-02  0.8053682E-01
       -1   -1    0    0    0  501  0.00000000000E+00  0.00000000000E+00  0.29542367980E+04  0.29542367980E+04  0.50400001928E-02 0. -1.
        1   -1    0    0  501    0  0.00000000000E+00  0.00000000000E+00 -0.11996435237E+04  0.11996435237E+04  0.50400001928E-02 0.  1.
    10030    2    1    2    0    0  0.00000000000E+00  0.00000000000E+00  0.17545932744E+04  0.41538803217E+04  0.37651194096E+04 0.  0.
        4    1    3    3  502    0 -0.11034930017E+04  0.10655815426E+03  0.25559022005E+04  0.27859808177E+04  0.12699999809E+01 0. -1.
       -4    1    3    3    0  502  0.11034930017E+04 -0.10655815426E+03 -0.80130892614E+03  0.13678995040E+04  0.12699999809E+01 0.  1.
</event>
<event>
 5   0  0.1648000E-07  0.3902151E+04  0.7818609E-02  0.8024582E-01
       -1   -1    0    0    0  501  0.00000000000E+00  0.00000000000E+00  0.25055391980E+04  0.25055391980E+04  0.50400001928E-02 0.  1.
        1   -1    0    0  501    0  0.00000000000E+00  0.00000000000E+00 -0.15193119465E+04  0.15193119465E+04  0.50400001928E-02 0. -1.
    10030    2    1    2    0    0  0.00000000000E+00  0.00000000000E+00  0.98622725148E+03  0.40248511446E+04  0.39021510151E+04 0.  0.
        2    1    3    3  502    0  0.89727358052E+03 -0.43414143739E+03 -0.12368606508E+04  0.15885222490E+04  0.25500000920E-02 0. -1.
       -2    1    3    3    0  502 -0.89727358052E+03  0.43414143739E+03  0.22230879023E+04  0.24363288956E+04  0.25500000920E-02 0.  1.
</event>
<event>
 5   0  0.5158266E-07  0.3674840E+04  0.7818609E-02  0.8073561E-01
       -2   -1    0    0    0  501  0.00000000000E+00  0.00000000000E+00  0.34991628989E+04  0.34991628989E+04  0.25500000920E-02 0.  1.
        2   -1    0    0  501    0  0.00000000000E+00  0.00000000000E+00 -0.96483418789E+03  0.96483418789E+03  0.25500000920E-02 0. -1.
    10030    2    1    2    0    0  0.00000000000E+00  0.00000000000E+00  0.25343287110E+04  0.44639970868E+04  0.36748398571E+04 0.  0.
        2    1    3    3  502    0  0.14543283980E+04 -0.90021938317E+03  0.45170329295E+03  0.17690398220E+04  0.25500000920E-02 0. -1.
       -2    1    3    3    0  502 -0.14543283980E+04  0.90021938317E+03  0.20826254181E+04  0.26949572648E+04  0.25500000920E-02 0.  1.
</event>
<event>
 5   0  0.5132561E-07  0.3728000E+04  0.7818609E-02  0.8061785E-01
       -2   -1    0    0    0  501  0.00000000000E+00  0.00000000000E+00  0.18569646315E+04  0.18569646315E+04  0.25500000920E-02 0. -1.
        2   -1    0    0  501    0  0.00000000000E+00  0.00000000000E+00 -0.18710625233E+04  0.18710625233E+04  0.25500000920E-02 0.  1.
    10030    2    1    2    0    0  0.00000000000E+00  0.00000000000E+00 -0.14097891792E+02  0.37280271548E+04  0.37280004984E+04 0.  0.
        3    1    3    3  502    0  0.18046936645E+04  0.45683528854E+02  0.45716414405E+03  0.18622581111E+04  0.10100000352E+00 0. -1.
       -3    1    3    3    0  502 -0.18046936645E+04 -0.45683528854E+02 -0.47126203585E+03  0.18657690437E+04  0.10100000352E+00 0.  1.
</event>
<event>
 5   0  0.5325362E-07  0.3768058E+04  0.7818609E-02  0.8053044E-01
        2   -1    0    0  501    0  0.00000000000E+00  0.00000000000E+00  0.22326816670E+04  0.22326816670E+04  0.25500000920E-02 0. -1.
       -2   -1    0    0    0  501  0.00000000000E+00  0.00000000000E+00 -0.15898215457E+04  0.15898215457E+04  0.25500000920E-02 0.  1.
    10030    2    1    2    0    0  0.00000000000E+00  0.00000000000E+00  0.64286012125E+03  0.38225032127E+04  0.37680580775E+04 0.  0.
        4    1    3    3  502    0  0.12457540101E+04 -0.13298206800E+04 -0.16427575466E+03  0.18295666785E+04  0.12699999809E+01 0.  1.
       -4    1    3    3    0  502 -0.12457540101E+04  0.13298206800E+04  0.80713587591E+03  0.19929365342E+04  0.12699999809E+01 0. -1.
</event>
<event>
 5   0  0.1656617E-07  0.3613482E+04  0.7818609E-02  0.8087410E-01
        1   -1    0    0  501    0  0.00000000000E+00  0.00000000000E+00  0.11475598603E+04  0.11475598603E+04  0.50400001928E-02 0. -1.
       -1   -1    0    0    0  501  0.00000000000E+00  0.00000000000E+00 -0.28445685433E+04  0.28445685433E+04  0.50400001928E-02 0.  1.
    10030    2    1    2    0    0  0.00000000000E+00  0.00000000000E+00 -0.16970086830E+04  0.39921284036E+04  0.36134818003E+04 0.  0.
        5    1    3    3  502    0  0.12938039868E+04 -0.94013428552E+03  0.80114710280E+02  0.16013187340E+04  0.46999998093E+01 0. -1.
       -5    1    3    3    0  502 -0.12938039868E+04  0.94013428552E+03 -0.17771233933E+04  0.23908096696E+04  0.46999998093E+01 0.  1.
</event>
<event>
 5   0  0.5202788E-07  0.3843749E+04  0.7818609E-02  0.8036831E-01
       -2   -1    0    0    0  501  0.00000000000E+00  0.00000000000E+00  0.13286460542E+04  0.13286460542E+04  0.25500000920E-02 0. -1.
        2   -1    0    0  501    0  0.00000000000E+00  0.00000000000E+00 -0.27799742069E+04  0.27799742069E+04  0.25500000920E-02 0.  1.
    10030    2    1    2    0    0  0.00000000000E+00  0.00000000000E+00 -0.14513281526E+04  0.41086202611E+04  0.38437490870E+04 0.  0.
        1    1    3    3  502    0 -0.29568444993E+03  0.18988746503E+04 -0.70305141217E+03  0.20463224379E+04  0.50400001928E-02 0. -1.
       -1    1    3    3    0  502  0.29568444993E+03 -0.18988746503E+04 -0.74827674047E+03  0.20622978233E+04  0.50400001928E-02 0.  1.
</event>
<event>
 5   0  0.5134434E-07  0.3843113E+04  0.7818609E-02  0.8036966E-01
       -2   -1    0    0    0  501  0.00000000000E+00  0.00000000000E+00  0.18914715699E+04  0.18914715699E+04  0.25500000920E-02 0.  1.
        2   -1    0    0  501    0  0.00000000000E+00  0.00000000000E+00 -0.19521203518E+04  0.19521203518E+04  0.25500000920E-02 0. -1.
    10030    2    1    2    0    0  0.00000000000E+00  0.00000000000E+00 -0.60648781817E+02  0.38435919217E+04  0.38431133975E+04 0.  0.
        5    1    3    3  502    0 -0.17776611009E+04 -0.23884489345E+03 -0.71978108861E+03  0.19326750317E+04  0.46999998093E+01 0. -1.
       -5    1    3    3    0  502  0.17776611009E+04  0.23884489345E+03  0.65913230680E+03  0.19109168900E+04  0.46999998093E+01 0.  1.
</event>
<event>
 5   0  0.1648000E-07  0.3823014E+04  0.7818609E-02  0.8041234E-01
       -1   -1    0    0    0  501  0.00000000000E+00  0.00000000000E+00  0.25512928685E+04  0.25512928685E+04  0.50400001928E-02 0.  1.
        1   -1    0    0  501    0  0.00000000000E+00  0.00000000000E+00 -0.14321594474E+04  0.14321594474E+04  0.50400001928E-02 0. -1.
    10030    2    1    2    0    0  0.00000000000E+00  0.00000000000E+00  0.11191334211E+04  0.39834523159E+04  0.38230135677E+04 0.  0.
        4    1    3    3  502    0  0.97399109693E+02 -0.56066576651E+02 -0.14287136938E+04  0.14331275168E+04  0.12699999809E+01 0. -1.
       -4    1    3    3    0  502 -0.97399109693E+02  0.56066576651E+02  0.25478471149E+04  0.25503247992E+04  0.12699999809E+01 0.  1.
</event>
<event>
 5   0  0.1648000E-07  0.3837045E+04  0.7818609E-02  0.8038252E-01
       -1   -1    0    0    0  501  0.00000000000E+00  0.00000000000E+00  0.21505649062E+04  0.21505649062E+04  0.50400001928E-02 0.  1.
        1   -1    0    0  501    0  0.00000000000E+00  0.00000000000E+00 -0.17115172258E+04  0.17115172258E+04  0.50400001928E-02 0. -1.
    10030    2    1    2    0    0  0.00000000000E+00  0.00000000000E+00  0.43904768033E+03  0.38620821320E+04  0.38370451559E+04 0.  0.
        2    1    3    3  502    0  0.35985623573E+03  0.11810465271E+04  0.16975610820E+04  0.20990667061E+04  0.25500000920E-02 0.  1.
       -2    1    3    3    0  502 -0.35985623573E+03 -0.11810465271E+04 -0.12585134017E+04  0.17630154259E+04  0.25500000920E-02 0. -1.
</event>
<event>
 5   0  0.1648000E-07  0.3813741E+04  0.7818609E-02  0.8043213E-01
       -1   -1    0    0    0  501  0.00000000000E+00  0.00000000000E+00  0.18771371318E+04  0.18771371318E+04  0.50400001928E-02 0. -1.
        1   -1    0    0  501    0  0.00000000000E+00  0.00000000000E+00 -0.19370743868E+04  0.19370743868E+04  0.50400001928E-02 0.  1.
    10030    2    1    2    0    0  0.00000000000E+00  0.00000000000E+00 -0.59937254976E+02  0.38142115186E+04  0.38137405567E+04 0.  0.
        2    1    3    3  502    0 -0.10750953100E+04 -0.54864794030E+03 -0.15063994769E+04  0.19303066782E+04  0.25500000920E-02 0.  1.
       -2    1    3    3    0  502  0.10750953100E+04  0.54864794030E+03  0.14464622220E+04  0.18839048403E+04  0.25500000920E-02 0. -1.
</event>
<event>
 5   0  0.1656617E-07  0.3797166E+04  0.7818609E-02  0.8046763E-01
        1   -1    0    0  501    0  0.00000000000E+00  0.00000000000E+00  0.20327881619E+04  0.20327881619E+04  0.50400001928E-02 0. -1.
       -1   -1    0    0    0  501  0.00000000000E+00  0.00000000000E+00 -0.17732379393E+04  0.17732379393E+04  0.50400001928E-02 0.  1.
    10030    2    1    2    0    0  0.00000000000E+00  0.00000000000E+00  0.25955022262E+03  0.38060261013E+04  0.37971658333E+04 0.  0.
        5    1    3    3  502    0  0.10736421927E+04  0.12268947272E+04 -0.84543746942E+03  0.18365088713E+04  0.46999998093E+01 0.  1.
       -5    1    3    3    0  502 -0.10736421927E+04 -0.12268947272E+04  0.11049876920E+04  0.19695172300E+04  0.46999998093E+01 0. -1.
</event>
<event>
 5   0  0.1648000E-07  0.3566926E+04  0.7818609E-02  0.8098110E-01
        1   -1    0    0  501    0  0.00000000000E+00  0.00000000000E+00  0.20127944221E+04  0.20127944221E+04  0.50400001928E-02 0. -1.
       -1   -1    0    0    0  501  0.00000000000E+00  0.00000000000E+00 -0.15802606111E+04  0.15802606111E+04  0.50400001928E-02 0.  1.
    10030    2    1    2    0    0  0.00000000000E+00  0.00000000000E+00  0.43253381102E+03  0.35930550332E+04  0.35669257034E+04 0.  0.
        2    1    3    3  502    0 -0.13697646909E+04 -0.56080541306E+03 -0.78600000912E+03  0.16758741104E+04  0.25500000920E-02 0.  1.
       -2    1    3    3    0  502  0.13697646909E+04  0.56080541306E+03  0.12185338201E+04  0.19171809227E+04  0.25500000920E-02 0. -1.
</event>
<event>
 5   0  0.5158266E-07  0.3813443E+04  0.7818609E-02  0.8043276E-01
        2   -1    0    0  501    0  0.00000000000E+00  0.00000000000E+00  0.23528746553E+04  0.23528746553E+04  0.25500000920E-02 0.  1.
       -2   -1    0    0    0  501  0.00000000000E+00  0.00000000000E+00 -0.15451684255E+04  0.15451684255E+04  0.25500000920E-02 0. -1.
    10030    2    1    2    0    0  0.00000000000E+00  0.00000000000E+00  0.80770622980E+03  0.38980430809E+04  0.38134433924E+04 0.  0.
        2    1    3    3  502    0 -0.63910515715E+03 -0.21147639393E+03 -0.14196537098E+04  0.15711760955E+04  0.25500000920E-02 0. -1.
       -2    1    3    3    0  502  0.63910515715E+03  0.21147639393E+03  0.22273599396E+04  0.23268669854E+04  0.25500000920E-02 0.  1.
</event>
<event>
 5   0  0.5158266E-07  0.3843779E+04  0.7818609E-02  0.8036825E-01
        2   -1    0    0  501    0  0.00000000000E+00  0.00000000000E+00  0.21912236753E+04  0.21912236753E+04  0.25500000920E-02 0. -1.
       -2   -1    0    0    0  501  0.00000000000E+00  0.00000000000E+00 -0.16856608395E+04  0.16856608395E+04  0.25500000920E-02 0.  1.
    10030    2    1    2    0    0  0.00000000000E+00  0.00000000000E+00  0.50556283585E+03  0.38768845148E+04  0.38437793590E+04 0.  0.
        2    1    3    3  502    0 -0.99970000156E+03  0.78023656413E+03  0.17093419845E+04  0.21283841780E+04  0.25500000920E-02 0. -1.
       -2    1    3    3    0  502  0.99970000156E+03 -0.78023656413E+03 -0.12037791487E+04  0.17485003368E+04  0.25500000920E-02 0.  1.
</event>
<event>
 5   0  0.5132561E-07  0.3667596E+04  0.7818609E-02  0.8075181E-01
        2   -1    0    0  501    0  0.00000000000E+00  0.00000000000E+00  0.25060209859E+04  0.25060209859E+04  0.25500000920E-02 0. -1.
       -2   -1    0    0    0  501  0.00000000000E+00  0.00000000000E+00 -0.13418942100E+04  0.13418942100E+04  0.25500000920E-02 0.  1.
    10030    2    1    2    0    0  0.00000000000E+00  0.00000000000E+00  0.11641267759E+04  0.38479151960E+04  0.36675959708E+04 0.  0.
        3    1    3    3  502    0  0.10295091833E+04  0.21837660955E+03 -0.99351549362E+03  0.14472907615E+04  0.10100000352E+00 0.  1.
       -3    1    3    3    0  502 -0.10295091833E+04 -0.21837660955E+03  0.21576422695E+04  0.24006244345E+04  0.10100000352E+00 0. -1.
</event>
<event>
 5   0  0.1648000E-07  0.3677655E+04  0.7818609E-02  0.8072932E-01
       -1   -1    0    0    0  501  0.00000000000E+00  0.00000000000E+00  0.14171692054E+04  0.14171692054E+04  0.50400001928E-02 0. -1.
        1   -1    0    0  501    0  0.00000000000E+00  0.00000000000E+00 -0.23859446044E+04  0.23859446044E+04  0.50400001928E-02 0.  1.
    10030    2    1    2    0    0  0.00000000000E+00  0.00000000000E+00 -0.96877539907E+03  0.38031138098E+04  0.36776553504E+04 0.  0.
        1    1    3    3  502    0 -0.54559377486E+03 -0.88752831901E+03  0.10825276984E+04  0.15024131596E+04  0.50400001928E-02 0. -1.
       -1    1    3    3    0  502  0.54559377486E+03  0.88752831901E+03 -0.20513030975E+04  0.23007006502E+04  0.50400001928E-02 0.  1.
</event>
<event>
 5   0  0.1648000E-07  0.3783005E+04  0.7818609E-02  0.8049812E-01
       -1   -1    0    0    0  501  0.00000000000E+00  0.00000000000E+00  0.30992697593E+04  0.30992697593E+04  0.50400001928E-02 0.  1.
        1   -1    0    0  501    0  0.00000000000E+00  0.00000000000E+00 -0.11543951438E+04  0.11543951439E+04  0.50400001928E-02 0. -1.
    10030    2    1    2    0    0  0.00000000000E+00  0.00000000000E+00  0.19448746155E+04  0.42536649032E+04  0.37830051333E+04 0.  0.
        2    1    3    3  502    0 -0.25647523274E+03 -0.20986715690E+03 -0.11214980474E+04  0.11694364621E+04  0.25500000920E-02 0. -1.
       -2    1    3    3    0  502  0.25647523274E+03  0.20986715690E+03  0.30663726629E+04  0.30842284410E+04  0.25500000920E-02 0.  1.
</event>
<event>
 5   0  0.1648000E-07  0.3846312E+04  0.7818609E-02  0.8036289E-01
       -1   -1    0    0    0  501  0.00000000000E+00  0.00000000000E+00  0.14652430974E+04  0.14652430974E+04  0.50400001928E-02 0. -1.
        1   -1    0    0  501    0  0.00000000000E+00  0.00000000000E+00 -0.25241747704E+04  0.25241747704E+04  0.50400001928E-02 0.  1.
    10030    2    1    2    0    0  0.00000000000E+00  0.00000000000E+00 -0.10589316731E+04  0.39894178678E+04  0.38463123425E+04 0.  0.
        2    1    3    3  502    0  0.47997909045E+03  0.13910808839E+04 -0.18136941724E+04  0.23355882565E+04  0.25500000920E-02 0.  1.
       -2    1    3    3    0  502 -0.47997909045E+03 -0.13910808839E+04  0.75476249936E+03  0.16538296113E+04  0.25500000920E-02 0. -1.
</event>
<event>
 5   0  0.5132561E-07  0.3722229E+04  0.7818609E-02  0.8063053E-01
       -2   -1    0    0    0  501  0.00000000000E+00  0.00000000000E+00  0.17358365599E+04  0.17358365599E+04  0.25500000920E-02 0. -1.
        2   -1    0    0  501    0  0.00000000000E+00  0.00000000000E+00 -0.19954341154E+04  0.19954341154E+04  0.25500000920E-02 0.  1.
    10030    2    1    2    0    0  0.00000000000E+00  0.00000000000E+00 -0.25959755552E+03  0.37312706754E+04  0.37222291657E+04 0.  0.
        3    1    3    3  502    0  0.41618212131E+03  0.13992190363E+04 -0.12870405032E+04  0.19461486934E+04  0.10100000352E+00 0.  1.
       -3    1    3    3    0  502 -0.41618212131E+03 -0.13992190363E+04  0.10274429476E+04  0.17851219820E+04  0.10100000352E+00 0. -1.
</event>
<event>
 5   0  0.5158266E-07  0.3772173E+04  0.7818609E-02  0.8052153E-01
        2   -1    0    0  501    0  0.00000000000E+00  0.00000000000E+00  0.10862933027E+04  0.10862933027E+04  0.25500000920E-02 0. -1.
       -2   -1    0    0    0  501  0.00000000000E+00  0.00000000000E+00 -0.32747351086E+04  0.32747351086E+04  0.25500000920E-02 0.  1.
    10030    2    1    2    0    0  0.00000000000E+00  0.00000000000E+00 -0.21884418058E+04  0.43610284113E+04  0.37721732816E+04 0.  0.
        2    1    3    3  502    0  0.12879854881E+04 -0.97599005625E+03 -0.22185944554E+04  0.27447448998E+04  0.25500000920E-02 0.  1.
       -2    1    3    3    0  502 -0.12879854881E+04  0.97599005625E+03  0.30152649544E+02  0.16162835115E+04  0.25500000920E-02 0. -1.
</event>
<event>
 5   0  0.5158266E-07  0.3804248E+04  0.7818609E-02  0.8045244E-01
       -2   -1    0    0    0  501  0.00000000000E+00  0.00000000000E+00  0.16649622332E+04  0.16649622332E+04  0.25500000920E-02 0.  1.
        2   -1    0    0  501    0  0.00000000000E+00  0.00000000000E+00 -0.21730681939E+04  0.21730681939E+04  0.25500000920E-02 0. -1.
    10030    2    1    2    0    0  0.00000000000E+00  0.00000000000E+00 -0.50810596073E+03  0.38380304271E+04  0.38042484004E+04 0.  0.
        2    1    3    3  502    0  0.46203030227E+03 -0.15235620039E+04  0.79603721860E+03  0.17799967509E+04  0.25500000920E-02 0.  1.
       -2    1    3    3    0  502 -0.46203030227E+03  0.15235620039E+04 -0.13041431793E+04  0.20580336761E+04  0.25500000920E-02 0. -1.
</event>
<event>
 5   0  0.1648000E-07  0.3451056E+04  0.7818609E-02  0.8125488E-01
        1   -1    0    0  501    0  0.00000000000E+00  0.00000000000E+00  0.97731906815E+03  0.97731906816E+03  0.50400001928E-02 0. -1.
       -1   -1    0    0    0  501  0.00000000000E+00  0.00000000000E+00 -0.30465455615E+04  0.30465455615E+04  0.50400001928E-02 0.  1.
    10030    2    1    2    0    0  0.00000000000E+00  0.00000000000E+00 -0.20692264933E+04  0.40238646296E+04  0.34510561104E+04 0.  0.
        4    1    3    3  502    0  0.33693861999E+03 -0.80317714781E+03 -0.27714251914E+04  0.29050680489E+04  0.12699999809E+01 0.  1.
       -4    1    3    3    0  502 -0.33693861999E+03  0.80317714781E+03  0.70219869812E+03  0.11187965807E+04  0.12699999809E+01 0. -1.
</event>
<event>
 5   0  0.1648000E-07  0.2925831E+04  0.7818609E-02  0.8265233E-01
       -3   -1    0    0    0  501  0.00000000000E+00  0.00000000000E+00  0.13719204545E+04  0.13719204583E+04  0.10100000352E+00 0. -1.
        3   -1    0    0  501    0  0.00000000000E+00  0.00000000000E+00 -0.15599459432E+04  0.15599459465E+04  0.10100000352E+00 0.  1.
    10030    2    1    2    0    0  0.00000000000E+00  0.00000000000E+00 -0.18802548870E+03  0.29318664048E+04  0.29258309984E+04 0.  0.
        5    1    3    3  502    0 -0.97115097849E+03  0.85630941232E+03 -0.77637236222E+03  0.15096940642E+04  0.46999998093E+01 0.  1.
       -5    1    3    3    0  502  0.97115097849E+03 -0.85630941232E+03  0.58834687352E+03  0.14221723406E+04  0.46999998093E+01 0. -1.
</event>
<event>
 5   0  0.5202788E-07  0.3825856E+04  0.7818609E-02  0.8040629E-01
        2   -1    0    0  501    0  0.00000000000E+00  0.00000000000E+00  0.23419784960E+04  0.23419784960E+04  0.25500000920E-02 0.  1.
       -2   -1    0    0    0  501  0.00000000000E+00  0.00000000000E+00 -0.15624794160E+04  0.15624794160E+04  0.25500000920E-02 0. -1.
    10030    2    1    2    0    0  0.00000000000E+00  0.00000000000E+00  0.77949908000E+03  0.39044579120E+04  0.38258558220E+04 0.  0.
        1    1    3    3  502    0  0.91162870719E+03 -0.99367535283E+02  0.21030352506E+04  0.22942750646E+04  0.50400001928E-02 0.  1.
       -1    1    3    3    0  502 -0.91162870719E+03  0.99367535283E+02 -0.13235361706E+04  0.16101828473E+04  0.50400001928E-02 0. -1.
</event>
<event>
 5   0  0.5132561E-07  0.3793187E+04  0.7818609E-02  0.8047619E-01
       -2   -1    0    0    0  501  0.00000000000E+00  0.00000000000E+00  0.13673498997E+04  0.13673498997E+04  0.25500000920E-02 0.  1.
        2   -1    0    0  501    0  0.00000000000E+00  0.00000000000E+00 -0.26306843776E+04  0.26306843776E+04  0.25500000920E-02 0. -1.
    10030    2    1    2    0    0  0.00000000000E+00  0.00000000000E+00 -0.12633344779E+04  0.39980342773E+04  0.37931865337E+04 0.  0.
        3    1    3    3  502    0  0.63795592145E+03 -0.16683234162E+04 -0.13038998289E+04  0.22114351794E+04  0.10100000352E+00 0. -1.
       -3    1    3    3    0  502 -0.63795592145E+03  0.16683234162E+04  0.40565351018E+02  0.17865990979E+04  0.10100000352E+00 0.  1.
</event>
<event>
 5   0  0.1648000E-07  0.3825081E+04  0.7818609E-02  0.8040794E-01
        1   -1    0    0  501    0  0.00000000000E+00  0.00000000000E+00  0.14218827032E+04  0.14218827032E+04  0.50400001928E-02 0.  1.
       -1   -1    0    0    0  501  0.00000000000E+00  0.00000000000E+00 -0.25725125283E+04  0.25725125283E+04  0.50400001928E-02 0. -1.
    10030    2    1    2    0    0  0.00000000000E+00  0.00000000000E+00 -0.11506298251E+04  0.39943952315E+04  0.38250809496E+04 0.  0.
        2    1    3    3  502    0 -0.18813508230E+04 -0.14567713043E+03 -0.90073070814E+03  0.20909372429E+04  0.25500000920E-02 0. -1.
       -2    1    3    3    0  502  0.18813508230E+04  0.14567713043E+03 -0.24989911694E+03  0.19034579885E+04  0.25500000920E-02 0.  1.
</event>
<event>
 5   0  0.5132561E-07  0.3907103E+04  0.7818609E-02  0.8023554E-01
       -2   -1    0    0    0  501  0.00000000000E+00  0.00000000000E+00  0.17755948943E+04  0.17755948943E+04  0.25500000920E-02 0.  1.
        2   -1    0    0  501    0  0.00000000000E+00  0.00000000000E+00 -0.21493431933E+04  0.21493431933E+04  0.25500000920E-02 0. -1.
    10030    2    1    2    0    0  0.00000000000E+00  0.00000000000E+00 -0.37374829903E+03  0.39249380875E+04  0.39071026605E+04 0.  0.
        3    1    3    3  502    0  0.30487808491E+03 -0.62649427371E+03  0.16465371257E+04  0.17878842910E+04  0.10100000352E+00 0.  1.
       -3    1    3    3    0  502 -0.30487808491E+03  0.62649427371E+03 -0.20202854247E+04  0.21370537965E+04  0.10100000352E+00 0. -1.
</event>
<event>
 5   0  0.5158266E-07  0.4175215E+04  0.7818609E-02  0.7970104E-01
       -2   -1    0    0    0  501  0.00000000000E+00  0.00000000000E+00  0.18366738353E+04  0.18366738353E+04  0.25500000920E-02 0.  1.
        2   -1    0    0  501    0  0.00000000000E+00  0.00000000000E+00 -0.23728247898E+04  0.23728247899E+04  0.25500000920E-02 0. -1.
    10030    2    1    2    0    0  0.00000000000E+00  0.00000000000E+00 -0.53615095456E+03  0.42094986251E+04  0.41752150638E+04 0.  0.
        2    1    3    3  502    0  0.39421609276E+03  0.18643004887E+04  0.59161751621E+03  0.19952528475E+04  0.25500000920E-02 0.  1.
       -2    1    3    3    0  502 -0.39421609276E+03 -0.18643004887E+04 -0.11277684708E+04  0.22142457776E+04  0.25500000920E-02 0. -1.
</event>
<event>
 5   0  0.5134434E-07  0.3795836E+04  0.7818609E-02  0.8047049E-01
        2   -1    0    0  501    0  0.00000000000E+00  0.00000000000E+00  0.20218529506E+04  0.20218529506E+04  0.25500000920E-02 0.  1.
       -2   -1    0    0    0  501  0.00000000000E+00  0.00000000000E+00 -0.17815800082E+04  0.17815800082E+04  0.25500000920E-02 0. -1.
    10030    2    1    2    0    0  0.00000000000E+00  0.00000000000E+00  0.24027294243E+03  0.38034329588E+04  0.37958360324E+04 0.  0.
        5    1    3    3  502    0  0.13381421689E+04  0.11409325253E+04  0.83551157878E+03  0.19469086213E+04  0.46999998093E+01 0.  1.
       -5    1    3    3    0  502 -0.13381421689E+04 -0.11409325253E+04 -0.59523863635E+03  0.18565243375E+04  0.46999998093E+01 0. -1.
</event>
<event>
 5   0  0.1656617E-07  0.3770477E+04  0.7818609E-02  0.8052520E-01
       -1   -1    0    0    0  501  0.00000000000E+00  0.00000000000E+00  0.17144003728E+04  0.17144003728E+04  0.50400001928E-02 0. -1.
        1   -1    0    0  501    0  0.00000000000E+00  0.00000000000E+00 -0.20731009294E+04  0.20731009294E+04  0.50400001928E-02 0.  1.
    10030    2    1    2    0    0  0.00000000000E+00  0.00000000000E+00 -0.35870055656E+03  0.37875013022E+04  0.37704774267E+04 0.  0.
        5    1    3    3  502    0 -0.25038645529E+03 -0.28145499700E+03  0.16762020898E+04  0.17180179941E+04  0.46999998093E+01 0. -1.
       -5    1    3    3    0  502  0.25038645529E+03  0.28145499700E+03 -0.20349026464E+04  0.20694833081E+04  0.46999998093E+01 0.  1.
</event>
<event>
 5   0  0.1656617E-07  0.3738323E+04  0.7818609E-02  0.8059522E-01
       -1   -1    0    0    0  501  0.00000000000E+00  0.00000000000E+00  0.14207779823E+04  0.14207779823E+04  0.50400001928E-02 0. -1.
        1   -1    0    0  501    0  0.00000000000E+00  0.00000000000E+00 -0.24590499500E+04  0.24590499500E+04  0.50400001928E-02 0.  1.
    10030    2    1    2    0    0  0.00000000000E+00  0.00000000000E+00 -0.10382719677E+04  0.38798279323E+04  0.37383226326E+04 0.  0.
        5    1    3    3  502    0  0.15595281928E+04 -0.74496022081E+03  0.21959933114E+03  0.17422226812E+04  0.46999998093E+01 0. -1.
       -5    1    3    3    0  502 -0.15595281928E+04  0.74496022081E+03 -0.12578712989E+04  0.21376052510E+04  0.46999998093E+01 0.  1.
</event>
<event>
 5   0  0.5202788E-07  0.3816066E+04  0.7818609E-02  0.8042716E-01
        2   -1    0    0  501    0  0.00000000000E+00  0.00000000000E+00  0.19719112180E+04  0.19719112180E+04  0.25500000920E-02 0. -1.
       -2   -1    0    0    0  501  0.00000000000E+00  0.00000000000E+00 -0.18462239231E+04  0.18462239231E+04  0.25500000920E-02 0.  1.
    10030    2    1    2    0    0  0.00000000000E+00  0.00000000000E+00  0.12568729491E+03  0.38181351411E+04  0.38160658615E+04 0.  0.
        1    1    3    3  502    0  0.13852879328E+04  0.19939405204E+03 -0.12347053698E+04  0.18663541987E+04  0.50400001928E-02 0.  1.
       -1    1    3    3    0  502 -0.13852879328E+04 -0.19939405204E+03  0.13603926647E+04  0.19517809424E+04  0.50400001928E-02 0. -1.
</event>
<event>
 5   0  0.1648000E-07  0.3844974E+04  0.7818609E-02  0.8036572E-01
       -1   -1    0    0    0  501  0.00000000000E+00  0.00000000000E+00  0.12263187198E+04  0.12263187198E+04  0.50400001928E-02 0.  1.
        1   -1    0    0  501    0  0.00000000000E+00  0.00000000000E+00 -0.30138626583E+04  0.30138626583E+04  0.50400001928E-02 0. -1.
    10030    2    1    2    0    0  0.00000000000E+00  0.00000000000E+00 -0.17875439385E+04  0.42401813781E+04  0.38449739644E+04 0.  0.
        4    1    3    3  502    0 -0.18323628615E+04 -0.15182366732E+03 -0.27449091445E+03  0.18590188157E+04  0.12699999809E+01 0.  1.
       -4    1    3    3    0  502  0.18323628615E+04  0.15182366732E+03 -0.15130530240E+04  0.23811625624E+04  0.12699999809E+01 0. -1.
</event>
<event>
 5   0  0.5158266E-07  0.3777389E+04  0.7818609E-02  0.8051025E-01
       -2   -1    0    0    0  501  0.00000000000E+00  0.00000000000E+00  0.15680490830E+04  0.15680490830E+04  0.25500000920E-02 0.  1.
        2   -1    0    0  501    0  0.00000000000E+00  0.00000000000E+00 -0.22749078915E+04  0.22749078915E+04  0.25500000920E-02 0. -1.
    10030    2    1    2    0    0  0.00000000000E+00  0.00000000000E+00 -0.70685880852E+03  0.38429569744E+04  0.37773891688E+04 0.  0.
        2    1    3    3  502    0  0.13605724581E+04 -0.30851965058E+03 -0.16486445504E+04  0.21597154077E+04  0.25500000920E-02 0. -1.
       -2    1    3    3    0  502 -0.13605724581E+04  0.30851965058E+03  0.94178574191E+03  0.16832415668E+04  0.25500000920E-02 0.  1.
</event>
<event>
 5   0  0.1648000E-07  0.3805166E+04  0.7818609E-02  0.8045047E-01
       -1   -1    0    0    0  501  0.00000000000E+00  0.00000000000E+00  0.13666586743E+04  0.13666586743E+04  0.50400001928E-02 0. -1.
        1   -1    0    0  501    0  0.00000000000E+00  0.00000000000E+00 -0.26486657232E+04  0.26486657232E+04  0.50400001928E-02 0.  1.
    10030    2    1    2    0    0  0.00000000000E+00  0.00000000000E+00 -0.12820070489E+04  0.40153243976E+04  0.38051659549E+04 0.  0.
        1    1    3    3  502    0 -0.14417689493E+04 -0.12157670940E+04 -0.90593693407E+03  0.20922497601E+04  0.50400001928E-02 0.  1.
       -1    1    3    3    0  502  0.14417689493E+04  0.12157670940E+04 -0.37607011485E+03  0.19230746375E+04  0.50400001928E-02 0. -1.
</event>
<event>
 5   0  0.5325362E-07  0.3351309E+04  0.7818609E-02  0.8149961E-01
       -2   -1    0    0    0  501  0.00000000000E+00  0.00000000000E+00  0.11393451103E+04  0.11393451103E+04  0.25500000920E-02 0. -1.
        2   -1    0    0  501    0  0.00000000000E+00  0.00000000000E+00 -0.24644134681E+04  0.24644134681E+04  0.25500000920E-02 0.  1.
    10030    2    1    2    0    0  0.00000000000E+00  0.00000000000E+00 -0.13250683577E+04  0.36037585784E+04  0.33513086606E+04 0.  0.
        4    1    3    3  502    0 -0.15932277610E+04  0.28302667307E+03 -0.11304406327E+04  0.19739241204E+04  0.12699999809E+01 0.  1.
       -4    1    3    3    0  502  0.15932277610E+04 -0.28302667307E+03 -0.19462772503E+03  0.16298344580E+04  0.12699999809E+01 0. -1.
</event>
<event>
 5   0  0.1648000E-07  0.3810482E+04  0.7818609E-02  0.8043909E-01
       -1   -1    0    0    0  501  0.00000000000E+00  0.00000000000E+00  0.17491184504E+04  0.17491184504E+04  0.50400001928E-02 0. -1.
        1   -1    0    0  501    0  0.00000000000E+00  0.00000000000E+00 -0.20752986820E+04  0.20752986820E+04  0.50400001928E-02 0.  1.
    10030    2    1    2    0    0  0.00000000000E+00  0.00000000000E+00 -0.32618023156E+03  0.38244171324E+04  0.38104819721E+04 0.  0.
        4    1    3    3  502    0  0.15482126244E+04 -0.26504068904E+03 -0.12453343679E+04  0.20045119601E+04  0.12699999809E+01 0.  1.
       -4    1    3    3    0  502 -0.15482126244E+04  0.26504068904E+03  0.91915413636E+03  0.18199051724E+04  0.12699999809E+01 0. -1.
</event>
<event>
 5   0  0.5134434E-07  0.3820201E+04  0.7818609E-02  0.8041834E-01
       -2   -1    0    0    0  501  0.00000000000E+00  0.00000000000E+00  0.14260125556E+04  0.14260125556E+04  0.25500000920E-02 0. -1.
        2   -1    0    0  501    0  0.00000000000E+00  0.00000000000E+00 -0.25585214363E+04  0.25585214363E+04  0.25500000920E-02 0.  1.
    10030    2    1    2    0    0  0.00000000000E+00  0.00000000000E+00 -0.11325088807E+04  0.39845339919E+04  0.38202008806E+04 0.  0.
        5    1    3    3  502    0 -0.10536085595E+04  0.15741216730E+04 -0.82282718770E+03  0.20651916882E+04  0.46999998093E+01 0.  1.
       -5    1    3    3    0  502  0.10536085595E+04 -0.15741216730E+04 -0.30968169303E+03  0.19193423038E+04  0.46999998093E+01 0. -1.
</event>
<event>
 5   0  0.1648000E-07  0.3420241E+04  0.7818609E-02  0.8132956E-01
       -1   -1    0    0    0  501  0.00000000000E+00  0.00000000000E+00  0.12952185723E+04  0.12952185723E+04  0.50400001928E-02 0.  1.
        1   -1    0    0  501    0  0.00000000000E+00  0.00000000000E+00 -0.22579289538E+04  0.22579289538E+04  0.50400001928E-02 0. -1.
    10030    2    1    2    0    0  0.00000000000E+00  0.00000000000E+00 -0.96271038143E+03  0.35531475261E+04  0.34202406441E+04 0.  0.
        4    1    3    3  502    0 -0.13893790792E+04  0.36007791626E+02 -0.15164878610E+04  0.20570386074E+04  0.12699999809E+01 0.  1.
       -4    1    3    3    0  502  0.13893790792E+04 -0.36007791626E+02  0.55377747958E+03  0.14961089187E+04  0.12699999809E+01 0. -1.
</event>
<event>
 5   0  0.1656617E-07  0.3823620E+04  0.7818609E-02  0.8041105E-01
       -1   -1    0    0    0  501  0.00000000000E+00  0.00000000000E+00  0.17724687288E+04  0.17724687288E+04  0.50400001928E-02 0. -1.
        1   -1    0    0  501    0  0.00000000000E+00  0.00000000000E+00 -0.20621050523E+04  0.20621050523E+04  0.50400001928E-02 0.  1.
    10030    2    1    2    0    0  0.00000000000E+00  0.00000000000E+00 -0.28963632354E+03  0.38345737811E+04  0.38236196049E+04 0.  0.
        5    1    3    3  502    0  0.26995402978E+03 -0.15671097778E+04  0.91948864117E+03  0.18368967541E+04  0.46999998093E+01 0. -1.
       -5    1    3    3    0  502 -0.26995402978E+03  0.15671097778E+04 -0.12091249647E+04  0.19976770270E+04  0.46999998093E+01 0.  1.
</event>
<event>
 5   0  0.5202788E-07  0.3645971E+04  0.7818609E-02  0.8080042E-01
       -2   -1    0    0    0  501  0.00000000000E+00  0.00000000000E+00  0.20540278433E+04  0.20540278433E+04  0.25500000920E-02 0.  1.
        2   -1    0    0  501    0  0.00000000000E+00  0.00000000000E+00 -0.16179312287E+04  0.16179312287E+04  0.25500000920E-02 0. -1.
    10030    2    1    2    0    0  0.00000000000E+00  0.00000000000E+00  0.43609661463E+03  0.36719590719E+04  0.36459708129E+04 0.  0.
        1    1    3    3  502    0  0.90154455633E+03 -0.61115678518E+03 -0.12542131165E+04  0.16611278532E+04  0.50400001928E-02 0. -1.
       -1    1    3    3    0  502 -0.90154455633E+03  0.61115678518E+03  0.16903097311E+04  0.20108312187E+04  0.50400001928E-02 0.  1.
</event>
<event>
 5   0  0.1656617E-07  0.3842155E+04  0.7818609E-02  0.8037168E-01
        1   -1    0    0  501    0  0.00000000000E+00  0.00000000000E+00  0.15704436640E+04  0.15704436640E+04  0.50400001928E-02 0. -1.
       -1   -1    0    0    0  501  0.00000000000E+00  0.00000000000E+00 -0.23499980863E+04  0.23499980863E+04  0.50400001928E-02 0.  1.
    10030    2    1    2    0    0  0.00000000000E+00  0.00000000000E+00 -0.77955442227E+03  0.39204417503E+04  0.38421554394E+04 0.  0.
        5    1    3    3  502    0  0.11864140807E+04 -0.81590910298E+03 -0.16873931395E+04  0.22182433889E+04  0.46999998093E+01 0.  1.
       -5    1    3    3    0  502 -0.11864140807E+04  0.81590910298E+03  0.90783871724E+03  0.17021983614E+04  0.46999998093E+01 0. -1.
</event>
<event>
 5   0  0.5202788E-07  0.3817608E+04  0.7818609E-02  0.8042387E-01
        2   -1    0    0  501    0  0.00000000000E+00  0.00000000000E+00  0.30391497717E+04  0.30391497717E+04  0.25500000920E-02 0.  1.
       -2   -1    0    0    0  501  0.00000000000E+00  0.00000000000E+00 -0.11988657285E+04  0.11988657285E+04  0.25500000920E-02 0. -1.
    10030    2    1    2    0    0  0.00000000000E+00  0.00000000000E+00  0.18402840432E+04  0.42380155002E+04  0.38176078924E+04 0.  0.
        1    1    3    3  502    0 -0.57227881337E+03  0.13047052778E+04  0.23303803841E+04  0.27313790724E+04  0.50400001928E-02 0.  1.
       -1    1    3    3    0  502  0.57227881337E+03 -0.13047052778E+04 -0.49009634098E+03  0.15066364278E+04  0.50400001928E-02 0. -1.
</event>
<event>
 5   0  0.1648000E-07  0.3800853E+04  0.7818609E-02  0.8045972E-01
        1   -1    0    0  501    0  0.00000000000E+00  0.00000000000E+00  0.14202788116E+04  0.14202788116E+04  0.50400001928E-02 0. -1.
       -1   -1    0    0    0  501  0.00000000000E+00  0.00000000000E+00 -0.25428958491E+04  0.25428958491E+04  0.50400001928E-02 0.  1.
    10030    2    1    2    0    0  0.00000000000E+00  0.00000000000E+00 -0.11226170375E+04  0.39631746607E+04  0.38008531120E+04 0.  0.
        3    1    3    3  502    0  0.11387715618E+04  0.43467935010E+03  0.95899715009E+03  0.15509424075E+04  0.10100000352E+00 0. -1.
       -3    1    3    3    0  502 -0.11387715618E+04 -0.43467935010E+03 -0.20816141875E+04  0.24122322532E+04  0.10100000352E+00 0.  1.
</event>
<event>
 5   0  0.1656617E-07  0.3719558E+04  0.7818609E-02  0.8063641E-01
       -1   -1    0    0    0  501  0.00000000000E+00  0.00000000000E+00  0.18943172421E+04  0.18943172421E+04  0.50400001928E-02 0. -1.
        1   -1    0    0  501    0  0.00000000000E+00  0.00000000000E+00 -0.18258701231E+04  0.18258701231E+04  0.50400001928E-02 0.  1.
    10030    2    1    2    0    0  0.00000000000E+00  0.00000000000E+00  0.68447118969E+02  0.37201873652E+04  0.37195576382E+04 0.  0.
        5    1    3    3  502    0 -0.13383060855E+04 -0.59353891351E+03  0.11813281682E+04  0.18811990727E+04  0.46999998093E+01 0. -1.
       -5    1    3    3    0  502  0.13383060855E+04  0.59353891351E+03 -0.11128810492E+04  0.18389882925E+04  0.46999998093E+01 0.  1.
</event>
<event>
 5   0  0.5325362E-07  0.3805939E+04  0.7818609E-02  0.8044881E-01
       -2   -1    0    0    0  501  0.00000000000E+00  0.00000000000E+00  0.17431441815E+04  0.17431441815E+04  0.25500000920E-02 0. -1.
        2   -1    0    0  501    0  0.00000000000E+00  0.00000000000E+00 -0.20774493842E+04  0.20774493842E+04  0.25500000920E-02 0.  1.
    10030    2    1    2    0    0  0.00000000000E+00  0.00000000000E+00 -0.33430520267E+03  0.38205935657E+04  0.38059394669E+04 0.  0.
        4    1    3    3  502    0 -0.91001126591E+03 -0.15975529979E+04 -0.65995632226E+03  0.19534175297E+04  0.12699999809E+01 0.  1.
       -4    1    3    3    0  502  0.91001126591E+03  0.15975529979E+04  0.32565111960E+03  0.18671760361E+04  0.12699999809E+01 0. -1.
</event>
<event>
 5   0  0.5158266E-07  0.3550381E+04  0.7818609E-02  0.8101953E-01
       -2   -1    0    0    0  501  0.00000000000E+00  0.00000000000E+00  0.16738639608E+04  0.16738639608E+04  0.25500000920E-02 0.  1.
        2   -1    0    0  501    0  0.00000000000E+00  0.00000000000E+00 -0.18826505191E+04  0.18826505191E+04  0.25500000920E-02 0. -1.
    10030    2    1    2    0    0  0.00000000000E+00  0.00000000000E+00 -0.20878655833E+03  0.35565144800E+04  0.35503807429E+04 0.  0.
        2    1    3    3  502    0 -0.10394567337E+04  0.61180102222E+03  0.12003661132E+04  0.17016608351E+04  0.25500000920E-02 0.  1.
       -2    1    3    3    0  502  0.10394567337E+04 -0.61180102222E+03 -0.14091526715E+04  0.18548536448E+04  0.25500000920E-02 0. -1.
</event>
<event>
 5   0  0.1648000E-07  0.3854967E+04  0.7818609E-02  0.8034461E-01
       -1   -1    0    0    0  501  0.00000000000E+00  0.00000000000E+00  0.12374206707E+04  0.12374206707E+04  0.50400001928E-02 0. -1.
        1   -1    0    0  501    0  0.00000000000E+00  0.00000000000E+00 -0.30023687033E+04  0.30023687033E+04  0.50400001928E-02 0.  1.
    10030    2    1    2    0    0  0.00000000000E+00  0.00000000000E+00 -0.17649480326E+04  0.42397893741E+04  0.38549672344E+04 0.  0.
        4    1    3    3  502    0 -0.20980785133E+03  0.96648439268E+03 -0.27020380419E+04  0.28773464526E+04  0.12699999809E+01 0.  1.
       -4    1    3    3    0  502  0.20980785133E+03 -0.96648439268E+03  0.93709000926E+03  0.13624429214E+04  0.12699999809E+01 0. -1.
</event>
<event>
 5   0  0.5134434E-07  0.2903659E+04  0.7818609E-02  0.8271790E-01
       -2   -1    0    0    0  501  0.00000000000E+00  0.00000000000E+00  0.13970569723E+04  0.13970569723E+04  0.25500000920E-02 0.  1.
        2   -1    0    0  501    0  0.00000000000E+00  0.00000000000E+00 -0.15087499172E+04  0.15087499172E+04  0.25500000920E-02 0. -1.
    10030    2    1    2    0    0  0.00000000000E+00  0.00000000000E+00 -0.11169294486E+03  0.29058068895E+04  0.29036594782E+04 0.  0.
        5    1    3    3  502    0  0.19281165454E+03  0.12930848844E+04 -0.68761569781E+03  0.14771872901E+04  0.46999998093E+01 0. -1.
       -5    1    3    3    0  502 -0.19281165454E+03 -0.12930848844E+04  0.57592275295E+03  0.14286195993E+04  0.46999998093E+01 0.  1.
</event>
<event>
 5   0  0.1648000E-07  0.3331888E+04  0.7818609E-02  0.8154829E-01
        1   -1    0    0  501    0  0.00000000000E+00  0.00000000000E+00  0.16586947795E+04  0.16586947796E+04  0.50400001928E-02 0. -1.
       -1   -1    0    0    0  501  0.00000000000E+00  0.00000000000E+00 -0.16732245389E+04  0.16732245390E+04  0.50400001928E-02 0.  1.
    10030    2    1    2    0    0  0.00000000000E+00  0.00000000000E+00 -0.14529759406E+02  0.33319193185E+04  0.33318876378E+04 0.  0.
        1    1    3    3  502    0  0.20509661940E+03 -0.94217754995E+02 -0.16578644704E+04  0.16731575571E+04  0.50400001928E-02 0.  1.
       -1    1    3    3    0  502 -0.20509661940E+03  0.94217754995E+02  0.16433347110E+04  0.16587617614E+04  0.50400001928E-02 0. -1.
</event>
<event>
 5   0  0.5325362E-07  0.3746613E+04  0.7818609E-02  0.8057710E-01
       -2   -1    0    0    0  501  0.00000000000E+00  0.00000000000E+00  0.14519759745E+04  0.14519759745E+04  0.25500000920E-02 0.  1.
        2   -1    0    0  501    0  0.00000000000E+00  0.00000000000E+00 -0.24168975173E+04  0.24168975173E+04  0.25500000920E-02 0. -1.
    10030    2    1    2    0    0  0.00000000000E+00  0.00000000000E+00 -0.96492154282E+03  0.38688734918E+04  0.37466129386E+04 0.  0.
        4    1    3    3  502    0  0.15096461371E+03 -0.17459893705E+04  0.20095640256E+03  0.17639881760E+04  0.12699999809E+01 0.  1.
       -4    1    3    3    0  502 -0.15096461371E+03  0.17459893705E+04 -0.11658779454E+04  0.21048853158E+04  0.12699999809E+01 0. -1.
</event>
<event>
 5   0  0.1648000E-07  0.3745241E+04  0.7818609E-02  0.8058009E-01
        1   -1    0    0  501    0  0.00000000000E+00  0.00000000000E+00  0.11143477916E+04  0.11143477917E+04  0.50400001928E-02 0. -1.
       -1   -1    0    0    0  501  0.00000000000E+00  0.00000000000E+00 -0.31468692411E+04  0.31468692411E+04  0.50400001928E-02 0.  1.
    10030    2    1    2    0    0  0.00000000000E+00  0.00000000000E+00 -0.20325214495E+04  0.42612170328E+04  0.37452406008E+04 0.  0.
        2    1    3    3  502    0  0.17340018352E+02  0.11336850068E+03 -0.31428697023E+04  0.31449615353E+04  0.25500000920E-02 0.  1.
       -2    1    3    3    0  502 -0.17340018352E+02 -0.11336850068E+03  0.11103482528E+04  0.11162554975E+04  0.25500000920E-02 0. -1.
</event>
<event>
 5   0  0.1648000E-07  0.3947108E+04  0.7818609E-02  0.8015302E-01
        1   -1    0    0  501    0  0.00000000000E+00  0.00000000000E+00  0.12917853666E+04  0.12917853666E+04  0.50400001928E-02 0. -1.
       -1   -1    0    0    0  501  0.00000000000E+00  0.00000000000E+00 -0.30151410831E+04  0.30151410831E+04  0.50400001928E-02 0.  1.
    10030    2    1    2    0    0  0.00000000000E+00  0.00000000000E+00 -0.17233557165E+04  0.43069264498E+04  0.39471078676E+04 0.  0.
        2    1    3    3  502    0 -0.16377621716E+04  0.11011918691E+04 -0.85604318134E+03  0.21512085886E+04  0.25500000920E-02 0.  1.
       -2    1    3    3    0  502  0.16377621716E+04 -0.11011918691E+04 -0.86731253515E+03  0.21557178612E+04  0.25500000920E-02 0. -1.
</event>
<event>
 5   0  0.5158266E-07  0.3811015E+04  0.7818609E-02  0.8043795E-01
       -2   -1    0    0    0  501  0.00000000000E+00  0.00000000000E+00  0.12323259186E+04  0.12323259186E+04  0.25500000920E-02 0.  1.
        2   -1    0    0  501    0  0.00000000000E+00  0.00000000000E+00 -0.29464279114E+04  0.29464279114E+04  0.25500000920E-02 0. -1.
    10030    2    1    2    0    0  0.00000000000E+00  0.00000000000E+00 -0.17141019928E+04  0.41787538300E+04  0.38110153411E+04 0.  0.
        2    1    3    3  502    0  0.66633671173E+03 -0.16742259736E+04 -0.17764756433E+03  0.18106893387E+04  0.25500000920E-02 0.  1.
       -2    1    3    3    0  502 -0.66633671173E+03  0.16742259736E+04 -0.15364544285E+04  0.23680644913E+04  0.25500000920E-02 0. -1.
</event>
<event>
 5   0  0.1656617E-07  0.3661192E+04  0.7818609E-02  0.8076617E-01
        1   -1    0    0  501    0  0.00000000000E+00  0.00000000000E+00  0.28754946235E+04  0.28754946235E+04  0.50400001928E-02 0. -1.
       -1   -1    0    0    0  501  0.00000000000E+00  0.00000000000E+00 -0.11653933688E+04  0.11653933688E+04  0.50400001928E-02 0.  1.
    10030    2    1    2    0    0  0.00000000000E+00  0.00000000000E+00  0.17101012546E+04  0.40408879923E+04  0.36611923557E+04 0.  0.
        5    1    3    3  502    0  0.15787459537E+04  0.29421203553E+02 -0.16714994148E+03  0.15878493589E+04  0.46999998093E+01 0.  1.
       -5    1    3    3    0  502 -0.15787459537E+04 -0.29421203553E+02  0.18772511961E+04  0.24530386334E+04  0.46999998093E+01 0. -1.
</event>
<event>
 5   0  0.1648000E-07  0.3832172E+04  0.7818609E-02  0.8039286E-01
        1   -1    0    0  501    0  0.00000000000E+00  0.00000000000E+00  0.23503908021E+04  0.23503908021E+04  0.50400001928E-02 0.  1.
       -1   -1    0    0    0  501  0.00000000000E+00  0.00000000000E+00 -0.15620319665E+04  0.15620319665E+04  0.50400001928E-02 0. -1.
    10030    2    1    2    0    0  0.00000000000E+00  0.00000000000E+00  0.78835883558E+03  0.39124227686E+04  0.38321720038E+04 0.  0.
        1    1    3    3  502    0 -0.24781564641E+03 -0.41582123699E+03  0.22869357114E+04  0.23376045097E+04  0.50400001928E-02 0.  1.
       -1    1    3    3    0  502  0.24781564641E+03  0.41582123699E+03 -0.14985768758E+04  0.15748182589E+04  0.50400001928E-02 0. -1.
</event>
<event>
 5   0  0.1656617E-07  0.3113518E+04  0.7818609E-02  0.8212038E-01
        1   -1    0    0  501    0  0.00000000000E+00  0.00000000000E+00  0.20280267029E+04  0.20280267029E+04  0.50400001928E-02 0.  1.
       -1   -1    0    0    0  501  0.00000000000E+00  0.00000000000E+00 -0.11950035181E+04  0.11950035182E+04  0.50400001928E-02 0. -1.
    10030    2    1    2    0    0  0.00000000000E+00  0.00000000000E+00  0.83302318474E+03  0.32230302211E+04  0.31135182960E+04 0.  0.
        5    1    3    3  502    0  0.34175891405E+03  0.96863424869E+03  0.16274541253E+04  0.19244948644E+04  0.46999998093E+01 0.  1.
       -5    1    3    3    0  502 -0.34175891405E+03 -0.96863424869E+03 -0.79443094060E+03  0.12985353566E+04  0.46999998093E+01 0. -1.
</event>
<event>
 5   0  0.5158266E-07  0.3017321E+04  0.7818609E-02  0.8238802E-01
        2   -1    0    0  501    0  0.00000000000E+00  0.00000000000E+00  0.10656472099E+04  0.10656472099E+04  0.25500000920E-02 0. -1.
       -2   -1    0    0    0  501  0.00000000000E+00  0.00000000000E+00 -0.21358443059E+04  0.21358443059E+04  0.25500000920E-02 0.  1.
    10030    2    1    2    0    0  0.00000000000E+00  0.00000000000E+00 -0.10701970960E+04  0.32014915158E+04  0.30173210139E+04 0.  0.
        2    1    3    3  502    0  0.90808304774E+02 -0.58538952990E+03 -0.20072781960E+04  0.20928671258E+04  0.25500000920E-02 0.  1.
       -2    1    3    3    0  502 -0.90808304774E+02  0.58538952990E+03  0.93708110005E+03  0.11086243900E+04  0.25500000920E-02 0. -1.
</event>
<event>
 5   0  0.5158266E-07  0.3826675E+04  0.7818609E-02  0.8040455E-01
       -2   -1    0    0    0  501  0.00000000000E+00  0.00000000000E+00  0.12016170894E+04  0.12016170894E+04  0.25500000920E-02 0.  1.
        2   -1    0    0  501    0  0.00000000000E+00  0.00000000000E+00 -0.30466117310E+04  0.30466117310E+04  0.25500000920E-02 0. -1.
    10030    2    1    2    0    0  0.00000000000E+00  0.00000000000E+00 -0.18449946416E+04  0.42482288203E+04  0.38266751734E+04 0.  0.
        2    1    3    3  502    0  0.15140645582E+04  0.50511223259E+03  0.24888435793E+03  0.16153864174E+04  0.25500000920E-02 0.  1.
       -2    1    3    3    0  502 -0.15140645582E+04 -0.50511223259E+03 -0.20938789996E+04  0.26328424029E+04  0.25500000920E-02 0. -1.
</event>
<event>
 5   0  0.1648000E-07  0.3621075E+04  0.7818609E-02  0.8085681E-01
       -1   -1    0    0    0  501  0.00000000000E+00  0.00000000000E+00  0.16715676618E+04  0.16715676618E+04  0.50400001928E-02 0.  1.
        1   -1    0    0  501    0  0.00000000000E+00  0.00000000000E+00 -0.19610612721E+04  0.19610612721E+04  0.50400001928E-02 0. -1.
    10030    2    1    2    0    0  0.00000000000E+00  0.00000000000E+00 -0.28949361026E+03  0.36326289339E+04  0.36210753128E+04 0.  0.
        1    1    3    3  502    0 -0.21120665148E+03  0.15991333284E+04  0.68019740897E+03  0.17505725255E+04  0.50400001928E-02 0.  1.
       -1    1    3    3    0  502  0.21120665148E+03 -0.15991333284E+04 -0.96969101924E+03  0.18820564084E+04  0.50400001928E-02 0. -1.
</event>
<event>
 5   0  0.5132561E-07  0.3710986E+04  0.7818609E-02  0.8065531E-01
       -2   -1    0    0    0  501  0.00000000000E+00  0.00000000000E+00  0.11613070718E+04  0.11613070718E+04  0.25500000920E-02 0.  1.
        2   -1    0    0  501    0  0.00000000000E+00  0.00000000000E+00 -0.29646380795E+04  0.29646380795E+04  0.25500000920E-02 0. -1.
    10030    2    1    2    0    0  0.00000000000E+00  0.00000000000E+00 -0.18033310077E+04  0.41259451512E+04  0.37109864817E+04 0.  0.
        3    1    3    3  502    0  0.23198885057E+03  0.17466723444E+04 -0.25511428637E+03  0.17803837830E+04  0.10100000352E+00 0. -1.
       -3    1    3    3    0  502 -0.23198885057E+03 -0.17466723444E+04 -0.15482167213E+04  0.23455613682E+04  0.10100000352E+00 0.  1.
</event>
<event>
 5   0  0.5132561E-07  0.3782299E+04  0.7818609E-02  0.8049964E-01
        2   -1    0    0  501    0  0.00000000000E+00  0.00000000000E+00  0.20433887083E+04  0.20433887083E+04  0.25500000920E-02 0. -1.
       -2   -1    0    0    0  501  0.00000000000E+00  0.00000000000E+00 -0.17502527402E+04  0.17502527402E+04  0.25500000920E-02 0.  1.
    10030    2    1    2    0    0  0.00000000000E+00  0.00000000000E+00  0.29313596814E+03  0.37936414485E+04  0.37822991347E+04 0.  0.
        3    1    3    3  502    0 -0.15852322887E+04  0.66690313154E+03  0.93551785394E+03  0.19577831497E+04  0.10100000352E+00 0. -1.
       -3    1    3    3    0  502  0.15852322887E+04 -0.66690313154E+03 -0.64238188580E+03  0.18358582988E+04  0.10100000352E+00 0.  1.
</event>
<event>
 5   0  0.5325362E-07  0.3803436E+04  0.7818609E-02  0.8045418E-01
       -2   -1    0    0    0  501  0.00000000000E+00  0.00000000000E+00  0.21661553367E+04  0.21661553367E+04  0.25500000920E-02 0.  1.
        2   -1    0    0  501    0  0.00000000000E+00  0.00000000000E+00 -0.16695619702E+04  0.16695619702E+04  0.25500000920E-02 0. -1.
    10030    2    1    2    0    0  0.00000000000E+00  0.00000000000E+00  0.49659336654E+03  0.38357173069E+04  0.38034355899E+04 0.  0.
        4    1    3    3  502    0 -0.47356325928E+03  0.68323952900E+03  0.19732085358E+04  0.21411753672E+04  0.12699999809E+01 0.  1.
       -4    1    3    3    0  502  0.47356325928E+03 -0.68323952900E+03 -0.14766151692E+04  0.16945419397E+04  0.12699999809E+01 0. -1.
</event>
<event>
 5   0  0.1648000E-07  0.3724279E+04  0.7818609E-02  0.8062602E-01
        1   -1    0    0  501    0  0.00000000000E+00  0.00000000000E+00  0.11912222442E+04  0.11912222442E+04  0.50400001928E-02 0.  1.
       -1   -1    0    0    0  501  0.00000000000E+00  0.00000000000E+00 -0.29109298367E+04  0.29109298367E+04  0.50400001928E-02 0. -1.
    10030    2    1    2    0    0  0.00000000000E+00  0.00000000000E+00 -0.17197075925E+04  0.41021520809E+04  0.37242794593E+04 0.  0.
        4    1    3    3  502    0  0.94938766963E+03  0.12236625190E+03 -0.26191793109E+04  0.27886219397E+04  0.12699999809E+01 0. -1.
       -4    1    3    3    0  502 -0.94938766963E+03 -0.12236625190E+03  0.89947171840E+03  0.13135301412E+04  0.12699999809E+01 0.  1.
</event>
<event>
 5   0  0.1648000E-07  0.3835022E+04  0.7818609E-02  0.8038681E-01
        1   -1    0    0  501    0  0.00000000000E+00  0.00000000000E+00  0.13376090640E+04  0.13376090640E+04  0.50400001928E-02 0. -1.
       -1   -1    0    0    0  501  0.00000000000E+00  0.00000000000E+00 -0.27488210228E+04  0.27488210228E+04  0.50400001928E-02 0.  1.
    10030    2    1    2    0    0  0.00000000000E+00  0.00000000000E+00 -0.14112119589E+04  0.40864300868E+04  0.38350217290E+04 0.  0.
        4    1    3    3  502    0 -0.61399001199E+03  0.41763891549E+02  0.12295205271E+04  0.13749364702E+04  0.12699999809E+01 0. -1.
       -4    1    3    3    0  502  0.61399001199E+03 -0.41763891549E+02 -0.26407324860E+04  0.27114936166E+04  0.12699999809E+01 0.  1.
</event>
<event>
 5   0  0.5134434E-07  0.3780301E+04  0.7818609E-02  0.8050395E-01
       -2   -1    0    0    0  501  0.00000000000E+00  0.00000000000E+00  0.14369970111E+04  0.14369970111E+04  0.25500000920E-02 0.  1.
        2   -1    0    0  501    0  0.00000000000E+00  0.00000000000E+00 -0.24862051921E+04  0.24862051921E+04  0.25500000920E-02 0. -1.
    10030    2    1    2    0    0  0.00000000000E+00  0.00000000000E+00 -0.10492081810E+04  0.39232022033E+04  0.37803012738E+04 0.  0.
        5    1    3    3  502    0  0.14604784698E+04 -0.11986317972E+04 -0.46841124694E+03  0.19465730740E+04  0.46999998093E+01 0.  1.
       -5    1    3    3    0  502 -0.14604784698E+04  0.11986317972E+04 -0.58079693409E+03  0.19766291293E+04  0.46999998093E+01 0. -1.
</event>
<event>
 5   0  0.1648000E-07  0.3841962E+04  0.7818609E-02  0.8037209E-01
        1   -1    0    0  501    0  0.00000000000E+00  0.00000000000E+00  0.24807827985E+04  0.24807827985E+04  0.50400001928E-02 0.  1.
       -1   -1    0    0    0  501  0.00000000000E+00  0.00000000000E+00 -0.14875014189E+04  0.14875014189E+04  0.50400001928E-02 0. -1.
    10030    2    1    2    0    0  0.00000000000E+00  0.00000000000E+00  0.99328137960E+03  0.39682842174E+04  0.38419619637E+04 0.  0.
        4    1    3    3  502    0  0.17001293554E+04  0.93438399042E+02 -0.42198119303E+03  0.17542064586E+04  0.12699999809E+01 0. -1.
       -4    1    3    3    0  502 -0.17001293554E+04 -0.93438399042E+02  0.14152625726E+04  0.22140777587E+04  0.12699999809E+01 0.  1.
</event>
<event>
 5   0  0.5132561E-07  0.3820383E+04  0.7818609E-02  0.8041795E-01
       -2   -1    0    0    0  501  0.00000000000E+00  0.00000000000E+00  0.15646924674E+04  0.15646924674E+04  0.25500000920E-02 0.  1.
        2   -1    0    0  501    0  0.00000000000E+00  0.00000000000E+00 -0.23319804080E+04  0.23319804080E+04  0.25500000920E-02 0. -1.
    10030    2    1    2    0    0  0.00000000000E+00  0.00000000000E+00 -0.76728794059E+03  0.38966728753E+04  0.38203833202E+04 0.  0.
        3    1    3    3  502    0  0.13543365741E+04  0.18150919916E+03 -0.17450864707E+04  0.22164160137E+04  0.10100000352E+00 0. -1.
       -3    1    3    3    0  502 -0.13543365741E+04 -0.18150919916E+03  0.97779853008E+03  0.16802568616E+04  0.10100000352E+00 0.  1.
</event>
<event>
 5   0  0.5132561E-07  0.3622221E+04  0.7818609E-02  0.8085421E-01
        2   -1    0    0  501    0  0.00000000000E+00  0.00000000000E+00  0.13527780332E+04  0.13527780332E+04  0.25500000920E-02 0. -1.
       -2   -1    0    0    0  501  0.00000000000E+00  0.00000000000E+00 -0.24247292148E+04  0.24247292148E+04  0.25500000920E-02 0.  1.
    10030    2    1    2    0    0  0.00000000000E+00  0.00000000000E+00 -0.10719511816E+04  0.37775072479E+04  0.36222205444E+04 0.  0.
        3    1    3    3  502    0  0.52124148674E+03  0.12935216085E+04 -0.17410348040E+04  0.22307158130E+04  0.10100000352E+00 0.  1.
       -3    1    3    3    0  502 -0.52124148674E+03 -0.12935216085E+04  0.66908362244E+03  0.15467914350E+04  0.10100000352E+00 0. -1.
</event>
<event>
 5   0  0.1648000E-07  0.3666007E+04  0.7818609E-02  0.8075537E-01
       -1   -1    0    0    0  501  0.00000000000E+00  0.00000000000E+00  0.13489670605E+04  0.13489670605E+04  0.50400001928E-02 0.  1.
        1   -1    0    0  501    0  0.00000000000E+00  0.00000000000E+00 -0.24907220582E+04  0.24907220582E+04  0.50400001928E-02 0. -1.
    10030    2    1    2    0    0  0.00000000000E+00  0.00000000000E+00 -0.11417549977E+04  0.38396891186E+04  0.36660070994E+04 0.  0.
        4    1    3    3  502    0  0.10644903438E+04 -0.78002047051E+03  0.76152715017E+03  0.15236459037E+04  0.12699999809E+01 0.  1.
       -4    1    3    3    0  502 -0.10644903438E+04  0.78002047051E+03 -0.19032821479E+04  0.23160432150E+04  0.12699999809E+01 0. -1.
</event>
<event>
 5   0  0.1648000E-07  0.3804904E+04  0.7818609E-02  0.8045103E-01
        1   -1    0    0  501    0  0.00000000000E+00  0.00000000000E+00  0.18153999581E+04  0.18153999581E+04  0.50400001928E-02 0. -1.
       -1   -1    0    0    0  501  0.00000000000E+00  0.00000000000E+00 -0.19936779418E+04  0.19936779418E+04  0.50400001928E-02 0.  1.
    10030    2    1    2    0    0  0.00000000000E+00  0.00000000000E+00 -0.17827798375E+03  0.38090778999E+04  0.38049036004E+04 0.  0.
        3    1    3    3  502    0 -0.13477299066E+04 -0.15205503087E+02 -0.14332644938E+04  0.19674486595E+04  0.10100000352E+00 0.  1.
       -3    1    3    3    0  502  0.13477299066E+04  0.15205503087E+02  0.12549865101E+04  0.18416292404E+04  0.10100000352E+00 0. -1.
</event>
<event>
 5   0  0.1648000E-07  0.3514345E+04  0.7818609E-02  0.8110399E-01
        1   -1    0    0  501    0  0.00000000000E+00  0.00000000000E+00  0.22448444987E+04  0.22448444987E+04  0.50400001928E-02 0.  1.
       -1   -1    0    0    0  501  0.00000000000E+00  0.00000000000E+00 -0.13754429382E+04  0.13754429383E+04  0.50400001928E-02 0. -1.
    10030    2    1    2    0    0  0.00000000000E+00  0.00000000000E+00  0.86940156041E+03  0.36202874369E+04  0.35143451812E+04 0.  0.
        4    1    3    3  502    0  0.68416083001E+03  0.52105059638E+03 -0.11438387584E+04  0.14310620124E+04  0.12699999809E+01 0. -1.
       -4    1    3    3    0  502 -0.68416083001E+03 -0.52105059638E+03  0.20132403188E+04  0.21892254245E+04  0.12699999809E+01 0.  1.
</event>
<event>
 5   0  0.5134434E-07  0.3809888E+04  0.7818609E-02  0.8044036E-01
       -2   -1    0    0    0  501  0.00000000000E+00  0.00000000000E+00  0.17003772927E+04  0.17003772927E+04  0.25500000920E-02 0. -1.
        2   -1    0    0  501    0  0.00000000000E+00  0.00000000000E+00 -0.21341210285E+04  0.21341210285E+04  0.25500000920E-02 0.  1.
    10030    2    1    2    0    0  0.00000000000E+00  0.00000000000E+00 -0.43374373584E+03  0.38344983212E+04  0.38098876292E+04 0.  0.
        5    1    3    3  502    0  0.51852179313E+03  0.25505496568E+03  0.16100315604E+04  0.17105968552E+04  0.46999998093E+01 0. -1.
       -5    1    3    3    0  502 -0.51852179313E+03 -0.25505496568E+03 -0.20437752963E+04  0.21239014660E+04  0.46999998093E+01 0.  1.
</event>
<event>
 5   0  0.1648000E-07  0.3776753E+04  0.7818609E-02  0.8051162E-01
       -1   -1    0    0    0  501  0.00000000000E+00  0.00000000000E+00  0.19808131125E+04  0.19808131126E+04  0.50400001928E-02 0. -1.
        1   -1    0    0  501    0  0.00000000000E+00  0.00000000000E+00 -0.18002537701E+04  0.18002537701E+04  0.50400001928E-02 0.  1.
    10030    2    1    2    0    0  0.00000000000E+00  0.00000000000E+00  0.18055934245E+03  0.37810668827E+04  0.37767532478E+04 0.  0.
        4    1    3    3  502    0  0.18920103697E+03 -0.50405680164E+03 -0.17217860707E+04  0.18040008808E+04  0.12699999809E+01 0.  1.
       -4    1    3    3    0  502 -0.18920103697E+03  0.50405680164E+03  0.19023454132E+04  0.19770660018E+04  0.12699999809E+01 0. -1.
</event>
<event>
 5   0  0.1648000E-07  0.3834255E+04  0.7818609E-02  0.8038843E-01
        1   -1    0    0  501    0  0.00000000000E+00  0.00000000000E+00  0.21485572235E+04  0.21485572235E+04  0.50400001928E-02 0.  1.
       -1   -1    0    0    0  501  0.00000000000E+00  0.00000000000E+00 -0.17106263833E+04  0.17106263833E+04  0.50400001928E-02 0. -1.
    10030    2    1    2    0    0  0.00000000000E+00  0.00000000000E+00  0.43793084016E+03  0.38591836068E+04  0.38342554284E+04 0.  0.
        2    1    3    3  502    0  0.15392325052E+04 -0.81475630593E+03 -0.58769015174E+03  0.18380544763E+04  0.25500000920E-02 0. -1.
       -2    1    3    3    0  502 -0.15392325052E+04  0.81475630593E+03  0.10256209919E+04  0.20211291305E+04  0.25500000920E-02 0.  1.
</event>
<event>
 5   0  0.1656617E-07  0.3846891E+04  0.7818609E-02  0.8036166E-01
        1   -1    0    0  501    0  0.00000000000E+00  0.00000000000E+00  0.15763288877E+04  0.15763288877E+04  0.50400001928E-02 0.  1.
       -1   -1    0    0    0  501  0.00000000000E+00  0.00000000000E+00 -0.23469990129E+04  0.23469990129E+04  0.50400001928E-02 0. -1.
    10030    2    1    2    0    0  0.00000000000E+00  0.00000000000E+00 -0.77067012522E+03  0.39233279007E+04  0.38468908711E+04 0.  0.
        5    1    3    3  502    0 -0.16077045262E+04 -0.69023725289E+03 -0.12002607929E+04  0.21217420602E+04  0.46999998093E+01 0. -1.
       -5    1    3    3    0  502  0.16077045262E+04  0.69023725289E+03  0.42959066770E+03  0.18015858405E+04  0.46999998093E+01 0.  1.
</event>
<event>
 5   0  0.5158266E-07  0.3810497E+04  0.7818609E-02  0.8043906E-01
       -2   -1    0    0    0  501  0.00000000000E+00  0.00000000000E+00  0.13483348509E+04  0.13483348509E+04  0.25500000920E-02 0.  1.
        2   -1    0    0  501    0  0.00000000000E+00  0.00000000000E+00 -0.26921889620E+04  0.26921889620E+04  0.25500000920E-02 0. -1.
    10030    2    1    2    0    0  0.00000000000E+00  0.00000000000E+00 -0.13438541111E+04  0.40405238129E+04  0.38104971869E+04 0.  0.
        2    1    3    3  502    0 -0.11957663360E+04 -0.12382466007E+04 -0.15378385383E+04  0.23082588989E+04  0.25500000920E-02 0. -1.
       -2    1    3    3    0  502  0.11957663360E+04  0.12382466007E+04  0.19398442719E+03  0.17322649141E+04  0.25500000920E-02 0.  1.
</event>
<event>
 5   0  0.5325362E-07  0.3777856E+04  0.7818609E-02  0.8050924E-01
        2   -1    0    0  501    0  0.00000000000E+00  0.00000000000E+00  0.22650603836E+04  0.22650603836E+04  0.25500000920E-02 0.  1.
       -2   -1    0    0    0  501  0.00000000000E+00  0.00000000000E+00 -0.15752555066E+04  0.15752555066E+04  0.25500000920E-02 0. -1.
    10030    2    1    2    0    0  0.00000000000E+00  0.00000000000E+00  0.68980487692E+03  0.38403158902E+04  0.37778559221E+04 0.  0.
        4    1    3    3  502    0  0.16307780326E+04 -0.88800950993E+03  0.69711225894E+03  0.19834225459E+04  0.12699999809E+01 0.  1.
       -4    1    3    3    0  502 -0.16307780326E+04  0.88800950993E+03 -0.73073820200E+01  0.18568933443E+04  0.12699999809E+01 0. -1.
</event>
<event>
 5   0  0.5132561E-07  0.3806337E+04  0.7818609E-02  0.8044796E-01
       -2   -1    0    0    0  501  0.00000000000E+00  0.00000000000E+00  0.17357931145E+04  0.17357931145E+04  0.25500000920E-02 0. -1.
        2   -1    0    0  501    0  0.00000000000E+00  0.00000000000E+00 -0.20866837001E+04  0.20866837001E+04  0.25500000920E-02 0.  1.
    10030    2    1    2    0    0  0.00000000000E+00  0.00000000000E+00 -0.35089058552E+03  0.38224768146E+04  0.38063374516E+04 0.  0.
        3    1    3    3  502    0 -0.97977393102E+02 -0.21523549739E+02  0.17331363508E+04  0.17360369966E+04  0.10100000352E+00 0. -1.
       -3    1    3    3    0  502  0.97977393102E+02  0.21523549739E+02 -0.20840269363E+04  0.20864398180E+04  0.10100000352E+00 0.  1.
</event>
<event>
 5   0  0.1648000E-07  0.3787953E+04  0.7818609E-02  0.8048745E-01
       -1   -1    0    0    0  501  0.00000000000E+00  0.00000000000E+00  0.29986632560E+04  0.29986632560E+04  0.50400001928E-02 0. -1.
        1   -1    0    0  501    0  0.00000000000E+00  0.00000000000E+00 -0.11962485748E+04  0.11962485748E+04  0.50400001928E-02 0.  1.
    10030    2    1    2    0    0  0.00000000000E+00  0.00000000000E+00  0.18024146812E+04  0.41949118307E+04  0.37879528224E+04 0.  0.
        1    1    3    3  502    0  0.15720527902E+04  0.30386434898E+03  0.20215590380E+04  0.25788339345E+04  0.50400001928E-02 0. -1.
       -1    1    3    3    0  502 -0.15720527902E+04 -0.30386434898E+03 -0.21914435678E+03  0.16160778963E+04  0.50400001928E-02 0.  1.
</event>
<event>
 5   0  0.1648000E-07  0.3916284E+04  0.7818609E-02  0.8021651E-01
       -1   -1    0    0    0  501  0.00000000000E+00  0.00000000000E+00  0.13776839101E+04  0.13776839101E+04  0.50400001928E-02 0.  1.
        1   -1    0    0  501    0  0.00000000000E+00  0.00000000000E+00 -0.27831632910E+04  0.27831632910E+04  0.50400001928E-02 0. -1.
    10030    2    1    2    0    0  0.00000000000E+00  0.00000000000E+00 -0.14054793809E+04  0.41608472011E+04  0.39162835878E+04 0.  0.
        3    1    3    3  502    0  0.34804394294E+03  0.17153057314E+04  0.23010584684E+03  0.17653206648E+04  0.10100000352E+00 0.  1.
       -3    1    3    3    0  502 -0.34804394294E+03 -0.17153057314E+04 -0.16355852278E+04  0.23955265363E+04  0.10100000352E+00 0. -1.
</event>
<event>
 5   0  0.1656617E-07  0.3135520E+04  0.7818609E-02  0.8206057E-01
        1   -1    0    0  501    0  0.00000000000E+00  0.00000000000E+00  0.16006639427E+04  0.16006639427E+04  0.50400001928E-02 0.  1.
       -1   -1    0    0    0  501  0.00000000000E+00  0.00000000000E+00 -0.15355325166E+04  0.15355325166E+04  0.50400001928E-02 0. -1.
    10030    2    1    2    0    0  0.00000000000E+00  0.00000000000E+00  0.65131426067E+02  0.31361964593E+04  0.31355200731E+04 0.  0.
        5    1    3    3  502    0 -0.64643929753E+03  0.10767837798E+04  0.97111900863E+03  0.15875897747E+04  0.46999998093E+01 0.  1.
       -5    1    3    3    0  502  0.64643929753E+03 -0.10767837798E+04 -0.90598758256E+03  0.15486066846E+04  0.46999998093E+01 0. -1.
</event>
<event>
 5   0  0.1656617E-07  0.3808632E+04  0.7818609E-02  0.8044305E-01
       -1   -1    0    0    0  501  0.00000000000E+00  0.00000000000E+00  0.27549093746E+04  0.27549093746E+04  0.50400001928E-02 0. -1.
        1   -1    0    0  501    0  0.00000000000E+00  0.00000000000E+00 -0.13163483012E+04  0.13163483012E+04  0.50400001928E-02 0.  1.
    10030    2    1    2    0    0  0.00000000000E+00  0.00000000000E+00  0.14385610734E+04  0.40712576757E+04  0.38086324449E+04 0.  0.
        5    1    3    3  502    0  0.46185328068E+03 -0.11833196882E+04  0.22358580526E+04  0.25715048627E+04  0.46999998093E+01 0. -1.
       -5    1    3    3    0  502 -0.46185328068E+03  0.11833196882E+04 -0.79729697913E+03  0.14997528131E+04  0.46999998093E+01 0.  1.
</event>
<event>
 5   0  0.5158266E-07  0.3662043E+04  0.7818609E-02  0.8076426E-01
       -2   -1    0    0    0  501  0.00000000000E+00  0.00000000000E+00  0.19130994937E+04  0.19130994937E+04  0.25500000920E-02 0.  1.
        2   -1    0    0  501    0  0.00000000000E+00  0.00000000000E+00 -0.17524646593E+04  0.17524646593E+04  0.25500000920E-02 0. -1.
    10030    2    1    2    0    0  0.00000000000E+00  0.00000000000E+00  0.16063483443E+03  0.36655641531E+04  0.36620427374E+04 0.  0.
        2    1    3    3  502    0  0.11035255895E+04 -0.13921667720E+04  0.52430025549E+03  0.18522385931E+04  0.25500000920E-02 0.  1.
       -2    1    3    3    0  502 -0.11035255895E+04  0.13921667720E+04 -0.36366542106E+03  0.18133255600E+04  0.25500000920E-02 0. -1.
</event>
<event>
 5   0  0.5158266E-07  0.3506459E+04  0.7818609E-02  0.8112261E-01
       -2   -1    0    0    0  501  0.00000000000E+00  0.00000000000E+00  0.10117131060E+04  0.10117131060E+04  0.25500000920E-02 0. -1.
        2   -1    0    0  501    0  0.00000000000E+00  0.00000000000E+00 -0.30382261506E+04  0.30382261506E+04  0.25500000920E-02 0.  1.
    10030    2    1    2    0    0  0.00000000000E+00  0.00000000000E+00 -0.20265130446E+04  0.40499392566E+04  0.35064587353E+04 0.  0.
        2    1    3    3  502    0 -0.11500133799E+04  0.36913175472E+03  0.45455162092E+03  0.12905061807E+04  0.25500000920E-02 0. -1.
       -2    1    3    3    0  502  0.11500133799E+04 -0.36913175472E+03 -0.24810646655E+04  0.27594330759E+04  0.25500000920E-02 0.  1.
</event>
<event>
 5   0  0.1648000E-07  0.3846623E+04  0.7818609E-02  0.8036223E-01
       -1   -1    0    0    0  501  0.00000000000E+00  0.00000000000E+00  0.21347383409E+04  0.21347383409E+04  0.50400001928E-02 0. -1.
        1   -1    0    0  501    0  0.00000000000E+00  0.00000000000E+00 -0.17328243379E+04  0.17328243379E+04  0.50400001928E-02 0.  1.
    10030    2    1    2    0    0  0.00000000000E+00  0.00000000000E+00  0.40191400294E+03  0.38675626788E+04  0.38466227017E+04 0.  0.
        3    1    3    3  502    0 -0.36793884644E+03 -0.18774101892E+04  0.39971603342E+03  0.19544362182E+04  0.10100000352E+00 0.  1.
       -3    1    3    3    0  502  0.36793884644E+03  0.18774101892E+04  0.21979695247E+01  0.19131264607E+04  0.10100000352E+00 0. -1.
</event>
<event>
 5   0  0.1648000E-07  0.2726747E+04  0.7818609E-02  0.8326378E-01
       -1   -1    0    0    0  501  0.00000000000E+00  0.00000000000E+00  0.13583218953E+04  0.13583218953E+04  0.50400001928E-02 0. -1.
        1   -1    0    0  501    0  0.00000000000E+00  0.00000000000E+00 -0.13684436787E+04  0.13684436787E+04  0.50400001928E-02 0.  1.
    10030    2    1    2    0    0  0.00000000000E+00  0.00000000000E+00 -0.10121783454E+02  0.27267655740E+04  0.27267467879E+04 0.  0.
        1    1    3    3  502    0 -0.10378426218E+04  0.83623415061E+03  0.28196399239E+03  0.13623173475E+04  0.50400001928E-02 0. -1.
       -1    1    3    3    0  502  0.10378426218E+04 -0.83623415061E+03 -0.29208577585E+03  0.13644482265E+04  0.50400001928E-02 0.  1.
</event>
<event>
 5   0  0.5202788E-07  0.3776783E+04  0.7818609E-02  0.8051156E-01
       -2   -1    0    0    0  501  0.00000000000E+00  0.00000000000E+00  0.13094173587E+04  0.13094173587E+04  0.25500000920E-02 0.  1.
        2   -1    0    0  501    0  0.00000000000E+00  0.00000000000E+00 -0.27233660064E+04  0.27233660064E+04  0.25500000920E-02 0. -1.
    10030    2    1    2    0    0  0.00000000000E+00  0.00000000000E+00 -0.14139486477E+04  0.40327833651E+04  0.37767831407E+04 0.  0.
        1    1    3    3  502    0  0.10791413260E+03 -0.89038973015E+03 -0.24814168014E+04  0.26385353274E+04  0.50400001928E-02 0. -1.
       -1    1    3    3    0  502 -0.10791413260E+03  0.89038973015E+03  0.10674681537E+04  0.13942480378E+04  0.50400001928E-02 0.  1.
</event>
<event>
 5   0  0.5134434E-07  0.3833196E+04  0.7818609E-02  0.8039068E-01
        2   -1    0    0  501    0  0.00000000000E+00  0.00000000000E+00  0.20614235859E+04  0.20614235859E+04  0.25500000920E-02 0. -1.
       -2   -1    0    0    0  501  0.00000000000E+00  0.00000000000E+00 -0.17819475361E+04  0.17819475361E+04  0.25500000920E-02 0.  1.
    10030    2    1    2    0    0  0.00000000000E+00  0.00000000000E+00  0.27947604986E+03  0.38433711220E+04  0.38331964102E+04 0.  0.
        5    1    3    3  502    0  0.26893575200E+03 -0.14697636133E+03  0.20366896309E+04  0.20596250222E+04  0.46999998093E+01 0. -1.
       -5    1    3    3    0  502 -0.26893575200E+03  0.14697636133E+03 -0.17572135810E+04  0.17837460998E+04  0.46999998093E+01 0.  1.
</event>
<event>
 5   0  0.1648000E-07  0.3756345E+04  0.7818609E-02  0.8055589E-01
       -1   -1    0    0    0  501  0.00000000000E+00  0.00000000000E+00  0.14309969653E+04  0.14309969653E+04  0.50400001928E-02 0. -1.
        1   -1    0    0  501    0  0.00000000000E+00  0.00000000000E+00 -0.24650865507E+04  0.24650865507E+04  0.50400001928E-02 0.  1.
    10030    2    1    2    0    0  0.00000000000E+00  0.00000000000E+00 -0.10340895853E+04  0.38960835160E+04  0.37563446984E+04 0.  0.
        2    1    3    3  502    0  0.17102075450E+04 -0.66198862046E+03 -0.96380167526E+02  0.18363899143E+04  0.25500000920E-02 0.  1.
       -2    1    3    3    0  502 -0.17102075450E+04  0.66198862046E+03 -0.93770941782E+03  0.20596936017E+04  0.25500000920E-02 0. -1.
</event>
<event>
 5   0  0.1648000E-07  0.2920456E+04  0.7818609E-02  0.8266817E-01
       -1   -1    0    0    0  501  0.00000000000E+00  0.00000000000E+00  0.71455968104E+03  0.71455968106E+03  0.50400001928E-02 0.  1.
        1   -1    0    0  501    0  0.00000000000E+00  0.00000000000E+00 -0.29840284320E+04  0.29840284320E+04  0.50400001928E-02 0. -1.
    10030    2    1    2    0    0  0.00000000000E+00  0.00000000000E+00 -0.22694687510E+04  0.36985881131E+04  0.29204564059E+04 0.  0.
        2    1    3    3  502    0  0.11436087300E+04  0.38222751431E+03 -0.91684712107E+02  0.12092745290E+04  0.25500000920E-02 0.  1.
       -2    1    3    3    0  502 -0.11436087300E+04 -0.38222751431E+03 -0.21777840388E+04  0.24893135841E+04  0.25500000920E-02 0. -1.
</event>
<event>
 5   0  0.1648000E-07  0.3803217E+04  0.7818609E-02  0.8045465E-01
        1   -1    0    0  501    0  0.00000000000E+00  0.00000000000E+00  0.16437266170E+04  0.16437266170E+04  0.50400001928E-02 0. -1.
       -1   -1    0    0    0  501  0.00000000000E+00  0.00000000000E+00 -0.21999490337E+04  0.21999490337E+04  0.50400001928E-02 0.  1.
    10030    2    1    2    0    0  0.00000000000E+00  0.00000000000E+00 -0.55622241669E+03  0.38436756507E+04  0.38032169450E+04 0.  0.
        3    1    3    3  502    0 -0.11244802436E+04  0.66681831152E+03 -0.16737479029E+04  0.21238019049E+04  0.10100000352E+00 0.  1.
       -3    1    3    3    0  502  0.11244802436E+04 -0.66681831152E+03  0.11175254862E+04  0.17198737457E+04  0.10100000352E+00 0. -1.
</event>
<event>
 5   0  0.5132561E-07  0.2849533E+04  0.7818609E-02  0.8288053E-01
       -2   -1    0    0    0  501  0.00000000000E+00  0.00000000000E+00  0.95316132477E+03  0.95316132477E+03  0.25500000920E-02 0. -1.
        2   -1    0    0  501    0  0.00000000000E+00  0.00000000000E+00 -0.21297130276E+04  0.21297130276E+04  0.25500000920E-02 0.  1.
    10030    2    1    2    0    0  0.00000000000E+00  0.00000000000E+00 -0.11765517028E+04  0.30828743524E+04  0.28495333588E+04 0.  0.
        3    1    3    3  502    0 -0.11835772987E+04 -0.34624322952E+03 -0.13603073364E+04  0.18360761574E+04  0.10100000352E+00 0.  1.
       -3    1    3    3    0  502  0.11835772987E+04  0.34624322952E+03  0.18375563357E+03  0.12467981950E+04  0.10100000352E+00 0. -1.
</event>
<event>
 5   0  0.1656617E-07  0.3824827E+04  0.7818609E-02  0.8040848E-01
        1   -1    0    0  501    0  0.00000000000E+00  0.00000000000E+00  0.18800472649E+04  0.18800472649E+04  0.50400001928E-02 0. -1.
       -1   -1    0    0    0  501  0.00000000000E+00  0.00000000000E+00 -0.19453364660E+04  0.19453364660E+04  0.50400001928E-02 0.  1.
    10030    2    1    2    0    0  0.00000000000E+00  0.00000000000E+00 -0.65289201125E+02  0.38253837308E+04  0.38248265331E+04 0.  0.
        5    1    3    3  502    0 -0.34195873549E+03 -0.20074029762E+03  0.18384753361E+04  0.18807567879E+04  0.46999998093E+01 0. -1.
       -5    1    3    3    0  502  0.34195873549E+03  0.20074029762E+03 -0.19037645372E+04  0.19446269429E+04  0.46999998093E+01 0.  1.
</event>
<event>
 5   0  0.1648000E-07  0.3733749E+04  0.7818609E-02  0.8060524E-01
        1   -1    0    0  501    0  0.00000000000E+00  0.00000000000E+00  0.12803494561E+04  0.12803494561E+04  0.50400001928E-02 0.  1.
       -1   -1    0    0    0  501  0.00000000000E+00  0.00000000000E+00 -0.27220851582E+04  0.27220851582E+04  0.50400001928E-02 0. -1.
    10030    2    1    2    0    0  0.00000000000E+00  0.00000000000E+00 -0.14417357021E+04  0.40024346143E+04  0.37337489212E+04 0.  0.
        4    1    3    3  502    0 -0.24891559595E+03  0.13761183576E+04  0.60488356830E+03  0.15236621844E+04  0.12699999809E+01 0.  1.
       -4    1    3    3    0  502  0.24891559595E+03 -0.13761183576E+04 -0.20466192704E+04  0.24787724299E+04  0.12699999809E+01 0. -1.
</event>
<event>
 5   0  0.5132561E-07  0.3857182E+04  0.7818609E-02  0.8033994E-01
        2   -1    0    0  501    0  0.00000000000E+00  0.00000000000E+00  0.18813366287E+04  0.18813366287E+04  0.25500000920E-02 0.  1.
       -2   -1    0    0    0  501  0.00000000000E+00  0.00000000000E+00 -0.19770319612E+04  0.19770319612E+04  0.25500000920E-02 0. -1.
    10030    2    1    2    0    0  0.00000000000E+00  0.00000000000E+00 -0.95695332493E+02  0.38583685899E+04  0.38571816886E+04 0.  0.
        3    1    3    3  502    0 -0.35642050871E+03 -0.17720165442E+04  0.62495458827E+03  0.19124974404E+04  0.10100000352E+00 0.  1.
       -3    1    3    3    0  502  0.35642050871E+03  0.17720165442E+04 -0.72064992076E+03  0.19458711495E+04  0.10100000352E+00 0. -1.
</event>
<event>
 5   0  0.5134434E-07  0.3826791E+04  0.7818609E-02  0.8040430E-01
       -2   -1    0    0    0  501  0.00000000000E+00  0.00000000000E+00  0.12699438515E+04  0.12699438515E+04  0.25500000920E-02 0. -1.
        2   -1    0    0  501    0  0.00000000000E+00  0.00000000000E+00 -0.28828694286E+04  0.28828694286E+04  0.25500000920E-02 0.  1.
    10030    2    1    2    0    0  0.00000000000E+00  0.00000000000E+00 -0.16129255771E+04  0.41528132801E+04  0.38267909823E+04 0.  0.
        5    1    3    3  502    0 -0.91972710923E+03  0.14312790737E+04 -0.17566140972E+04  0.24454392077E+04  0.46999998093E+01 0.  1.
       -5    1    3    3    0  502  0.91972710923E+03 -0.14312790737E+04  0.14368852002E+03  0.17073740724E+04  0.46999998093E+01 0. -1.
</event>
<event>
 5   0  0.5134434E-07  0.3933742E+04  0.7818609E-02  0.8018048E-01
       -2   -1    0    0    0  501  0.00000000000E+00  0.00000000000E+00  0.15908008062E+04  0.15908008062E+04  0.25500000920E-02 0. -1.
        2   -1    0    0  501    0  0.00000000000E+00  0.00000000000E+00 -0.24318453961E+04  0.24318453961E+04  0.25500000920E-02 0.  1.
    10030    2    1    2    0    0  0.00000000000E+00  0.00000000000E+00 -0.84104458989E+03  0.40226462024E+04  0.39337420438E+04 0.  0.
        5    1    3    3  502    0  0.11130755355E+03 -0.24741203528E+03  0.15715698121E+04  0.15948215734E+04  0.46999998093E+01 0. -1.
       -5    1    3    3    0  502 -0.11130755355E+03  0.24741203528E+03 -0.24126144020E+04  0.24278246290E+04  0.46999998093E+01 0.  1.
</event>
<event>
 5   0  0.5134434E-07  0.3664777E+04  0.7818609E-02  0.8075813E-01
       -2   -1    0    0    0  501  0.00000000000E+00  0.00000000000E+00  0.14618456323E+04  0.14618456323E+04  0.25500000920E-02 0.  1.
        2   -1    0    0  501    0  0.00000000000E+00  0.00000000000E+00 -0.22968548786E+04  0.22968548786E+04  0.25500000920E-02 0. -1.
    10030    2    1    2    0    0  0.00000000000E+00  0.00000000000E+00 -0.83500924635E+03  0.37587005109E+04  0.36647768130E+04 0.  0.
        5    1    3    3  502    0  0.49265126413E+03 -0.12725561976E+02  0.13925944465E+04  0.14772300398E+04  0.46999998093E+01 0.  1.
       -5    1    3    3    0  502 -0.49265126413E+03  0.12725561976E+02 -0.22276036929E+04  0.22814704711E+04  0.46999998093E+01 0. -1.
</event>
<event>
 5   0  0.5158266E-07  0.3773826E+04  0.7818609E-02  0.8051795E-01
        2   -1    0    0  501    0  0.00000000000E+00  0.00000000000E+00  0.20877185708E+04  0.20877185708E+04  0.25500000920E-02 0.  1.
       -2   -1    0    0    0  501  0.00000000000E+00  0.00000000000E+00 -0.17054218823E+04  0.17054218823E+04  0.25500000920E-02 0. -1.
    10030    2    1    2    0    0  0.00000000000E+00  0.00000000000E+00  0.38229668849E+03  0.37931404531E+04  0.37738261405E+04 0.  0.
        2    1    3    3  502    0  0.34621569628E+03 -0.60208922790E+03  0.19545687896E+04  0.20742988936E+04  0.25500000920E-02 0.  1.
       -2    1    3    3    0  502 -0.34621569628E+03  0.60208922790E+03 -0.15722721011E+04  0.17188415595E+04  0.25500000920E-02 0. -1.
</event>
<event>
 5   0  0.5325362E-07  0.3845345E+04  0.7818609E-02  0.8036493E-01
       -2   -1    0    0    0  501  0.00000000000E+00  0.00000000000E+00  0.16398344885E+04  0.16398344885E+04  0.25500000920E-02 0. -1.
        2   -1    0    0  501    0  0.00000000000E+00  0.00000000000E+00 -0.22542939135E+04  0.22542939135E+04  0.25500000920E-02 0.  1.
    10030    2    1    2    0    0  0.00000000000E+00  0.00000000000E+00 -0.61445942507E+03  0.38941284020E+04  0.38453446694E+04 0.  0.
        4    1    3    3  502    0 -0.16191103159E+04 -0.47988095741E+03  0.62359569426E+03  0.18001880877E+04  0.12699999809E+01 0. -1.
       -4    1    3    3    0  502  0.16191103159E+04  0.47988095741E+03 -0.12380551193E+04  0.20939403143E+04  0.12699999809E+01 0.  1.
</event>
<event>
 5   0  0.5132561E-07  0.3835749E+04  0.7818609E-02  0.8038526E-01
        2   -1    0    0  501    0  0.00000000000E+00  0.00000000000E+00  0.28461865961E+04  0.28461865961E+04  0.25500000920E-02 0. -1.
       -2   -1    0    0    0  501  0.00000000000E+00  0.00000000000E+00 -0.12923406331E+04  0.12923406331E+04  0.25500000920E-02 0.  1.
    10030    2    1    2    0    0  0.00000000000E+00  0.00000000000E+00  0.15538459629E+04  0.41385272292E+04  0.38357489947E+04 0.  0.
        3    1    3    3  502    0  0.17234122028E+04  0.65254604280E+03  0.13501584976E+04  0.22844898637E+04  0.10100000352E+00 0. -1.
       -3    1    3    3    0  502 -0.17234122028E+04 -0.65254604280E+03  0.20368746536E+03  0.18540373654E+04  0.10100000352E+00 0.  1.
</event>
<event>
 5   0  0.5134434E-07  0.3636131E+04  0.7818609E-02  0.8082265E-01
       -2   -1    0    0    0  501  0.00000000000E+00  0.00000000000E+00  0.19585029743E+04  0.19585029743E+04  0.25500000920E-02 0. -1.
        2   -1    0    0  501    0  0.00000000000E+00  0.00000000000E+00 -0.16876982541E+04  0.16876982541E+04  0.25500000920E-02 0.  1.
    10030    2    1    2    0    0  0.00000000000E+00  0.00000000000E+00  0.27080472025E+03  0.36462012284E+04  0.36361309384E+04 0.  0.
        5    1    3    3  502    0 -0.33943943475E+02  0.11963465001E+04 -0.12369428745E+04  0.17211760236E+04  0.46999998093E+01 0.  1.
       -5    1    3    3    0  502  0.33943943475E+02 -0.11963465001E+04  0.15077475947E+04  0.19250252048E+04  0.46999998093E+01 0. -1.
</event>
<event>
 5   0  0.5202788E-07  0.3767381E+04  0.7818609E-02  0.8053191E-01
       -2   -1    0    0    0  501  0.00000000000E+00  0.00000000000E+00  0.15564461873E+04  0.15564461873E+04  0.25500000920E-02 0.  1.
        2   -1    0    0  501    0  0.00000000000E+00  0.00000000000E+00 -0.22797380322E+04  0.22797380322E+04  0.25500000920E-02 0. -1.
    10030    2    1    2    0    0  0.00000000000E+00  0.00000000000E+00 -0.72329184485E+03  0.38361842195E+04  0.37673808240E+04 0.  0.
        1    1    3    3  502    0  0.16246935953E+04  0.74713552664E+03  0.24115265233E+03  0.18044376896E+04  0.50400001928E-02 0.  1.
       -1    1    3    3    0  502 -0.16246935953E+04 -0.74713552664E+03 -0.96444449718E+03  0.20317465299E+04  0.50400001928E-02 0. -1.
</event>
<event>
 5   0  0.5202788E-07  0.3889020E+04  0.7818609E-02  0.8027317E-01
       -2   -1    0    0    0  501  0.00000000000E+00  0.00000000000E+00  0.16451381776E+04  0.16451381776E+04  0.25500000920E-02 0.  1.
        2   -1    0    0  501    0  0.00000000000E+00  0.00000000000E+00 -0.22983599225E+04  0.22983599225E+04  0.25500000920E-02 0. -1.
    10030    2    1    2    0    0  0.00000000000E+00  0.00000000000E+00 -0.65322174491E+03  0.39434981000E+04  0.38890202644E+04 0.  0.
        1    1    3    3  502    0  0.11671903517E+02 -0.16089089620E+04 -0.14338758686E+04  0.21551622417E+04  0.50400001928E-02 0. -1.
       -1    1    3    3    0  502 -0.11671903517E+02  0.16089089620E+04  0.78065412371E+03  0.17883358583E+04  0.50400001928E-02 0.  1.
</event>
<event>
 5   0  0.1648000E-07  0.3835377E+04  0.7818609E-02  0.8038605E-01
        1   -1    0    0  501    0  0.00000000000E+00  0.00000000000E+00  0.21039609267E+04  0.21039609267E+04  0.50400001928E-02 0.  1.
       -1   -1    0    0    0  501  0.00000000000E+00  0.00000000000E+00 -0.17479077347E+04  0.17479077347E+04  0.50400001928E-02 0. -1.
    10030    2    1    2    0    0  0.00000000000E+00  0.00000000000E+00  0.35605319199E+03  0.38518686613E+04  0.38353772055E+04 0.  0.
        2    1    3    3  502    0  0.14317793852E+04  0.47619487332E+03  0.13666593801E+04  0.20358073648E+04  0.25500000920E-02 0.  1.
       -2    1    3    3    0  502 -0.14317793852E+04 -0.47619487332E+03 -0.10106061881E+04  0.18160612965E+04  0.25500000920E-02 0. -1.
</event>
<event>
 5   0  0.5132561E-07  0.3759010E+04  0.7818609E-02  0.8055009E-01
       -2   -1    0    0    0  501  0.00000000000E+00  0.00000000000E+00  0.18069499037E+04  0.18069499037E+04  0.25500000920E-02 0.  1.
        2   -1    0    0  501    0  0.00000000000E+00  0.00000000000E+00 -0.19549730328E+04  0.19549730328E+04  0.25500000920E-02 0. -1.
    10030    2    1    2    0    0  0.00000000000E+00  0.00000000000E+00 -0.14802312905E+03  0.37619229365E+04  0.37590096213E+04 0.  0.
        3    1    3    3  502    0  0.88690637992E+03 -0.16411862587E+04 -0.30319354736E+03  0.18899792591E+04  0.10100000352E+00 0.  1.
       -3    1    3    3    0  502 -0.88690637992E+03  0.16411862587E+04  0.15517041831E+03  0.18719436774E+04  0.10100000352E+00 0. -1.
</event>
<event>
 5   0  0.1648000E-07  0.3800189E+04  0.7818609E-02  0.8046114E-01
       -1   -1    0    0    0  501  0.00000000000E+00  0.00000000000E+00  0.15194182001E+04  0.15194182001E+04  0.50400001928E-02 0. -1.
        1   -1    0    0  501    0  0.00000000000E+00  0.00000000000E+00 -0.23761452987E+04  0.23761452987E+04  0.50400001928E-02 0.  1.
    10030    2    1    2    0    0  0.00000000000E+00  0.00000000000E+00 -0.85672709855E+03  0.38955634988E+04  0.38001886337E+04 0.  0.
        4    1    3    3  502    0 -0.17116179656E+04 -0.35971061887E+03 -0.11895140822E+04  0.21151768612E+04  0.12699999809E+01 0.  1.
       -4    1    3    3    0  502  0.17116179656E+04  0.35971061887E+03  0.33278698368E+03  0.17803866375E+04  0.12699999809E+01 0. -1.
</event>
<event>
 5   0  0.1648000E-07  0.3631513E+04  0.7818609E-02  0.8083311E-01
       -1   -1    0    0    0  501  0.00000000000E+00  0.00000000000E+00  0.97872139864E+03  0.97872139865E+03  0.50400001928E-02 0.  1.
        1   -1    0    0  501    0  0.00000000000E+00  0.00000000000E+00 -0.33686527641E+04  0.33686527641E+04  0.50400001928E-02 0. -1.
    10030    2    1    2    0    0  0.00000000000E+00  0.00000000000E+00 -0.23899313655E+04  0.43473741628E+04  0.36315134833E+04 0.  0.
        1    1    3    3  502    0 -0.69887222054E+02  0.77349376512E+03 -0.31597807866E+04  0.32538272001E+04  0.50400001928E-02 0. -1.
       -1    1    3    3    0  502  0.69887222054E+02 -0.77349376512E+03  0.76984942110E+03  0.10935469627E+04  0.50400001928E-02 0.  1.
</event>
<event>
 5   0  0.1656617E-07  0.3807879E+04  0.7818609E-02  0.8044466E-01
        1   -1    0    0  501    0  0.00000000000E+00  0.00000000000E+00  0.25042420728E+04  0.25042420728E+04  0.50400001928E-02 0. -1.
       -1   -1    0    0    0  501  0.00000000000E+00  0.00000000000E+00 -0.14475381273E+04  0.14475381273E+04  0.50400001928E-02 0.  1.
    10030    2    1    2    0    0  0.00000000000E+00  0.00000000000E+00  0.10567039455E+04  0.39517802001E+04  0.38078791369E+04 0.  0.
        5    1    3    3  502    0  0.12688189636E+04 -0.14147912137E+04  0.40809338719E+03  0.19437330176E+04  0.46999998093E+01 0.  1.
       -5    1    3    3    0  502 -0.12688189636E+04  0.14147912137E+04  0.64861055826E+03  0.20080471825E+04  0.46999998093E+01 0. -1.
</event>
<event>
 5   0  0.5325362E-07  0.3997072E+04  0.7818609E-02  0.8005138E-01
       -2   -1    0    0    0  501  0.00000000000E+00  0.00000000000E+00  0.13898452136E+04  0.13898452136E+04  0.25500000920E-02 0. -1.
        2   -1    0    0  501    0  0.00000000000E+00  0.00000000000E+00 -0.28738059621E+04  0.28738059621E+04  0.25500000920E-02 0.  1.
    10030    2    1    2    0    0  0.00000000000E+00  0.00000000000E+00 -0.14839607485E+04  0.42636511757E+04  0.39970716588E+04 0.  0.
        4    1    3    3  502    0 -0.10589197502E+04  0.13643323882E+03 -0.25440989443E+04  0.27590516699E+04  0.12699999809E+01 0.  1.
       -4    1    3    3    0  502  0.10589197502E+04 -0.13643323882E+03  0.10601381958E+04  0.15045995059E+04  0.12699999809E+01 0. -1.
</event>
<event>
 5   0  0.1648000E-07  0.3709804E+04  0.7818609E-02  0.8065793E-01
       -1   -1    0    0    0  501  0.00000000000E+00  0.00000000000E+00  0.27582733539E+04  0.27582733539E+04  0.50400001928E-02 0. -1.
        1   -1    0    0  501    0  0.00000000000E+00  0.00000000000E+00 -0.12473968597E+04  0.12473968598E+04  0.50400001928E-02 0.  1.
    10030    2    1    2    0    0  0.00000000000E+00  0.00000000000E+00  0.15108764942E+04  0.40056702137E+04  0.37098040487E+04 0.  0.
        2    1    3    3  502    0 -0.97167520504E+03  0.12579720880E+03 -0.94519212992E+03  0.13613837829E+04  0.25500000920E-02 0.  1.
       -2    1    3    3    0  502  0.97167520504E+03 -0.12579720880E+03  0.24560686241E+04  0.26442864308E+04  0.25500000920E-02 0. -1.
</event>
<event>
 5   0  0.5158266E-07  0.3781599E+04  0.7818609E-02  0.8050115E-01
       -2   -1    0    0    0  501  0.00000000000E+00  0.00000000000E+00  0.16090564980E+04  0.16090564980E+04  0.25500000920E-02 0. -1.
        2   -1    0    0  501    0  0.00000000000E+00  0.00000000000E+00 -0.22218746698E+04  0.22218746698E+04  0.25500000920E-02 0.  1.
    10030    2    1    2    0    0  0.00000000000E+00  0.00000000000E+00 -0.61281817177E+03  0.38309311678E+04  0.37815985378E+04 0.  0.
        2    1    3    3  502    0  0.25451252151E+03 -0.90001233350E+03  0.13582940184E+04  0.16491699319E+04  0.25500000920E-02 0. -1.
       -2    1    3    3    0  502 -0.25451252151E+03  0.90001233350E+03 -0.19711121902E+04  0.21817612358E+04  0.25500000920E-02 0.  1.
</event>
<event>
 5   0  0.5202788E-07  0.3809943E+04  0.7818609E-02  0.8044024E-01
        2   -1    0    0  501    0  0.00000000000E+00  0.00000000000E+00  0.23930563327E+04  0.23930563327E+04  0.25500000920E-02 0.  1.
       -2   -1    0    0    0  501  0.00000000000E+00  0.00000000000E+00 -0.15164360334E+04  0.15164360334E+04  0.25500000920E-02 0. -1.
    10030    2    1    2    0    0  0.00000000000E+00  0.00000000000E+00  0.87662029925E+03  0.39094923661E+04  0.38099432294E+04 0.  0.
        1    1    3    3  502    0  0.75505206835E+03  0.91469444166E+03  0.19679468230E+04  0.22977345899E+04  0.50400001928E-02 0.  1.
       -1    1    3    3    0  502 -0.75505206835E+03 -0.91469444166E+03 -0.10913265237E+04  0.16117577762E+04  0.50400001928E-02 0. -1.
</event>
<event>
 5   0  0.5134434E-07  0.3723190E+04  0.7818609E-02  0.8062842E-01
       -2   -1    0    0    0  501  0.00000000000E+00  0.00000000000E+00  0.28038002603E+04  0.28038002603E+04  0.25500000920E-02 0. -1.
        2   -1    0    0  501    0  0.00000000000E+00  0.00000000000E+00 -0.12360141586E+04  0.12360141586E+04  0.25500000920E-02 0.  1.
    10030    2    1    2    0    0  0.00000000000E+00  0.00000000000E+00  0.15677861017E+04  0.40398144189E+04  0.37231904704E+04 0.  0.
        5    1    3    3  502    0  0.76417666788E+03  0.16713607732E+04  0.46183153208E+03  0.18949203857E+04  0.46999998093E+01 0.  1.
       -5    1    3    3    0  502 -0.76417666788E+03 -0.16713607732E+04  0.11059545696E+04  0.21448940333E+04  0.46999998093E+01 0. -1.
</event>
<event>
 5   0  0.1648000E-07  0.3755434E+04  0.7818609E-02  0.8055787E-01
       -1   -1    0    0    0  501  0.00000000000E+00  0.00000000000E+00  0.13038187283E+04  0.13038187283E+04  0.50400001928E-02 0. -1.
        1   -1    0    0  501    0  0.00000000000E+00  0.00000000000E+00 -0.27042270400E+04  0.27042270400E+04  0.50400001928E-02 0.  1.
    10030    2    1    2    0    0  0.00000000000E+00  0.00000000000E+00 -0.14004083117E+04  0.40080457683E+04  0.37554343879E+04 0.  0.
        2    1    3    3  502    0  0.70892688304E+03 -0.79144243450E+02  0.11535782719E+04  0.13563126359E+04  0.25500000920E-02 0. -1.
       -2    1    3    3    0  502 -0.70892688304E+03  0.79144243450E+02 -0.25539865836E+04  0.26517331325E+04  0.25500000920E-02 0.  1.
</event>
<event>
 5   0  0.1648000E-07  0.3803121E+04  0.7818609E-02  0.8045485E-01
        1   -1    0    0  501    0  0.00000000000E+00  0.00000000000E+00  0.28043742866E+04  0.28043742866E+04  0.50400001928E-02 0. -1.
       -1   -1    0    0    0  501  0.00000000000E+00  0.00000000000E+00 -0.12893903533E+04  0.12893903533E+04  0.50400001928E-02 0.  1.
    10030    2    1    2    0    0  0.00000000000E+00  0.00000000000E+00  0.15149839333E+04  0.40937646399E+04  0.38031214297E+04 0.  0.
        4    1    3    3  502    0  0.29396409789E+03 -0.11321714958E+04  0.23713014809E+04  0.26441065623E+04  0.12699999809E+01 0. -1.
       -4    1    3    3    0  502 -0.29396409789E+03  0.11321714958E+04 -0.85631754759E+03  0.14496580776E+04  0.12699999809E+01 0.  1.
</event>
<event>
 5   0  0.5325362E-07  0.3795049E+04  0.7818609E-02  0.8047218E-01
        2   -1    0    0  501    0  0.00000000000E+00  0.00000000000E+00  0.17578696917E+04  0.17578696917E+04  0.25500000920E-02 0. -1.
       -2   -1    0    0    0  501  0.00000000000E+00  0.00000000000E+00 -0.20482737717E+04  0.20482737717E+04  0.25500000920E-02 0.  1.
    10030    2    1    2    0    0  0.00000000000E+00  0.00000000000E+00 -0.29040408006E+03  0.38061434634E+04  0.37950485549E+04 0.  0.
        4    1    3    3  502    0 -0.49442502283E+03  0.17888806115E+04 -0.54138453815E+03  0.19332999706E+04  0.12699999809E+01 0.  1.
       -4    1    3    3    0  502  0.49442502283E+03 -0.17888806115E+04  0.25098045809E+03  0.18728434928E+04  0.12699999809E+01 0. -1.
</event>
<event>
 5   0  0.5132561E-07  0.3788066E+04  0.7818609E-02  0.8048721E-01
        2   -1    0    0  501    0  0.00000000000E+00  0.00000000000E+00  0.18129970227E+04  0.18129970227E+04  0.25500000920E-02 0.  1.
       -2   -1    0    0    0  501  0.00000000000E+00  0.00000000000E+00 -0.19786915426E+04  0.19786915426E+04  0.25500000920E-02 0. -1.
    10030    2    1    2    0    0  0.00000000000E+00  0.00000000000E+00 -0.16569451989E+03  0.37916885654E+04  0.37880664597E+04 0.  0.
        3    1    3    3  502    0  0.79692388223E+03  0.92786081422E+03 -0.15303795946E+04  0.19591005789E+04  0.10100000352E+00 0. -1.
       -3    1    3    3    0  502 -0.79692388223E+03 -0.92786081422E+03  0.13646850747E+04  0.18325879864E+04  0.10100000352E+00 0.  1.
</event>
<event>
 5   0  0.1648000E-07  0.3765097E+04  0.7818609E-02  0.8053687E-01
       -1   -1    0    0    0  501  0.00000000000E+00  0.00000000000E+00  0.12453259008E+04  0.12453259008E+04  0.50400001928E-02 0. -1.
        1   -1    0    0  501    0  0.00000000000E+00  0.00000000000E+00 -0.28458317916E+04  0.28458317916E+04  0.50400001928E-02 0.  1.
    10030    2    1    2    0    0  0.00000000000E+00  0.00000000000E+00 -0.16005058907E+04  0.40911576924E+04  0.37650965669E+04 0.  0.
        1    1    3    3  502    0  0.84749180378E+03 -0.17048307622E+03  0.10169004162E+04  0.13346884630E+04  0.50400001928E-02 0. -1.
       -1    1    3    3    0  502 -0.84749180378E+03  0.17048307622E+03 -0.26174063070E+04  0.27564692294E+04  0.50400001928E-02 0.  1.
</event>
<event>
 5   0  0.1648000E-07  0.3710410E+04  0.7818609E-02  0.8065659E-01
       -1   -1    0    0    0  501  0.00000000000E+00  0.00000000000E+00  0.16834233294E+04  0.16834233294E+04  0.50400001928E-02 0. -1.
        1   -1    0    0  501    0  0.00000000000E+00  0.00000000000E+00 -0.20445160423E+04  0.20445160423E+04  0.50400001928E-02 0.  1.
    10030    2    1    2    0    0  0.00000000000E+00  0.00000000000E+00 -0.36109271291E+03  0.37279393717E+04  0.37104102215E+04 0.  0.
        3    1    3    3  502    0 -0.93970386601E+03 -0.91552568584E+03 -0.14984426540E+04  0.19916227139E+04  0.10100000352E+00 0.  1.
       -3    1    3    3    0  502  0.93970386601E+03  0.91552568584E+03  0.11373499411E+04  0.17363166577E+04  0.10100000352E+00 0. -1.
</event>
<event>
 5   0  0.1648000E-07  0.3741082E+04  0.7818609E-02  0.8058918E-01
       -1   -1    0    0    0  501  0.00000000000E+00  0.00000000000E+00  0.13721084711E+04  0.13721084711E+04  0.50400001928E-02 0. -1.
        1   -1    0    0  501    0  0.00000000000E+00  0.00000000000E+00 -0.25500340274E+04  0.25500340274E+04  0.50400001928E-02 0.  1.
    10030    2    1    2    0    0  0.00000000000E+00  0.00000000000E+00 -0.11779255563E+04  0.39221424985E+04  0.37410818171E+04 0.  0.
        2    1    3    3  502    0 -0.17197184173E+04  0.29159285526E+03  0.11935823130E+03  0.17483432774E+04  0.25500000920E-02 0. -1.
       -2    1    3    3    0  502  0.17197184173E+04 -0.29159285526E+03 -0.12972837876E+04  0.21737992211E+04  0.25500000920E-02 0.  1.
</event>
<event>
 5   0  0.1648000E-07  0.3851007E+04  0.7818609E-02  0.8035297E-01
        1   -1    0    0  501    0  0.00000000000E+00  0.00000000000E+00  0.22191232120E+04  0.22191232120E+04  0.50400001928E-02 0.  1.
       -1   -1    0    0    0  501  0.00000000000E+00  0.00000000000E+00 -0.16707337892E+04  0.16707337892E+04  0.50400001928E-02 0. -1.
    10030    2    1    2    0    0  0.00000000000E+00  0.00000000000E+00  0.54838942278E+03  0.38898570013E+04  0.38510072100E+04 0.  0.
        2    1    3    3  502    0 -0.17582452999E+04 -0.68148905728E+03  0.66762408814E+03  0.20003939094E+04  0.25500000920E-02 0.  1.
       -2    1    3    3    0  502  0.17582452999E+04  0.68148905728E+03 -0.11923466536E+03  0.18894630918E+04  0.25500000920E-02 0. -1.
</event>
<event>
 5   0  0.5134434E-07  0.3763880E+04  0.7818609E-02  0.8053951E-01
       -2   -1    0    0    0  501  0.00000000000E+00  0.00000000000E+00  0.20922459553E+04  0.20922459553E+04  0.25500000920E-02 0.  1.
        2   -1    0    0  501    0  0.00000000000E+00  0.00000000000E+00 -0.16927733770E+04  0.16927733770E+04  0.25500000920E-02 0. -1.
    10030    2    1    2    0    0  0.00000000000E+00  0.00000000000E+00  0.39947257831E+03  0.37850193322E+04  0.37638800465E+04 0.  0.
        5    1    3    3  502    0 -0.60425134705E+03 -0.13407788626E+04 -0.98111104898E+03  0.17678825270E+04  0.46999998093E+01 0. -1.
       -5    1    3    3    0  502  0.60425134705E+03  0.13407788626E+04  0.13805836273E+04  0.20171368052E+04  0.46999998093E+01 0.  1.
</event>
<event>
 5   0  0.1656617E-07  0.3144340E+04  0.7818609E-02  0.8203674E-01
        1   -1    0    0  501    0  0.00000000000E+00  0.00000000000E+00  0.18771154532E+04  0.18771154532E+04  0.50400001928E-02 0.  1.
       -1   -1    0    0    0  501  0.00000000000E+00  0.00000000000E+00 -0.13167639148E+04  0.13167639148E+04  0.50400001928E-02 0. -1.
    10030    2    1    2    0    0  0.00000000000E+00  0.00000000000E+00  0.56035153840E+03  0.31938793680E+04  0.31443396080E+04 0.  0.
        5    1    3    3  502    0 -0.88747101268E+03 -0.97628143883E+03  0.11486111710E+04  0.17493027063E+04  0.46999998093E+01 0.  1.
       -5    1    3    3    0  502  0.88747101268E+03  0.97628143883E+03 -0.58825963259E+03  0.14445766617E+04  0.46999998093E+01 0. -1.
</event>
<event>
 5   0  0.1648000E-07  0.3705227E+04  0.7818609E-02  0.8066804E-01
       -1   -1    0    0    0  501  0.00000000000E+00  0.00000000000E+00  0.16353749414E+04  0.16353749414E+04  0.50400001928E-02 0. -1.
        1   -1    0    0  501    0  0.00000000000E+00  0.00000000000E+00 -0.20987096535E+04  0.20987096535E+04  0.50400001928E-02 0.  1.
    10030    2    1    2    0    0  0.00000000000E+00  0.00000000000E+00 -0.46333471212E+03  0.37340845949E+04  0.37052272139E+04 0.  0.
        3    1    3    3  502    0  0.18124314915E+03 -0.13501300524E+04 -0.14970244877E+04  0.20240510281E+04  0.10100000352E+00 0.  1.
       -3    1    3    3    0  502 -0.18124314915E+03  0.13501300524E+04  0.10336897755E+04  0.17100335668E+04  0.10100000352E+00 0. -1.
</event>
<event>
 5   0  0.1656617E-07  0.3825229E+04  0.7818609E-02  0.8040762E-01
       -1   -1    0    0    0  501  0.00000000000E+00  0.00000000000E+00  0.13761414131E+04  0.13761414132E+04  0.50400001928E-02 0.  1.
        1   -1    0    0  501    0  0.00000000000E+00  0.00000000000E+00 -0.26582248781E+04  0.26582248781E+04  0.50400001928E-02 0. -1.
    10030    2    1    2    0    0  0.00000000000E+00  0.00000000000E+00 -0.12820834650E+04  0.40343662913E+04  0.38252285371E+04 0.  0.
        5    1    3    3  502    0 -0.16192410753E+04  0.99661128912E+03 -0.42260586525E+03  0.19477662922E+04  0.46999998093E+01 0.  1.
       -5    1    3    3    0  502  0.16192410753E+04 -0.99661128912E+03 -0.85947759971E+03  0.20865999991E+04  0.46999998093E+01 0. -1.
</event>
<event>
 5   0  0.1648000E-07  0.2990334E+04  0.7818609E-02  0.8246496E-01
       -1   -1    0    0    0  501  0.00000000000E+00  0.00000000000E+00  0.10462483918E+04  0.10462483918E+04  0.50400001928E-02 0.  1.
        1   -1    0    0  501    0  0.00000000000E+00  0.00000000000E+00 -0.21367054446E+04  0.21367054446E+04  0.50400001928E-02 0. -1.
    10030    2    1    2    0    0  0.00000000000E+00  0.00000000000E+00 -0.10904570528E+04  0.31829538364E+04  0.29903341855E+04 0.  0.
        1    1    3    3  502    0 -0.63064546958E+03 -0.13494987247E+04 -0.68263329130E+03  0.16385508007E+04  0.50400001928E-02 0. -1.
       -1    1    3    3    0  502  0.63064546958E+03  0.13494987247E+04 -0.40782376155E+03  0.15444030357E+04  0.50400001928E-02 0.  1.
</event>
<event>
 5   0  0.5158266E-07  0.3836138E+04  0.7818609E-02  0.8038444E-01
       -2   -1    0    0    0  501  0.00000000000E+00  0.00000000000E+00  0.17619632544E+04  0.17619632544E+04  0.25500000920E-02 0. -1.
        2   -1    0    0  501    0  0.00000000000E+00  0.00000000000E+00 -0.20880054073E+04  0.20880054073E+04  0.25500000920E-02 0.  1.
    10030    2    1    2    0    0  0.00000000000E+00  0.00000000000E+00 -0.32604215287E+03  0.38499686617E+04  0.38361380593E+04 0.  0.
        2    1    3    3  502    0 -0.73105639837E+03 -0.16324879699E+04 -0.85799757737E+03  0.19838397799E+04  0.25500000920E-02 0.  1.
       -2    1    3    3    0  502  0.73105639837E+03  0.16324879699E+04  0.53195542450E+03  0.18661288817E+04  0.25500000920E-02 0. -1.
</event>
<event>
 5   0  0.5202788E-07  0.3796824E+04  0.7818609E-02  0.8046837E-01
        2   -1    0    0  501    0  0.00000000000E+00  0.00000000000E+00  0.22305504855E+04  0.22305504855E+04  0.25500000920E-02 0.  1.
       -2   -1    0    0    0  501  0.00000000000E+00  0.00000000000E+00 -0.16157307727E+04  0.16157307727E+04  0.25500000920E-02 0. -1.
    10030    2    1    2    0    0  0.00000000000E+00  0.00000000000E+00  0.61481971284E+03  0.38462812581E+04  0.37968244939E+04 0.  0.
        1    1    3    3  502    0 -0.70767842398E+03  0.33386874043E+03  0.20595908057E+04  0.22032229517E+04  0.50400001928E-02 0.  1.
       -1    1    3    3    0  502  0.70767842398E+03 -0.33386874043E+03 -0.14447710929E+04  0.16430583065E+04  0.50400001928E-02 0. -1.
</event>
<event>
 5   0  0.1648000E-07  0.3798927E+04  0.7818609E-02  0.8046385E-01
       -3   -1    0    0    0  501  0.00000000000E+00  0.00000000000E+00  0.21058336515E+04  0.21058336539E+04  0.10100000352E+00 0.  1.
        3   -1    0    0  501    0  0.00000000000E+00  0.00000000000E+00 -0.17133175336E+04  0.17133175366E+04  0.10100000352E+00 0. -1.
    10030    2    1    2    0    0  0.00000000000E+00  0.00000000000E+00  0.39251611782E+03  0.38191511905E+04  0.37989270739E+04 0.  0.
        4    1    3    3  502    0 -0.26133271541E+03  0.16560046183E+04  0.10939360927E+04  0.20018351260E+04  0.12699999809E+01 0.  1.
       -4    1    3    3    0  502  0.26133271541E+03 -0.16560046183E+04 -0.70141997489E+03  0.18173160644E+04  0.12699999809E+01 0. -1.
</event>
<event>
 5   0  0.1648000E-07  0.3799377E+04  0.7818609E-02  0.8046289E-01
        1   -1    0    0  501    0  0.00000000000E+00  0.00000000000E+00  0.32712506129E+04  0.32712506129E+04  0.50400001928E-02 0.  1.
       -1   -1    0    0    0  501  0.00000000000E+00  0.00000000000E+00 -0.11031914307E+04  0.11031914307E+04  0.50400001928E-02 0. -1.
    10030    2    1    2    0    0  0.00000000000E+00  0.00000000000E+00  0.21680591821E+04  0.43744420436E+04  0.37993766036E+04 0.  0.
        2    1    3    3  502    0 -0.87279331464E+03  0.28095609389E+03  0.29996174909E+04  0.31366239157E+04  0.25500000920E-02 0.  1.
       -2    1    3    3    0  502  0.87279331464E+03 -0.28095609389E+03 -0.83155830881E+03  0.12378181279E+04  0.25500000920E-02 0. -1.
</event>
<event>
 5   0  0.1648000E-07  0.3801277E+04  0.7818609E-02  0.8045881E-01
       -1   -1    0    0    0  501  0.00000000000E+00  0.00000000000E+00  0.17624995413E+04  0.17624995413E+04  0.50400001928E-02 0. -1.
        1   -1    0    0  501    0  0.00000000000E+00  0.00000000000E+00 -0.20496038168E+04  0.20496038168E+04  0.50400001928E-02 0.  1.
    10030    2    1    2    0    0  0.00000000000E+00  0.00000000000E+00 -0.28710427557E+03  0.38121033581E+04  0.38012765156E+04 0.  0.
        3    1    3    3  502    0 -0.67675522640E+03  0.53913267383E+03  0.15535337611E+04  0.17782375639E+04  0.10100000352E+00 0. -1.
       -3    1    3    3    0  502  0.67675522640E+03 -0.53913267383E+03 -0.18406380367E+04  0.20338657942E+04  0.10100000352E+00 0.  1.
</event>
<event>
 5   0  0.5158266E-07  0.3834935E+04  0.7818609E-02  0.8038699E-01
       -2   -1    0    0    0  501  0.00000000000E+00  0.00000000000E+00  0.26526537549E+04  0.26526537549E+04  0.25500000920E-02 0.  1.
        2   -1    0    0  501    0  0.00000000000E+00  0.00000000000E+00 -0.13860392555E+04  0.13860392555E+04  0.25500000920E-02 0. -1.
    10030    2    1    2    0    0  0.00000000000E+00  0.00000000000E+00  0.12666144994E+04  0.40386930105E+04  0.38349353244E+04 0.  0.
        2    1    3    3  502    0  0.25624862731E+03  0.18952289087E+04  0.77895300428E+03  0.20650239123E+04  0.25500000920E-02 0.  1.
       -2    1    3    3    0  502 -0.25624862731E+03 -0.18952289087E+04  0.48766149516E+03  0.19736690982E+04  0.25500000920E-02 0. -1.
</event>
<event>
 5   0  0.5202788E-07  0.3740967E+04  0.7818609E-02  0.8058943E-01
        2   -1    0    0  501    0  0.00000000000E+00  0.00000000000E+00  0.15336837467E+04  0.15336837467E+04  0.25500000920E-02 0.  1.
       -2   -1    0    0    0  501  0.00000000000E+00  0.00000000000E+00 -0.22812451544E+04  0.22812451544E+04  0.25500000920E-02 0. -1.
    10030    2    1    2    0    0  0.00000000000E+00  0.00000000000E+00 -0.74756140771E+03  0.38149289012E+04  0.37409670491E+04 0.  0.
        1    1    3    3  502    0 -0.35289943625E+03 -0.17200336463E+04 -0.10312401907E+04  0.20362981333E+04  0.50400001928E-02 0. -1.
       -1    1    3    3    0  502  0.35289943625E+03  0.17200336463E+04  0.28367878297E+03  0.17786307679E+04  0.50400001928E-02 0.  1.
</event>
<event>
 5   0  0.1648000E-07  0.3783237E+04  0.7818609E-02  0.8049762E-01
        1   -1    0    0  501    0  0.00000000000E+00  0.00000000000E+00  0.19020893288E+04  0.19020893288E+04  0.50400001928E-02 0.  1.
       -1   -1    0    0    0  501  0.00000000000E+00  0.00000000000E+00 -0.18812054724E+04  0.18812054724E+04  0.50400001928E-02 0. -1.
    10030    2    1    2    0    0  0.00000000000E+00  0.00000000000E+00  0.20883856414E+02  0.37832948012E+04  0.37832371612E+04 0.  0.
        1    1    3    3  502    0  0.11665677146E+04  0.39102220604E+03 -0.14263966719E+04  0.18837160253E+04  0.50400001928E-02 0. -1.
       -1    1    3    3    0  502 -0.11665677146E+04 -0.39102220604E+03  0.14472805283E+04  0.18995787759E+04  0.50400001928E-02 0.  1.
</event>
<event>
 5   0  0.5158266E-07  0.3817120E+04  0.7818609E-02  0.8042491E-01
       -2   -1    0    0    0  501  0.00000000000E+00  0.00000000000E+00  0.14867314149E+04  0.14867314149E+04  0.25500000920E-02 0. -1.
        2   -1    0    0  501    0  0.00000000000E+00  0.00000000000E+00 -0.24500734200E+04  0.24500734200E+04  0.25500000920E-02 0.  1.
    10030    2    1    2    0    0  0.00000000000E+00  0.00000000000E+00 -0.96334200509E+03  0.39368048350E+04  0.38171199208E+04 0.  0.
        2    1    3    3  502    0 -0.77486242914E+03  0.73260907253E+03  0.11508281684E+04  0.15689274395E+04  0.25500000920E-02 0. -1.
       -2    1    3    3    0  502  0.77486242914E+03 -0.73260907253E+03 -0.21141701735E+04  0.23678773954E+04  0.25500000920E-02 0.  1.
</event>
<event>
 5   0  0.1648000E-07  0.3066926E+04  0.7818609E-02  0.8224874E-01
        1   -1    0    0  501    0  0.00000000000E+00  0.00000000000E+00  0.20303628492E+04  0.20303628492E+04  0.50400001928E-02 0.  1.
       -1   -1    0    0    0  501  0.00000000000E+00  0.00000000000E+00 -0.11581714878E+04  0.11581714878E+04  0.50400001928E-02 0. -1.
    10030    2    1    2    0    0  0.00000000000E+00  0.00000000000E+00  0.87219136140E+03  0.31885343370E+04  0.30669257323E+04 0.  0.
        4    1    3    3  502    0 -0.50353145322E+03 -0.14387255150E+04  0.26203018574E+03  0.15466533105E+04  0.12699999809E+01 0. -1.
       -4    1    3    3    0  502  0.50353145322E+03  0.14387255150E+04  0.61016117565E+03  0.16418810265E+04  0.12699999809E+01 0.  1.
</event>
<event>
 5   0  0.1648000E-07  0.3838869E+04  0.7818609E-02  0.8037865E-01
       -1   -1    0    0    0  501  0.00000000000E+00  0.00000000000E+00  0.19898293641E+04  0.19898293641E+04  0.50400001928E-02 0.  1.
        1   -1    0    0  501    0  0.00000000000E+00  0.00000000000E+00 -0.18515295836E+04  0.18515295836E+04  0.50400001928E-02 0. -1.
    10030    2    1    2    0    0  0.00000000000E+00  0.00000000000E+00  0.13829978057E+03  0.38413589477E+04  0.38388685489E+04 0.  0.
        3    1    3    3  502    0  0.14926582615E+04 -0.11847683025E+04 -0.16017842578E+03  0.19124230062E+04  0.10100000352E+00 0. -1.
       -3    1    3    3    0  502 -0.14926582615E+04  0.11847683025E+04  0.29847820634E+03  0.19289359415E+04  0.10100000352E+00 0.  1.
</event>
<event>
 5   0  0.5134434E-07  0.3789903E+04  0.7818609E-02  0.8048325E-01
        2   -1    0    0  501    0  0.00000000000E+00  0.00000000000E+00  0.29456071928E+04  0.29456071928E+04  0.25500000920E-02 0. -1.
       -2   -1    0    0    0  501  0.00000000000E+00  0.00000000000E+00 -0.12190497276E+04  0.12190497276E+04  0.25500000920E-02 0.  1.
    10030    2    1    2    0    0  0.00000000000E+00  0.00000000000E+00  0.17265574652E+04  0.41646569204E+04  0.37899032420E+04 0.  0.
        5    1    3    3  502    0  0.17460009348E+04  0.26156295190E+03  0.16197416467E+04  0.23959381323E+04  0.46999998093E+01 0. -1.
       -5    1    3    3    0  502 -0.17460009348E+04 -0.26156295190E+03  0.10681581852E+03  0.17687187880E+04  0.46999998093E+01 0.  1.
</event>
<event>
 5   0  0.5158266E-07  0.3761689E+04  0.7818609E-02  0.8054427E-01
       -2   -1    0    0    0  501  0.00000000000E+00  0.00000000000E+00  0.13869124048E+04  0.13869124048E+04  0.25500000920E-02 0. -1.
        2   -1    0    0  501    0  0.00000000000E+00  0.00000000000E+00 -0.25506845573E+04  0.25506845573E+04  0.25500000920E-02 0.  1.
    10030    2    1    2    0    0  0.00000000000E+00  0.00000000000E+00 -0.11637721525E+04  0.39375969621E+04  0.37616890107E+04 0.  0.
        2    1    3    3  502    0 -0.22791735082E+03 -0.10123213582E+04 -0.22239484066E+04  0.24541164126E+04  0.25500000920E-02 0.  1.
       -2    1    3    3    0  502  0.22791735082E+03  0.10123213582E+04  0.10601762541E+04  0.14834805496E+04  0.25500000920E-02 0. -1.
</event>
<event>
 5   0  0.1656617E-07  0.3728182E+04  0.7818609E-02  0.8061745E-01
       -1   -1    0    0    0  501  0.00000000000E+00  0.00000000000E+00  0.11596451810E+04  0.11596451811E+04  0.50400001928E-02 0. -1.
        1   -1    0    0  501    0  0.00000000000E+00  0.00000000000E+00 -0.29964635302E+04  0.29964635302E+04  0.50400001928E-02 0.  1.
    10030    2    1    2    0    0  0.00000000000E+00  0.00000000000E+00 -0.18368183492E+04  0.41561087113E+04  0.37281815905E+04 0.  0.
        5    1    3    3  502    0  0.17076158476E+04 -0.57992161918E+03 -0.14443114399E+04  0.23104801649E+04  0.46999998093E+01 0.  1.
       -5    1    3    3    0  502 -0.17076158476E+04  0.57992161918E+03 -0.39250690932E+03  0.18456285463E+04  0.46999998093E+01 0. -1.
</event>
<event>
 5   0  0.1648000E-07  0.3861487E+04  0.7818609E-02  0.8033087E-01
       -1   -1    0    0    0  501  0.00000000000E+00  0.00000000000E+00  0.19237056860E+04  0.19237056860E+04  0.50400001928E-02 0. -1.
        1   -1    0    0  501    0  0.00000000000E+00  0.00000000000E+00 -0.19378072675E+04  0.19378072675E+04  0.50400001928E-02 0.  1.
    10030    2    1    2    0    0  0.00000000000E+00  0.00000000000E+00 -0.14101581483E+02  0.38615129535E+04  0.38614872052E+04 0.  0.
        2    1    3    3  502    0 -0.64757221791E+03  0.79119364063E+03 -0.16448754082E+04  0.19367375307E+04  0.25500000920E-02 0.  1.
       -2    1    3    3    0  502  0.64757221791E+03 -0.79119364063E+03  0.16307738267E+04  0.19247754228E+04  0.25500000920E-02 0. -1.
</event>
<event>
 5   0  0.1648000E-07  0.3818022E+04  0.7818609E-02  0.8042298E-01
       -1   -1    0    0    0  501  0.00000000000E+00  0.00000000000E+00  0.23372877378E+04  0.23372877378E+04  0.50400001928E-02 0. -1.
        1   -1    0    0  501    0  0.00000000000E+00  0.00000000000E+00 -0.15592102288E+04  0.15592102288E+04  0.50400001928E-02 0.  1.
    10030    2    1    2    0    0  0.00000000000E+00  0.00000000000E+00  0.77807750896E+03  0.38964979666E+04  0.38180219739E+04 0.  0.
        1    1    3    3  502    0 -0.32717766702E+03 -0.12389461862E+04  0.18331462666E+04  0.22366175607E+04  0.50400001928E-02 0. -1.
       -1    1    3    3    0  502  0.32717766702E+03  0.12389461862E+04 -0.10550687577E+04  0.16598804058E+04  0.50400001928E-02 0.  1.
</event>
<event>
 5   0  0.5158266E-07  0.3813855E+04  0.7818609E-02  0.8043188E-01
        2   -1    0    0  501    0  0.00000000000E+00  0.00000000000E+00  0.21005427096E+04  0.21005427096E+04  0.25500000920E-02 0.  1.
       -2   -1    0    0    0  501  0.00000000000E+00  0.00000000000E+00 -0.17311585740E+04  0.17311585740E+04  0.25500000920E-02 0. -1.
    10030    2    1    2    0    0  0.00000000000E+00  0.00000000000E+00  0.36938413562E+03  0.38317012836E+04  0.38138550165E+04 0.  0.
        2    1    3    3  502    0  0.13829123411E+04 -0.13129318957E+04  0.17298353822E+03  0.19147219147E+04  0.25500000920E-02 0. -1.
       -2    1    3    3    0  502 -0.13829123411E+04  0.13129318957E+04  0.19640059740E+03  0.19169793689E+04  0.25500000920E-02 0.  1.
</event>
<event>
 5   0  0.1648000E-07  0.3854324E+04  0.7818609E-02  0.8034597E-01
        1   -1    0    0  501    0  0.00000000000E+00  0.00000000000E+00  0.22188178690E+04  0.22188178690E+04  0.50400001928E-02 0. -1.
       -1   -1    0    0    0  501  0.00000000000E+00  0.00000000000E+00 -0.16738430563E+04  0.16738430563E+04  0.50400001928E-02 0.  1.
    10030    2    1    2    0    0  0.00000000000E+00  0.00000000000E+00  0.54497481271E+03  0.38926609254E+04  0.38543237453E+04 0.  0.
        1    1    3    3  502    0  0.22136864388E+03  0.15723835973E+03 -0.16544273092E+04  0.16765612723E+04  0.50400001928E-02 0.  1.
       -1    1    3    3    0  502 -0.22136864388E+03 -0.15723835973E+03  0.21994021219E+04  0.22160996531E+04  0.50400001928E-02 0. -1.
</event>
<event>
 5   0  0.5134434E-07  0.3819700E+04  0.7818609E-02  0.8041941E-01
        2   -1    0    0  501    0  0.00000000000E+00  0.00000000000E+00  0.14847102335E+04  0.14847102335E+04  0.25500000920E-02 0.  1.
       -2   -1    0    0    0  501  0.00000000000E+00  0.00000000000E+00 -0.24567259127E+04  0.24567259127E+04  0.25500000920E-02 0. -1.
    10030    2    1    2    0    0  0.00000000000E+00  0.00000000000E+00 -0.97201567920E+03  0.39414361461E+04  0.38196995187E+04 0.  0.
        5    1    3    3  502    0 -0.13063087233E+04 -0.11524459797E+04  0.32184203599E+03  0.17714905031E+04  0.46999998093E+01 0. -1.
       -5    1    3    3    0  502  0.13063087233E+04  0.11524459797E+04 -0.12938577152E+04  0.21699456430E+04  0.46999998093E+01 0.  1.
</event>
<event>
 5   0  0.1648000E-07  0.3710319E+04  0.7818609E-02  0.8065679E-01
       -1   -1    0    0    0  501  0.00000000000E+00  0.00000000000E+00  0.24873060427E+04  0.24873060427E+04  0.50400001928E-02 0.  1.
        1   -1    0    0  501    0  0.00000000000E+00  0.00000000000E+00 -0.13836720766E+04  0.13836720766E+04  0.50400001928E-02 0. -1.
    10030    2    1    2    0    0  0.00000000000E+00  0.00000000000E+00  0.11036339662E+04  0.38709781193E+04  0.37103185401E+04 0.  0.
        3    1    3    3  502    0 -0.14484022438E+04 -0.96785133613E+03 -0.11378161781E+03  0.17457237856E+04  0.10100000352E+00 0. -1.
       -3    1    3    3    0  502  0.14484022438E+04  0.96785133613E+03  0.12174155840E+04  0.21252543337E+04  0.10100000352E+00 0.  1.
</event>
<event>
 5   0  0.1648000E-07  0.3789849E+04  0.7818609E-02  0.8048337E-01
       -3   -1    0    0    0  501  0.00000000000E+00  0.00000000000E+00  0.23594021042E+04  0.23594021064E+04  0.10100000352E+00 0. -1.
        3   -1    0    0  501    0  0.00000000000E+00  0.00000000000E+00 -0.15218852920E+04  0.15218852953E+04  0.10100000352E+00 0.  1.
    10030    2    1    2    0    0  0.00000000000E+00  0.00000000000E+00  0.83751681225E+03  0.38812874017E+04  0.37898492693E+04 0.  0.
        5    1    3    3  502    0  0.60375983141E+03  0.35560085580E+03  0.22218444645E+04  0.23297194717E+04  0.46999998093E+01 0. -1.
       -5    1    3    3    0  502 -0.60375983141E+03 -0.35560085580E+03 -0.13843276522E+04  0.15515679300E+04  0.46999998093E+01 0.  1.
</event>
<event>
 5   0  0.1656617E-07  0.3749273E+04  0.7818609E-02  0.8057129E-01
       -1   -1    0    0    0  501  0.00000000000E+00  0.00000000000E+00  0.16723889601E+04  0.16723889601E+04  0.50400001928E-02 0.  1.
        1   -1    0    0  501    0  0.00000000000E+00  0.00000000000E+00 -0.21013430244E+04  0.21013430244E+04  0.50400001928E-02 0. -1.
    10030    2    1    2    0    0  0.00000000000E+00  0.00000000000E+00 -0.42895406426E+03  0.37737319845E+04  0.37492734632E+04 0.  0.
        5    1    3    3  502    0 -0.14816960275E+04 -0.47509975219E+03 -0.12668106955E+04  0.20064830726E+04  0.46999998093E+01 0. -1.
       -5    1    3    3    0  502  0.14816960275E+04  0.47509975219E+03  0.83785663120E+03  0.17672489119E+04  0.46999998093E+01 0.  1.
</event>
<event>
 5   0  0.5158266E-07  0.3847364E+04  0.7818609E-02  0.8036066E-01
        2   -1    0    0  501    0  0.00000000000E+00  0.00000000000E+00  0.11672225128E+04  0.11672225128E+04  0.25500000920E-02 0. -1.
       -2   -1    0    0    0  501  0.00000000000E+00  0.00000000000E+00 -0.31703914892E+04  0.31703914892E+04  0.25500000920E-02 0.  1.
    10030    2    1    2    0    0  0.00000000000E+00  0.00000000000E+00 -0.20031689764E+04  0.43376140020E+04  0.38473639394E+04 0.  0.
        2    1    3    3  502    0 -0.13166075145E+04  0.47560448938E+03  0.48597455777E+03  0.14818320581E+04  0.25500000920E-02 0. -1.
       -2    1    3    3    0  502  0.13166075145E+04 -0.47560448938E+03 -0.24891435341E+04  0.28557819439E+04  0.25500000920E-02 0.  1.
</event>
<event>
 5   0  0.1648000E-07  0.3734052E+04  0.7818609E-02  0.8060457E-01
        1   -1    0    0  501    0  0.00000000000E+00  0.00000000000E+00  0.22573354413E+04  0.22573354413E+04  0.50400001928E-02 0.  1.
       -1   -1    0    0    0  501  0.00000000000E+00  0.00000000000E+00 -0.15442038181E+04  0.15442038181E+04  0.50400001928E-02 0. -1.
    10030    2    1    2    0    0  0.00000000000E+00  0.00000000000E+00  0.71313162315E+03  0.38015392594E+04  0.37340519585E+04 0.  0.
        1    1    3    3  502    0  0.94250617055E+03  0.52596595492E+03  0.19075258043E+04  0.21917145711E+04  0.50400001928E-02 0.  1.
       -1    1    3    3    0  502 -0.94250617055E+03 -0.52596595492E+03 -0.11943941811E+04  0.16098246883E+04  0.50400001928E-02 0. -1.
</event>
<event>
 5   0  0.5158266E-07  0.3821403E+04  0.7818609E-02  0.8041577E-01
        2   -1    0    0  501    0  0.00000000000E+00  0.00000000000E+00  0.21259725385E+04  0.21259725385E+04  0.25500000920E-02 0.  1.
       -2   -1    0    0    0  501  0.00000000000E+00  0.00000000000E+00 -0.17172287463E+04  0.17172287463E+04  0.25500000920E-02 0. -1.
    10030    2    1    2    0    0  0.00000000000E+00  0.00000000000E+00  0.40874379226E+03  0.38432012848E+04  0.38214034893E+04 0.  0.
        2    1    3    3  502    0  0.72195039209E+03  0.10931140941E+04 -0.11944864063E+04  0.17728250241E+04  0.25500000920E-02 0. -1.
       -2    1    3    3    0  502 -0.72195039209E+03 -0.10931140941E+04  0.16032301985E+04  0.20703762607E+04  0.25500000920E-02 0.  1.
</event>
<event>
 5   0  0.1648000E-07  0.3752015E+04  0.7818609E-02  0.8056531E-01
        1   -1    0    0  501    0  0.00000000000E+00  0.00000000000E+00  0.19120354044E+04  0.19120354044E+04  0.50400001928E-02 0. -1.
       -1   -1    0    0    0  501  0.00000000000E+00  0.00000000000E+00 -0.18406589000E+04  0.18406589000E+04  0.50400001928E-02 0.  1.
    10030    2    1    2    0    0  0.00000000000E+00  0.00000000000E+00  0.71376504325E+02  0.37526943044E+04  0.37520154500E+04 0.  0.
        2    1    3    3  502    0  0.16382200831E+04  0.64239978739E+03  0.68616155996E+03  0.18887191993E+04  0.25500000920E-02 0. -1.
       -2    1    3    3    0  502 -0.16382200831E+04 -0.64239978739E+03 -0.61478505563E+03  0.18639751051E+04  0.25500000920E-02 0.  1.
</event>
<event>
 5   0  0.1648000E-07  0.3793912E+04  0.7818609E-02  0.8047463E-01
        1   -1    0    0  501    0  0.00000000000E+00  0.00000000000E+00  0.12796425886E+04  0.12796425886E+04  0.50400001928E-02 0. -1.
       -1   -1    0    0    0  501  0.00000000000E+00  0.00000000000E+00 -0.28120680194E+04  0.28120680194E+04  0.50400001928E-02 0.  1.
    10030    2    1    2    0    0  0.00000000000E+00  0.00000000000E+00 -0.15324254308E+04  0.40917106080E+04  0.37939119650E+04 0.  0.
        2    1    3    3  502    0  0.20302466277E+03 -0.60285784816E+03  0.11611813904E+04  0.13240086179E+04  0.25500000920E-02 0. -1.
       -2    1    3    3    0  502 -0.20302466277E+03  0.60285784816E+03 -0.26936068212E+04  0.27677019901E+04  0.25500000920E-02 0.  1.
</event>
<event>
 5   0  0.1648000E-07  0.3680379E+04  0.7818609E-02  0.8072324E-01
       -1   -1    0    0    0  501  0.00000000000E+00  0.00000000000E+00  0.19564190513E+04  0.19564190513E+04  0.50400001928E-02 0. -1.
        1   -1    0    0  501    0  0.00000000000E+00  0.00000000000E+00 -0.17308652049E+04  0.17308652049E+04  0.50400001928E-02 0.  1.
    10030    2    1    2    0    0  0.00000000000E+00  0.00000000000E+00  0.22555384644E+03  0.36872842562E+04  0.36803791447E+04 0.  0.
        4    1    3    3  502    0  0.61914333175E+03  0.77355983425E+03 -0.14407976942E+04  0.17486088444E+04  0.12699999809E+01 0.  1.
       -4    1    3    3    0  502 -0.61914333175E+03 -0.77355983425E+03  0.16663515406E+04  0.19386754118E+04  0.12699999809E+01 0. -1.
</event>
<event>
 5   0  0.1648000E-07  0.3878257E+04  0.7818609E-02  0.8029567E-01
       -1   -1    0    0    0  501  0.00000000000E+00  0.00000000000E+00  0.24484035613E+04  0.24484035613E+04  0.50400001928E-02 0.  1.
        1   -1    0    0  501    0  0.00000000000E+00  0.00000000000E+00 -0.15357843367E+04  0.15357843367E+04  0.50400001928E-02 0. -1.
    10030    2    1    2    0    0  0.00000000000E+00  0.00000000000E+00  0.91261922467E+03  0.39841878980E+04  0.38782572578E+04 0.  0.
        4    1    3    3  502    0  0.15753924040E+04 -0.62610093012E+03  0.14234888293E+04  0.22136362983E+04  0.12699999809E+01 0.  1.
       -4    1    3    3    0  502 -0.15753924040E+04  0.62610093012E+03 -0.51086960464E+03  0.17705515997E+04  0.12699999809E+01 0. -1.
</event>
<event>
 5   0  0.1656617E-07  0.3798938E+04  0.7818609E-02  0.8046383E-01
       -1   -1    0    0    0  501  0.00000000000E+00  0.00000000000E+00  0.20075668609E+04  0.20075668609E+04  0.50400001928E-02 0. -1.
        1   -1    0    0  501    0  0.00000000000E+00  0.00000000000E+00 -0.17971915356E+04  0.17971915356E+04  0.50400001928E-02 0.  1.
    10030    2    1    2    0    0  0.00000000000E+00  0.00000000000E+00  0.21037532531E+03  0.38047583965E+04  0.37989378355E+04 0.  0.
        5    1    3    3  502    0 -0.16526807723E+04 -0.90051562215E+03  0.36185743208E+03  0.19165711601E+04  0.46999998093E+01 0.  1.
       -5    1    3    3    0  502  0.16526807723E+04  0.90051562215E+03 -0.15148210678E+03  0.18881872363E+04  0.46999998093E+01 0. -1.
</event>
<event>
 5   0  0.1648000E-07  0.3807327E+04  0.7818609E-02  0.8044584E-01
        1   -1    0    0  501    0  0.00000000000E+00  0.00000000000E+00  0.14041709782E+04  0.14041709782E+04  0.50400001928E-02 0.  1.
       -1   -1    0    0    0  501  0.00000000000E+00  0.00000000000E+00 -0.25808359047E+04  0.25808359047E+04  0.50400001928E-02 0. -1.
    10030    2    1    2    0    0  0.00000000000E+00  0.00000000000E+00 -0.11766649266E+04  0.39850068829E+04  0.38073270818E+04 0.  0.
        3    1    3    3  502    0 -0.17352674159E+04  0.63301977989E+03 -0.10703316151E+04  0.21348247757E+04  0.10100000352E+00 0. -1.
       -3    1    3    3    0  502  0.17352674159E+04 -0.63301977989E+03 -0.10633331149E+03  0.18501821072E+04  0.10100000352E+00 0.  1.
</event>
<event>
 5   0  0.5134434E-07  0.3744468E+04  0.7818609E-02  0.8058178E-01
        2   -1    0    0  501    0  0.00000000000E+00  0.00000000000E+00  0.15469719574E+04  0.15469719574E+04  0.25500000920E-02 0. -1.
       -2   -1    0    0    0  501  0.00000000000E+00  0.00000000000E+00 -0.22658848123E+04  0.22658848123E+04  0.25500000920E-02 0.  1.
    10030    2    1    2    0    0  0.00000000000E+00  0.00000000000E+00 -0.71891285485E+03  0.38128567697E+04  0.37444680601E+04 0.  0.
        5    1    3    3  502    0  0.15864879509E+03  0.12835878665E+04 -0.17378679878E+04  0.21663274185E+04  0.46999998093E+01 0.  1.
       -5    1    3    3    0  502 -0.15864879509E+03 -0.12835878665E+04  0.10189551330E+04  0.16465293511E+04  0.46999998093E+01 0. -1.
</event>
<event>
 5   0  0.1656617E-07  0.3780417E+04  0.7818609E-02  0.8050370E-01
        1   -1    0    0  501    0  0.00000000000E+00  0.00000000000E+00  0.20631054003E+04  0.20631054004E+04  0.50400001928E-02 0. -1.
       -1   -1    0    0    0  501  0.00000000000E+00  0.00000000000E+00 -0.17318014054E+04  0.17318014054E+04  0.50400001928E-02 0.  1.
    10030    2    1    2    0    0  0.00000000000E+00  0.00000000000E+00  0.33130399499E+03  0.37949068057E+04  0.37804173483E+04 0.  0.
        5    1    3    3  502    0 -0.24366066238E+03 -0.80209781573E+03  0.18662926408E+04  0.20459231988E+04  0.46999998093E+01 0. -1.
       -5    1    3    3    0  502  0.24366066238E+03  0.80209781573E+03 -0.15349886458E+04  0.17489836069E+04  0.46999998093E+01 0.  1.
</event>
<event>
 5   0  0.5202788E-07  0.3814134E+04  0.7818609E-02  0.8043129E-01
        2   -1    0    0  501    0  0.00000000000E+00  0.00000000000E+00  0.23450068220E+04  0.23450068220E+04  0.25500000920E-02 0. -1.
       -2   -1    0    0    0  501  0.00000000000E+00  0.00000000000E+00 -0.15509141604E+04  0.15509141604E+04  0.25500000920E-02 0.  1.
    10030    2    1    2    0    0  0.00000000000E+00  0.00000000000E+00  0.79409266161E+03  0.38959209823E+04  0.38141338657E+04 0.  0.
        1    1    3    3  502    0 -0.69779921672E+03  0.16001863949E+04  0.11812220563E+04  0.21077964303E+04  0.50400001928E-02 0. -1.
       -1    1    3    3    0  502  0.69779921672E+03 -0.16001863949E+04 -0.38712939467E+03  0.17881245520E+04  0.50400001928E-02 0.  1.
</event>
<event>
 5   0  0.1648000E-07  0.3778447E+04  0.7818609E-02  0.8050796E-01
        1   -1    0    0  501    0  0.00000000000E+00  0.00000000000E+00  0.28521704754E+04  0.28521704754E+04  0.50400001928E-02 0.  1.
       -1   -1    0    0    0  501  0.00000000000E+00  0.00000000000E+00 -0.12513854148E+04  0.12513854148E+04  0.50400001928E-02 0. -1.
    10030    2    1    2    0    0  0.00000000000E+00  0.00000000000E+00  0.16007850607E+04  0.41035558902E+04  0.37784465239E+04 0.  0.
        3    1    3    3  502    0  0.14584954212E+04 -0.11069786694E+04  0.29499858748E+03  0.18546252573E+04  0.10100000352E+00 0. -1.
       -3    1    3    3    0  502 -0.14584954212E+04  0.11069786694E+04  0.13057864732E+04  0.22489306330E+04  0.10100000352E+00 0.  1.
</event>
<event>
 5   0  0.1648000E-07  0.3668128E+04  0.7818609E-02  0.8075062E-01
        1   -1    0    0  501    0  0.00000000000E+00  0.00000000000E+00  0.11193852126E+04  0.11193852126E+04  0.50400001928E-02 0. -1.
       -1   -1    0    0    0  501  0.00000000000E+00  0.00000000000E+00 -0.30050344634E+04  0.30050344634E+04  0.50400001928E-02 0.  1.
    10030    2    1    2    0    0  0.00000000000E+00  0.00000000000E+00 -0.18856492508E+04  0.41244196760E+04  0.36681282102E+04 0.  0.
        4    1    3    3  502    0 -0.41880622432E+03  0.83852729256E+03  0.82974991621E+03  0.12518039824E+04  0.12699999809E+01 0. -1.
       -4    1    3    3    0  502  0.41880622432E+03 -0.83852729256E+03 -0.27153991670E+04  0.28726156936E+04  0.12699999809E+01 0.  1.
</event>
<event>
 5   0  0.5202788E-07  0.3591871E+04  0.7818609E-02  0.8092356E-01
       -2   -1    0    0    0  501  0.00000000000E+00  0.00000000000E+00  0.17657134339E+04  0.17657134339E+04  0.25500000920E-02 0. -1.
        2   -1    0    0  501    0  0.00000000000E+00  0.00000000000E+00 -0.18266746733E+04  0.18266746733E+04  0.25500000920E-02 0.  1.
    10030    2    1    2    0    0  0.00000000000E+00  0.00000000000E+00 -0.60961239460E+02  0.35923881072E+04  0.35918708273E+04 0.  0.
        1    1    3    3  502    0  0.15433137484E+04  0.34135212883E+03 -0.88327299357E+03  0.18106655635E+04  0.50400001928E-02 0.  1.
       -1    1    3    3    0  502 -0.15433137484E+04 -0.34135212883E+03  0.82231175412E+03  0.17817225437E+04  0.50400001928E-02 0. -1.
</event>
<event>
 5   0  0.5132561E-07  0.3819496E+04  0.7818609E-02  0.8041984E-01
       -2   -1    0    0    0  501  0.00000000000E+00  0.00000000000E+00  0.17260534897E+04  0.17260534897E+04  0.25500000920E-02 0. -1.
        2   -1    0    0  501    0  0.00000000000E+00  0.00000000000E+00 -0.21129917431E+04  0.21129917431E+04  0.25500000920E-02 0.  1.
    10030    2    1    2    0    0  0.00000000000E+00  0.00000000000E+00 -0.38693825337E+03  0.38390452328E+04  0.38194956588E+04 0.  0.
        3    1    3    3  502    0  0.12939797053E+04 -0.14003908605E+04 -0.84940906491E+02  0.19085840321E+04  0.10100000352E+00 0.  1.
       -3    1    3    3    0  502 -0.12939797053E+04  0.14003908605E+04 -0.30199734688E+03  0.19304612007E+04  0.10100000352E+00 0. -1.
</event>
<event>
 5   0  0.5202788E-07  0.3725901E+04  0.7818609E-02  0.8062246E-01
       -2   -1    0    0    0  501  0.00000000000E+00  0.00000000000E+00  0.12184870583E+04  0.12184870583E+04  0.25500000920E-02 0. -1.
        2   -1    0    0  501    0  0.00000000000E+00  0.00000000000E+00 -0.28482730908E+04  0.28482730908E+04  0.25500000920E-02 0.  1.
    10030    2    1    2    0    0  0.00000000000E+00  0.00000000000E+00 -0.16297860325E+04  0.40667601492E+04  0.37259006427E+04 0.  0.
        1    1    3    3  502    0 -0.13189827274E+04  0.11866623578E+04 -0.19485632953E+03  0.17848955083E+04  0.50400001928E-02 0. -1.
       -1    1    3    3    0  502  0.13189827274E+04 -0.11866623578E+04 -0.14349297030E+04  0.22818646408E+04  0.50400001928E-02 0.  1.
</event>
<event>
 5   0  0.5132561E-07  0.3838118E+04  0.7818609E-02  0.8038024E-01
        2   -1    0    0  501    0  0.00000000000E+00  0.00000000000E+00  0.20988281882E+04  0.20988281882E+04  0.25500000920E-02 0. -1.
       -2   -1    0    0    0  501  0.00000000000E+00  0.00000000000E+00 -0.17546878198E+04  0.17546878198E+04  0.25500000920E-02 0.  1.
    10030    2    1    2    0    0  0.00000000000E+00  0.00000000000E+00  0.34414036845E+03  0.38535160080E+04  0.38381184232E+04 0.  0.
        3    1    3    3  502    0 -0.42959037719E+03  0.13174050279E+04 -0.11609172976E+04  0.18077148231E+04  0.10100000352E+00 0.  1.
       -3    1    3    3    0  502  0.42959037719E+03 -0.13174050279E+04  0.15050576660E+04  0.20458011849E+04  0.10100000352E+00 0. -1.
</event>
<event>
 5   0  0.5158266E-07  0.2713814E+04  0.7818609E-02  0.8330537E-01
       -2   -1    0    0    0  501  0.00000000000E+00  0.00000000000E+00  0.11068203762E+04  0.11068203762E+04  0.25500000920E-02 0.  1.
        2   -1    0    0  501    0  0.00000000000E+00  0.00000000000E+00 -0.16635002130E+04  0.16635002130E+04  0.25500000920E-02 0. -1.
    10030    2    1    2    0    0  0.00000000000E+00  0.00000000000E+00 -0.55667983677E+03  0.27703205892E+04  0.27138135025E+04 0.  0.
        2    1    3    3  502    0  0.82099624037E+03 -0.98495735819E+03 -0.73145164979E+03  0.14762104661E+04  0.25500000920E-02 0. -1.
       -2    1    3    3    0  502 -0.82099624037E+03  0.98495735819E+03  0.17477181302E+03  0.12941101231E+04  0.25500000920E-02 0.  1.
</event>
<event>
 5   0  0.5202788E-07  0.3791943E+04  0.7818609E-02  0.8047886E-01
        2   -1    0    0  501    0  0.00000000000E+00  0.00000000000E+00  0.13475483134E+04  0.13475483134E+04  0.25500000920E-02 0. -1.
       -2   -1    0    0    0  501  0.00000000000E+00  0.00000000000E+00 -0.26675912631E+04  0.26675912631E+04  0.25500000920E-02 0.  1.
    10030    2    1    2    0    0  0.00000000000E+00  0.00000000000E+00 -0.13200429497E+04  0.40151395765E+04  0.37919430942E+04 0.  0.
        1    1    3    3  502    0  0.26821854569E+03  0.76804463037E+03  0.11533449302E+04  0.14113958589E+04  0.50400001928E-02 0. -1.
       -1    1    3    3    0  502 -0.26821854569E+03 -0.76804463037E+03 -0.24733878799E+04  0.26037437176E+04  0.50400001928E-02 0.  1.
</event>
<event>
 5   0  0.1656617E-07  0.3834629E+04  0.7818609E-02  0.8038764E-01
        1   -1    0    0  501    0  0.00000000000E+00  0.00000000000E+00  0.27729316523E+04  0.27729316523E+04  0.50400001928E-02 0.  1.
       -1   -1    0    0    0  501  0.00000000000E+00  0.00000000000E+00 -0.13257066941E+04  0.13257066941E+04  0.50400001928E-02 0. -1.
    10030    2    1    2    0    0  0.00000000000E+00  0.00000000000E+00  0.14472249582E+04  0.40986383464E+04  0.38346285628E+04 0.  0.
        5    1    3    3  502    0 -0.17200090169E+04  0.32689746768E+03  0.15589429836E+04  0.23442735098E+04  0.46999998093E+01 0.  1.
       -5    1    3    3    0  502  0.17200090169E+04 -0.32689746768E+03 -0.11171802541E+03  0.17543648366E+04  0.46999998093E+01 0. -1.
</event>
<event>
 5   0  0.1656617E-07  0.3755096E+04  0.7818609E-02  0.8055860E-01
       -1   -1    0    0    0  501  0.00000000000E+00  0.00000000000E+00  0.14304033176E+04  0.14304033177E+04  0.50400001928E-02 0.  1.
        1   -1    0    0  501    0  0.00000000000E+00  0.00000000000E+00 -0.24644706578E+04  0.24644706578E+04  0.50400001928E-02 0. -1.
    10030    2    1    2    0    0  0.00000000000E+00  0.00000000000E+00 -0.10340673402E+04  0.38948739755E+04  0.37550962732E+04 0.  0.
        5    1    3    3  502    0 -0.10086784866E+04  0.80222772619E+03 -0.19332001515E+04  0.23234212984E+04  0.46999998093E+01 0. -1.
       -5    1    3    3    0  502  0.10086784866E+04 -0.80222772619E+03  0.89913281133E+03  0.15714526771E+04  0.46999998093E+01 0.  1.
</event>
<event>
 5   0  0.5158266E-07  0.3811986E+04  0.7818609E-02  0.8043588E-01
       -2   -1    0    0    0  501  0.00000000000E+00  0.00000000000E+00  0.16609341605E+04  0.16609341605E+04  0.25500000920E-02 0. -1.
        2   -1    0    0  501    0  0.00000000000E+00  0.00000000000E+00 -0.21872089617E+04  0.21872089617E+04  0.25500000920E-02 0.  1.
    10030    2    1    2    0    0  0.00000000000E+00  0.00000000000E+00 -0.52627480115E+03  0.38481431222E+04  0.38119864011E+04 0.  0.
        2    1    3    3  502    0 -0.12047343729E+04 -0.10252733416E+04  0.81007371309E+03  0.17772984429E+04  0.25500000920E-02 0. -1.
       -2    1    3    3    0  502  0.12047343729E+04  0.10252733416E+04 -0.13363485142E+04  0.20708446793E+04  0.25500000920E-02 0.  1.
</event>
<event>
 5   0  0.1648000E-07  0.3799821E+04  0.7818609E-02  0.8046193E-01
        1   -1    0    0  501    0  0.00000000000E+00  0.00000000000E+00  0.20639456915E+04  0.20639456915E+04  0.50400001928E-02 0. -1.
       -1   -1    0    0    0  501  0.00000000000E+00  0.00000000000E+00 -0.17489125801E+04  0.17489125801E+04  0.50400001928E-02 0.  1.
    10030    2    1    2    0    0  0.00000000000E+00  0.00000000000E+00  0.31503311141E+03  0.38128582716E+04  0.37998213561E+04 0.  0.
        3    1    3    3  502    0 -0.87139858401E+03  0.16529925488E+04  0.50211980044E+03  0.19349015900E+04  0.10100000352E+00 0. -1.
       -3    1    3    3    0  502  0.87139858401E+03 -0.16529925488E+04 -0.18708668902E+03  0.18779566816E+04  0.10100000352E+00 0.  1.
</event>
<event>
 5   0  0.1656617E-07  0.3780387E+04  0.7818609E-02  0.8050377E-01
        1   -1    0    0  501    0  0.00000000000E+00  0.00000000000E+00  0.13491435652E+04  0.13491435652E+04  0.50400001928E-02 0.  1.
       -1   -1    0    0    0  501  0.00000000000E+00  0.00000000000E+00 -0.26482222850E+04  0.26482222850E+04  0.50400001928E-02 0. -1.
    10030    2    1    2    0    0  0.00000000000E+00  0.00000000000E+00 -0.12990787198E+04  0.39973658502E+04  0.37803873109E+04 0.  0.
        5    1    3    3  502    0 -0.50847947349E+03  0.46368421996E+03 -0.25110533045E+04  0.26036446030E+04  0.46999998093E+01 0. -1.
       -5    1    3    3    0  502  0.50847947349E+03 -0.46368421996E+03  0.12119745847E+04  0.13937212472E+04  0.46999998093E+01 0.  1.
</event>
<event>
 5   0  0.5134434E-07  0.3350880E+04  0.7818609E-02  0.8150068E-01
        2   -1    0    0  501    0  0.00000000000E+00  0.00000000000E+00  0.20934262816E+04  0.20934262816E+04  0.25500000920E-02 0.  1.
       -2   -1    0    0    0  501  0.00000000000E+00  0.00000000000E+00 -0.13409114353E+04  0.13409114353E+04  0.25500000920E-02 0. -1.
    10030    2    1    2    0    0  0.00000000000E+00  0.00000000000E+00  0.75251484637E+03  0.34343377169E+04  0.33508800277E+04 0.  0.
        5    1    3    3  502    0  0.14236113659E+04 -0.67157532703E+03 -0.21196588873E+03  0.15882803182E+04  0.46999998093E+01 0.  1.
       -5    1    3    3    0  502 -0.14236113659E+04  0.67157532703E+03  0.96448073510E+03  0.18460573987E+04  0.46999998093E+01 0. -1.
</event>
<event>
 5   0  0.5132561E-07  0.3825609E+04  0.7818609E-02  0.8040682E-01
       -2   -1    0    0    0  501  0.00000000000E+00  0.00000000000E+00  0.25251667947E+04  0.25251667947E+04  0.25500000920E-02 0. -1.
        2   -1    0    0  501    0  0.00000000000E+00  0.00000000000E+00 -0.14489422369E+04  0.14489422369E+04  0.25500000920E-02 0.  1.
    10030    2    1    2    0    0  0.00000000000E+00  0.00000000000E+00  0.10762245578E+04  0.39741090315E+04  0.38256088791E+04 0.  0.
        3    1    3    3  502    0  0.14928662854E+04 -0.59939861377E+03 -0.53689677822E+03  0.16959323704E+04  0.10100000352E+00 0.  1.
       -3    1    3    3    0  502 -0.14928662854E+04  0.59939861377E+03  0.16131213360E+04  0.22781766611E+04  0.10100000352E+00 0. -1.
</event>
<event>
 5   0  0.1648000E-07  0.3889177E+04  0.7818609E-02  0.8027284E-01
        3   -1    0    0  501    0  0.00000000000E+00  0.00000000000E+00  0.13040457482E+04  0.13040457521E+04  0.10100000352E+00 0.  1.
       -3   -1    0    0    0  501  0.00000000000E+00  0.00000000000E+00 -0.28997642039E+04  0.28997642057E+04  0.10100000352E+00 0. -1.
    10030    2    1    2    0    0  0.00000000000E+00  0.00000000000E+00 -0.15957184557E+04  0.42038099578E+04  0.38891773900E+04 0.  0.
        2    1    3    3  502    0  0.17275515570E+04  0.23817637246E+03 -0.17278492581E+04  0.24549186188E+04  0.25500000920E-02 0. -1.
       -2    1    3    3    0  502 -0.17275515570E+04 -0.23817637246E+03  0.13213080239E+03  0.17488913389E+04  0.25500000920E-02 0.  1.
</event>
<event>
 5   0  0.5158266E-07  0.3792717E+04  0.7818609E-02  0.8047720E-01
        2   -1    0    0  501    0  0.00000000000E+00  0.00000000000E+00  0.19436675225E+04  0.19436675225E+04  0.25500000920E-02 0.  1.
       -2   -1    0    0    0  501  0.00000000000E+00  0.00000000000E+00 -0.18502005802E+04  0.18502005802E+04  0.25500000920E-02 0. -1.
    10030    2    1    2    0    0  0.00000000000E+00  0.00000000000E+00  0.93466942319E+02  0.37938681026E+04  0.37927165872E+04 0.  0.
        2    1    3    3  502    0 -0.42450963395E+03 -0.18288754782E+04  0.31361183860E+03  0.19035089517E+04  0.25500000920E-02 0. -1.
       -2    1    3    3    0  502  0.42450963395E+03  0.18288754782E+04 -0.22014489628E+03  0.18903591509E+04  0.25500000920E-02 0.  1.
</event>
<event>
 5   0  0.1648000E-07  0.3769003E+04  0.7818609E-02  0.8052840E-01
        1   -1    0    0  501    0  0.00000000000E+00  0.00000000000E+00  0.23159809246E+04  0.23159809246E+04  0.50400001928E-02 0.  1.
       -1   -1    0    0    0  501  0.00000000000E+00  0.00000000000E+00 -0.15334085608E+04  0.15334085608E+04  0.50400001928E-02 0. -1.
    10030    2    1    2    0    0  0.00000000000E+00  0.00000000000E+00  0.78257236381E+03  0.38493894853E+04  0.37690025080E+04 0.  0.
        1    1    3    3  502    0  0.11600198220E+04  0.71831566540E+03  0.17189037978E+04  0.21945964660E+04  0.50400001928E-02 0.  1.
       -1    1    3    3    0  502 -0.11600198220E+04 -0.71831566540E+03 -0.93633143395E+03  0.16547930193E+04  0.50400001928E-02 0. -1.
</event>
<event>
 5   0  0.5132561E-07  0.3821526E+04  0.7818609E-02  0.8041551E-01
       -2   -1    0    0    0  501  0.00000000000E+00  0.00000000000E+00  0.29389504674E+04  0.29389504674E+04  0.25500000920E-02 0. -1.
        2   -1    0    0  501    0  0.00000000000E+00  0.00000000000E+00 -0.12422857168E+04  0.12422857168E+04  0.25500000920E-02 0.  1.
    10030    2    1    2    0    0  0.00000000000E+00  0.00000000000E+00  0.16966647506E+04  0.41812361843E+04  0.38215264951E+04 0.  0.
        3    1    3    3  502    0  0.32753272339E+03  0.16604462793E+04  0.18187539279E+04  0.24843963838E+04  0.10100000352E+00 0. -1.
       -3    1    3    3    0  502 -0.32753272339E+03 -0.16604462793E+04 -0.12208917726E+03  0.16968398005E+04  0.10100000352E+00 0.  1.
</event>
<event>
 5   0  0.1648000E-07  0.3527001E+04  0.7818609E-02  0.8107421E-01
        1   -1    0    0  501    0  0.00000000000E+00  0.00000000000E+00  0.20788788512E+04  0.20788788512E+04  0.50400001928E-02 0. -1.
       -1   -1    0    0    0  501  0.00000000000E+00  0.00000000000E+00 -0.14959668671E+04  0.14959668671E+04  0.50400001928E-02 0.  1.
    10030    2    1    2    0    0  0.00000000000E+00  0.00000000000E+00  0.58291198413E+03  0.35748457184E+04  0.35270009255E+04 0.  0.
        2    1    3    3  502    0  0.37920676143E+03  0.10104729017E+04  0.17050364552E+04  0.20179203568E+04  0.25500000920E-02 0. -1.
       -2    1    3    3    0  502 -0.37920676143E+03 -0.10104729017E+04 -0.11221244710E+04  0.15569253616E+04  0.25500000920E-02 0.  1.
</event>
<event>
 5   0  0.1648000E-07  0.3800541E+04  0.7818609E-02  0.8046039E-01
       -1   -1    0    0    0  501  0.00000000000E+00  0.00000000000E+00  0.30877104041E+04  0.30877104041E+04  0.50400001928E-02 0. -1.
        1   -1    0    0  501    0  0.00000000000E+00  0.00000000000E+00 -0.11694840316E+04  0.11694840316E+04  0.50400001928E-02 0.  1.
    10030    2    1    2    0    0  0.00000000000E+00  0.00000000000E+00  0.19182263725E+04  0.42571944357E+04  0.38005410203E+04 0.  0.
        3    1    3    3  502    0  0.16894733556E+03  0.18745217684E+04  0.66561350835E+03  0.19963507745E+04  0.10100000352E+00 0.  1.
       -3    1    3    3    0  502 -0.16894733556E+03 -0.18745217684E+04  0.12526128642E+04  0.22608436611E+04  0.10100000352E+00 0. -1.
</event>
<event>
 5   0  0.1656617E-07  0.3822660E+04  0.7818609E-02  0.8041310E-01
        1   -1    0    0  501    0  0.00000000000E+00  0.00000000000E+00  0.22549976997E+04  0.22549976997E+04  0.50400001928E-02 0. -1.
       -1   -1    0    0    0  501  0.00000000000E+00  0.00000000000E+00 -0.16200381236E+04  0.16200381236E+04  0.50400001928E-02 0.  1.
    10030    2    1    2    0    0  0.00000000000E+00  0.00000000000E+00  0.63495957603E+03  0.38750358233E+04  0.38226599337E+04 0.  0.
        5    1    3    3  502    0 -0.29170798940E+03  0.11617701857E+04  0.18273017584E+04  0.21849158615E+04  0.46999998093E+01 0. -1.
       -5    1    3    3    0  502  0.29170798940E+03 -0.11617701857E+04 -0.11923421824E+04  0.16901199618E+04  0.46999998093E+01 0.  1.
</event>
<event>
 5   0  0.1648000E-07  0.3785404E+04  0.7818609E-02  0.8049294E-01
       -1   -1    0    0    0  501  0.00000000000E+00  0.00000000000E+00  0.16065764435E+04  0.16065764435E+04  0.50400001928E-02 0. -1.
        1   -1    0    0  501    0  0.00000000000E+00  0.00000000000E+00 -0.22297855598E+04  0.22297855598E+04  0.50400001928E-02 0.  1.
    10030    2    1    2    0    0  0.00000000000E+00  0.00000000000E+00 -0.62320911627E+03  0.38363620033E+04  0.37854040495E+04 0.  0.
        2    1    3    3  502    0  0.92357505634E+03 -0.12434379316E+04  0.79078472828E+03  0.17391001296E+04  0.25500000920E-02 0. -1.
       -2    1    3    3    0  502 -0.92357505634E+03  0.12434379316E+04 -0.14139938446E+04  0.20972618737E+04  0.25500000920E-02 0.  1.
</event>
<event>
 5   0  0.5325362E-07  0.2919555E+04  0.7818609E-02  0.8267083E-01
        2   -1    0    0  501    0  0.00000000000E+00  0.00000000000E+00  0.29792098691E+04  0.29792098691E+04  0.25500000920E-02 0. -1.
       -2   -1    0    0    0  501  0.00000000000E+00  0.00000000000E+00 -0.71527364099E+03  0.71527364099E+03  0.25500000920E-02 0.  1.
    10030    2    1    2    0    0  0.00000000000E+00  0.00000000000E+00  0.22639362281E+04  0.36944835101E+04  0.29195549595E+04 0.  0.
        4    1    3    3  502    0  0.13855742630E+04 -0.44109235810E+03  0.96907580848E+03  0.17474232579E+04  0.12699999809E+01 0.  1.
       -4    1    3    3    0  502 -0.13855742630E+04  0.44109235810E+03  0.12948604196E+04  0.19470602522E+04  0.12699999809E+01 0. -1.
</event>
<event>
 5   0  0.1648000E-07  0.3795459E+04  0.7818609E-02  0.8047130E-01
       -1   -1    0    0    0  501  0.00000000000E+00  0.00000000000E+00  0.21508889544E+04  0.21508889544E+04  0.50400001928E-02 0.  1.
        1   -1    0    0  501    0  0.00000000000E+00  0.00000000000E+00 -0.16743668428E+04  0.16743668428E+04  0.50400001928E-02 0. -1.
    10030    2    1    2    0    0  0.00000000000E+00  0.00000000000E+00  0.47652211159E+03  0.38252557972E+04  0.37954589434E+04 0.  0.
        4    1    3    3  502    0 -0.12626665563E+04 -0.71346930045E+03  0.14718020246E+04  0.20662933208E+04  0.12699999809E+01 0.  1.
       -4    1    3    3    0  502  0.12626665563E+04  0.71346930045E+03 -0.99527991304E+03  0.17589624764E+04  0.12699999809E+01 0. -1.
</event>
<event>
 5   0  0.1656617E-07  0.3014442E+04  0.7818609E-02  0.8239619E-01
        1   -1    0    0  501    0  0.00000000000E+00  0.00000000000E+00  0.18267328800E+04  0.18267328800E+04  0.50400001928E-02 0. -1.
       -1   -1    0    0    0  501  0.00000000000E+00  0.00000000000E+00 -0.12435948865E+04  0.12435948866E+04  0.50400001928E-02 0.  1.
    10030    2    1    2    0    0  0.00000000000E+00  0.00000000000E+00  0.58313799350E+03  0.30703277666E+04  0.30144423489E+04 0.  0.
        5    1    3    3  502    0  0.92207053023E+03 -0.69626598915E+03  0.12773409072E+04  0.17223885373E+04  0.46999998093E+01 0. -1.
       -5    1    3    3    0  502 -0.92207053023E+03  0.69626598915E+03 -0.69420291370E+03  0.13479392293E+04  0.46999998093E+01 0.  1.
</event>
<event>
 5   0  0.1648000E-07  0.3831499E+04  0.7818609E-02  0.8039429E-01
        1   -1    0    0  501    0  0.00000000000E+00  0.00000000000E+00  0.19059203141E+04  0.19059203141E+04  0.50400001928E-02 0.  1.
       -1   -1    0    0    0  501  0.00000000000E+00  0.00000000000E+00 -0.19256298083E+04  0.19256298083E+04  0.50400001928E-02 0. -1.
    10030    2    1    2    0    0  0.00000000000E+00  0.00000000000E+00 -0.19709494217E+02  0.38315501224E+04  0.38314994292E+04 0.  0.
        2    1    3    3  502    0  0.21256038216E+03 -0.11933947490E+04  0.14736486267E+04  0.19081439197E+04  0.25500000920E-02 0.  1.
       -2    1    3    3    0  502 -0.21256038216E+03  0.11933947490E+04 -0.14933581210E+04  0.19234062027E+04  0.25500000920E-02 0. -1.
</event>
<event>
 5   0  0.5202788E-07  0.3732194E+04  0.7818609E-02  0.8060865E-01
       -2   -1    0    0    0  501  0.00000000000E+00  0.00000000000E+00  0.23604801981E+04  0.23604801981E+04  0.25500000920E-02 0. -1.
        2   -1    0    0  501    0  0.00000000000E+00  0.00000000000E+00 -0.14752580846E+04  0.14752580846E+04  0.25500000920E-02 0.  1.
    10030    2    1    2    0    0  0.00000000000E+00  0.00000000000E+00  0.88522211342E+03  0.38357382827E+04  0.37321937226E+04 0.  0.
        1    1    3    3  502    0 -0.28986249367E+03 -0.15246755588E+04 -0.62231269537E+03  0.16721031414E+04  0.50400001928E-02 0.  1.
       -1    1    3    3    0  502  0.28986249367E+03  0.15246755588E+04  0.15075348088E+04  0.21636351413E+04  0.50400001928E-02 0. -1.
</event>
<event>
 5   0  0.5132561E-07  0.3577603E+04  0.7818609E-02  0.8095641E-01
       -2   -1    0    0    0  501  0.00000000000E+00  0.00000000000E+00  0.15650595427E+04  0.15650595427E+04  0.25500000920E-02 0. -1.
        2   -1    0    0  501    0  0.00000000000E+00  0.00000000000E+00 -0.20445294846E+04  0.20445294846E+04  0.25500000920E-02 0.  1.
    10030    2    1    2    0    0  0.00000000000E+00  0.00000000000E+00 -0.47946994194E+03  0.36095890273E+04  0.35776027617E+04 0.  0.
        3    1    3    3  502    0  0.14586641458E+04  0.99890942598E+03  0.35262432515E+02  0.17682659814E+04  0.10100000352E+00 0. -1.
       -3    1    3    3    0  502 -0.14586641458E+04 -0.99890942598E+03 -0.51473237446E+03  0.18413230459E+04  0.10100000352E+00 0.  1.
</event>
<event>
 5   0  0.5132561E-07  0.3717947E+04  0.7818609E-02  0.8063996E-01
       -2   -1    0    0    0  501  0.00000000000E+00  0.00000000000E+00  0.24602462087E+04  0.24602462087E+04  0.25500000920E-02 0. -1.
        2   -1    0    0  501    0  0.00000000000E+00  0.00000000000E+00 -0.14046490470E+04  0.14046490470E+04  0.25500000920E-02 0.  1.
    10030    2    1    2    0    0  0.00000000000E+00  0.00000000000E+00  0.10555971617E+04  0.38648952556E+04  0.37179470100E+04 0.  0.
        3    1    3    3  502    0 -0.17140564039E+04 -0.49135638145E+03  0.10742778884E+04  0.20817044557E+04  0.10100000352E+00 0.  1.
       -3    1    3    3    0  502  0.17140564039E+04  0.49135638145E+03 -0.18680726676E+02  0.17831907999E+04  0.10100000352E+00 0. -1.
</event>
<event>
 5   0  0.1648000E-07  0.3798753E+04  0.7818609E-02  0.8046422E-01
       -1   -1    0    0    0  501  0.00000000000E+00  0.00000000000E+00  0.25765751175E+04  0.25765751175E+04  0.50400001928E-02 0. -1.
        1   -1    0    0  501    0  0.00000000000E+00  0.00000000000E+00 -0.14001655135E+04  0.14001655135E+04  0.50400001928E-02 0.  1.
    10030    2    1    2    0    0  0.00000000000E+00  0.00000000000E+00  0.11764096040E+04  0.39767406311E+04  0.37987532811E+04 0.  0.
        4    1    3    3  502    0  0.11972747366E+04 -0.49927820232E+03  0.20406124098E+04  0.24180252559E+04  0.12699999809E+01 0. -1.
       -4    1    3    3    0  502 -0.11972747366E+04  0.49927820232E+03 -0.86420280581E+03  0.15587153752E+04  0.12699999809E+01 0.  1.
</event>
<event>
 5   0  0.5202788E-07  0.3686407E+04  0.7818609E-02  0.8070981E-01
       -2   -1    0    0    0  501  0.00000000000E+00  0.00000000000E+00  0.12767243365E+04  0.12767243365E+04  0.25500000920E-02 0.  1.
        2   -1    0    0  501    0  0.00000000000E+00  0.00000000000E+00 -0.26610284750E+04  0.26610284750E+04  0.25500000920E-02 0. -1.
    10030    2    1    2    0    0  0.00000000000E+00  0.00000000000E+00 -0.13843041385E+04  0.39377528116E+04  0.36864073645E+04 0.  0.
        1    1    3    3  502    0  0.10215879241E+04  0.90193565842E+03  0.63354273143E+03  0.15028327289E+04  0.50400001928E-02 0.  1.
       -1    1    3    3    0  502 -0.10215879241E+04 -0.90193565842E+03 -0.20178468699E+04  0.24349200827E+04  0.50400001928E-02 0. -1.
</event>
<event>
 5   0  0.1648000E-07  0.3797209E+04  0.7818609E-02  0.8046754E-01
       -1   -1    0    0    0  501  0.00000000000E+00  0.00000000000E+00  0.20991818065E+04  0.20991818065E+04  0.50400001928E-02 0. -1.
        1   -1    0    0  501    0  0.00000000000E+00  0.00000000000E+00 -0.17171927818E+04  0.17171927818E+04  0.50400001928E-02 0.  1.
    10030    2    1    2    0    0  0.00000000000E+00  0.00000000000E+00  0.38198902470E+03  0.38163745883E+04  0.37972094205E+04 0.  0.
        2    1    3    3  502    0  0.64100430552E+03 -0.60546976062E+03  0.18809148187E+04  0.20773350009E+04  0.25500000920E-02 0. -1.
       -2    1    3    3    0  502 -0.64100430552E+03  0.60546976062E+03 -0.14989257940E+04  0.17390395874E+04  0.25500000920E-02 0.  1.
</event>
<event>
 5   0  0.1648000E-07  0.3847875E+04  0.7818609E-02  0.8035958E-01
       -1   -1    0    0    0  501  0.00000000000E+00  0.00000000000E+00  0.20468591277E+04  0.20468591277E+04  0.50400001928E-02 0. -1.
        1   -1    0    0  501    0  0.00000000000E+00  0.00000000000E+00 -0.18083976596E+04  0.18083976596E+04  0.50400001928E-02 0.  1.
    10030    2    1    2    0    0  0.00000000000E+00  0.00000000000E+00  0.23846146812E+03  0.38552567873E+04  0.38478748712E+04 0.  0.
        3    1    3    3  502    0 -0.21834544007E+03  0.18479956442E+04 -0.37035034648E+03  0.18973460468E+04  0.10100000352E+00 0.  1.
       -3    1    3    3    0  502  0.21834544007E+03 -0.18479956442E+04  0.60881181460E+03  0.19579107405E+04  0.10100000352E+00 0. -1.
</event>
<event>
 5   0  0.1656617E-07  0.3827546E+04  0.7818609E-02  0.8040269E-01
       -1   -1    0    0    0  501  0.00000000000E+00  0.00000000000E+00  0.24431355155E+04  0.24431355155E+04  0.50400001928E-02 0. -1.
        1   -1    0    0  501    0  0.00000000000E+00  0.00000000000E+00 -0.14991093860E+04  0.14991093860E+04  0.50400001928E-02 0.  1.
    10030    2    1    2    0    0  0.00000000000E+00  0.00000000000E+00  0.94402612943E+03  0.39422449015E+04  0.38275461500E+04 0.  0.
        5    1    3    3  502    0  0.12140664810E+04  0.13744065432E+04 -0.91703903497E+02  0.18361324740E+04  0.46999998093E+01 0.  1.
       -5    1    3    3    0  502 -0.12140664810E+04 -0.13744065432E+04  0.10357300329E+04  0.21061124275E+04  0.46999998093E+01 0. -1.
</event>
<event>
 5   0  0.5158266E-07  0.3858170E+04  0.7818609E-02  0.8033786E-01
       -2   -1    0    0    0  501  0.00000000000E+00  0.00000000000E+00  0.18584621853E+04  0.18584621853E+04  0.25500000920E-02 0. -1.
        2   -1    0    0  501    0  0.00000000000E+00  0.00000000000E+00 -0.20023910471E+04  0.20023910471E+04  0.25500000920E-02 0.  1.
    10030    2    1    2    0    0  0.00000000000E+00  0.00000000000E+00 -0.14392886184E+03  0.38608532324E+04  0.38581695356E+04 0.  0.
        2    1    3    3  502    0  0.28619491564E+03 -0.55310575219E+03 -0.18990313934E+04  0.19985378996E+04  0.25500000920E-02 0.  1.
       -2    1    3    3    0  502 -0.28619491564E+03  0.55310575219E+03  0.17551025316E+04  0.18623153329E+04  0.25500000920E-02 0. -1.
</event>
<event>
 5   0  0.5202788E-07  0.3760725E+04  0.7818609E-02  0.8054636E-01
       -2   -1    0    0    0  501  0.00000000000E+00  0.00000000000E+00  0.11960866348E+04  0.11960866348E+04  0.25500000920E-02 0. -1.
        2   -1    0    0  501    0  0.00000000000E+00  0.00000000000E+00 -0.29561099256E+04  0.29561099256E+04  0.25500000920E-02 0.  1.
    10030    2    1    2    0    0  0.00000000000E+00  0.00000000000E+00 -0.17600232907E+04  0.41521965604E+04  0.37607252349E+04 0.  0.
        1    1    3    3  502    0 -0.92210562262E+03  0.33286073400E+03 -0.26516237903E+04  0.28270450603E+04  0.50400001928E-02 0.  1.
       -1    1    3    3    0  502  0.92210562262E+03 -0.33286073400E+03  0.89160049955E+03  0.13251515001E+04  0.50400001928E-02 0. -1.
</event>
<event>
 5   0  0.5134434E-07  0.3829018E+04  0.7818609E-02  0.8039956E-01
        2   -1    0    0  501    0  0.00000000000E+00  0.00000000000E+00  0.15302396075E+04  0.15302396075E+04  0.25500000920E-02 0.  1.
       -2   -1    0    0    0  501  0.00000000000E+00  0.00000000000E+00 -0.23952754462E+04  0.23952754462E+04  0.25500000920E-02 0. -1.
    10030    2    1    2    0    0  0.00000000000E+00  0.00000000000E+00 -0.86503583867E+03  0.39255150537E+04  0.38290183382E+04 0.  0.
        5    1    3    3  502    0 -0.11138403628E+04  0.31735331960E+03 -0.19953936223E+04  0.23071565359E+04  0.46999998093E+01 0. -1.
       -5    1    3    3    0  502  0.11138403628E+04 -0.31735331960E+03  0.11303577836E+04  0.16183585178E+04  0.46999998093E+01 0.  1.
</event>
<event>
 5   0  0.1648000E-07  0.3684177E+04  0.7818609E-02  0.8071478E-01
        1   -1    0    0  501    0  0.00000000000E+00  0.00000000000E+00  0.25715153592E+04  0.25715153592E+04  0.50400001928E-02 0.  1.
       -1   -1    0    0    0  501  0.00000000000E+00  0.00000000000E+00 -0.13195680067E+04  0.13195680067E+04  0.50400001928E-02 0. -1.
    10030    2    1    2    0    0  0.00000000000E+00  0.00000000000E+00  0.12519473525E+04  0.38910833659E+04  0.36841766498E+04 0.  0.
        2    1    3    3  502    0 -0.17565190593E+04 -0.32061951847E+03  0.14762102047E+03  0.17916327880E+04  0.25500000920E-02 0.  1.
       -2    1    3    3    0  502  0.17565190593E+04  0.32061951847E+03  0.11043263321E+04  0.20994505779E+04  0.25500000920E-02 0. -1.
</event>
<event>
 5   0  0.5325362E-07  0.3863354E+04  0.7818609E-02  0.8032694E-01
        2   -1    0    0  501    0  0.00000000000E+00  0.00000000000E+00  0.24076958805E+04  0.24076958805E+04  0.25500000920E-02 0.  1.
       -2   -1    0    0    0  501  0.00000000000E+00  0.00000000000E+00 -0.15497704176E+04  0.15497704176E+04  0.25500000920E-02 0. -1.
    10030    2    1    2    0    0  0.00000000000E+00  0.00000000000E+00  0.85792546285E+03  0.39574662981E+04  0.38633539057E+04 0.  0.
        4    1    3    3  502    0 -0.18362073665E+04  0.11464746342E+03 -0.17408252900E+03  0.18480010480E+04  0.12699999809E+01 0. -1.
       -4    1    3    3    0  502  0.18362073665E+04 -0.11464746342E+03  0.10320079918E+04  0.21094652502E+04  0.12699999809E+01 0.  1.
</event>
<event>
 5   0  0.5202788E-07  0.3785947E+04  0.7818609E-02  0.8049177E-01
       -2   -1    0    0    0  501  0.00000000000E+00  0.00000000000E+00  0.19309544592E+04  0.19309544592E+04  0.25500000920E-02 0.  1.
        2   -1    0    0  501    0  0.00000000000E+00  0.00000000000E+00 -0.18557395254E+04  0.18557395254E+04  0.25500000920E-02 0. -1.
    10030    2    1    2    0    0  0.00000000000E+00  0.00000000000E+00  0.75214933770E+02  0.37866939846E+04  0.37859469155E+04 0.  0.
        1    1    3    3  502    0  0.65687026223E+03 -0.17600329968E+04 -0.19514818732E+03  0.18887237771E+04  0.50400001928E-02 0.  1.
       -1    1    3    3    0  502 -0.65687026223E+03  0.17600329968E+04  0.27036312109E+03  0.18979702075E+04  0.50400001928E-02 0. -1.
</event>
<event>
 5   0  0.1648000E-07  0.3724729E+04  0.7818609E-02  0.8062504E-01
       -1   -1    0    0    0  501  0.00000000000E+00  0.00000000000E+00  0.28297438816E+04  0.28297438816E+04  0.50400001928E-02 0. -1.
        1   -1    0    0  501    0  0.00000000000E+00  0.00000000000E+00 -0.12256943557E+04  0.12256943557E+04  0.50400001928E-02 0.  1.
    10030    2    1    2    0    0  0.00000000000E+00  0.00000000000E+00  0.16040495259E+04  0.40554382373E+04  0.37247287706E+04 0.  0.
        1    1    3    3  502    0 -0.10148598481E+04  0.30993780329E+03  0.24684030153E+04  0.26868225470E+04  0.50400001928E-02 0. -1.
       -1    1    3    3    0  502  0.10148598481E+04 -0.30993780329E+03 -0.86435348932E+03  0.13686156903E+04  0.50400001928E-02 0.  1.
</event>
<event>
 5   0  0.1656617E-07  0.3306793E+04  0.7818609E-02  0.8161169E-01
       -1   -1    0    0    0  501  0.00000000000E+00  0.00000000000E+00  0.11068349547E+04  0.11068349547E+04  0.50400001928E-02 0. -1.
        1   -1    0    0  501    0  0.00000000000E+00  0.00000000000E+00 -0.24698538833E+04  0.24698538833E+04  0.50400001928E-02 0.  1.
    10030    2    1    2    0    0  0.00000000000E+00  0.00000000000E+00 -0.13630189286E+04  0.35766888381E+04  0.33067933780E+04 0.  0.
        5    1    3    3  502    0 -0.43970855885E+03 -0.39001064901E+02  0.10419109689E+04  0.11315764477E+04  0.46999998093E+01 0. -1.
       -5    1    3    3    0  502  0.43970855885E+03  0.39001064901E+02 -0.24049298975E+04  0.24451123904E+04  0.46999998093E+01 0.  1.
</event>
<event>
 5   0  0.5134434E-07  0.3799515E+04  0.7818609E-02  0.8046259E-01
        2   -1    0    0  501    0  0.00000000000E+00  0.00000000000E+00  0.18871846508E+04  0.18871846508E+04  0.25500000920E-02 0. -1.
       -2   -1    0    0    0  501  0.00000000000E+00  0.00000000000E+00 -0.19124144386E+04  0.19124144386E+04  0.25500000920E-02 0.  1.
    10030    2    1    2    0    0  0.00000000000E+00  0.00000000000E+00 -0.25229787770E+02  0.37995990894E+04  0.37995153241E+04 0.  0.
        5    1    3    3  502    0 -0.28941344965E+03  0.17117067073E+04  0.75899597882E+03  0.18946759572E+04  0.46999998093E+01 0. -1.
       -5    1    3    3    0  502  0.28941344965E+03 -0.17117067073E+04 -0.78422576659E+03  0.19049231322E+04  0.46999998093E+01 0.  1.
</event>
<event>
 5   0  0.5134434E-07  0.4043719E+04  0.7818609E-02  0.7995785E-01
        2   -1    0    0  501    0  0.00000000000E+00  0.00000000000E+00  0.18730673912E+04  0.18730673912E+04  0.25500000920E-02 0. -1.
       -2   -1    0    0    0  501  0.00000000000E+00  0.00000000000E+00 -0.21824710883E+04  0.21824710884E+04  0.25500000920E-02 0.  1.
    10030    2    1    2    0    0  0.00000000000E+00  0.00000000000E+00 -0.30940369716E+03  0.40555384795E+04  0.40437187973E+04 0.  0.
        5    1    3    3  502    0  0.16092555828E+04 -0.10447647626E+04 -0.79426198175E+03  0.20765623336E+04  0.46999998093E+01 0.  1.
       -5    1    3    3    0  502 -0.16092555828E+04  0.10447647626E+04  0.48485828459E+03  0.19789761459E+04  0.46999998093E+01 0. -1.
</event>
<event>
 5   0  0.5134434E-07  0.3844609E+04  0.7818609E-02  0.8036649E-01
        2   -1    0    0  501    0  0.00000000000E+00  0.00000000000E+00  0.21346903838E+04  0.21346903838E+04  0.25500000920E-02 0. -1.
       -2   -1    0    0    0  501  0.00000000000E+00  0.00000000000E+00 -0.17310494401E+04  0.17310494401E+04  0.25500000920E-02 0.  1.
    10030    2    1    2    0    0  0.00000000000E+00  0.00000000000E+00  0.40364094367E+03  0.38657398239E+04  0.38446090015E+04 0.  0.
        5    1    3    3  502    0  0.28119223096E+03 -0.25441470020E+03 -0.16930628598E+04  0.17350158061E+04  0.46999998093E+01 0.  1.
       -5    1    3    3    0  502 -0.28119223096E+03  0.25441470020E+03  0.20967038034E+04  0.21307240177E+04  0.46999998093E+01 0. -1.
</event>
<event>
 5   0  0.5325362E-07  0.3686932E+04  0.7818609E-02  0.8070864E-01
       -2   -1    0    0    0  501  0.00000000000E+00  0.00000000000E+00  0.13640286516E+04  0.13640286516E+04  0.25500000920E-02 0. -1.
        2   -1    0    0  501    0  0.00000000000E+00  0.00000000000E+00 -0.24914195115E+04  0.24914195115E+04  0.25500000920E-02 0.  1.
    10030    2    1    2    0    0  0.00000000000E+00  0.00000000000E+00 -0.11273908600E+04  0.38554481631E+04  0.36869323817E+04 0.  0.
        4    1    3    3  502    0 -0.51844249739E+03 -0.14807333174E+04 -0.15759326895E+04  0.22237174359E+04  0.12699999809E+01 0.  1.
       -4    1    3    3    0  502  0.51844249739E+03  0.14807333174E+04  0.44854182949E+03  0.16317307272E+04  0.12699999809E+01 0. -1.
</event>
<event>
 5   0  0.5325362E-07  0.3804956E+04  0.7818609E-02  0.8045092E-01
        2   -1    0    0  501    0  0.00000000000E+00  0.00000000000E+00  0.14170873255E+04  0.14170873255E+04  0.25500000920E-02 0. -1.
       -2   -1    0    0    0  501  0.00000000000E+00  0.00000000000E+00 -0.25541274480E+04  0.25541274480E+04  0.25500000920E-02 0.  1.
    10030    2    1    2    0    0  0.00000000000E+00  0.00000000000E+00 -0.11370401225E+04  0.39712147736E+04  0.38049555237E+04 0.  0.
        4    1    3    3  502    0  0.77008305947E+03  0.81062218295E+03  0.10379858630E+04  0.15256318385E+04  0.12699999809E+01 0. -1.
       -4    1    3    3    0  502 -0.77008305947E+03 -0.81062218295E+03 -0.21750259855E+04  0.24455829351E+04  0.12699999809E+01 0.  1.
</event>
<event>
 5   0  0.1656617E-07  0.3785626E+04  0.7818609E-02  0.8049246E-01
        1   -1    0    0  501    0  0.00000000000E+00  0.00000000000E+00  0.27617437103E+04  0.27617437103E+04  0.50400001928E-02 0. -1.
       -1   -1    0    0    0  501  0.00000000000E+00  0.00000000000E+00 -0.12972752731E+04  0.12972752731E+04  0.50400001928E-02 0.  1.
    10030    2    1    2    0    0  0.00000000000E+00  0.00000000000E+00  0.14644684371E+04  0.40590189834E+04  0.37856264084E+04 0.  0.
        5    1    3    3  502    0  0.23920172140E+03 -0.55775516691E+03  0.26545913043E+04  0.27230837983E+04  0.46999998093E+01 0. -1.
       -5    1    3    3    0  502 -0.23920172140E+03  0.55775516691E+03 -0.11901228672E+04  0.13359351851E+04  0.46999998093E+01 0.  1.
</event>
<event>
 5   0  0.5132561E-07  0.3531857E+04  0.7818609E-02  0.8106282E-01
       -2   -1    0    0    0  501  0.00000000000E+00  0.00000000000E+00  0.10798608574E+04  0.10798608574E+04  0.25500000920E-02 0.  1.
        2   -1    0    0  501    0  0.00000000000E+00  0.00000000000E+00 -0.28878745461E+04  0.28878745461E+04  0.25500000920E-02 0. -1.
    10030    2    1    2    0    0  0.00000000000E+00  0.00000000000E+00 -0.18080136888E+04  0.39677354035E+04  0.35318565562E+04 0.  0.
        3    1    3    3  502    0  0.17560695735E+04  0.18014646992E+03 -0.85048735126E+03  0.19594799928E+04  0.10100000352E+00 0.  1.
       -3    1    3    3    0  502 -0.17560695735E+04 -0.18014646992E+03 -0.95752633749E+03  0.20082554107E+04  0.10100000352E+00 0. -1.
</event>
<event>
 5   0  0.5158266E-07  0.2714750E+04  0.7818609E-02  0.8330235E-01
       -2   -1    0    0    0  501  0.00000000000E+00  0.00000000000E+00  0.11289142074E+04  0.11289142074E+04  0.25500000920E-02 0. -1.
        2   -1    0    0  501    0  0.00000000000E+00  0.00000000000E+00 -0.16320703520E+04  0.16320703520E+04  0.25500000920E-02 0.  1.
    10030    2    1    2    0    0  0.00000000000E+00  0.00000000000E+00 -0.50315614459E+03  0.27609845593E+04  0.27147503810E+04 0.  0.
        2    1    3    3  502    0 -0.12109501414E+03 -0.10543786640E+04 -0.11122102665E+04  0.15373321197E+04  0.25500000920E-02 0.  1.
       -2    1    3    3    0  502  0.12109501414E+03  0.10543786640E+04  0.60905412187E+03  0.12236524396E+04  0.25500000920E-02 0. -1.
</event>
<event>
 5   0  0.1648000E-07  0.3611050E+04  0.7818609E-02  0.8087965E-01
        1   -1    0    0  501    0  0.00000000000E+00  0.00000000000E+00  0.19631832919E+04  0.19631832920E+04  0.50400001928E-02 0. -1.
       -1   -1    0    0    0  501  0.00000000000E+00  0.00000000000E+00 -0.16605275277E+04  0.16605275277E+04  0.50400001928E-02 0.  1.
    10030    2    1    2    0    0  0.00000000000E+00  0.00000000000E+00  0.30265576425E+03  0.36237108196E+04  0.36110496525E+04 0.  0.
        3    1    3    3  502    0 -0.11055443472E+04  0.11237508022E+04  0.10346845646E+04  0.18856341977E+04  0.10100000352E+00 0. -1.
       -3    1    3    3    0  502  0.11055443472E+04 -0.11237508022E+04 -0.73202880033E+03  0.17380766220E+04  0.10100000352E+00 0.  1.
</event>
<event>
 5   0  0.5134434E-07  0.3951585E+04  0.7818609E-02  0.8014385E-01
        2   -1    0    0  501    0  0.00000000000E+00  0.00000000000E+00  0.22502293948E+04  0.22502293948E+04  0.25500000920E-02 0. -1.
       -2   -1    0    0    0  501  0.00000000000E+00  0.00000000000E+00 -0.17348254130E+04  0.17348254130E+04  0.25500000920E-02 0.  1.
    10030    2    1    2    0    0  0.00000000000E+00  0.00000000000E+00  0.51540398181E+03  0.39850548078E+04  0.39515845627E+04 0.  0.
        5    1    3    3  502    0  0.89589691058E+03  0.14656812793E+04  0.12421259190E+04  0.21198471113E+04  0.46999998093E+01 0. -1.
       -5    1    3    3    0  502 -0.89589691058E+03 -0.14656812793E+04 -0.72672193717E+03  0.18652076964E+04  0.46999998093E+01 0.  1.
</event>
<event>
 5   0  0.5158266E-07  0.3808930E+04  0.7818609E-02  0.8044241E-01
       -2   -1    0    0    0  501  0.00000000000E+00  0.00000000000E+00  0.24357638988E+04  0.24357638988E+04  0.25500000920E-02 0.  1.
        2   -1    0    0  501    0  0.00000000000E+00  0.00000000000E+00 -0.14890552589E+04  0.14890552589E+04  0.25500000920E-02 0. -1.
    10030    2    1    2    0    0  0.00000000000E+00  0.00000000000E+00  0.94670863988E+03  0.39248191576E+04  0.38089300560E+04 0.  0.
        2    1    3    3  502    0 -0.28167148341E+03 -0.93758956573E+03 -0.12099253577E+04  0.15563843965E+04  0.25500000920E-02 0. -1.
       -2    1    3    3    0  502  0.28167148341E+03  0.93758956573E+03  0.21566339976E+04  0.23684347612E+04  0.25500000920E-02 0.  1.
</event>
<event>
 5   0  0.1648000E-07  0.3780140E+04  0.7818609E-02  0.8050430E-01
        1   -1    0    0  501    0  0.00000000000E+00  0.00000000000E+00  0.25496714236E+04  0.25496714236E+04  0.50400001928E-02 0.  1.
       -1   -1    0    0    0  501  0.00000000000E+00  0.00000000000E+00 -0.14011078808E+04  0.14011078808E+04  0.50400001928E-02 0. -1.
    10030    2    1    2    0    0  0.00000000000E+00  0.00000000000E+00  0.11485635428E+04  0.39507793044E+04  0.37801400636E+04 0.  0.
        1    1    3    3  502    0  0.82422612147E+03 -0.12865959557E+04  0.17370154999E+04  0.23134175367E+04  0.50400001928E-02 0.  1.
       -1    1    3    3    0  502 -0.82422612147E+03  0.12865959557E+04 -0.58845195706E+03  0.16373617677E+04  0.50400001928E-02 0. -1.
</event>
<event>
 5   0  0.5134434E-07  0.3725145E+04  0.7818609E-02  0.8062412E-01
       -2   -1    0    0    0  501  0.00000000000E+00  0.00000000000E+00  0.17107822286E+04  0.17107822286E+04  0.25500000920E-02 0. -1.
        2   -1    0    0  501    0  0.00000000000E+00  0.00000000000E+00 -0.20278303588E+04  0.20278303588E+04  0.25500000920E-02 0.  1.
    10030    2    1    2    0    0  0.00000000000E+00  0.00000000000E+00 -0.31704813022E+03  0.37386125873E+04  0.37251449047E+04 0.  0.
        5    1    3    3  502    0  0.16814050894E+04 -0.13756657471E+03 -0.95074880999E+03  0.19364898727E+04  0.46999998093E+01 0.  1.
       -5    1    3    3    0  502 -0.16814050894E+04  0.13756657471E+03  0.63370067977E+03  0.18021227147E+04  0.46999998093E+01 0. -1.
</event>
<event>
 5   0  0.5134434E-07  0.3714847E+04  0.7818609E-02  0.8064680E-01
        2   -1    0    0  501    0  0.00000000000E+00  0.00000000000E+00  0.14414807717E+04  0.14414807717E+04  0.25500000920E-02 0.  1.
       -2   -1    0    0    0  501  0.00000000000E+00  0.00000000000E+00 -0.23933869187E+04  0.23933869187E+04  0.25500000920E-02 0. -1.
    10030    2    1    2    0    0  0.00000000000E+00  0.00000000000E+00 -0.95190614699E+03  0.38348676903E+04  0.37148465499E+04 0.  0.
        5    1    3    3  502    0  0.89772565927E+03 -0.12302952019E+04 -0.15735361238E+04  0.21898802858E+04  0.46999998093E+01 0. -1.
       -5    1    3    3    0  502 -0.89772565927E+03  0.12302952019E+04  0.62162997678E+03  0.16449874046E+04  0.46999998093E+01 0.  1.
</event>
<event>
 5   0  0.5132561E-07  0.3651882E+04  0.7818609E-02  0.8078710E-01
       -2   -1    0    0    0  501  0.00000000000E+00  0.00000000000E+00  0.16311956515E+04  0.16311956515E+04  0.25500000920E-02 0.  1.
        2   -1    0    0  501    0  0.00000000000E+00  0.00000000000E+00 -0.20439361532E+04  0.20439361533E+04  0.25500000920E-02 0. -1.
    10030    2    1    2    0    0  0.00000000000E+00  0.00000000000E+00 -0.41274050174E+03  0.36751318048E+04  0.36518815781E+04 0.  0.
        3    1    3    3  502    0 -0.97154374793E+03  0.61563926351E+03 -0.16335495938E+04  0.19978471520E+04  0.10100000352E+00 0. -1.
       -3    1    3    3    0  502  0.97154374793E+03 -0.61563926351E+03  0.12208090921E+04  0.16772846528E+04  0.10100000352E+00 0.  1.
</event>
<event>
 5   0  0.1648000E-07  0.3850792E+04  0.7818609E-02  0.8035342E-01
        1   -1    0    0  501    0  0.00000000000E+00  0.00000000000E+00  0.21339812358E+04  0.21339812358E+04  0.50400001928E-02 0. -1.
       -1   -1    0    0    0  501  0.00000000000E+00  0.00000000000E+00 -0.17371986055E+04  0.17371986055E+04  0.50400001928E-02 0.  1.
    10030    2    1    2    0    0  0.00000000000E+00  0.00000000000E+00  0.39678263031E+03  0.38711798414E+04  0.38507917249E+04 0.  0.
        2    1    3    3  502    0  0.78791128598E+03  0.15568412034E+04  0.10166976630E+04  0.20194635092E+04  0.25500000920E-02 0. -1.
       -2    1    3    3    0  502 -0.78791128598E+03 -0.15568412034E+04 -0.61991503269E+03  0.18517163322E+04  0.25500000920E-02 0.  1.
</event>
<event>
 5   0  0.1656617E-07  0.3849166E+04  0.7818609E-02  0.8035686E-01
       -1   -1    0    0    0  501  0.00000000000E+00  0.00000000000E+00  0.18137527592E+04  0.18137527592E+04  0.50400001928E-02 0. -1.
        1   -1    0    0  501    0  0.00000000000E+00  0.00000000000E+00 -0.20421855873E+04  0.20421855873E+04  0.50400001928E-02 0.  1.
    10030    2    1    2    0    0  0.00000000000E+00  0.00000000000E+00 -0.22843282805E+03  0.38559383465E+04  0.38491660104E+04 0.  0.
        5    1    3    3  502    0  0.76984834858E+02 -0.90964439816E+03  0.15830544083E+04  0.18274197508E+04  0.46999998093E+01 0. -1.
       -5    1    3    3    0  502 -0.76984834858E+02  0.90964439816E+03 -0.18114872363E+04  0.20285185958E+04  0.46999998093E+01 0.  1.
</event>
<event>
 5   0  0.5158266E-07  0.3673694E+04  0.7818609E-02  0.8073817E-01
       -2   -1    0    0    0  501  0.00000000000E+00  0.00000000000E+00  0.12264897552E+04  0.12264897552E+04  0.25500000920E-02 0. -1.
        2   -1    0    0  501    0  0.00000000000E+00  0.00000000000E+00 -0.27509452668E+04  0.27509452668E+04  0.25500000920E-02 0.  1.
    10030    2    1    2    0    0  0.00000000000E+00  0.00000000000E+00 -0.15244555116E+04  0.39774350220E+04  0.36736936110E+04 0.  0.
        2    1    3    3  502    0 -0.38195526386E+03 -0.93856538889E+03  0.89650438894E+03  0.13529652369E+04  0.25500000920E-02 0. -1.
       -2    1    3    3    0  502  0.38195526386E+03  0.93856538889E+03 -0.24209599006E+04  0.26244697851E+04  0.25500000920E-02 0.  1.
</event>
<event>
 5   0  0.5202788E-07  0.3791058E+04  0.7818609E-02  0.8048077E-01
        2   -1    0    0  501    0  0.00000000000E+00  0.00000000000E+00  0.16711791470E+04  0.16711791470E+04  0.25500000920E-02 0. -1.
       -2   -1    0    0    0  501  0.00000000000E+00  0.00000000000E+00 -0.21499971685E+04  0.21499971685E+04  0.25500000920E-02 0.  1.
    10030    2    1    2    0    0  0.00000000000E+00  0.00000000000E+00 -0.47881802150E+03  0.38211763155E+04  0.37910581289E+04 0.  0.
        1    1    3    3  502    0 -0.10113963504E+04 -0.37484845168E+03 -0.18105085810E+04  0.21074570603E+04  0.50400001928E-02 0. -1.
       -1    1    3    3    0  502  0.10113963504E+04  0.37484845168E+03  0.13316905595E+04  0.17137192552E+04  0.50400001928E-02 0.  1.
</event>
<event>
 5   0  0.1648000E-07  0.3758199E+04  0.7818609E-02  0.8055185E-01
        1   -1    0    0  501    0  0.00000000000E+00  0.00000000000E+00  0.18428273006E+04  0.18428273006E+04  0.50400001928E-02 0. -1.
       -1   -1    0    0    0  501  0.00000000000E+00  0.00000000000E+00 -0.19160856206E+04  0.19160856206E+04  0.50400001928E-02 0.  1.
    10030    2    1    2    0    0  0.00000000000E+00  0.00000000000E+00 -0.73258319947E+02  0.37589129212E+04  0.37581989793E+04 0.  0.
        4    1    3    3  502    0 -0.70691204999E+03  0.30103841128E+03  0.16785331895E+04  0.18460292664E+04  0.12699999809E+01 0. -1.
       -4    1    3    3    0  502  0.70691204999E+03 -0.30103841128E+03 -0.17517915094E+04  0.19128836548E+04  0.12699999809E+01 0.  1.
</event>
<event>
 5   0  0.1648000E-07  0.2961142E+04  0.7818609E-02  0.8254915E-01
        1   -1    0    0  501    0  0.00000000000E+00  0.00000000000E+00  0.14904385897E+04  0.14904385897E+04  0.50400001928E-02 0.  1.
       -1   -1    0    0    0  501  0.00000000000E+00  0.00000000000E+00 -0.14707686715E+04  0.14707686716E+04  0.50400001928E-02 0. -1.
    10030    2    1    2    0    0  0.00000000000E+00  0.00000000000E+00  0.19669918195E+02  0.29612072613E+04  0.29611419315E+04 0.  0.
        3    1    3    3  502    0  0.19625459356E+03  0.13135713624E+04 -0.64447664477E+03  0.14762573440E+04  0.10100000352E+00 0. -1.
       -3    1    3    3    0  502 -0.19625459356E+03 -0.13135713624E+04  0.66414656296E+03  0.14849499173E+04  0.10100000352E+00 0.  1.
</event>
<event>
 5   0  0.5158266E-07  0.3544847E+04  0.7818609E-02  0.8103243E-01
       -2   -1    0    0    0  501  0.00000000000E+00  0.00000000000E+00  0.16633478370E+04  0.16633478370E+04  0.25500000920E-02 0. -1.
        2   -1    0    0  501    0  0.00000000000E+00  0.00000000000E+00 -0.18886517519E+04  0.18886517519E+04  0.25500000920E-02 0.  1.
    10030    2    1    2    0    0  0.00000000000E+00  0.00000000000E+00 -0.22530391491E+03  0.35519995889E+04  0.35448468550E+04 0.  0.
        2    1    3    3  502    0 -0.15316950393E+04 -0.58077933919E+02 -0.10044039126E+04  0.18325637668E+04  0.25500000920E-02 0.  1.
       -2    1    3    3    0  502  0.15316950393E+04  0.58077933919E+02  0.77909999767E+03  0.17194358221E+04  0.25500000920E-02 0. -1.
</event>
<event>
 5   0  0.1648000E-07  0.3800004E+04  0.7818609E-02  0.8046154E-01
        1   -1    0    0  501    0  0.00000000000E+00  0.00000000000E+00  0.17598209503E+04  0.17598209503E+04  0.50400001928E-02 0.  1.
       -1   -1    0    0    0  501  0.00000000000E+00  0.00000000000E+00 -0.20513497602E+04  0.20513497602E+04  0.50400001928E-02 0. -1.
    10030    2    1    2    0    0  0.00000000000E+00  0.00000000000E+00 -0.29152880990E+03  0.38111707106E+04  0.38000043603E+04 0.  0.
        3    1    3    3  502    0  0.88756686641E+03  0.10902813130E+04 -0.14276124165E+04  0.20036380676E+04  0.10100000352E+00 0. -1.
       -3    1    3    3    0  502 -0.88756686641E+03 -0.10902813130E+04  0.11360836066E+04  0.18075326430E+04  0.10100000352E+00 0.  1.
</event>
<event>
 5   0  0.1648000E-07  0.2916617E+04  0.7818609E-02  0.8267951E-01
        1   -1    0    0  501    0  0.00000000000E+00  0.00000000000E+00  0.12605214055E+04  0.12605214055E+04  0.50400001928E-02 0.  1.
       -1   -1    0    0    0  501  0.00000000000E+00  0.00000000000E+00 -0.16871299901E+04  0.16871299901E+04  0.50400001928E-02 0. -1.
    10030    2    1    2    0    0  0.00000000000E+00  0.00000000000E+00 -0.42660858460E+03  0.29476513957E+04  0.29166168528E+04 0.  0.
        1    1    3    3  502    0  0.99469139425E+03  0.10663968956E+04 -0.20614671784E+03  0.14727897942E+04  0.50400001928E-02 0.  1.
       -1    1    3    3    0  502 -0.99469139425E+03 -0.10663968956E+04 -0.22046186676E+03  0.14748616015E+04  0.50400001928E-02 0. -1.
</event>
<event>
 5   0  0.1648000E-07  0.3074732E+04  0.7818609E-02  0.8222707E-01
        1   -1    0    0  501    0  0.00000000000E+00  0.00000000000E+00  0.15108932270E+04  0.15108932270E+04  0.50400001928E-02 0. -1.
       -1   -1    0    0    0  501  0.00000000000E+00  0.00000000000E+00 -0.15643027497E+04  0.15643027498E+04  0.50400001928E-02 0.  1.
    10030    2    1    2    0    0  0.00000000000E+00  0.00000000000E+00 -0.53409522706E+02  0.30751959768E+04  0.30747321377E+04 0.  0.
        2    1    3    3  502    0 -0.10623395676E+04  0.76729910986E+03 -0.83067996178E+03  0.15515613039E+04  0.25500000920E-02 0.  1.
       -2    1    3    3    0  502  0.10623395676E+04 -0.76729910986E+03  0.77727043907E+03  0.15236346729E+04  0.25500000920E-02 0. -1.
</event>
<event>
 5   0  0.5325362E-07  0.3854671E+04  0.7818609E-02  0.8034523E-01
       -2   -1    0    0    0  501  0.00000000000E+00  0.00000000000E+00  0.17499837276E+04  0.17499837276E+04  0.25500000920E-02 0. -1.
        2   -1    0    0  501    0  0.00000000000E+00  0.00000000000E+00 -0.21226607456E+04  0.21226607456E+04  0.25500000920E-02 0.  1.
    10030    2    1    2    0    0  0.00000000000E+00  0.00000000000E+00 -0.37267701794E+03  0.38726444732E+04  0.38546708103E+04 0.  0.
        4    1    3    3  502    0  0.56078653435E+03 -0.88626547056E+03  0.14381960413E+04  0.17799880582E+04  0.12699999809E+01 0. -1.
       -4    1    3    3    0  502 -0.56078653435E+03  0.88626547056E+03 -0.18108730592E+04  0.20926564149E+04  0.12699999809E+01 0.  1.
</event>
<event>
 5   0  0.5134434E-07  0.2799786E+04  0.7818609E-02  0.8303335E-01
       -2   -1    0    0    0  501  0.00000000000E+00  0.00000000000E+00  0.80481462050E+03  0.80481462050E+03  0.25500000920E-02 0. -1.
        2   -1    0    0  501    0  0.00000000000E+00  0.00000000000E+00 -0.24349715380E+04  0.24349715380E+04  0.25500000920E-02 0.  1.
    10030    2    1    2    0    0  0.00000000000E+00  0.00000000000E+00 -0.16301569175E+04  0.32397861585E+04  0.27997862021E+04 0.  0.
        5    1    3    3  502    0 -0.12700577398E+04  0.54944395164E+03 -0.57031002212E+03  0.14967334198E+04  0.46999998093E+01 0. -1.
       -5    1    3    3    0  502  0.12700577398E+04 -0.54944395164E+03 -0.10598468954E+04  0.17430527388E+04  0.46999998093E+01 0.  1.
</event>
<event>
 5   0  0.5325362E-07  0.3771518E+04  0.7818609E-02  0.8052295E-01
       -2   -1    0    0    0  501  0.00000000000E+00  0.00000000000E+00  0.16972160151E+04  0.16972160151E+04  0.25500000920E-02 0.  1.
        2   -1    0    0  501    0  0.00000000000E+00  0.00000000000E+00 -0.20952467135E+04  0.20952467135E+04  0.25500000920E-02 0. -1.
    10030    2    1    2    0    0  0.00000000000E+00  0.00000000000E+00 -0.39803069840E+03  0.37924627286E+04  0.37715176137E+04 0.  0.
        4    1    3    3  502    0 -0.61917775681E+03  0.13406278124E+04 -0.13783116859E+04  0.20200021639E+04  0.12699999809E+01 0. -1.
       -4    1    3    3    0  502  0.61917775681E+03 -0.13406278124E+04  0.98028098751E+03  0.17724605646E+04  0.12699999809E+01 0.  1.
</event>
<event>
 5   0  0.5202788E-07  0.3645132E+04  0.7818609E-02  0.8080231E-01
       -2   -1    0    0    0  501  0.00000000000E+00  0.00000000000E+00  0.24595498097E+04  0.24595498097E+04  0.25500000920E-02 0.  1.
        2   -1    0    0  501    0  0.00000000000E+00  0.00000000000E+00 -0.13505509207E+04  0.13505509207E+04  0.25500000920E-02 0. -1.
    10030    2    1    2    0    0  0.00000000000E+00  0.00000000000E+00  0.11089988890E+04  0.38101007304E+04  0.36451322390E+04 0.  0.
        1    1    3    3  502    0  0.46099923350E+03  0.13443381703E+04  0.17471841068E+04  0.22522028577E+04  0.50400001928E-02 0.  1.
       -1    1    3    3    0  502 -0.46099923350E+03 -0.13443381703E+04 -0.63818521780E+03  0.15578978727E+04  0.50400001928E-02 0. -1.
</event>
<event>
 5   0  0.5134434E-07  0.4014874E+04  0.7818609E-02  0.8001553E-01
        2   -1    0    0  501    0  0.00000000000E+00  0.00000000000E+00  0.24103075596E+04  0.24103075596E+04  0.25500000920E-02 0. -1.
       -2   -1    0    0    0  501  0.00000000000E+00  0.00000000000E+00 -0.16719044955E+04  0.16719044955E+04  0.25500000920E-02 0.  1.
    10030    2    1    2    0    0  0.00000000000E+00  0.00000000000E+00  0.73840306407E+03  0.40822120551E+04  0.40148743664E+04 0.  0.
        5    1    3    3  502    0 -0.15623482310E+04  0.35580746033E+03  0.15987186119E+04  0.22635048562E+04  0.46999998093E+01 0. -1.
       -5    1    3    3    0  502  0.15623482310E+04 -0.35580746033E+03 -0.86031554787E+03  0.18187071990E+04  0.46999998093E+01 0.  1.
</event>
<event>
 5   0  0.5132561E-07  0.3764694E+04  0.7818609E-02  0.8053774E-01
        2   -1    0    0  501    0  0.00000000000E+00  0.00000000000E+00  0.23404720008E+04  0.23404720008E+04  0.25500000920E-02 0. -1.
       -2   -1    0    0    0  501  0.00000000000E+00  0.00000000000E+00 -0.15138956066E+04  0.15138956066E+04  0.25500000920E-02 0.  1.
    10030    2    1    2    0    0  0.00000000000E+00  0.00000000000E+00  0.82657639417E+03  0.38543676074E+04  0.37646940271E+04 0.  0.
        3    1    3    3  502    0  0.12725759574E+04 -0.13580289995E+04  0.70203063077E+03  0.19891051625E+04  0.10100000352E+00 0.  1.
       -3    1    3    3    0  502 -0.12725759574E+04  0.13580289995E+04  0.12454576341E+03  0.18652624449E+04  0.10100000352E+00 0. -1.
</event>
<event>
 5   0  0.5325362E-07  0.3711378E+04  0.7818609E-02  0.8065445E-01
       -2   -1    0    0    0  501  0.00000000000E+00  0.00000000000E+00  0.20382388033E+04  0.20382388033E+04  0.25500000920E-02 0.  1.
        2   -1    0    0  501    0  0.00000000000E+00  0.00000000000E+00 -0.16894891789E+04  0.16894891789E+04  0.25500000920E-02 0. -1.
    10030    2    1    2    0    0  0.00000000000E+00  0.00000000000E+00  0.34874962439E+03  0.37277279822E+04  0.37113783974E+04 0.  0.
        4    1    3    3  502    0 -0.14399815962E+03  0.15029655611E+04  0.12579879089E+04  0.19652420053E+04  0.12699999809E+01 0.  1.
       -4    1    3    3    0  502  0.14399815962E+03 -0.15029655611E+04 -0.90923828447E+03  0.17624859769E+04  0.12699999809E+01 0. -1.
</event>
<event>
 5   0  0.1648000E-07  0.3723340E+04  0.7818609E-02  0.8062809E-01
       -1   -1    0    0    0  501  0.00000000000E+00  0.00000000000E+00  0.18755340416E+04  0.18755340417E+04  0.50400001928E-02 0.  1.
        1   -1    0    0  501    0  0.00000000000E+00  0.00000000000E+00 -0.18479087213E+04  0.18479087213E+04  0.50400001928E-02 0. -1.
    10030    2    1    2    0    0  0.00000000000E+00  0.00000000000E+00  0.27625320392E+02  0.37234427629E+04  0.37233402813E+04 0.  0.
        3    1    3    3  502    0 -0.17253420407E+04 -0.32595990033E+03 -0.60488093035E+03  0.18571311112E+04  0.10100000352E+00 0.  1.
       -3    1    3    3    0  502  0.17253420407E+04  0.32595990033E+03  0.63250625074E+03  0.18663116517E+04  0.10100000352E+00 0. -1.
</event>
<event>
 5   0  0.1648000E-07  0.3796465E+04  0.7818609E-02  0.8046914E-01
       -1   -1    0    0    0  501  0.00000000000E+00  0.00000000000E+00  0.13955822955E+04  0.13955822955E+04  0.50400001928E-02 0.  1.
        1   -1    0    0  501    0  0.00000000000E+00  0.00000000000E+00 -0.25819228826E+04  0.25819228826E+04  0.50400001928E-02 0. -1.
    10030    2    1    2    0    0  0.00000000000E+00  0.00000000000E+00 -0.11863405871E+04  0.39775051781E+04  0.37964645992E+04 0.  0.
        2    1    3    3  502    0  0.17660028863E+04 -0.41806365206E+03 -0.10085433531E+02  0.18148402485E+04  0.25500000920E-02 0.  1.
       -2    1    3    3    0  502 -0.17660028863E+04  0.41806365206E+03 -0.11762551536E+04  0.21626649296E+04  0.25500000920E-02 0. -1.
</event>
<event>
 5   0  0.1656617E-07  0.3812313E+04  0.7818609E-02  0.8043518E-01
       -1   -1    0    0    0  501  0.00000000000E+00  0.00000000000E+00  0.18559423746E+04  0.18559423746E+04  0.50400001928E-02 0.  1.
        1   -1    0    0  501    0  0.00000000000E+00  0.00000000000E+00 -0.19577289660E+04  0.19577289660E+04  0.50400001928E-02 0. -1.
    10030    2    1    2    0    0  0.00000000000E+00  0.00000000000E+00 -0.10178659144E+03  0.38136713406E+04  0.38123127605E+04 0.  0.
        5    1    3    3  502    0 -0.19031585267E+04 -0.99296362715E+02 -0.90123472964E+02  0.19078827207E+04  0.46999998093E+01 0. -1.
       -5    1    3    3    0  502  0.19031585267E+04  0.99296362715E+02 -0.11663118473E+02  0.19057886199E+04  0.46999998093E+01 0.  1.
</event>
<event>
 5   0  0.5325362E-07  0.3799963E+04  0.7818609E-02  0.8046163E-01
       -2   -1    0    0    0  501  0.00000000000E+00  0.00000000000E+00  0.19516665813E+04  0.19516665813E+04  0.25500000920E-02 0.  1.
        2   -1    0    0  501    0  0.00000000000E+00  0.00000000000E+00 -0.18496656095E+04  0.18496656095E+04  0.25500000920E-02 0. -1.
    10030    2    1    2    0    0  0.00000000000E+00  0.00000000000E+00  0.10200097186E+03  0.38013321908E+04  0.37999634507E+04 0.  0.
        4    1    3    3  502    0 -0.66397723849E+03 -0.15770877186E+04 -0.77504357738E+03  0.18785008930E+04  0.12699999809E+01 0. -1.
       -4    1    3    3    0  502  0.66397723849E+03  0.15770877186E+04  0.87704454924E+03  0.19228312978E+04  0.12699999809E+01 0.  1.
</event>
<event>
 5   0  0.1648000E-07  0.3168451E+04  0.7818609E-02  0.8197199E-01
       -1   -1    0    0    0  501  0.00000000000E+00  0.00000000000E+00  0.10834047093E+04  0.10834047094E+04  0.50400001928E-02 0. -1.
        1   -1    0    0  501    0  0.00000000000E+00  0.00000000000E+00 -0.23165588937E+04  0.23165588937E+04  0.50400001928E-02 0.  1.
    10030    2    1    2    0    0  0.00000000000E+00  0.00000000000E+00 -0.12331541844E+04  0.33999636031E+04  0.31684512399E+04 0.  0.
        1    1    3    3  502    0  0.85374838414E+03  0.62638358663E+03  0.64788140309E+03  0.12413673967E+04  0.50400001928E-02 0. -1.
       -1    1    3    3    0  502 -0.85374838414E+03 -0.62638358663E+03 -0.18810355875E+04  0.21585962064E+04  0.50400001928E-02 0.  1.
</event>
<event>
 5   0  0.1656617E-07  0.3872296E+04  0.7818609E-02  0.8030816E-01
       -1   -1    0    0    0  501  0.00000000000E+00  0.00000000000E+00  0.26726474722E+04  0.26726474722E+04  0.50400001928E-02 0.  1.
        1   -1    0    0  501    0  0.00000000000E+00  0.00000000000E+00 -0.14026053717E+04  0.14026053717E+04  0.50400001928E-02 0. -1.
    10030    2    1    2    0    0  0.00000000000E+00  0.00000000000E+00  0.12700421005E+04  0.40752528439E+04  0.38722963219E+04 0.  0.
        5    1    3    3  502    0  0.19214635598E+04  0.12939812930E+03  0.42485050712E+03  0.19721273110E+04  0.46999998093E+01 0.  1.
       -5    1    3    3    0  502 -0.19214635598E+04 -0.12939812930E+03  0.84519159338E+03  0.21031255329E+04  0.46999998093E+01 0. -1.
</event>
<event>
 5   0  0.1648000E-07  0.3803998E+04  0.7818609E-02  0.8045297E-01
       -1   -1    0    0    0  501  0.00000000000E+00  0.00000000000E+00  0.15988313543E+04  0.15988313543E+04  0.50400001928E-02 0.  1.
        1   -1    0    0  501    0  0.00000000000E+00  0.00000000000E+00 -0.22626530435E+04  0.22626530435E+04  0.50400001928E-02 0. -1.
    10030    2    1    2    0    0  0.00000000000E+00  0.00000000000E+00 -0.66382168918E+03  0.38614843978E+04  0.38039982281E+04 0.  0.
        1    1    3    3  502    0  0.16227386781E+04  0.90634359220E+03 -0.74157000216E+03  0.20011660582E+04  0.50400001928E-02 0. -1.
       -1    1    3    3    0  502 -0.16227386781E+04 -0.90634359220E+03  0.77748312978E+02  0.18603183396E+04  0.50400001928E-02 0.  1.
</event>
<event>
 5   0  0.1648000E-07  0.3825044E+04  0.7818609E-02  0.8040802E-01
        1   -1    0    0  501    0  0.00000000000E+00  0.00000000000E+00  0.16232400866E+04  0.16232400866E+04  0.50400001928E-02 0.  1.
       -1   -1    0    0    0  501  0.00000000000E+00  0.00000000000E+00 -0.22533580594E+04  0.22533580594E+04  0.50400001928E-02 0. -1.
    10030    2    1    2    0    0  0.00000000000E+00  0.00000000000E+00 -0.63011797276E+03  0.38765981460E+04  0.38250443822E+04 0.  0.
        2    1    3    3  502    0 -0.14324448095E+04  0.35200233390E+03 -0.15488148448E+04  0.21388387501E+04  0.25500000920E-02 0. -1.
       -2    1    3    3    0  502  0.14324448095E+04 -0.35200233390E+03  0.91869687200E+03  0.17377593959E+04  0.25500000920E-02 0.  1.
</event>
<event>
 5   0  0.5134434E-07  0.3319673E+04  0.7818609E-02  0.8157908E-01
        2   -1    0    0  501    0  0.00000000000E+00  0.00000000000E+00  0.18542950520E+04  0.18542950520E+04  0.25500000920E-02 0.  1.
       -2   -1    0    0    0  501  0.00000000000E+00  0.00000000000E+00 -0.14857706209E+04  0.14857706209E+04  0.25500000920E-02 0. -1.
    10030    2    1    2    0    0  0.00000000000E+00  0.00000000000E+00  0.36852443110E+03  0.33400656729E+04  0.33196729421E+04 0.  0.
        5    1    3    3  502    0  0.61727400239E+03 -0.10125880130E+04 -0.98419575155E+03  0.15411116266E+04  0.46999998093E+01 0.  1.
       -5    1    3    3    0  502 -0.61727400239E+03  0.10125880130E+04  0.13527201826E+04  0.17989540463E+04  0.46999998093E+01 0. -1.
</event>
<event>
 5   0  0.5325362E-07  0.3921201E+04  0.7818609E-02  0.8020634E-01
       -2   -1    0    0    0  501  0.00000000000E+00  0.00000000000E+00  0.15914830574E+04  0.15914830574E+04  0.25500000920E-02 0. -1.
        2   -1    0    0  501    0  0.00000000000E+00  0.00000000000E+00 -0.24153285170E+04  0.24153285170E+04  0.25500000920E-02 0.  1.
    10030    2    1    2    0    0  0.00000000000E+00  0.00000000000E+00 -0.82384545959E+03  0.40068115745E+04  0.39212010471E+04 0.  0.
        4    1    3    3  502    0 -0.93455243600E+03 -0.82026219709E+03  0.11369999171E+04  0.16849298953E+04  0.12699999809E+01 0. -1.
       -4    1    3    3    0  502  0.93455243600E+03  0.82026219709E+03 -0.19608453767E+04  0.23218816791E+04  0.12699999809E+01 0.  1.
</event>
<event>
 5   0  0.1648000E-07  0.3806024E+04  0.7818609E-02  0.8044863E-01
       -1   -1    0    0    0  501  0.00000000000E+00  0.00000000000E+00  0.23596513251E+04  0.23596513251E+04  0.50400001928E-02 0.  1.
        1   -1    0    0  501    0  0.00000000000E+00  0.00000000000E+00 -0.15347412442E+04  0.15347412442E+04  0.50400001928E-02 0. -1.
    10030    2    1    2    0    0  0.00000000000E+00  0.00000000000E+00  0.82491008091E+03  0.38943925693E+04  0.38060237574E+04 0.  0.
        3    1    3    3  502    0  0.14853415316E+04 -0.10232865845E+04  0.10332536412E+04  0.20786938198E+04  0.10100000352E+00 0. -1.
       -3    1    3    3    0  502 -0.14853415316E+04  0.10232865845E+04 -0.20834356026E+03  0.18156987495E+04  0.10100000352E+00 0.  1.
</event>
<event>
 5   0  0.1648000E-07  0.3665008E+04  0.7818609E-02  0.8075761E-01
       -1   -1    0    0    0  501  0.00000000000E+00  0.00000000000E+00  0.19112286607E+04  0.19112286607E+04  0.50400001928E-02 0. -1.
        1   -1    0    0  501    0  0.00000000000E+00  0.00000000000E+00 -0.17570224904E+04  0.17570224904E+04  0.50400001928E-02 0.  1.
    10030    2    1    2    0    0  0.00000000000E+00  0.00000000000E+00  0.15420617029E+03  0.36682511511E+04  0.36650084536E+04 0.  0.
        2    1    3    3  502    0 -0.14961572196E+04  0.78382373411E+03 -0.63430400544E+03  0.18042194000E+04  0.25500000920E-02 0. -1.
       -2    1    3    3    0  502  0.14961572196E+04 -0.78382373411E+03  0.78851017573E+03  0.18640317511E+04  0.25500000920E-02 0.  1.
</event>
<event>
 5   0  0.5325362E-07  0.3687133E+04  0.7818609E-02  0.8070819E-01
        2   -1    0    0  501    0  0.00000000000E+00  0.00000000000E+00  0.16144006238E+04  0.16144006238E+04  0.25500000920E-02 0.  1.
       -2   -1    0    0    0  501  0.00000000000E+00  0.00000000000E+00 -0.21052631162E+04  0.21052631162E+04  0.25500000920E-02 0. -1.
    10030    2    1    2    0    0  0.00000000000E+00  0.00000000000E+00 -0.49086249241E+03  0.37196637400E+04  0.36871333515E+04 0.  0.
        4    1    3    3  502    0 -0.77913956515E+03  0.11702058953E+04  0.95769127780E+03  0.17010627548E+04  0.12699999809E+01 0.  1.
       -4    1    3    3    0  502  0.77913956515E+03 -0.11702058953E+04 -0.14485537702E+04  0.20186009852E+04  0.12699999809E+01 0. -1.
</event>
<event>
 5   0  0.1648000E-07  0.3785016E+04  0.7818609E-02  0.8049378E-01
        1   -1    0    0  501    0  0.00000000000E+00  0.00000000000E+00  0.21829176679E+04  0.21829176679E+04  0.50400001928E-02 0. -1.
       -1   -1    0    0    0  501  0.00000000000E+00  0.00000000000E+00 -0.16407333239E+04  0.16407333239E+04  0.50400001928E-02 0.  1.
    10030    2    1    2    0    0  0.00000000000E+00  0.00000000000E+00  0.54218434405E+03  0.38236509918E+04  0.37850155936E+04 0.  0.
        1    1    3    3  502    0  0.16248467597E+04 -0.50635452391E+03 -0.56504224784E+03  0.17932636834E+04  0.50400001928E-02 0.  1.
       -1    1    3    3    0  502 -0.16248467597E+04  0.50635452391E+03  0.11072265919E+04  0.20303873084E+04  0.50400001928E-02 0. -1.
</event>
<event>
 5   0  0.5202788E-07  0.3823562E+04  0.7818609E-02  0.8041117E-01
       -2   -1    0    0    0  501  0.00000000000E+00  0.00000000000E+00  0.14617497697E+04  0.14617497697E+04  0.25500000920E-02 0. -1.
        2   -1    0    0  501    0  0.00000000000E+00  0.00000000000E+00 -0.25003637720E+04  0.25003637720E+04  0.25500000920E-02 0.  1.
    10030    2    1    2    0    0  0.00000000000E+00  0.00000000000E+00 -0.10386140023E+04  0.39621135417E+04  0.38235617782E+04 0.  0.
        1    1    3    3  502    0  0.13323096038E+04  0.13595639820E+04 -0.33555958082E+03  0.19328898918E+04  0.50400001928E-02 0. -1.
       -1    1    3    3    0  502 -0.13323096038E+04 -0.13595639820E+04 -0.70305442145E+03  0.20292236499E+04  0.50400001928E-02 0.  1.
</event>
<event>
 5   0  0.1648000E-07  0.3807126E+04  0.7818609E-02  0.8044627E-01
        1   -1    0    0  501    0  0.00000000000E+00  0.00000000000E+00  0.15476399256E+04  0.15476399256E+04  0.50400001928E-02 0.  1.
       -1   -1    0    0    0  501  0.00000000000E+00  0.00000000000E+00 -0.23413410295E+04  0.23413410295E+04  0.50400001928E-02 0. -1.
    10030    2    1    2    0    0  0.00000000000E+00  0.00000000000E+00 -0.79370110387E+03  0.38889809550E+04  0.38071264001E+04 0.  0.
        1    1    3    3  502    0 -0.10542186397E+04  0.51287018735E+03  0.11351071466E+04  0.16318336323E+04  0.50400001928E-02 0.  1.
       -1    1    3    3    0  502  0.10542186397E+04 -0.51287018735E+03 -0.19288082504E+04  0.22571473227E+04  0.50400001928E-02 0. -1.
</event>
<event>
 5   0  0.1648000E-07  0.3751591E+04  0.7818609E-02  0.8056624E-01
       -1   -1    0    0    0  501  0.00000000000E+00  0.00000000000E+00  0.28586926708E+04  0.28586926708E+04  0.50400001928E-02 0.  1.
        1   -1    0    0  501    0  0.00000000000E+00  0.00000000000E+00 -0.12308454545E+04  0.12308454545E+04  0.50400001928E-02 0. -1.
    10030    2    1    2    0    0  0.00000000000E+00  0.00000000000E+00  0.16278472164E+04  0.40895381253E+04  0.37515910650E+04 0.  0.
        1    1    3    3  502    0  0.11863427639E+04  0.12816986070E+04  0.15600109156E+04  0.23417503132E+04  0.50400001928E-02 0.  1.
       -1    1    3    3    0  502 -0.11863427639E+04 -0.12816986070E+04  0.67836300765E+02  0.17477878121E+04  0.50400001928E-02 0. -1.
</event>
<event>
 5   0  0.5132561E-07  0.3793116E+04  0.7818609E-02  0.8047634E-01
        2   -1    0    0  501    0  0.00000000000E+00  0.00000000000E+00  0.19775493696E+04  0.19775493696E+04  0.25500000920E-02 0.  1.
       -2   -1    0    0    0  501  0.00000000000E+00  0.00000000000E+00 -0.18188840570E+04  0.18188840570E+04  0.25500000920E-02 0. -1.
    10030    2    1    2    0    0  0.00000000000E+00  0.00000000000E+00  0.15866531252E+03  0.37964334266E+04  0.37931164076E+04 0.  0.
        3    1    3    3  502    0  0.11604207904E+04  0.14838938765E+04  0.29956044045E+03  0.19074207494E+04  0.10100000352E+00 0. -1.
       -3    1    3    3    0  502 -0.11604207904E+04 -0.14838938765E+04 -0.14089512793E+03  0.18890126772E+04  0.10100000352E+00 0.  1.
</event>
<event>
 5   0  0.1648000E-07  0.3870555E+04  0.7818609E-02  0.8031181E-01
        3   -1    0    0  501    0  0.00000000000E+00  0.00000000000E+00  0.16194405360E+04  0.16194405392E+04  0.10100000352E+00 0.  1.
       -3   -1    0    0    0  501  0.00000000000E+00  0.00000000000E+00 -0.23127110817E+04  0.23127110839E+04  0.10100000352E+00 0. -1.
    10030    2    1    2    0    0  0.00000000000E+00  0.00000000000E+00 -0.69327054565E+03  0.39321516230E+04  0.38705545258E+04 0.  0.
        2    1    3    3  502    0 -0.14683820880E+04 -0.12396063968E+04 -0.11379776174E+03  0.19250246508E+04  0.25500000920E-02 0.  1.
       -2    1    3    3    0  502  0.14683820880E+04  0.12396063968E+04 -0.57947278391E+03  0.20071269723E+04  0.25500000920E-02 0. -1.
</event>
<event>
 5   0  0.5132561E-07  0.3729928E+04  0.7818609E-02  0.8061362E-01
        2   -1    0    0  501    0  0.00000000000E+00  0.00000000000E+00  0.19257034290E+04  0.19257034290E+04  0.25500000920E-02 0. -1.
       -2   -1    0    0    0  501  0.00000000000E+00  0.00000000000E+00 -0.18061399744E+04  0.18061399745E+04  0.25500000920E-02 0.  1.
    10030    2    1    2    0    0  0.00000000000E+00  0.00000000000E+00  0.11956345459E+03  0.37318434035E+04  0.37299275822E+04 0.  0.
        3    1    3    3  502    0 -0.10411111271E+04 -0.48406371016E+03  0.15301827632E+04  0.19130314565E+04  0.10100000352E+00 0. -1.
       -3    1    3    3    0  502  0.10411111271E+04  0.48406371016E+03 -0.14106193086E+04  0.18188119470E+04  0.10100000352E+00 0.  1.
</event>
<event>
 5   0  0.5325362E-07  0.3786982E+04  0.7818609E-02  0.8048954E-01
       -2   -1    0    0    0  501  0.00000000000E+00  0.00000000000E+00  0.14453324817E+04  0.14453324818E+04  0.25500000920E-02 0.  1.
        2   -1    0    0  501    0  0.00000000000E+00  0.00000000000E+00 -0.24806116970E+04  0.24806116970E+04  0.25500000920E-02 0. -1.
    10030    2    1    2    0    0  0.00000000000E+00  0.00000000000E+00 -0.10352792153E+04  0.39259441788E+04  0.37869822605E+04 0.  0.
        4    1    3    3  502    0  0.16104813695E+04 -0.62489558956E+03  0.28615802197E+03  0.17510090707E+04  0.12699999809E+01 0. -1.
       -4    1    3    3    0  502 -0.16104813695E+04  0.62489558956E+03 -0.13214372372E+04  0.21749351080E+04  0.12699999809E+01 0.  1.
</event>
<event>
 5   0  0.5132561E-07  0.3857570E+04  0.7818609E-02  0.8033912E-01
       -2   -1    0    0    0  501  0.00000000000E+00  0.00000000000E+00  0.16620213359E+04  0.16620213359E+04  0.25500000920E-02 0.  1.
        2   -1    0    0  501    0  0.00000000000E+00  0.00000000000E+00 -0.22383653602E+04  0.22383653602E+04  0.25500000920E-02 0. -1.
    10030    2    1    2    0    0  0.00000000000E+00  0.00000000000E+00 -0.57634402436E+03  0.39003866961E+04  0.38575696941E+04 0.  0.
        3    1    3    3  502    0  0.95384526728E+03  0.16604892053E+04 -0.52130835826E+03  0.19846429425E+04  0.10100000352E+00 0. -1.
       -3    1    3    3    0  502 -0.95384526728E+03 -0.16604892053E+04 -0.55035666097E+02  0.19157437536E+04  0.10100000352E+00 0.  1.
</event>
<event>
 5   0  0.5202788E-07  0.3302063E+04  0.7818609E-02  0.8162371E-01
        2   -1    0    0  501    0  0.00000000000E+00  0.00000000000E+00  0.17690026009E+04  0.17690026009E+04  0.25500000920E-02 0. -1.
       -2   -1    0    0    0  501  0.00000000000E+00  0.00000000000E+00 -0.15409273392E+04  0.15409273392E+04  0.25500000920E-02 0.  1.
    10030    2    1    2    0    0  0.00000000000E+00  0.00000000000E+00  0.22807526169E+03  0.33099299401E+04  0.33020626710E+04 0.  0.
        1    1    3    3  502    0  0.13954027015E+04  0.55346812883E+03  0.80300979051E+03  0.17024395416E+04  0.50400001928E-02 0. -1.
       -1    1    3    3    0  502 -0.13954027015E+04 -0.55346812883E+03 -0.57493452882E+03  0.16074903985E+04  0.50400001928E-02 0.  1.
</event>
<event>
 5   0  0.1648000E-07  0.3847783E+04  0.7818609E-02  0.8035978E-01
        1   -1    0    0  501    0  0.00000000000E+00  0.00000000000E+00  0.23052370427E+04  0.23052370427E+04  0.50400001928E-02 0.  1.
       -1   -1    0    0    0  501  0.00000000000E+00  0.00000000000E+00 -0.16056304649E+04  0.16056304650E+04  0.50400001928E-02 0. -1.
    10030    2    1    2    0    0  0.00000000000E+00  0.00000000000E+00  0.69960657775E+03  0.39108675077E+04  0.38477831668E+04 0.  0.
        2    1    3    3  502    0  0.65978146193E+03  0.78211339766E+02  0.21849325736E+04  0.22837160380E+04  0.25500000920E-02 0.  1.
       -2    1    3    3    0  502 -0.65978146193E+03 -0.78211339766E+02 -0.14853259958E+04  0.16271514696E+04  0.25500000920E-02 0. -1.
</event>
<event>
 5   0  0.1648000E-07  0.3531012E+04  0.7818609E-02  0.8106479E-01
       -1   -1    0    0    0  501  0.00000000000E+00  0.00000000000E+00  0.21347792741E+04  0.21347792742E+04  0.50400001928E-02 0. -1.
        1   -1    0    0  501    0  0.00000000000E+00  0.00000000000E+00 -0.14601098656E+04  0.14601098656E+04  0.50400001928E-02 0.  1.
    10030    2    1    2    0    0  0.00000000000E+00  0.00000000000E+00  0.67466940851E+03  0.35948891398E+04  0.35310124775E+04 0.  0.
        4    1    3    3  502    0  0.21742996974E+03 -0.84258216932E+03 -0.12266155786E+04  0.15039308143E+04  0.12699999809E+01 0.  1.
       -4    1    3    3    0  502 -0.21742996974E+03  0.84258216932E+03  0.19012849871E+04  0.20909583255E+04  0.12699999809E+01 0. -1.
</event>
<event>
 5   0  0.5134434E-07  0.3672369E+04  0.7818609E-02  0.8074113E-01
       -2   -1    0    0    0  501  0.00000000000E+00  0.00000000000E+00  0.16417740915E+04  0.16417740915E+04  0.25500000920E-02 0.  1.
        2   -1    0    0  501    0  0.00000000000E+00  0.00000000000E+00 -0.20536159651E+04  0.20536159651E+04  0.25500000920E-02 0. -1.
    10030    2    1    2    0    0  0.00000000000E+00  0.00000000000E+00 -0.41184187367E+03  0.36953900566E+04  0.36723689822E+04 0.  0.
        5    1    3    3  502    0 -0.94346727550E+03 -0.13954474372E+04 -0.94135630606E+03  0.19296574398E+04  0.46999998093E+01 0. -1.
       -5    1    3    3    0  502  0.94346727550E+03  0.13954474372E+04  0.52951443240E+03  0.17657326168E+04  0.46999998093E+01 0.  1.
</event>
<event>
 5   0  0.1648000E-07  0.3868174E+04  0.7818609E-02  0.8031681E-01
       -1   -1    0    0    0  501  0.00000000000E+00  0.00000000000E+00  0.19798387638E+04  0.19798387638E+04  0.50400001928E-02 0. -1.
        1   -1    0    0  501    0  0.00000000000E+00  0.00000000000E+00 -0.18893926423E+04  0.18893926423E+04  0.50400001928E-02 0.  1.
    10030    2    1    2    0    0  0.00000000000E+00  0.00000000000E+00  0.90446121460E+02  0.38692314061E+04  0.38681741395E+04 0.  0.
        1    1    3    3  502    0 -0.63500295644E+02  0.82291706754E+03 -0.17043885216E+04  0.18937172493E+04  0.50400001928E-02 0.  1.
       -1    1    3    3    0  502  0.63500295644E+02 -0.82291706754E+03  0.17948346431E+04  0.19755141568E+04  0.50400001928E-02 0. -1.
</event>
<event>
 5   0  0.1648000E-07  0.3815677E+04  0.7818609E-02  0.8042799E-01
        1   -1    0    0  501    0  0.00000000000E+00  0.00000000000E+00  0.25996642373E+04  0.25996642373E+04  0.50400001928E-02 0.  1.
       -1   -1    0    0    0  501  0.00000000000E+00  0.00000000000E+00 -0.14001222433E+04  0.14001222433E+04  0.50400001928E-02 0. -1.
    10030    2    1    2    0    0  0.00000000000E+00  0.00000000000E+00  0.11995419941E+04  0.39997864806E+04  0.38156769904E+04 0.  0.
        4    1    3    3  502    0  0.42312198728E+03 -0.13677400733E+04 -0.72206495092E+03  0.16034726472E+04  0.12699999809E+01 0. -1.
       -4    1    3    3    0  502 -0.42312198728E+03  0.13677400733E+04  0.19216069450E+04  0.23963138334E+04  0.12699999809E+01 0.  1.
</event>
<event>
 5   0  0.1656617E-07  0.3796209E+04  0.7818609E-02  0.8046969E-01
       -1   -1    0    0    0  501  0.00000000000E+00  0.00000000000E+00  0.21264989473E+04  0.21264989473E+04  0.50400001928E-02 0. -1.
        1   -1    0    0  501    0  0.00000000000E+00  0.00000000000E+00 -0.16942404480E+04  0.16942404480E+04  0.50400001928E-02 0.  1.
    10030    2    1    2    0    0  0.00000000000E+00  0.00000000000E+00  0.43225849938E+03  0.38207393953E+04  0.37962089137E+04 0.  0.
        5    1    3    3  502    0  0.55047336741E+03 -0.11563032043E+04 -0.11938948358E+04  0.17508469372E+04  0.46999998093E+01 0.  1.
       -5    1    3    3    0  502 -0.55047336741E+03  0.11563032043E+04  0.16261533352E+04  0.20698924581E+04  0.46999998093E+01 0. -1.
</event>
<event>
 5   0  0.5325362E-07  0.3677175E+04  0.7818609E-02  0.8073039E-01
       -2   -1    0    0    0  501  0.00000000000E+00  0.00000000000E+00  0.23144794045E+04  0.23144794045E+04  0.25500000920E-02 0.  1.
        2   -1    0    0  501    0  0.00000000000E+00  0.00000000000E+00 -0.14605461737E+04  0.14605461737E+04  0.25500000920E-02 0. -1.
    10030    2    1    2    0    0  0.00000000000E+00  0.00000000000E+00  0.85393323074E+03  0.37750255782E+04  0.36771750235E+04 0.  0.
        4    1    3    3  502    0  0.56588509258E+03  0.10394549687E+04 -0.10174962107E+04  0.15607667096E+04  0.12699999809E+01 0. -1.
       -4    1    3    3    0  502 -0.56588509258E+03 -0.10394549687E+04  0.18714294414E+04  0.22142588686E+04  0.12699999809E+01 0.  1.
</event>
<event>
 5   0  0.1648000E-07  0.3818942E+04  0.7818609E-02  0.8042102E-01
        1   -1    0    0  501    0  0.00000000000E+00  0.00000000000E+00  0.27784072502E+04  0.27784072502E+04  0.50400001928E-02 0.  1.
       -1   -1    0    0    0  501  0.00000000000E+00  0.00000000000E+00 -0.13122909196E+04  0.13122909196E+04  0.50400001928E-02 0. -1.
    10030    2    1    2    0    0  0.00000000000E+00  0.00000000000E+00  0.14661163306E+04  0.40906981698E+04  0.38189415315E+04 0.  0.
        1    1    3    3  502    0  0.59966848064E+03  0.10899341400E+04  0.22847696411E+04  0.26014863115E+04  0.50400001928E-02 0.  1.
       -1    1    3    3    0  502 -0.59966848064E+03 -0.10899341400E+04 -0.81865331041E+03  0.14892118583E+04  0.50400001928E-02 0. -1.
</event>
<event>
 5   0  0.5158266E-07  0.3818489E+04  0.7818609E-02  0.8042199E-01
        2   -1    0    0  501    0  0.00000000000E+00  0.00000000000E+00  0.19951498725E+04  0.19951498725E+04  0.25500000920E-02 0. -1.
       -2   -1    0    0    0  501  0.00000000000E+00  0.00000000000E+00 -0.18270384010E+04  0.18270384010E+04  0.25500000920E-02 0.  1.
    10030    2    1    2    0    0  0.00000000000E+00  0.00000000000E+00  0.16811147148E+03  0.38221882735E+04  0.38184894567E+04 0.  0.
        2    1    3    3  502    0  0.52741728240E+02  0.19009239150E+04  0.25428519986E+03  0.19185813466E+04  0.25500000920E-02 0. -1.
       -2    1    3    3    0  502 -0.52741728240E+02 -0.19009239150E+04 -0.86173728381E+02  0.19036069269E+04  0.25500000920E-02 0.  1.
</event>
<event>
 5   0  0.5134434E-07  0.3859098E+04  0.7818609E-02  0.8033590E-01
       -2   -1    0    0    0  501  0.00000000000E+00  0.00000000000E+00  0.13069829362E+04  0.13069829362E+04  0.25500000920E-02 0. -1.
        2   -1    0    0  501    0  0.00000000000E+00  0.00000000000E+00 -0.28486677721E+04  0.28486677721E+04  0.25500000920E-02 0.  1.
    10030    2    1    2    0    0  0.00000000000E+00  0.00000000000E+00 -0.15416848359E+04  0.41556507082E+04  0.38590984278E+04 0.  0.
        5    1    3    3  502    0  0.17672126105E+04  0.56039980749E+03 -0.19490678650E+03  0.18641617688E+04  0.46999998093E+01 0.  1.
       -5    1    3    3    0  502 -0.17672126105E+04 -0.56039980749E+03 -0.13467780494E+04  0.22914889394E+04  0.46999998093E+01 0. -1.
</event>
<event>
 5   0  0.1648000E-07  0.3746933E+04  0.7818609E-02  0.8057640E-01
        1   -1    0    0  501    0  0.00000000000E+00  0.00000000000E+00  0.14372107091E+04  0.14372107091E+04  0.50400001928E-02 0.  1.
       -1   -1    0    0    0  501  0.00000000000E+00  0.00000000000E+00 -0.24421447417E+04  0.24421447417E+04  0.50400001928E-02 0. -1.
    10030    2    1    2    0    0  0.00000000000E+00  0.00000000000E+00 -0.10049340326E+04  0.38793554509E+04  0.37469329196E+04 0.  0.
        3    1    3    3  502    0  0.29341610460E+03  0.75076380612E+03  0.12484964884E+04  0.14860964958E+04  0.10100000352E+00 0.  1.
       -3    1    3    3    0  502 -0.29341610460E+03 -0.75076380612E+03 -0.22534305210E+04  0.23932589551E+04  0.10100000352E+00 0. -1.
</event>
<event>
 5   0  0.1656617E-07  0.3652983E+04  0.7818609E-02  0.8078462E-01
        1   -1    0    0  501    0  0.00000000000E+00  0.00000000000E+00  0.23386727912E+04  0.23386727912E+04  0.50400001928E-02 0. -1.
       -1   -1    0    0    0  501  0.00000000000E+00  0.00000000000E+00 -0.14264809109E+04  0.14264809109E+04  0.50400001928E-02 0.  1.
    10030    2    1    2    0    0  0.00000000000E+00  0.00000000000E+00  0.91219188031E+03  0.37651537022E+04  0.36529834895E+04 0.  0.
        5    1    3    3  502    0 -0.50977956539E+03  0.85002613745E+03  0.20373590151E+04  0.22656728551E+04  0.46999998093E+01 0. -1.
       -5    1    3    3    0  502  0.50977956539E+03 -0.85002613745E+03 -0.11251671348E+04  0.14994808471E+04  0.46999998093E+01 0.  1.
</event>
<event>
 5   0  0.5158266E-07  0.3782102E+04  0.7818609E-02  0.8050007E-01
       -2   -1    0    0    0  501  0.00000000000E+00  0.00000000000E+00  0.12425903217E+04  0.12425903217E+04  0.25500000920E-02 0. -1.
        2   -1    0    0  501    0  0.00000000000E+00  0.00000000000E+00 -0.28779186387E+04  0.28779186387E+04  0.25500000920E-02 0.  1.
    10030    2    1    2    0    0  0.00000000000E+00  0.00000000000E+00 -0.16353283170E+04  0.41205089604E+04  0.37821019801E+04 0.  0.
        2    1    3    3  502    0  0.41369943304E+03  0.18157784046E+04 -0.11754958988E+04  0.22022690670E+04  0.25500000920E-02 0. -1.
       -2    1    3    3    0  502 -0.41369943304E+03 -0.18157784046E+04 -0.45983241825E+03  0.19182398933E+04  0.25500000920E-02 0.  1.
</event>
<event>
 5   0  0.1648000E-07  0.3841502E+04  0.7818609E-02  0.8037307E-01
       -1   -1    0    0    0  501  0.00000000000E+00  0.00000000000E+00  0.14903579514E+04  0.14903579514E+04  0.50400001928E-02 0.  1.
        1   -1    0    0  501    0  0.00000000000E+00  0.00000000000E+00 -0.24754351905E+04  0.24754351905E+04  0.50400001928E-02 0. -1.
    10030    2    1    2    0    0  0.00000000000E+00  0.00000000000E+00 -0.98507723913E+03  0.39657931419E+04  0.38415020600E+04 0.  0.
        4    1    3    3  502    0 -0.82019972590E+02  0.21855371388E+03  0.14756587342E+04  0.14940091414E+04  0.12699999809E+01 0.  1.
       -4    1    3    3    0  502  0.82019972590E+02 -0.21855371388E+03 -0.24607359733E+04  0.24717840005E+04  0.12699999809E+01 0. -1.
</event>
<event>
 5   0  0.5132561E-07  0.3815936E+04  0.7818609E-02  0.8042744E-01
        2   -1    0    0  501    0  0.00000000000E+00  0.00000000000E+00  0.14791771938E+04  0.14791771938E+04  0.25500000920E-02 0.  1.
       -2   -1    0    0    0  501  0.00000000000E+00  0.00000000000E+00 -0.24610588288E+04  0.24610588288E+04  0.25500000920E-02 0. -1.
    10030    2    1    2    0    0  0.00000000000E+00  0.00000000000E+00 -0.98188163498E+03  0.39402360227E+04  0.38159361066E+04 0.  0.
        3    1    3    3  502    0 -0.42506250609E+01 -0.18859523638E+04 -0.19255072922E+03  0.18957611083E+04  0.10100000352E+00 0.  1.
       -3    1    3    3    0  502  0.42506250609E+01  0.18859523638E+04 -0.78933090577E+03  0.20444749143E+04  0.10100000352E+00 0. -1.
</event>
<event>
 5   0  0.5134434E-07  0.3518406E+04  0.7818609E-02  0.8109442E-01
        2   -1    0    0  501    0  0.00000000000E+00  0.00000000000E+00  0.10767905471E+04  0.10767905471E+04  0.25500000920E-02 0.  1.
       -2   -1    0    0    0  501  0.00000000000E+00  0.00000000000E+00 -0.28740918952E+04  0.28740918952E+04  0.25500000920E-02 0. -1.
    10030    2    1    2    0    0  0.00000000000E+00  0.00000000000E+00 -0.17973013480E+04  0.39508824423E+04  0.35184058801E+04 0.  0.
        5    1    3    3  502    0  0.29413824946E+03 -0.14004842154E+04  0.25029812529E+03  0.14527713478E+04  0.46999998093E+01 0.  1.
       -5    1    3    3    0  502 -0.29413824946E+03  0.14004842154E+04 -0.20475994733E+04  0.24981110945E+04  0.46999998093E+01 0. -1.
</event>
<event>
 5   0  0.5202788E-07  0.3849333E+04  0.7818609E-02  0.8035650E-01
       -2   -1    0    0    0  501  0.00000000000E+00  0.00000000000E+00  0.13867940779E+04  0.13867940779E+04  0.25500000920E-02 0.  1.
        2   -1    0    0  501    0  0.00000000000E+00  0.00000000000E+00 -0.26711540107E+04  0.26711540107E+04  0.25500000920E-02 0. -1.
    10030    2    1    2    0    0  0.00000000000E+00  0.00000000000E+00 -0.12843599328E+04  0.40579480886E+04  0.38493327023E+04 0.  0.
        1    1    3    3  502    0  0.48021018142E+03  0.12683574432E+04  0.79748489149E+03  0.15733132473E+04  0.50400001928E-02 0. -1.
       -1    1    3    3    0  502 -0.48021018142E+03 -0.12683574432E+04 -0.20818448243E+04  0.24846348413E+04  0.50400001928E-02 0.  1.
</event>
<event>
 5   0  0.1648000E-07  0.3788452E+04  0.7818609E-02  0.8048638E-01
       -1   -1    0    0    0  501  0.00000000000E+00  0.00000000000E+00  0.31262194400E+04  0.31262194400E+04  0.50400001928E-02 0.  1.
        1   -1    0    0  501    0  0.00000000000E+00  0.00000000000E+00 -0.11477417560E+04  0.11477417560E+04  0.50400001928E-02 0. -1.
    10030    2    1    2    0    0  0.00000000000E+00  0.00000000000E+00  0.19784776841E+04  0.42739611960E+04  0.37884522378E+04 0.  0.
        4    1    3    3  502    0 -0.31701796979E+03 -0.15893914999E+04 -0.11694298396E+03  0.16249132308E+04  0.12699999809E+01 0. -1.
       -4    1    3    3    0  502  0.31701796979E+03  0.15893914999E+04  0.20954206680E+04  0.26490479652E+04  0.12699999809E+01 0.  1.
</event>
<event>
 5   0  0.5202788E-07  0.3780340E+04  0.7818609E-02  0.8050387E-01
       -2   -1    0    0    0  501  0.00000000000E+00  0.00000000000E+00  0.18833681083E+04  0.18833681083E+04  0.25500000920E-02 0.  1.
        2   -1    0    0  501    0  0.00000000000E+00  0.00000000000E+00 -0.18969968093E+04  0.18969968093E+04  0.25500000920E-02 0. -1.
    10030    2    1    2    0    0  0.00000000000E+00  0.00000000000E+00 -0.13628700931E+02  0.37803649176E+04  0.37803403509E+04 0.  0.
        1    1    3    3  502    0  0.18222433347E+04  0.28065702254E+03 -0.42323530415E+03  0.18916837098E+04  0.50400001928E-02 0. -1.
       -1    1    3    3    0  502 -0.18222433347E+04 -0.28065702254E+03  0.40960660322E+03  0.18886812078E+04  0.50400001928E-02 0.  1.
</event>
<event>
 5   0  0.1648000E-07  0.3787234E+04  0.7818609E-02  0.8048900E-01
        1   -1    0    0  501    0  0.00000000000E+00  0.00000000000E+00  0.22374746097E+04  0.22374746097E+04  0.50400001928E-02 0.  1.
       -1   -1    0    0    0  501  0.00000000000E+00  0.00000000000E+00 -0.16026042092E+04  0.16026042092E+04  0.50400001928E-02 0. -1.
    10030    2    1    2    0    0  0.00000000000E+00  0.00000000000E+00  0.63487040045E+03  0.38400788189E+04  0.37872344672E+04 0.  0.
        1    1    3    3  502    0  0.93920351756E+03  0.57533831793E+03  0.18792750703E+04  0.21782543968E+04  0.50400001928E-02 0.  1.
       -1    1    3    3    0  502 -0.93920351756E+03 -0.57533831793E+03 -0.12444046698E+04  0.16618244221E+04  0.50400001928E-02 0. -1.
</event>
<event>
 5   0  0.5325362E-07  0.3808767E+04  0.7818609E-02  0.8044276E-01
       -2   -1    0    0    0  501  0.00000000000E+00  0.00000000000E+00  0.14640991767E+04  0.14640991767E+04  0.25500000920E-02 0.  1.
        2   -1    0    0  501    0  0.00000000000E+00  0.00000000000E+00 -0.24770696679E+04  0.24770696679E+04  0.25500000920E-02 0. -1.
    10030    2    1    2    0    0  0.00000000000E+00  0.00000000000E+00 -0.10129704912E+04  0.39411688447E+04  0.38087665518E+04 0.  0.
        4    1    3    3  502    0 -0.18492790309E+04 -0.39608319079E+03 -0.27519968859E+03  0.19111387468E+04  0.12699999809E+01 0. -1.
       -4    1    3    3    0  502  0.18492790309E+04  0.39608319079E+03 -0.73777080261E+03  0.20300300979E+04  0.12699999809E+01 0.  1.
</event>
<event>
 5   0  0.1648000E-07  0.3791764E+04  0.7818609E-02  0.8047925E-01
       -1   -1    0    0    0  501  0.00000000000E+00  0.00000000000E+00  0.15183191259E+04  0.15183191259E+04  0.50400001928E-02 0.  1.
        1   -1    0    0  501    0  0.00000000000E+00  0.00000000000E+00 -0.23673341974E+04  0.23673341974E+04  0.50400001928E-02 0. -1.
    10030    2    1    2    0    0  0.00000000000E+00  0.00000000000E+00 -0.84901507148E+03  0.38856533233E+04  0.37917641221E+04 0.  0.
        1    1    3    3  502    0 -0.60928242614E+03 -0.70004805521E+03 -0.21186449207E+04  0.23129956019E+04  0.50400001928E-02 0. -1.
       -1    1    3    3    0  502  0.60928242614E+03  0.70004805521E+03  0.12696298493E+04  0.15726577214E+04  0.50400001928E-02 0.  1.
</event>
<event>
 5   0  0.5134434E-07  0.3868052E+04  0.7818609E-02  0.8031707E-01
        2   -1    0    0  501    0  0.00000000000E+00  0.00000000000E+00  0.13437279752E+04  0.13437279752E+04  0.25500000920E-02 0. -1.
       -2   -1    0    0    0  501  0.00000000000E+00  0.00000000000E+00 -0.27836411611E+04  0.27836411611E+04  0.25500000920E-02 0.  1.
    10030    2    1    2    0    0  0.00000000000E+00  0.00000000000E+00 -0.14399131858E+04  0.41273691363E+04  0.38680519651E+04 0.  0.
        5    1    3    3  502    0  0.69558230751E+03  0.71207178952E+03  0.10493866593E+04  0.14464146814E+04  0.46999998093E+01 0. -1.
       -5    1    3    3    0  502 -0.69558230751E+03 -0.71207178952E+03 -0.24892998451E+04  0.26809544549E+04  0.46999998093E+01 0.  1.
</event>
<event>
 5   0  0.5134434E-07  0.3824750E+04  0.7818609E-02  0.8040864E-01
       -2   -1    0    0    0  501  0.00000000000E+00  0.00000000000E+00  0.19890091671E+04  0.19890091671E+04  0.25500000920E-02 0. -1.
        2   -1    0    0  501    0  0.00000000000E+00  0.00000000000E+00 -0.18386933063E+04  0.18386933063E+04  0.25500000920E-02 0.  1.
    10030    2    1    2    0    0  0.00000000000E+00  0.00000000000E+00  0.15031586077E+03  0.38277024734E+04  0.38247498437E+04 0.  0.
        5    1    3    3  502    0  0.38819275406E+03  0.18696573133E+04  0.17937125390E+03  0.19179437480E+04  0.46999998093E+01 0. -1.
       -5    1    3    3    0  502 -0.38819275406E+03 -0.18696573133E+04 -0.29055393124E+02  0.19097587255E+04  0.46999998093E+01 0.  1.
</event>
<event>
 5   0  0.5158266E-07  0.3714040E+04  0.7818609E-02  0.8064857E-01
       -2   -1    0    0    0  501  0.00000000000E+00  0.00000000000E+00  0.21401113766E+04  0.21401113766E+04  0.25500000920E-02 0. -1.
        2   -1    0    0  501    0  0.00000000000E+00  0.00000000000E+00 -0.16113758232E+04  0.16113758232E+04  0.25500000920E-02 0.  1.
    10030    2    1    2    0    0  0.00000000000E+00  0.00000000000E+00  0.52873555336E+03  0.37514871999E+04  0.37140402428E+04 0.  0.
        2    1    3    3  502    0  0.47266143932E+03 -0.35391239345E+03  0.20427617085E+04  0.21263908898E+04  0.25500000920E-02 0. -1.
       -2    1    3    3    0  502 -0.47266143932E+03  0.35391239345E+03 -0.15140261552E+04  0.16250963101E+04  0.25500000920E-02 0.  1.
</event>
<event>
 5   0  0.5158266E-07  0.3694643E+04  0.7818609E-02  0.8069150E-01
       -2   -1    0    0    0  501  0.00000000000E+00  0.00000000000E+00  0.17799941668E+04  0.17799941668E+04  0.25500000920E-02 0. -1.
        2   -1    0    0  501    0  0.00000000000E+00  0.00000000000E+00 -0.19171953274E+04  0.19171953274E+04  0.25500000920E-02 0.  1.
    10030    2    1    2    0    0  0.00000000000E+00  0.00000000000E+00 -0.13720116062E+03  0.36971894943E+04  0.36946428783E+04 0.  0.
        2    1    3    3  502    0  0.13680836302E+04  0.11502917249E+04 -0.53558338586E+03  0.18659242843E+04  0.25500000920E-02 0.  1.
       -2    1    3    3    0  502 -0.13680836302E+04 -0.11502917249E+04  0.39838222523E+03  0.18312652099E+04  0.25500000920E-02 0. -1.
</event>
<event>
 5   0  0.5202788E-07  0.3786798E+04  0.7818609E-02  0.8048994E-01
        2   -1    0    0  501    0  0.00000000000E+00  0.00000000000E+00  0.18504373418E+04  0.18504373418E+04  0.25500000920E-02 0.  1.
       -2   -1    0    0    0  501  0.00000000000E+00  0.00000000000E+00 -0.19373582916E+04  0.19373582916E+04  0.25500000920E-02 0. -1.
    10030    2    1    2    0    0  0.00000000000E+00  0.00000000000E+00 -0.86920949741E+02  0.37877956334E+04  0.37867981869E+04 0.  0.
        1    1    3    3  502    0  0.46284464955E+03  0.80636128563E+02  0.17912071490E+04  0.18517965346E+04  0.50400001928E-02 0.  1.
       -1    1    3    3    0  502 -0.46284464955E+03 -0.80636128563E+02 -0.18781280988E+04  0.19359990987E+04  0.50400001928E-02 0. -1.
</event>
<event>
 5   0  0.1656617E-07  0.3319794E+04  0.7818609E-02  0.8157877E-01
       -1   -1    0    0    0  501  0.00000000000E+00  0.00000000000E+00  0.11903112455E+04  0.11903112455E+04  0.50400001928E-02 0. -1.
        1   -1    0    0  501    0  0.00000000000E+00  0.00000000000E+00 -0.23147371928E+04  0.23147371928E+04  0.50400001928E-02 0.  1.
    10030    2    1    2    0    0  0.00000000000E+00  0.00000000000E+00 -0.11244259474E+04  0.35050484383E+04  0.33197937954E+04 0.  0.
        5    1    3    3  502    0  0.93238157078E+03 -0.68203711146E+03 -0.18206689257E+04  0.21562391894E+04  0.46999998093E+01 0.  1.
       -5    1    3    3    0  502 -0.93238157078E+03  0.68203711146E+03  0.69624297836E+03  0.13488092489E+04  0.46999998093E+01 0. -1.
</event>
<event>
 5   0  0.1648000E-07  0.2744688E+04  0.7818609E-02  0.8320649E-01
       -1   -1    0    0    0  501  0.00000000000E+00  0.00000000000E+00  0.27447123948E+04  0.27447123948E+04  0.50400001928E-02 0.  1.
        1   -1    0    0  501    0  0.00000000000E+00  0.00000000000E+00 -0.68616578541E+03  0.68616578543E+03  0.50400001928E-02 0. -1.
    10030    2    1    2    0    0  0.00000000000E+00  0.00000000000E+00  0.20585466093E+04  0.34308781802E+04  0.27446877681E+04 0.  0.
        3    1    3    3  502    0  0.31183364175E+03 -0.65112230058E+03  0.24881587534E+04  0.25907787367E+04  0.10100000352E+00 0.  1.
       -3    1    3    3    0  502 -0.31183364175E+03  0.65112230058E+03 -0.42961214402E+03  0.84009944347E+03  0.10100000352E+00 0. -1.
</event>
<event>
 5   0  0.5132561E-07  0.3775074E+04  0.7818609E-02  0.8051525E-01
        2   -1    0    0  501    0  0.00000000000E+00  0.00000000000E+00  0.23930856971E+04  0.23930856971E+04  0.25500000920E-02 0. -1.
       -2   -1    0    0    0  501  0.00000000000E+00  0.00000000000E+00 -0.14887875162E+04  0.14887875162E+04  0.25500000920E-02 0.  1.
    10030    2    1    2    0    0  0.00000000000E+00  0.00000000000E+00  0.90429818093E+03  0.38818732134E+04  0.37750740979E+04 0.  0.
        3    1    3    3  502    0  0.11126958521E+04 -0.10274179012E+04 -0.70627241430E+03  0.16710775974E+04  0.10100000352E+00 0.  1.
       -3    1    3    3    0  502 -0.11126958521E+04  0.10274179012E+04  0.16105705952E+04  0.22107956160E+04  0.10100000352E+00 0. -1.
</event>
<event>
 5   0  0.1648000E-07  0.3219803E+04  0.7818609E-02  0.8183607E-01
        1   -1    0    0  501    0  0.00000000000E+00  0.00000000000E+00  0.11124802537E+04  0.11124802537E+04  0.50400001928E-02 0. -1.
       -1   -1    0    0    0  501  0.00000000000E+00  0.00000000000E+00 -0.23297338004E+04  0.23297338004E+04  0.50400001928E-02 0.  1.
    10030    2    1    2    0    0  0.00000000000E+00  0.00000000000E+00 -0.12172535467E+04  0.34422140542E+04  0.32198030060E+04 0.  0.
        1    1    3    3  502    0  0.48551456253E+03  0.14981137719E+04 -0.25130328315E+03  0.15947484454E+04  0.50400001928E-02 0. -1.
       -1    1    3    3    0  502 -0.48551456253E+03 -0.14981137719E+04 -0.96595026357E+03  0.18474656088E+04  0.50400001928E-02 0.  1.
</event>
<event>
 5   0  0.5158266E-07  0.3810013E+04  0.7818609E-02  0.8044009E-01
       -2   -1    0    0    0  501  0.00000000000E+00  0.00000000000E+00  0.28639310017E+04  0.28639310017E+04  0.25500000920E-02 0. -1.
        2   -1    0    0  501    0  0.00000000000E+00  0.00000000000E+00 -0.12671569578E+04  0.12671569578E+04  0.25500000920E-02 0.  1.
    10030    2    1    2    0    0  0.00000000000E+00  0.00000000000E+00  0.15967740439E+04  0.41310879595E+04  0.38100131735E+04 0.  0.
        2    1    3    3  502    0  0.16533257058E+04  0.42308374621E+03  0.17162240272E+04  0.24203120991E+04  0.25500000920E-02 0. -1.
       -2    1    3    3    0  502 -0.16533257058E+04 -0.42308374621E+03 -0.11944998329E+03  0.17107758604E+04  0.25500000920E-02 0.  1.
</event>
<event>
 5   0  0.1648000E-07  0.3848586E+04  0.7818609E-02  0.8035808E-01
        1   -1    0    0  501    0  0.00000000000E+00  0.00000000000E+00  0.24731433843E+04  0.24731433843E+04  0.50400001928E-02 0. -1.
       -1   -1    0    0    0  501  0.00000000000E+00  0.00000000000E+00 -0.14972458008E+04  0.14972458008E+04  0.50400001928E-02 0.  1.
    10030    2    1    2    0    0  0.00000000000E+00  0.00000000000E+00  0.97589758356E+03  0.39703891851E+04  0.38485859985E+04 0.  0.
        4    1    3    3  502    0 -0.83329923471E+03 -0.15414168217E+03  0.22702709372E+04  0.24232785671E+04  0.12699999809E+01 0. -1.
       -4    1    3    3    0  502  0.83329923471E+03  0.15414168217E+03 -0.12943733536E+04  0.15471106180E+04  0.12699999809E+01 0.  1.
</event>
<event>
 5   0  0.1648000E-07  0.3881674E+04  0.7818609E-02  0.8028852E-01
       -1   -1    0    0    0  501  0.00000000000E+00  0.00000000000E+00  0.28101305971E+04  0.28101305971E+04  0.50400001928E-02 0. -1.
        1   -1    0    0  501    0  0.00000000000E+00  0.00000000000E+00 -0.13404528566E+04  0.13404528566E+04  0.50400001928E-02 0.  1.
    10030    2    1    2    0    0  0.00000000000E+00  0.00000000000E+00  0.14696777404E+04  0.41505834537E+04  0.38816736526E+04 0.  0.
        1    1    3    3  502    0  0.87856259225E+03  0.12454318117E+04 -0.55001850901E+03  0.16203373064E+04  0.50400001928E-02 0.  1.
       -1    1    3    3    0  502 -0.87856259225E+03 -0.12454318117E+04  0.20196962494E+04  0.25302461473E+04  0.50400001928E-02 0. -1.
</event>
<event>
 5   0  0.1648000E-07  0.3778414E+04  0.7818609E-02  0.8050803E-01
       -1   -1    0    0    0  501  0.00000000000E+00  0.00000000000E+00  0.12099259121E+04  0.12099259121E+04  0.50400001928E-02 0.  1.
        1   -1    0    0  501    0  0.00000000000E+00  0.00000000000E+00 -0.29498526255E+04  0.29498526255E+04  0.50400001928E-02 0. -1.
    10030    2    1    2    0    0  0.00000000000E+00  0.00000000000E+00 -0.17399267134E+04  0.41597785376E+04  0.37784140210E+04 0.  0.
        2    1    3    3  502    0 -0.15361356197E+04  0.49820164395E+03 -0.19493183263E+04  0.25313552610E+04  0.25500000920E-02 0. -1.
       -2    1    3    3    0  502  0.15361356197E+04 -0.49820164395E+03  0.20939161294E+03  0.16284232766E+04  0.25500000920E-02 0.  1.
</event>
<event>
 5   0  0.1656617E-07  0.3640241E+04  0.7818609E-02  0.8081336E-01
        1   -1    0    0  501    0  0.00000000000E+00  0.00000000000E+00  0.25598632330E+04  0.25598632330E+04  0.50400001928E-02 0.  1.
       -1   -1    0    0    0  501  0.00000000000E+00  0.00000000000E+00 -0.12941468007E+04  0.12941468007E+04  0.50400001928E-02 0. -1.
    10030    2    1    2    0    0  0.00000000000E+00  0.00000000000E+00  0.12657164323E+04  0.38540100337E+04  0.36402410982E+04 0.  0.
        5    1    3    3  502    0  0.91783062341E+03 -0.15042866837E+04  0.11151592117E+04  0.20854001144E+04  0.46999998093E+01 0. -1.
       -5    1    3    3    0  502 -0.91783062341E+03  0.15042866837E+04  0.15055722062E+03  0.17686099193E+04  0.46999998093E+01 0.  1.
</event>
<event>
 5   0  0.5325362E-07  0.3747219E+04  0.7818609E-02  0.8057577E-01
       -2   -1    0    0    0  501  0.00000000000E+00  0.00000000000E+00  0.17994197700E+04  0.17994197700E+04  0.25500000920E-02 0. -1.
        2   -1    0    0  501    0  0.00000000000E+00  0.00000000000E+00 -0.19508583634E+04  0.19508583634E+04  0.25500000920E-02 0.  1.
    10030    2    1    2    0    0  0.00000000000E+00  0.00000000000E+00 -0.15143859337E+03  0.37502781334E+04  0.37472192931E+04 0.  0.
        4    1    3    3  502    0 -0.45255336481E+03 -0.64654754936E+02 -0.18941853515E+04  0.19485698715E+04  0.12699999809E+01 0.  1.
       -4    1    3    3    0  502  0.45255336481E+03  0.64654754936E+02  0.17427467581E+04  0.18017082619E+04  0.12699999809E+01 0. -1.
</event>
<event>
 5   0  0.5325362E-07  0.3820679E+04  0.7818609E-02  0.8041732E-01
       -2   -1    0    0    0  501  0.00000000000E+00  0.00000000000E+00  0.19003756701E+04  0.19003756701E+04  0.25500000920E-02 0.  1.
        2   -1    0    0  501    0  0.00000000000E+00  0.00000000000E+00 -0.19203560469E+04  0.19203560469E+04  0.25500000920E-02 0. -1.
    10030    2    1    2    0    0  0.00000000000E+00  0.00000000000E+00 -0.19980376834E+02  0.38207317170E+04  0.38206794733E+04 0.  0.
        4    1    3    3  502    0 -0.29356026664E+03  0.16861783546E+04 -0.85854243430E+03  0.19148033314E+04  0.12699999809E+01 0.  1.
       -4    1    3    3    0  502  0.29356026664E+03 -0.16861783546E+04  0.83856205747E+03  0.19059283855E+04  0.12699999809E+01 0. -1.
</event>
<event>
 5   0  0.1648000E-07  0.3961360E+04  0.7818609E-02  0.8012387E-01
        1   -1    0    0  501    0  0.00000000000E+00  0.00000000000E+00  0.24153849540E+04  0.24153849540E+04  0.50400001928E-02 0.  1.
       -1   -1    0    0    0  501  0.00000000000E+00  0.00000000000E+00 -0.16242106110E+04  0.16242106110E+04  0.50400001928E-02 0. -1.
    10030    2    1    2    0    0  0.00000000000E+00  0.00000000000E+00  0.79117434305E+03  0.40395955650E+04  0.39613603077E+04 0.  0.
        2    1    3    3  502    0  0.95800043094E+03  0.83239381334E+03 -0.11551195799E+04  0.17160843598E+04  0.25500000920E-02 0. -1.
       -2    1    3    3    0  502 -0.95800043094E+03 -0.83239381334E+03  0.19462939229E+04  0.23235112052E+04  0.25500000920E-02 0.  1.
</event>
<event>
 5   0  0.5325362E-07  0.3889935E+04  0.7818609E-02  0.8027126E-01
        2   -1    0    0  501    0  0.00000000000E+00  0.00000000000E+00  0.24176826092E+04  0.24176826092E+04  0.25500000920E-02 0. -1.
       -2   -1    0    0    0  501  0.00000000000E+00  0.00000000000E+00 -0.15646793476E+04  0.15646793476E+04  0.25500000920E-02 0.  1.
    10030    2    1    2    0    0  0.00000000000E+00  0.00000000000E+00  0.85300326162E+03  0.39823619569E+04  0.38899347284E+04 0.  0.
        4    1    3    3  502    0 -0.10230510495E+04 -0.16535611570E+04  0.38073500624E+03  0.19813779820E+04  0.12699999809E+01 0.  1.
       -4    1    3    3    0  502  0.10230510495E+04  0.16535611570E+04  0.47226825538E+03  0.20009839749E+04  0.12699999809E+01 0. -1.
</event>
<event>
 5   0  0.5202788E-07  0.3851995E+04  0.7818609E-02  0.8035088E-01
        2   -1    0    0  501    0  0.00000000000E+00  0.00000000000E+00  0.19110153752E+04  0.19110153752E+04  0.25500000920E-02 0.  1.
       -2   -1    0    0    0  501  0.00000000000E+00  0.00000000000E+00 -0.19410971204E+04  0.19410971204E+04  0.25500000920E-02 0. -1.
    10030    2    1    2    0    0  0.00000000000E+00  0.00000000000E+00 -0.30081745147E+02  0.38521124956E+04  0.38519950373E+04 0.  0.
        1    1    3    3  502    0 -0.71470668227E+03 -0.10004641227E+04  0.14674794044E+04  0.19144790165E+04  0.50400001928E-02 0.  1.
       -1    1    3    3    0  502  0.71470668227E+03  0.10004641227E+04 -0.14975611495E+04  0.19376334790E+04  0.50400001928E-02 0. -1.
</event>
<event>
 5   0  0.5325362E-07  0.3752094E+04  0.7818609E-02  0.8056514E-01
       -2   -1    0    0    0  501  0.00000000000E+00  0.00000000000E+00  0.28324030172E+04  0.28324030172E+04  0.25500000920E-02 0. -1.
        2   -1    0    0  501    0  0.00000000000E+00  0.00000000000E+00 -0.12426027331E+04  0.12426027331E+04  0.25500000920E-02 0.  1.
    10030    2    1    2    0    0  0.00000000000E+00  0.00000000000E+00  0.15898002841E+04  0.40750057504E+04  0.37520936718E+04 0.  0.
        4    1    3    3  502    0  0.52031170208E+03 -0.13895123904E+04  0.20417829338E+04  0.25239548554E+04  0.12699999809E+01 0. -1.
       -4    1    3    3    0  502 -0.52031170208E+03  0.13895123904E+04 -0.45198264967E+03  0.15510508950E+04  0.12699999809E+01 0.  1.
</event>
<event>
 5   0  0.1656617E-07  0.3222399E+04  0.7818609E-02  0.8182927E-01
        1   -1    0    0  501    0  0.00000000000E+00  0.00000000000E+00  0.15411168160E+04  0.15411168160E+04  0.50400001928E-02 0.  1.
       -1   -1    0    0    0  501  0.00000000000E+00  0.00000000000E+00 -0.16844693571E+04  0.16844693572E+04  0.50400001928E-02 0. -1.
    10030    2    1    2    0    0  0.00000000000E+00  0.00000000000E+00 -0.14335254119E+03  0.32255861731E+04  0.32223991387E+04 0.  0.
        5    1    3    3  502    0 -0.33737914974E+02  0.31252879071E+03  0.15101174459E+04  0.15424945000E+04  0.46999998093E+01 0.  1.
       -5    1    3    3    0  502  0.33737914974E+02 -0.31252879071E+03 -0.16534699871E+04  0.16830916732E+04  0.46999998093E+01 0. -1.
</event>
<event>
 5   0  0.5134434E-07  0.4268702E+04  0.7818609E-02  0.7952431E-01
        2   -1    0    0  501    0  0.00000000000E+00  0.00000000000E+00  0.20018417139E+04  0.20018417139E+04  0.25500000920E-02 0.  1.
       -2   -1    0    0    0  501  0.00000000000E+00  0.00000000000E+00 -0.22756311372E+04  0.22756311372E+04  0.25500000920E-02 0. -1.
    10030    2    1    2    0    0  0.00000000000E+00  0.00000000000E+00 -0.27378942327E+03  0.42774728511E+04  0.42687015993E+04 0.  0.
        5    1    3    3  502    0 -0.43772868184E+02  0.17074685245E+04 -0.14193942535E+04  0.22208257391E+04  0.46999998093E+01 0. -1.
       -5    1    3    3    0  502  0.43772868184E+02 -0.17074685245E+04  0.11456048303E+04  0.20566471120E+04  0.46999998093E+01 0.  1.
</event>
<event>
 5   0  0.1656617E-07  0.3855621E+04  0.7818609E-02  0.8034323E-01
        1   -1    0    0  501    0  0.00000000000E+00  0.00000000000E+00  0.32511874320E+04  0.32511874320E+04  0.50400001928E-02 0. -1.
       -1   -1    0    0    0  501  0.00000000000E+00  0.00000000000E+00 -0.11431065366E+04  0.11431065366E+04  0.50400001928E-02 0.  1.
    10030    2    1    2    0    0  0.00000000000E+00  0.00000000000E+00  0.21080808954E+04  0.43942939686E+04  0.38556211459E+04 0.  0.
        5    1    3    3  502    0  0.95009962148E+03  0.17731494129E+03 -0.84702408284E+03  0.12851465932E+04  0.46999998093E+01 0.  1.
       -5    1    3    3    0  502 -0.95009962148E+03 -0.17731494129E+03  0.29551049783E+04  0.31091473754E+04  0.46999998093E+01 0. -1.
</event>
<event>
 5   0  0.1648000E-07  0.3776691E+04  0.7818609E-02  0.8051175E-01
       -1   -1    0    0    0  501  0.00000000000E+00  0.00000000000E+00  0.13135252142E+04  0.13135252142E+04  0.50400001928E-02 0.  1.
        1   -1    0    0  501    0  0.00000000000E+00  0.00000000000E+00 -0.27147170758E+04  0.27147170758E+04  0.50400001928E-02 0. -1.
    10030    2    1    2    0    0  0.00000000000E+00  0.00000000000E+00 -0.14011918616E+04  0.40282422900E+04  0.37766913183E+04 0.  0.
        3    1    3    3  502    0 -0.75184063629E+03 -0.89695210142E+02  0.11445216977E+04  0.13723117357E+04  0.10100000352E+00 0.  1.
       -3    1    3    3    0  502  0.75184063629E+03  0.89695210142E+02 -0.25457135593E+04  0.26559305543E+04  0.10100000352E+00 0. -1.
</event>
<event>
 5   0  0.5132561E-07  0.3910880E+04  0.7818609E-02  0.8022770E-01
        2   -1    0    0  501    0  0.00000000000E+00  0.00000000000E+00  0.18705890715E+04  0.18705890715E+04  0.25500000920E-02 0.  1.
       -2   -1    0    0    0  501  0.00000000000E+00  0.00000000000E+00 -0.20441399515E+04  0.20441399515E+04  0.25500000920E-02 0. -1.
    10030    2    1    2    0    0  0.00000000000E+00  0.00000000000E+00 -0.17355088003E+03  0.39147290230E+04  0.39108801331E+04 0.  0.
        3    1    3    3  502    0 -0.11635258944E+04 -0.80690151675E+03  0.12632042289E+04  0.18975161393E+04  0.10100000352E+00 0.  1.
       -3    1    3    3    0  502  0.11635258944E+04  0.80690151675E+03 -0.14367551090E+04  0.20172128837E+04  0.10100000352E+00 0. -1.
</event>
<event>
 5   0  0.1648000E-07  0.3803913E+04  0.7818609E-02  0.8045316E-01
       -1   -1    0    0    0  501  0.00000000000E+00  0.00000000000E+00  0.13800148101E+04  0.13800148102E+04  0.50400001928E-02 0. -1.
        1   -1    0    0  501    0  0.00000000000E+00  0.00000000000E+00 -0.26213040828E+04  0.26213040828E+04  0.50400001928E-02 0.  1.
    10030    2    1    2    0    0  0.00000000000E+00  0.00000000000E+00 -0.12412892727E+04  0.40013188930E+04  0.38039129623E+04 0.  0.
        1    1    3    3  502    0 -0.18400333040E+03 -0.52456126878E+03  0.12926537095E+04  0.14071159735E+04  0.50400001928E-02 0. -1.
       -1    1    3    3    0  502  0.18400333040E+03  0.52456126878E+03 -0.25339429822E+04  0.25942029195E+04  0.50400001928E-02 0.  1.
</event>
<event>
 5   0  0.1648000E-07  0.3498314E+04  0.7818609E-02  0.8114190E-01
        1   -1    0    0  501    0  0.00000000000E+00  0.00000000000E+00  0.28663465715E+04  0.28663465715E+04  0.50400001928E-02 0. -1.
       -1   -1    0    0    0  501  0.00000000000E+00  0.00000000000E+00 -0.10674040812E+04  0.10674040812E+04  0.50400001928E-02 0.  1.
    10030    2    1    2    0    0  0.00000000000E+00  0.00000000000E+00  0.17989424903E+04  0.39337506527E+04  0.34983138959E+04 0.  0.
        4    1    3    3  502    0  0.13334303366E+03  0.37161242540E+03 -0.10166449887E+04  0.10906167087E+04  0.12699999809E+01 0.  1.
       -4    1    3    3    0  502 -0.13334303366E+03 -0.37161242540E+03  0.28155874789E+04  0.28431339440E+04  0.12699999809E+01 0. -1.
</event>
<event>
 5   0  0.1656617E-07  0.3816433E+04  0.7818609E-02  0.8042637E-01
       -1   -1    0    0    0  501  0.00000000000E+00  0.00000000000E+00  0.22649368211E+04  0.22649368211E+04  0.50400001928E-02 0. -1.
        1   -1    0    0  501    0  0.00000000000E+00  0.00000000000E+00 -0.16076789003E+04  0.16076789003E+04  0.50400001928E-02 0.  1.
    10030    2    1    2    0    0  0.00000000000E+00  0.00000000000E+00  0.65725792082E+03  0.38726157214E+04  0.38164334857E+04 0.  0.
        5    1    3    3  502    0  0.14505813891E+04 -0.59619072657E+03 -0.77440572598E+03  0.17491015028E+04  0.46999998093E+01 0.  1.
       -5    1    3    3    0  502 -0.14505813891E+04  0.59619072657E+03  0.14316636468E+04  0.21235142186E+04  0.46999998093E+01 0. -1.
</event>
<event>
 5   0  0.1648000E-07  0.3861751E+04  0.7818609E-02  0.8033032E-01
        1   -1    0    0  501    0  0.00000000000E+00  0.00000000000E+00  0.15211347268E+04  0.15211347268E+04  0.50400001928E-02 0. -1.
       -1   -1    0    0    0  501  0.00000000000E+00  0.00000000000E+00 -0.24509857912E+04  0.24509857912E+04  0.50400001928E-02 0.  1.
    10030    2    1    2    0    0  0.00000000000E+00  0.00000000000E+00 -0.92985106439E+03  0.39721205180E+04  0.38617506921E+04 0.  0.
        1    1    3    3  502    0  0.10639952966E+04  0.73252522465E+03 -0.19410727362E+04  0.23316180140E+04  0.50400001928E-02 0.  1.
       -1    1    3    3    0  502 -0.10639952966E+04 -0.73252522465E+03  0.10112216718E+04  0.16405025040E+04  0.50400001928E-02 0. -1.
</event>
<event>
 5   0  0.1648000E-07  0.3817110E+04  0.7818609E-02  0.8042493E-01
       -1   -1    0    0    0  501  0.00000000000E+00  0.00000000000E+00  0.14525011319E+04  0.14525011319E+04  0.50400001928E-02 0.  1.
        1   -1    0    0  501    0  0.00000000000E+00  0.00000000000E+00 -0.25078001013E+04  0.25078001013E+04  0.50400001928E-02 0. -1.
    10030    2    1    2    0    0  0.00000000000E+00  0.00000000000E+00 -0.10552989694E+04  0.39603012332E+04  0.38171101560E+04 0.  0.
        1    1    3    3  502    0  0.31816103783E+03 -0.17064596246E+04 -0.13507259702E+04  0.21994752881E+04  0.50400001928E-02 0.  1.
       -1    1    3    3    0  502 -0.31816103783E+03  0.17064596246E+04  0.29542700083E+03  0.17608259452E+04  0.50400001928E-02 0. -1.
</event>
<event>
 5   0  0.5325362E-07  0.2772460E+04  0.7818609E-02  0.8311870E-01
        2   -1    0    0  501    0  0.00000000000E+00  0.00000000000E+00  0.18902068578E+04  0.18902068579E+04  0.25500000920E-02 0.  1.
       -2   -1    0    0    0  501  0.00000000000E+00  0.00000000000E+00 -0.10166260840E+04  0.10166260840E+04  0.25500000920E-02 0. -1.
    10030    2    1    2    0    0  0.00000000000E+00  0.00000000000E+00  0.87358077383E+03  0.29068329419E+04  0.27724599877E+04 0.  0.
        4    1    3    3  502    0  0.82439285836E+03 -0.87017239721E+02 -0.72811095471E+03  0.11033325701E+04  0.12699999809E+01 0. -1.
       -4    1    3    3    0  502 -0.82439285836E+03  0.87017239721E+02  0.16016917285E+04  0.18035003718E+04  0.12699999809E+01 0.  1.
</event>
<event>
 5   0  0.1648000E-07  0.3799750E+04  0.7818609E-02  0.8046209E-01
        1   -1    0    0  501    0  0.00000000000E+00  0.00000000000E+00  0.24654192750E+04  0.24654192750E+04  0.50400001928E-02 0.  1.
       -1   -1    0    0    0  501  0.00000000000E+00  0.00000000000E+00 -0.14640609875E+04  0.14640609875E+04  0.50400001928E-02 0. -1.
    10030    2    1    2    0    0  0.00000000000E+00  0.00000000000E+00  0.10013582876E+04  0.39294802625E+04  0.37997495593E+04 0.  0.
        4    1    3    3  502    0  0.14841288273E+04  0.52181890550E+03 -0.60085880815E+03  0.16840327391E+04  0.12699999809E+01 0. -1.
       -4    1    3    3    0  502 -0.14841288273E+04 -0.52181890550E+03  0.16022170957E+04  0.22454475235E+04  0.12699999809E+01 0.  1.
</event>
<event>
 5   0  0.1648000E-07  0.3400413E+04  0.7818609E-02  0.8137805E-01
       -1   -1    0    0    0  501  0.00000000000E+00  0.00000000000E+00  0.10652959538E+04  0.10652959538E+04  0.50400001928E-02 0. -1.
        1   -1    0    0  501    0  0.00000000000E+00  0.00000000000E+00 -0.27135209526E+04  0.27135209526E+04  0.50400001928E-02 0.  1.
    10030    2    1    2    0    0  0.00000000000E+00  0.00000000000E+00 -0.16482249988E+04  0.37788169064E+04  0.34004134403E+04 0.  0.
        1    1    3    3  502    0  0.13144850412E+04 -0.19251141945E+03 -0.20032086352E+04  0.24037005650E+04  0.50400001928E-02 0.  1.
       -1    1    3    3    0  502 -0.13144850412E+04  0.19251141945E+03  0.35498363640E+03  0.13751163413E+04  0.50400001928E-02 0. -1.
</event>
<event>
 5   0  0.1648000E-07  0.3884399E+04  0.7818609E-02  0.8028282E-01
        1   -1    0    0  501    0  0.00000000000E+00  0.00000000000E+00  0.11917913109E+04  0.11917913109E+04  0.50400001928E-02 0.  1.
       -1   -1    0    0    0  501  0.00000000000E+00  0.00000000000E+00 -0.31651004514E+04  0.31651004514E+04  0.50400001928E-02 0. -1.
    10030    2    1    2    0    0  0.00000000000E+00  0.00000000000E+00 -0.19733091405E+04  0.43568917623E+04  0.38843991639E+04 0.  0.
        3    1    3    3  502    0  0.12071394381E+04  0.78663447925E+03  0.47413042495E+03  0.15168319278E+04  0.10100000352E+00 0.  1.
       -3    1    3    3    0  502 -0.12071394381E+04 -0.78663447925E+03 -0.24474395654E+04  0.28400598345E+04  0.10100000352E+00 0. -1.
</event>
<event>
 5   0  0.1648000E-07  0.3764217E+04  0.7818609E-02  0.8053878E-01
       -1   -1    0    0    0  501  0.00000000000E+00  0.00000000000E+00  0.18707156147E+04  0.18707156147E+04  0.50400001928E-02 0. -1.
        1   -1    0    0  501    0  0.00000000000E+00  0.00000000000E+00 -0.18935711954E+04  0.18935711954E+04  0.50400001928E-02 0.  1.
    10030    2    1    2    0    0  0.00000000000E+00  0.00000000000E+00 -0.22855580729E+02  0.37642868101E+04  0.37642174235E+04 0.  0.
        3    1    3    3  502    0  0.10578882250E+04  0.90117938477E+02  0.15426550548E+04  0.18727074965E+04  0.10100000352E+00 0. -1.
       -3    1    3    3    0  502 -0.10578882250E+04 -0.90117938477E+02 -0.15655106355E+04  0.18915793135E+04  0.10100000352E+00 0.  1.
</event>
<event>
 5   0  0.5325362E-07  0.2833517E+04  0.7818609E-02  0.8292938E-01
        2   -1    0    0  501    0  0.00000000000E+00  0.00000000000E+00  0.11920719461E+04  0.11920719461E+04  0.25500000920E-02 0. -1.
       -2   -1    0    0    0  501  0.00000000000E+00  0.00000000000E+00 -0.16837944699E+04  0.16837944699E+04  0.25500000920E-02 0.  1.
    10030    2    1    2    0    0  0.00000000000E+00  0.00000000000E+00 -0.49172252382E+03  0.28758664161E+04  0.28335166494E+04 0.  0.
        4    1    3    3  502    0  0.10716269262E+04  0.49418503318E+03 -0.10415423101E+04  0.15739806583E+04  0.12699999809E+01 0.  1.
       -4    1    3    3    0  502 -0.10716269262E+04 -0.49418503318E+03  0.54981978626E+03  0.13018857578E+04  0.12699999809E+01 0. -1.
</event>
<event>
 5   0  0.1648000E-07  0.3777591E+04  0.7818609E-02  0.8050981E-01
        1   -1    0    0  501    0  0.00000000000E+00  0.00000000000E+00  0.13051183509E+04  0.13051183509E+04  0.50400001928E-02 0.  1.
       -1   -1    0    0    0  501  0.00000000000E+00  0.00000000000E+00 -0.27335057420E+04  0.27335057420E+04  0.50400001928E-02 0. -1.
    10030    2    1    2    0    0  0.00000000000E+00  0.00000000000E+00 -0.14283873911E+04  0.40386240929E+04  0.37775910346E+04 0.  0.
        2    1    3    3  502    0  0.16498622281E+04  0.23594133375E+03  0.23594418045E+03  0.16832656775E+04  0.25500000920E-02 0.  1.
       -2    1    3    3    0  502 -0.16498622281E+04 -0.23594133375E+03 -0.16643315716E+04  0.23553584154E+04  0.25500000920E-02 0. -1.
</event>
<event>
 5   0  0.1648000E-07  0.3877322E+04  0.7818609E-02  0.8029762E-01
       -1   -1    0    0    0  501  0.00000000000E+00  0.00000000000E+00  0.22557651488E+04  0.22557651488E+04  0.50400001928E-02 0. -1.
        1   -1    0    0  501    0  0.00000000000E+00  0.00000000000E+00 -0.16661339202E+04  0.16661339202E+04  0.50400001928E-02 0.  1.
    10030    2    1    2    0    0  0.00000000000E+00  0.00000000000E+00  0.58963122856E+03  0.39218990690E+04  0.38773221844E+04 0.  0.
        4    1    3    3  502    0  0.58428497070E+03 -0.44534039622E+03 -0.15198807879E+04  0.16881220980E+04  0.12699999809E+01 0.  1.
       -4    1    3    3    0  502 -0.58428497070E+03  0.44534039622E+03  0.21095120165E+04  0.22337769710E+04  0.12699999809E+01 0. -1.
</event>
<event>
 5   0  0.5325362E-07  0.3873331E+04  0.7818609E-02  0.8030599E-01
        2   -1    0    0  501    0  0.00000000000E+00  0.00000000000E+00  0.23333145605E+04  0.23333145605E+04  0.25500000920E-02 0.  1.
       -2   -1    0    0    0  501  0.00000000000E+00  0.00000000000E+00 -0.16074447372E+04  0.16074447372E+04  0.25500000920E-02 0. -1.
    10030    2    1    2    0    0  0.00000000000E+00  0.00000000000E+00  0.72586982334E+03  0.39407592978E+04  0.38733314914E+04 0.  0.
        4    1    3    3  502    0  0.27180709240E+01 -0.19355024186E+04  0.29471848813E+03  0.19578144959E+04  0.12699999809E+01 0.  1.
       -4    1    3    3    0  502 -0.27180709240E+01  0.19355024186E+04  0.43115133520E+03  0.19829448018E+04  0.12699999809E+01 0. -1.
</event>
<event>
 5   0  0.5134434E-07  0.3620502E+04  0.7818609E-02  0.8085812E-01
       -2   -1    0    0    0  501  0.00000000000E+00  0.00000000000E+00  0.27544391946E+04  0.27544391946E+04  0.25500000920E-02 0.  1.
        2   -1    0    0  501    0  0.00000000000E+00  0.00000000000E+00 -0.11897191243E+04  0.11897191243E+04  0.25500000920E-02 0. -1.
    10030    2    1    2    0    0  0.00000000000E+00  0.00000000000E+00  0.15647200703E+04  0.39441583189E+04  0.36205021677E+04 0.  0.
        5    1    3    3  502    0 -0.16115333819E+03 -0.12830661916E+02  0.27465528494E+04  0.27513105366E+04  0.46999998093E+01 0.  1.
       -5    1    3    3    0  502  0.16115333819E+03  0.12830661916E+02 -0.11818327790E+04  0.11928477824E+04  0.46999998093E+01 0. -1.
</event>
<event>
 5   0  0.1648000E-07  0.3582301E+04  0.7818609E-02  0.8094558E-01
        1   -1    0    0  501    0  0.00000000000E+00  0.00000000000E+00  0.22978875691E+04  0.22978875691E+04  0.50400001928E-02 0. -1.
       -1   -1    0    0    0  501  0.00000000000E+00  0.00000000000E+00 -0.13961603879E+04  0.13961603879E+04  0.50400001928E-02 0.  1.
    10030    2    1    2    0    0  0.00000000000E+00  0.00000000000E+00  0.90172718116E+03  0.36940479570E+04  0.35823007132E+04 0.  0.
        4    1    3    3  502    0 -0.25372360247E+03 -0.82795311313E+03 -0.11659543032E+04  0.14523543211E+04  0.12699999809E+01 0.  1.
       -4    1    3    3    0  502  0.25372360247E+03  0.82795311313E+03  0.20676814843E+04  0.22416936360E+04  0.12699999809E+01 0. -1.
</event>
<event>
 5   0  0.5325362E-07  0.4051097E+04  0.7818609E-02  0.7994317E-01
       -2   -1    0    0    0  501  0.00000000000E+00  0.00000000000E+00  0.13922599352E+04  0.13922599352E+04  0.25500000920E-02 0.  1.
        2   -1    0    0  501    0  0.00000000000E+00  0.00000000000E+00 -0.29468970590E+04  0.29468970590E+04  0.25500000920E-02 0. -1.
    10030    2    1    2    0    0  0.00000000000E+00  0.00000000000E+00 -0.15546371237E+04  0.43391569942E+04  0.40510969914E+04 0.  0.
        4    1    3    3  502    0  0.23892670563E+03  0.76227714239E+03 -0.27710427683E+04  0.28838918234E+04  0.12699999809E+01 0. -1.
       -4    1    3    3    0  502 -0.23892670563E+03 -0.76227714239E+03  0.12164056445E+04  0.14552651708E+04  0.12699999809E+01 0.  1.
</event>
<event>
 5   0  0.5132561E-07  0.3805886E+04  0.7818609E-02  0.8044893E-01
       -2   -1    0    0    0  501  0.00000000000E+00  0.00000000000E+00  0.21733867483E+04  0.21733867483E+04  0.25500000920E-02 0. -1.
        2   -1    0    0  501    0  0.00000000000E+00  0.00000000000E+00 -0.16661519656E+04  0.16661519656E+04  0.25500000920E-02 0.  1.
    10030    2    1    2    0    0  0.00000000000E+00  0.00000000000E+00  0.50723478272E+03  0.38395387138E+04  0.38058862845E+04 0.  0.
        3    1    3    3  502    0  0.34174977401E+03 -0.11525318761E+04  0.17418118042E+04  0.21163721329E+04  0.10100000352E+00 0. -1.
       -3    1    3    3    0  502 -0.34174977401E+03  0.11525318761E+04 -0.12345770215E+04  0.17231665809E+04  0.10100000352E+00 0.  1.
</event>
<event>
 5   0  0.1656617E-07  0.3638804E+04  0.7818609E-02  0.8081661E-01
       -1   -1    0    0    0  501  0.00000000000E+00  0.00000000000E+00  0.12239434202E+04  0.12239434202E+04  0.50400001928E-02 0.  1.
        1   -1    0    0  501    0  0.00000000000E+00  0.00000000000E+00 -0.27045555665E+04  0.27045555665E+04  0.50400001928E-02 0. -1.
    10030    2    1    2    0    0  0.00000000000E+00  0.00000000000E+00 -0.14806121463E+04  0.39284989867E+04  0.36388036442E+04 0.  0.
        5    1    3    3  502    0  0.80655181816E+03 -0.15948981959E+04 -0.11079690155E+04  0.21028179950E+04  0.46999998093E+01 0. -1.
       -5    1    3    3    0  502 -0.80655181816E+03  0.15948981959E+04 -0.37264313076E+03  0.18256809917E+04  0.46999998093E+01 0.  1.
</event>
<event>
 5   0  0.5158266E-07  0.3484295E+04  0.7818609E-02  0.8117522E-01
        2   -1    0    0  501    0  0.00000000000E+00  0.00000000000E+00  0.10686574879E+04  0.10686574879E+04  0.25500000920E-02 0. -1.
       -2   -1    0    0    0  501  0.00000000000E+00  0.00000000000E+00 -0.28400851493E+04  0.28400851493E+04  0.25500000920E-02 0.  1.
    10030    2    1    2    0    0  0.00000000000E+00  0.00000000000E+00 -0.17714276615E+04  0.39087426372E+04  0.34842952005E+04 0.  0.
        2    1    3    3  502    0  0.53325584009E+03  0.68250300023E+03 -0.25814423112E+04  0.27228691747E+04  0.25500000920E-02 0.  1.
       -2    1    3    3    0  502 -0.53325584009E+03 -0.68250300023E+03  0.81001464974E+03  0.11858734625E+04  0.25500000920E-02 0. -1.
</event>
<event>
 5   0  0.1648000E-07  0.3839785E+04  0.7818609E-02  0.8037671E-01
        3   -1    0    0  501    0  0.00000000000E+00  0.00000000000E+00  0.19799332040E+04  0.19799332066E+04  0.10100000352E+00 0. -1.
       -3   -1    0    0    0  501  0.00000000000E+00  0.00000000000E+00 -0.18616720364E+04  0.18616720391E+04  0.10100000352E+00 0.  1.
    10030    2    1    2    0    0  0.00000000000E+00  0.00000000000E+00  0.11826116765E+03  0.38416052457E+04  0.38397845200E+04 0.  0.
        1    1    3    3  502    0  0.44811813302E+03 -0.18637130230E+04  0.16758030820E+03  0.19241411728E+04  0.50400001928E-02 0. -1.
       -1    1    3    3    0  502 -0.44811813302E+03  0.18637130230E+04 -0.49319140548E+02  0.19174640729E+04  0.50400001928E-02 0.  1.
</event>
<event>
 5   0  0.5158266E-07  0.3720039E+04  0.7818609E-02  0.8063535E-01
       -2   -1    0    0    0  501  0.00000000000E+00  0.00000000000E+00  0.14485661918E+04  0.14485661918E+04  0.25500000920E-02 0.  1.
        2   -1    0    0  501    0  0.00000000000E+00  0.00000000000E+00 -0.23883432627E+04  0.23883432627E+04  0.25500000920E-02 0. -1.
    10030    2    1    2    0    0  0.00000000000E+00  0.00000000000E+00 -0.93977707092E+03  0.38369094546E+04  0.37200394110E+04 0.  0.
        2    1    3    3  502    0 -0.70115777455E+03 -0.48632201114E+03 -0.21745492380E+04  0.23359785341E+04  0.25500000920E-02 0. -1.
       -2    1    3    3    0  502  0.70115777455E+03  0.48632201114E+03  0.12347721671E+04  0.15009309204E+04  0.25500000920E-02 0.  1.
</event>
<event>
 5   0  0.1648000E-07  0.3805136E+04  0.7818609E-02  0.8045054E-01
       -1   -1    0    0    0  501  0.00000000000E+00  0.00000000000E+00  0.15584733970E+04  0.15584733970E+04  0.50400001928E-02 0. -1.
        1   -1    0    0  501    0  0.00000000000E+00  0.00000000000E+00 -0.23226348422E+04  0.23226348422E+04  0.50400001928E-02 0.  1.
    10030    2    1    2    0    0  0.00000000000E+00  0.00000000000E+00 -0.76416144523E+03  0.38811082392E+04  0.38051357991E+04 0.  0.
        3    1    3    3  502    0 -0.10830602601E+04 -0.14007500726E+04  0.32798271884E+03  0.18007478910E+04  0.10100000352E+00 0.  1.
       -3    1    3    3    0  502  0.10830602601E+04  0.14007500726E+04 -0.10921441641E+04  0.20803603482E+04  0.10100000352E+00 0. -1.
</event>
<event>
 5   0  0.5132561E-07  0.3788830E+04  0.7818609E-02  0.8048556E-01
        2   -1    0    0  501    0  0.00000000000E+00  0.00000000000E+00  0.13718543320E+04  0.13718543320E+04  0.25500000920E-02 0.  1.
       -2   -1    0    0    0  501  0.00000000000E+00  0.00000000000E+00 -0.26160266240E+04  0.26160266240E+04  0.25500000920E-02 0. -1.
    10030    2    1    2    0    0  0.00000000000E+00  0.00000000000E+00 -0.12441722920E+04  0.39878809561E+04  0.37888296119E+04 0.  0.
        3    1    3    3  502    0 -0.14721656798E+04  0.22736472907E+03 -0.18539768587E+04  0.23782759957E+04  0.10100000352E+00 0. -1.
       -3    1    3    3    0  502  0.14721656798E+04 -0.22736472907E+03  0.60980456667E+03  0.16096049604E+04  0.10100000352E+00 0.  1.
</event>
<event>
 5   0  0.1648000E-07  0.3681171E+04  0.7818609E-02  0.8072147E-01
        1   -1    0    0  501    0  0.00000000000E+00  0.00000000000E+00  0.29695354365E+04  0.29695354365E+04  0.50400001928E-02 0.  1.
       -1   -1    0    0    0  501  0.00000000000E+00  0.00000000000E+00 -0.11408364453E+04  0.11408364453E+04  0.50400001928E-02 0. -1.
    10030    2    1    2    0    0  0.00000000000E+00  0.00000000000E+00  0.18286989911E+04  0.41103718818E+04  0.36811706027E+04 0.  0.
        4    1    3    3  502    0 -0.70266061778E+03  0.15474691271E+04  0.12530400060E+03  0.17041406481E+04  0.12699999809E+01 0.  1.
       -4    1    3    3    0  502  0.70266061778E+03 -0.15474691271E+04  0.17033949905E+04  0.24062312337E+04  0.12699999809E+01 0. -1.
</event>
<event>
 5   0  0.1648000E-07  0.3807659E+04  0.7818609E-02  0.8044513E-01
        1   -1    0    0  501    0  0.00000000000E+00  0.00000000000E+00  0.12960549311E+04  0.12960549311E+04  0.50400001928E-02 0.  1.
       -1   -1    0    0    0  501  0.00000000000E+00  0.00000000000E+00 -0.27966144141E+04  0.27966144141E+04  0.50400001928E-02 0. -1.
    10030    2    1    2    0    0  0.00000000000E+00  0.00000000000E+00 -0.15005594830E+04  0.40926693452E+04  0.38076585466E+04 0.  0.
        1    1    3    3  502    0  0.61784653699E+03 -0.17503793313E+04 -0.29552238468E+03  0.18795998581E+04  0.50400001928E-02 0.  1.
       -1    1    3    3    0  502 -0.61784653699E+03  0.17503793313E+04 -0.12050370983E+04  0.22130694872E+04  0.50400001928E-02 0. -1.
</event>
<event>
 5   0  0.5158266E-07  0.3887461E+04  0.7818609E-02  0.8027642E-01
       -2   -1    0    0    0  501  0.00000000000E+00  0.00000000000E+00  0.28360895211E+04  0.28360895211E+04  0.25500000920E-02 0. -1.
        2   -1    0    0  501    0  0.00000000000E+00  0.00000000000E+00 -0.13321473239E+04  0.13321473239E+04  0.25500000920E-02 0.  1.
    10030    2    1    2    0    0  0.00000000000E+00  0.00000000000E+00  0.15039421972E+04  0.41682368450E+04  0.38874614164E+04 0.  0.
        2    1    3    3  502    0 -0.35275366834E+03  0.79652596575E+02 -0.12957584554E+04  0.13452767973E+04  0.25500000920E-02 0.  1.
       -2    1    3    3    0  502  0.35275366834E+03 -0.79652596575E+02  0.27997006526E+04  0.28229600477E+04  0.25500000920E-02 0. -1.
</event>
<event>
 5   0  0.1648000E-07  0.3744964E+04  0.7818609E-02  0.8058070E-01
        1   -1    0    0  501    0  0.00000000000E+00  0.00000000000E+00  0.14012795967E+04  0.14012795967E+04  0.50400001928E-02 0. -1.
       -1   -1    0    0    0  501  0.00000000000E+00  0.00000000000E+00 -0.25021335640E+04  0.25021335640E+04  0.50400001928E-02 0.  1.
    10030    2    1    2    0    0  0.00000000000E+00  0.00000000000E+00 -0.11008539673E+04  0.39034131608E+04  0.37449639312E+04 0.  0.
        3    1    3    3  502    0  0.88463950611E+03  0.15314790448E+04 -0.11914040273E+04  0.21324771246E+04  0.10100000352E+00 0. -1.
       -3    1    3    3    0  502 -0.88463950611E+03 -0.15314790448E+04  0.90550060040E+02  0.17709360361E+04  0.10100000352E+00 0.  1.
</event>
<event>
 5   0  0.5325362E-07  0.3780454E+04  0.7818609E-02  0.8050362E-01
        2   -1    0    0  501    0  0.00000000000E+00  0.00000000000E+00  0.30404355190E+04  0.30404355190E+04  0.25500000920E-02 0. -1.
       -2   -1    0    0    0  501  0.00000000000E+00  0.00000000000E+00 -0.11751468627E+04  0.11751468627E+04  0.25500000920E-02 0.  1.
    10030    2    1    2    0    0  0.00000000000E+00  0.00000000000E+00  0.18652886563E+04  0.42155823817E+04  0.37804540793E+04 0.  0.
        4    1    3    3  502    0  0.10882440793E+04  0.87227510167E+03  0.23553546624E+04  0.27373045552E+04  0.12699999809E+01 0. -1.
       -4    1    3    3    0  502 -0.10882440793E+04 -0.87227510167E+03 -0.49006600615E+03  0.14782778265E+04  0.12699999809E+01 0.  1.
</event>
<event>
 5   0  0.5132561E-07  0.3305217E+04  0.7818609E-02  0.8161569E-01
       -2   -1    0    0    0  501  0.00000000000E+00  0.00000000000E+00  0.26102376223E+04  0.26102376223E+04  0.25500000920E-02 0. -1.
        2   -1    0    0  501    0  0.00000000000E+00  0.00000000000E+00 -0.10463091197E+04  0.10463091197E+04  0.25500000920E-02 0.  1.
    10030    2    1    2    0    0  0.00000000000E+00  0.00000000000E+00  0.15639285026E+04  0.36565467421E+04  0.33052173477E+04 0.  0.
        3    1    3    3  502    0 -0.78686655929E+03 -0.13262852705E+04  0.12474301164E+03  0.15471756300E+04  0.10100000352E+00 0.  1.
       -3    1    3    3    0  502  0.78686655929E+03  0.13262852705E+04  0.14391854910E+04  0.21093711121E+04  0.10100000352E+00 0. -1.
</event>
<event>
 5   0  0.5134434E-07  0.2865506E+04  0.7818609E-02  0.8283215E-01
        2   -1    0    0  501    0  0.00000000000E+00  0.00000000000E+00  0.14154554997E+04  0.14154554997E+04  0.25500000920E-02 0.  1.
       -2   -1    0    0    0  501  0.00000000000E+00  0.00000000000E+00 -0.14502621516E+04  0.14502621516E+04  0.25500000920E-02 0. -1.
    10030    2    1    2    0    0  0.00000000000E+00  0.00000000000E+00 -0.34806651878E+02  0.28657176513E+04  0.28655062649E+04 0.  0.
        5    1    3    3  502    0 -0.37281719800E+03  0.12773482983E+04  0.51381201599E+03  0.14264067499E+04  0.46999998093E+01 0.  1.
       -5    1    3    3    0  502  0.37281719800E+03 -0.12773482983E+04 -0.54861866786E+03  0.14393109015E+04  0.46999998093E+01 0. -1.
</event>
<event>
 5   0  0.1648000E-07  0.3766638E+04  0.7818609E-02  0.8053352E-01
        1   -1    0    0  501    0  0.00000000000E+00  0.00000000000E+00  0.27512805170E+04  0.27512805170E+04  0.50400001928E-02 0. -1.
       -1   -1    0    0    0  501  0.00000000000E+00  0.00000000000E+00 -0.12891778521E+04  0.12891778521E+04  0.50400001928E-02 0.  1.
    10030    2    1    2    0    0  0.00000000000E+00  0.00000000000E+00  0.14621026648E+04  0.40404583691E+04  0.37666377089E+04 0.  0.
        4    1    3    3  502    0 -0.10878338233E+04  0.70123071011E+03  0.21986399857E+04  0.25512989506E+04  0.12699999809E+01 0. -1.
       -4    1    3    3    0  502  0.10878338233E+04 -0.70123071011E+03 -0.73653732080E+03  0.14891594185E+04  0.12699999809E+01 0.  1.
</event>
<event>
 5   0  0.1648000E-07  0.3792886E+04  0.7818609E-02  0.8047683E-01
       -1   -1    0    0    0  501  0.00000000000E+00  0.00000000000E+00  0.18559575230E+04  0.18559575230E+04  0.50400001928E-02 0.  1.
        1   -1    0    0  501    0  0.00000000000E+00  0.00000000000E+00 -0.19378114762E+04  0.19378114762E+04  0.50400001928E-02 0. -1.
    10030    2    1    2    0    0  0.00000000000E+00  0.00000000000E+00 -0.81853953253E+02  0.37937689992E+04  0.37928858604E+04 0.  0.
        3    1    3    3  502    0  0.79855913468E+03 -0.41088898143E+03  0.16297820704E+04  0.18608374603E+04  0.10100000352E+00 0.  1.
       -3    1    3    3    0  502 -0.79855913468E+03  0.41088898143E+03 -0.17116360236E+04  0.19329315389E+04  0.10100000352E+00 0. -1.
</event>
<event>
 5   0  0.1656617E-07  0.3873046E+04  0.7818609E-02  0.8030659E-01
        1   -1    0    0  501    0  0.00000000000E+00  0.00000000000E+00  0.15018982554E+04  0.15018982554E+04  0.50400001928E-02 0.  1.
       -1   -1    0    0    0  501  0.00000000000E+00  0.00000000000E+00 -0.24969209553E+04  0.24969209553E+04  0.50400001928E-02 0. -1.
    10030    2    1    2    0    0  0.00000000000E+00  0.00000000000E+00 -0.99502269989E+03  0.39988192107E+04  0.38730459469E+04 0.  0.
        5    1    3    3  502    0  0.12108434632E+03  0.17470167463E+04 -0.13510184550E+04  0.22117870346E+04  0.46999998093E+01 0. -1.
       -5    1    3    3    0  502 -0.12108434632E+03 -0.17470167463E+04  0.35599575507E+03  0.17870321761E+04  0.46999998093E+01 0.  1.
</event>
<event>
 5   0  0.5325362E-07  0.2852728E+04  0.7818609E-02  0.8287083E-01
       -2   -1    0    0    0  501  0.00000000000E+00  0.00000000000E+00  0.83020955940E+03  0.83020955940E+03  0.25500000920E-02 0. -1.
        2   -1    0    0  501    0  0.00000000000E+00  0.00000000000E+00 -0.24506024855E+04  0.24506024855E+04  0.25500000920E-02 0.  1.
    10030    2    1    2    0    0  0.00000000000E+00  0.00000000000E+00 -0.16203929261E+04  0.32808120449E+04  0.28527275438E+04 0.  0.
        4    1    3    3  502    0  0.74329844142E+03 -0.10723619263E+04 -0.14729146580E+04  0.19677225101E+04  0.12699999809E+01 0.  1.
       -4    1    3    3    0  502 -0.74329844142E+03  0.10723619263E+04 -0.14747826801E+03  0.13130895348E+04  0.12699999809E+01 0. -1.
</event>
<event>
 5   0  0.5202788E-07  0.3751131E+04  0.7818609E-02  0.8056724E-01
        2   -1    0    0  501    0  0.00000000000E+00  0.00000000000E+00  0.16124397584E+04  0.16124397584E+04  0.25500000920E-02 0.  1.
       -2   -1    0    0    0  501  0.00000000000E+00  0.00000000000E+00 -0.21816294955E+04  0.21816294956E+04  0.25500000920E-02 0. -1.
    10030    2    1    2    0    0  0.00000000000E+00  0.00000000000E+00 -0.56918973710E+03  0.37940692540E+04  0.37511311024E+04 0.  0.
        1    1    3    3  502    0 -0.42572371395E+03  0.98410853101E+03  0.12718622061E+04  0.16635335141E+04  0.50400001928E-02 0.  1.
       -1    1    3    3    0  502  0.42572371395E+03 -0.98410853101E+03 -0.18410519432E+04  0.21305357399E+04  0.50400001928E-02 0. -1.
</event>
<event>
 5   0  0.5134434E-07  0.3703596E+04  0.7818609E-02  0.8067165E-01
       -2   -1    0    0    0  501  0.00000000000E+00  0.00000000000E+00  0.15255795310E+04  0.15255795310E+04  0.25500000920E-02 0. -1.
        2   -1    0    0  501    0  0.00000000000E+00  0.00000000000E+00 -0.22477729318E+04  0.22477729318E+04  0.25500000920E-02 0.  1.
    10030    2    1    2    0    0  0.00000000000E+00  0.00000000000E+00 -0.72219340088E+03  0.37733524628E+04  0.37035962928E+04 0.  0.
        5    1    3    3  502    0  0.14492866448E+04  0.10723531077E+04 -0.79186179841E+03  0.19691216733E+04  0.46999998093E+01 0. -1.
       -5    1    3    3    0  502 -0.14492866448E+04 -0.10723531077E+04  0.69668397537E+02  0.18042307895E+04  0.46999998093E+01 0.  1.
</event>
<event>
 5   0  0.5325362E-07  0.3817639E+04  0.7818609E-02  0.8042380E-01
        2   -1    0    0  501    0  0.00000000000E+00  0.00000000000E+00  0.21223789090E+04  0.21223789090E+04  0.25500000920E-02 0. -1.
       -2   -1    0    0    0  501  0.00000000000E+00  0.00000000000E+00 -0.17167488335E+04  0.17167488335E+04  0.25500000920E-02 0.  1.
    10030    2    1    2    0    0  0.00000000000E+00  0.00000000000E+00  0.40563007548E+03  0.38391277424E+04  0.38176388075E+04 0.  0.
        4    1    3    3  502    0 -0.12897402569E+04  0.12847409873E+04 -0.37452503453E+03  0.18585639481E+04  0.12699999809E+01 0.  1.
       -4    1    3    3    0  502  0.12897402569E+04 -0.12847409873E+04  0.78015511002E+03  0.19805637943E+04  0.12699999809E+01 0. -1.
</event>
<event>
 5   0  0.5158266E-07  0.3788933E+04  0.7818609E-02  0.8048534E-01
        2   -1    0    0  501    0  0.00000000000E+00  0.00000000000E+00  0.22223801871E+04  0.22223801871E+04  0.25500000920E-02 0. -1.
       -2   -1    0    0    0  501  0.00000000000E+00  0.00000000000E+00 -0.16149367556E+04  0.16149367556E+04  0.25500000920E-02 0.  1.
    10030    2    1    2    0    0  0.00000000000E+00  0.00000000000E+00  0.60744343153E+03  0.38373169427E+04  0.37889330683E+04 0.  0.
        2    1    3    3  502    0 -0.10100010365E+04  0.15934804549E+04  0.12912127571E+03  0.18910193964E+04  0.25500000920E-02 0.  1.
       -2    1    3    3    0  502  0.10100010365E+04 -0.15934804549E+04  0.47832215582E+03  0.19462975463E+04  0.25500000920E-02 0. -1.
</event>
<event>
 5   0  0.5134434E-07  0.3804153E+04  0.7818609E-02  0.8045264E-01
       -2   -1    0    0    0  501  0.00000000000E+00  0.00000000000E+00  0.17888779498E+04  0.17888779498E+04  0.25500000920E-02 0.  1.
        2   -1    0    0  501    0  0.00000000000E+00  0.00000000000E+00 -0.20224381330E+04  0.20224381330E+04  0.25500000920E-02 0. -1.
    10030    2    1    2    0    0  0.00000000000E+00  0.00000000000E+00 -0.23356018318E+03  0.38113160827E+04  0.38041529837E+04 0.  0.
        5    1    3    3  502    0  0.83791233745E+03  0.12820868753E+04  0.10131862532E+04  0.18364128933E+04  0.46999998093E+01 0.  1.
       -5    1    3    3    0  502 -0.83791233745E+03 -0.12820868753E+04 -0.12467464364E+04  0.19749031894E+04  0.46999998093E+01 0. -1.
</event>
<event>
 5   0  0.5134434E-07  0.3778589E+04  0.7818609E-02  0.8050765E-01
       -2   -1    0    0    0  501  0.00000000000E+00  0.00000000000E+00  0.19132483483E+04  0.19132483483E+04  0.25500000920E-02 0. -1.
        2   -1    0    0  501    0  0.00000000000E+00  0.00000000000E+00 -0.18656403295E+04  0.18656403295E+04  0.25500000920E-02 0.  1.
    10030    2    1    2    0    0  0.00000000000E+00  0.00000000000E+00  0.47608018794E+02  0.37788886778E+04  0.37785887731E+04 0.  0.
        5    1    3    3  502    0 -0.19615299186E+03 -0.16250125884E+04 -0.91981169962E+03  0.18775562739E+04  0.46999998093E+01 0. -1.
       -5    1    3    3    0  502  0.19615299186E+03  0.16250125884E+04  0.96741971841E+03  0.19013324040E+04  0.46999998093E+01 0.  1.
</event>
<event>
 5   0  0.1648000E-07  0.3399794E+04  0.7818609E-02  0.8137957E-01
        1   -1    0    0  501    0  0.00000000000E+00  0.00000000000E+00  0.17286766072E+04  0.17286766072E+04  0.50400001928E-02 0.  1.
       -1   -1    0    0    0  501  0.00000000000E+00  0.00000000000E+00 -0.16715965512E+04  0.16715965512E+04  0.50400001928E-02 0. -1.
    10030    2    1    2    0    0  0.00000000000E+00  0.00000000000E+00  0.57080055988E+02  0.34002731584E+04  0.33997940259E+04 0.  0.
        2    1    3    3  502    0 -0.40602072430E+03  0.14929841105E+04 -0.67568665898E+03  0.16883147940E+04  0.25500000920E-02 0. -1.
       -2    1    3    3    0  502  0.40602072430E+03 -0.14929841105E+04  0.73276671497E+03  0.17119583643E+04  0.25500000920E-02 0.  1.
</event>
<event>
 5   0  0.1648000E-07  0.3774900E+04  0.7818609E-02  0.8051563E-01
       -1   -1    0    0    0  501  0.00000000000E+00  0.00000000000E+00  0.14617217643E+04  0.14617217643E+04  0.50400001928E-02 0.  1.
        1   -1    0    0  501    0  0.00000000000E+00  0.00000000000E+00 -0.24371725188E+04  0.24371725188E+04  0.50400001928E-02 0. -1.
    10030    2    1    2    0    0  0.00000000000E+00  0.00000000000E+00 -0.97545075454E+03  0.38988942832E+04  0.37749003241E+04 0.  0.
        2    1    3    3  502    0  0.11800479659E+04 -0.95950252967E+03 -0.16421645257E+04  0.22382722434E+04  0.25500000920E-02 0. -1.
       -2    1    3    3    0  502 -0.11800479659E+04  0.95950252967E+03  0.66671377117E+03  0.16606220397E+04  0.25500000920E-02 0.  1.
</event>
<event>
 5   0  0.1648000E-07  0.3884888E+04  0.7818609E-02  0.8028180E-01
       -1   -1    0    0    0  501  0.00000000000E+00  0.00000000000E+00  0.13579273054E+04  0.13579273054E+04  0.50400001928E-02 0.  1.
        1   -1    0    0  501    0  0.00000000000E+00  0.00000000000E+00 -0.27785639078E+04  0.27785639078E+04  0.50400001928E-02 0. -1.
    10030    2    1    2    0    0  0.00000000000E+00  0.00000000000E+00 -0.14206366024E+04  0.41364912132E+04  0.38848875403E+04 0.  0.
        2    1    3    3  502    0  0.89986196688E+03 -0.50098534251E+03 -0.24639020576E+04  0.26704964374E+04  0.25500000920E-02 0. -1.
       -2    1    3    3    0  502 -0.89986196688E+03  0.50098534251E+03  0.10432654551E+04  0.14659947758E+04  0.25500000920E-02 0.  1.
</event>
<event>
 5   0  0.1656617E-07  0.3759211E+04  0.7818609E-02  0.8054965E-01
        1   -1    0    0  501    0  0.00000000000E+00  0.00000000000E+00  0.24503226933E+04  0.24503226933E+04  0.50400001928E-02 0.  1.
       -1   -1    0    0    0  501  0.00000000000E+00  0.00000000000E+00 -0.14418171150E+04  0.14418171150E+04  0.50400001928E-02 0. -1.
    10030    2    1    2    0    0  0.00000000000E+00  0.00000000000E+00  0.10085055783E+04  0.38921398083E+04  0.37592111920E+04 0.  0.
        5    1    3    3  502    0  0.17607676251E+04  0.18600988694E+03  0.11574274284E+04  0.21153162056E+04  0.46999998093E+01 0.  1.
       -5    1    3    3    0  502 -0.17607676251E+04 -0.18600988694E+03 -0.14892185014E+03  0.17768236027E+04  0.46999998093E+01 0. -1.
</event>
<event>
 5   0  0.5132561E-07  0.3706955E+04  0.7818609E-02  0.8066422E-01
       -2   -1    0    0    0  501  0.00000000000E+00  0.00000000000E+00  0.15773066034E+04  0.15773066034E+04  0.25500000920E-02 0. -1.
        2   -1    0    0  501    0  0.00000000000E+00  0.00000000000E+00 -0.21780030914E+04  0.21780030914E+04  0.25500000920E-02 0.  1.
    10030    2    1    2    0    0  0.00000000000E+00  0.00000000000E+00 -0.60069648795E+03  0.37553096948E+04  0.37069549003E+04 0.  0.
        3    1    3    3  502    0  0.26399452196E+03  0.20873785046E+03  0.15460939892E+04  0.15822993495E+04  0.10100000352E+00 0. -1.
       -3    1    3    3    0  502 -0.26399452196E+03 -0.20873785046E+03 -0.21467904771E+04  0.21730103453E+04  0.10100000352E+00 0.  1.
</event>
<event>
 5   0  0.1648000E-07  0.3728765E+04  0.7818609E-02  0.8061617E-01
       -1   -1    0    0    0  501  0.00000000000E+00  0.00000000000E+00  0.27834968059E+04  0.27834968059E+04  0.50400001928E-02 0. -1.
        1   -1    0    0  501    0  0.00000000000E+00  0.00000000000E+00 -0.12487612352E+04  0.12487612352E+04  0.50400001928E-02 0.  1.
    10030    2    1    2    0    0  0.00000000000E+00  0.00000000000E+00  0.15347355707E+04  0.40322580411E+04  0.37287654308E+04 0.  0.
        3    1    3    3  502    0 -0.14766749969E+03  0.56567130355E+03  0.26818087428E+04  0.27447928623E+04  0.10100000352E+00 0. -1.
       -3    1    3    3    0  502  0.14766749969E+03 -0.56567130355E+03 -0.11470731721E+04  0.12874651787E+04  0.10100000352E+00 0.  1.
</event>
<event>
 5   0  0.1648000E-07  0.3828142E+04  0.7818609E-02  0.8040143E-01
        1   -1    0    0  501    0  0.00000000000E+00  0.00000000000E+00  0.14732591971E+04  0.14732591971E+04  0.50400001928E-02 0.  1.
       -1   -1    0    0    0  501  0.00000000000E+00  0.00000000000E+00 -0.24867770746E+04  0.24867770746E+04  0.50400001928E-02 0. -1.
    10030    2    1    2    0    0  0.00000000000E+00  0.00000000000E+00 -0.10135178776E+04  0.39600362717E+04  0.38281416882E+04 0.  0.
        2    1    3    3  502    0 -0.68009885779E+03 -0.12402382347E+04  0.82722221241E+03  0.16386036506E+04  0.25500000920E-02 0.  1.
       -2    1    3    3    0  502  0.68009885779E+03  0.12402382347E+04 -0.18407400900E+04  0.23214326210E+04  0.25500000920E-02 0. -1.
</event>
<event>
 5   0  0.1656617E-07  0.3860378E+04  0.7818609E-02  0.8033321E-01
        1   -1    0    0  501    0  0.00000000000E+00  0.00000000000E+00  0.13693644179E+04  0.13693644179E+04  0.50400001928E-02 0.  1.
       -1   -1    0    0    0  501  0.00000000000E+00  0.00000000000E+00 -0.27206994564E+04  0.27206994564E+04  0.50400001928E-02 0. -1.
    10030    2    1    2    0    0  0.00000000000E+00  0.00000000000E+00 -0.13513350385E+04  0.40900638744E+04  0.38603777160E+04 0.  0.
        5    1    3    3  502    0 -0.14121117859E+03 -0.10015959963E+04  0.10660626556E+04  0.14695736839E+04  0.46999998093E+01 0.  1.
       -5    1    3    3    0  502  0.14121117859E+03  0.10015959963E+04 -0.24173976941E+04  0.26204901904E+04  0.46999998093E+01 0. -1.
</event>
<event>
 5   0  0.5158266E-07  0.2792674E+04  0.7818609E-02  0.8305547E-01
        2   -1    0    0  501    0  0.00000000000E+00  0.00000000000E+00  0.12021601229E+04  0.12021601229E+04  0.25500000920E-02 0. -1.
       -2   -1    0    0    0  501  0.00000000000E+00  0.00000000000E+00 -0.16218775218E+04  0.16218775218E+04  0.25500000920E-02 0.  1.
    10030    2    1    2    0    0  0.00000000000E+00  0.00000000000E+00 -0.41971739894E+03  0.28240376447E+04  0.27926736156E+04 0.  0.
        2    1    3    3  502    0  0.88389211810E+03 -0.10634165783E+04 -0.13678914768E+02  0.13828619628E+04  0.25500000920E-02 0. -1.
       -2    1    3    3    0  502 -0.88389211810E+03  0.10634165783E+04 -0.40603848417E+03  0.14411756819E+04  0.25500000920E-02 0.  1.
</event>
<event>
 5   0  0.5325362E-07  0.3839141E+04  0.7818609E-02  0.8037807E-01
       -2   -1    0    0    0  501  0.00000000000E+00  0.00000000000E+00  0.26663115614E+04  0.26663115614E+04  0.25500000920E-02 0.  1.
        2   -1    0    0  501    0  0.00000000000E+00  0.00000000000E+00 -0.13819659043E+04  0.13819659043E+04  0.25500000920E-02 0. -1.
    10030    2    1    2    0    0  0.00000000000E+00  0.00000000000E+00  0.12843456571E+04  0.40482774656E+04  0.38391413978E+04 0.  0.
        4    1    3    3  502    0 -0.12231374575E+04 -0.13715613165E+04  0.57434166561E+02  0.18386261124E+04  0.12699999809E+01 0.  1.
       -4    1    3    3    0  502  0.12231374575E+04  0.13715613165E+04  0.12269114905E+04  0.22096513533E+04  0.12699999809E+01 0. -1.
</event>
<event>
 5   0  0.1648000E-07  0.3790438E+04  0.7818609E-02  0.8048210E-01
        1   -1    0    0  501    0  0.00000000000E+00  0.00000000000E+00  0.22801370225E+04  0.22801370225E+04  0.50400001928E-02 0.  1.
       -1   -1    0    0    0  501  0.00000000000E+00  0.00000000000E+00 -0.15752803129E+04  0.15752803129E+04  0.50400001928E-02 0. -1.
    10030    2    1    2    0    0  0.00000000000E+00  0.00000000000E+00  0.70485670962E+03  0.38554173354E+04  0.37904379495E+04 0.  0.
        3    1    3    3  502    0  0.12606913645E+04  0.13496293069E+04 -0.80321419999E+02  0.18485923086E+04  0.10100000352E+00 0. -1.
       -3    1    3    3    0  502 -0.12606913645E+04 -0.13496293069E+04  0.78517812962E+03  0.20068250268E+04  0.10100000352E+00 0.  1.
</event>
<event>
 5   0  0.5158266E-07  0.3711025E+04  0.7818609E-02  0.8065523E-01
       -2   -1    0    0    0  501  0.00000000000E+00  0.00000000000E+00  0.11160527381E+04  0.11160527381E+04  0.25500000920E-02 0. -1.
        2   -1    0    0  501    0  0.00000000000E+00  0.00000000000E+00 -0.30849145666E+04  0.30849145666E+04  0.25500000920E-02 0.  1.
    10030    2    1    2    0    0  0.00000000000E+00  0.00000000000E+00 -0.19688618285E+04  0.42009673047E+04  0.37110253833E+04 0.  0.
        2    1    3    3  502    0 -0.16394228370E+04  0.73602112636E+03 -0.46137609384E+03  0.18553442368E+04  0.25500000920E-02 0. -1.
       -2    1    3    3    0  502  0.16394228370E+04 -0.73602112636E+03 -0.15074857346E+04  0.23456230680E+04  0.25500000920E-02 0.  1.
</event>
<event>
 5   0  0.1656617E-07  0.2875256E+04  0.7818609E-02  0.8280278E-01
       -1   -1    0    0    0  501  0.00000000000E+00  0.00000000000E+00  0.15746038009E+04  0.15746038009E+04  0.50400001928E-02 0. -1.
        1   -1    0    0  501    0  0.00000000000E+00  0.00000000000E+00 -0.13125675731E+04  0.13125675731E+04  0.50400001928E-02 0.  1.
    10030    2    1    2    0    0  0.00000000000E+00  0.00000000000E+00  0.26203622776E+03  0.28871713740E+04  0.28752557379E+04 0.  0.
        5    1    3    3  502    0  0.52597167791E+03  0.13612309637E+03 -0.12055035114E+04  0.13222845796E+04  0.46999998093E+01 0.  1.
       -5    1    3    3    0  502 -0.52597167791E+03 -0.13612309637E+03  0.14675397392E+04  0.15648867944E+04  0.46999998093E+01 0. -1.
</event>
<event>
 5   0  0.1648000E-07  0.3881527E+04  0.7818609E-02  0.8028882E-01
       -1   -1    0    0    0  501  0.00000000000E+00  0.00000000000E+00  0.16604449989E+04  0.16604449989E+04  0.50400001928E-02 0.  1.
        1   -1    0    0  501    0  0.00000000000E+00  0.00000000000E+00 -0.22684058802E+04  0.22684058802E+04  0.50400001928E-02 0. -1.
    10030    2    1    2    0    0  0.00000000000E+00  0.00000000000E+00 -0.60796088124E+03  0.39288508791E+04  0.38815271218E+04 0.  0.
        4    1    3    3  502    0 -0.17980509686E+03 -0.49918272242E+03  0.15856084302E+04  0.16720254095E+04  0.12699999809E+01 0.  1.
       -4    1    3    3    0  502  0.17980509686E+03  0.49918272242E+03 -0.21935693114E+04  0.22568254696E+04  0.12699999809E+01 0. -1.
</event>
<event>
 5   0  0.1648000E-07  0.3796391E+04  0.7818609E-02  0.8046930E-01
        1   -1    0    0  501    0  0.00000000000E+00  0.00000000000E+00  0.26430371404E+04  0.26430371404E+04  0.50400001928E-02 0.  1.
       -1   -1    0    0    0  501  0.00000000000E+00  0.00000000000E+00 -0.13632594817E+04  0.13632594817E+04  0.50400001928E-02 0. -1.
    10030    2    1    2    0    0  0.00000000000E+00  0.00000000000E+00  0.12797776586E+04  0.40062966221E+04  0.37963906238E+04 0.  0.
        2    1    3    3  502    0 -0.11764522970E+04 -0.23785338403E+03  0.21917519056E+04  0.24988778792E+04  0.25500000920E-02 0.  1.
       -2    1    3    3    0  502  0.11764522970E+04  0.23785338403E+03 -0.91197424696E+03  0.15074187429E+04  0.25500000920E-02 0. -1.
</event>
<event>
 5   0  0.1656617E-07  0.4529620E+04  0.7818609E-02  0.7905472E-01
       -1   -1    0    0    0  501  0.00000000000E+00  0.00000000000E+00  0.16520550787E+04  0.16520550787E+04  0.50400001928E-02 0.  1.
        1   -1    0    0  501    0  0.00000000000E+00  0.00000000000E+00 -0.31048379376E+04  0.31048379376E+04  0.50400001928E-02 0. -1.
    10030    2    1    2    0    0  0.00000000000E+00  0.00000000000E+00 -0.14527828590E+04  0.47568930163E+04  0.45296195352E+04 0.  0.
        5    1    3    3  502    0  0.13907561459E+04 -0.47309616288E+03 -0.25366318866E+04  0.29313044971E+04  0.46999998093E+01 0. -1.
       -5    1    3    3    0  502 -0.13907561459E+04  0.47309616288E+03  0.10838490276E+04  0.18255885192E+04  0.46999998093E+01 0.  1.
</event>
<event>
 5   0  0.1648000E-07  0.3659283E+04  0.7818609E-02  0.8077046E-01
       -1   -1    0    0    0  501  0.00000000000E+00  0.00000000000E+00  0.25970205825E+04  0.25970205825E+04  0.50400001928E-02 0.  1.
        1   -1    0    0  501    0  0.00000000000E+00  0.00000000000E+00 -0.12890108035E+04  0.12890108035E+04  0.50400001928E-02 0. -1.
    10030    2    1    2    0    0  0.00000000000E+00  0.00000000000E+00  0.13080097790E+04  0.38860313860E+04  0.36592827646E+04 0.  0.
        1    1    3    3  502    0 -0.82152825363E+03 -0.47411440088E+03 -0.10075193357E+04  0.13837587754E+04  0.50400001928E-02 0. -1.
       -1    1    3    3    0  502  0.82152825363E+03  0.47411440088E+03  0.23155291147E+04  0.25022726106E+04  0.50400001928E-02 0.  1.
</event>
<event>
 5   0  0.5132561E-07  0.3864710E+04  0.7818609E-02  0.8032409E-01
       -2   -1    0    0    0  501  0.00000000000E+00  0.00000000000E+00  0.20611191886E+04  0.20611191886E+04  0.25500000920E-02 0. -1.
        2   -1    0    0  501    0  0.00000000000E+00  0.00000000000E+00 -0.18116348916E+04  0.18116348916E+04  0.25500000920E-02 0.  1.
    10030    2    1    2    0    0  0.00000000000E+00  0.00000000000E+00  0.24948429696E+03  0.38727540802E+04  0.38647097887E+04 0.  0.
        3    1    3    3  502    0  0.24420302647E+03  0.85865392017E+03  0.18420986528E+04  0.20470098020E+04  0.10100000352E+00 0. -1.
       -3    1    3    3    0  502 -0.24420302647E+03 -0.85865392017E+03 -0.15926143558E+04  0.18257442782E+04  0.10100000352E+00 0.  1.
</event>
<event>
 5   0  0.5132561E-07  0.3848593E+04  0.7818609E-02  0.8035807E-01
        2   -1    0    0  501    0  0.00000000000E+00  0.00000000000E+00  0.19366111383E+04  0.19366111383E+04  0.25500000920E-02 0. -1.
       -2   -1    0    0    0  501  0.00000000000E+00  0.00000000000E+00 -0.19120604189E+04  0.19120604189E+04  0.25500000920E-02 0.  1.
    10030    2    1    2    0    0  0.00000000000E+00  0.00000000000E+00  0.24550719333E+02  0.38486715572E+04  0.38485932517E+04 0.  0.
        3    1    3    3  502    0  0.12132067116E+04 -0.12811149976E+04 -0.75571899748E+03  0.19194367339E+04  0.10100000352E+00 0.  1.
       -3    1    3    3    0  502 -0.12132067116E+04  0.12811149976E+04  0.78026971682E+03  0.19292348233E+04  0.10100000352E+00 0. -1.
</event>
<event>
 5   0  0.1656617E-07  0.3773859E+04  0.7818609E-02  0.8051788E-01
        1   -1    0    0  501    0  0.00000000000E+00  0.00000000000E+00  0.16910618486E+04  0.16910618486E+04  0.50400001928E-02 0.  1.
       -1   -1    0    0    0  501  0.00000000000E+00  0.00000000000E+00 -0.21054833694E+04  0.21054833694E+04  0.50400001928E-02 0. -1.
    10030    2    1    2    0    0  0.00000000000E+00  0.00000000000E+00 -0.41442152075E+03  0.37965452180E+04  0.37738588203E+04 0.  0.
        5    1    3    3  502    0  0.16695234933E+04 -0.82414348511E+03 -0.51558130182E+03  0.19319335774E+04  0.46999998093E+01 0. -1.
       -5    1    3    3    0  502 -0.16695234933E+04  0.82414348511E+03  0.10115978107E+03  0.18646116406E+04  0.46999998093E+01 0.  1.
</event>
<event>
 5   0  0.1648000E-07  0.3749223E+04  0.7818609E-02  0.8057140E-01
       -1   -1    0    0    0  501  0.00000000000E+00  0.00000000000E+00  0.25653983801E+04  0.25653983801E+04  0.50400001928E-02 0. -1.
        1   -1    0    0  501    0  0.00000000000E+00  0.00000000000E+00 -0.13698331706E+04  0.13698331706E+04  0.50400001928E-02 0.  1.
    10030    2    1    2    0    0  0.00000000000E+00  0.00000000000E+00  0.11955652095E+04  0.39352315508E+04  0.37492227445E+04 0.  0.
        3    1    3    3  502    0  0.38648955482E+03 -0.32336314940E+03  0.24929743694E+04  0.25433951952E+04  0.10100000352E+00 0. -1.
       -3    1    3    3    0  502 -0.38648955482E+03  0.32336314940E+03 -0.12974091599E+04  0.13918363556E+04  0.10100000352E+00 0.  1.
</event>
<event>
 5   0  0.1648000E-07  0.3809552E+04  0.7818609E-02  0.8044108E-01
       -1   -1    0    0    0  501  0.00000000000E+00  0.00000000000E+00  0.17355683251E+04  0.17355683251E+04  0.50400001928E-02 0.  1.
        1   -1    0    0  501    0  0.00000000000E+00  0.00000000000E+00 -0.20904807638E+04  0.20904807638E+04  0.50400001928E-02 0. -1.
    10030    2    1    2    0    0  0.00000000000E+00  0.00000000000E+00 -0.35491243867E+03  0.38260490889E+04  0.38095523086E+04 0.  0.
        3    1    3    3  502    0  0.85049592454E+03 -0.84349323886E+03 -0.16648651018E+04  0.20509997511E+04  0.10100000352E+00 0. -1.
       -3    1    3    3    0  502 -0.85049592454E+03  0.84349323886E+03  0.13099526632E+04  0.17750493378E+04  0.10100000352E+00 0.  1.
</event>
<event>
 5   0  0.5158266E-07  0.3757653E+04  0.7818609E-02  0.8055304E-01
       -2   -1    0    0    0  501  0.00000000000E+00  0.00000000000E+00  0.18211385381E+04  0.18211385381E+04  0.25500000920E-02 0.  1.
        2   -1    0    0  501    0  0.00000000000E+00  0.00000000000E+00 -0.19383417334E+04  0.19383417334E+04  0.25500000920E-02 0. -1.
    10030    2    1    2    0    0  0.00000000000E+00  0.00000000000E+00 -0.11720319538E+03  0.37594802715E+04  0.37576529008E+04 0.  0.
        2    1    3    3  502    0  0.11589184730E+04  0.68216220024E+03  0.12541155639E+04  0.18388156901E+04  0.25500000920E-02 0.  1.
       -2    1    3    3    0  502 -0.11589184730E+04 -0.68216220024E+03 -0.13713187593E+04  0.19206645814E+04  0.25500000920E-02 0. -1.
</event>
<event>
 5   0  0.5158266E-07  0.3812808E+04  0.7818609E-02  0.8043412E-01
       -2   -1    0    0    0  501  0.00000000000E+00  0.00000000000E+00  0.15207599554E+04  0.15207599554E+04  0.25500000920E-02 0.  1.
        2   -1    0    0  501    0  0.00000000000E+00  0.00000000000E+00 -0.23898417608E+04  0.23898417608E+04  0.25500000920E-02 0. -1.
    10030    2    1    2    0    0  0.00000000000E+00  0.00000000000E+00 -0.86908180534E+03  0.39106017162E+04  0.38128077054E+04 0.  0.
        2    1    3    3  502    0  0.38365207107E+03  0.53570382691E+03 -0.22693369554E+04  0.23630610908E+04  0.25500000920E-02 0. -1.
       -2    1    3    3    0  502 -0.38365207107E+03 -0.53570382691E+03  0.14002551501E+04  0.15475406254E+04  0.25500000920E-02 0.  1.
</event>
<event>
 5   0  0.1648000E-07  0.3783814E+04  0.7818609E-02  0.8049637E-01
        1   -1    0    0  501    0  0.00000000000E+00  0.00000000000E+00  0.21079798489E+04  0.21079798489E+04  0.50400001928E-02 0.  1.
       -1   -1    0    0    0  501  0.00000000000E+00  0.00000000000E+00 -0.16979819541E+04  0.16979819541E+04  0.50400001928E-02 0. -1.
    10030    2    1    2    0    0  0.00000000000E+00  0.00000000000E+00  0.40999789475E+03  0.38059618030E+04  0.37838138131E+04 0.  0.
        4    1    3    3  502    0  0.17994581518E+04 -0.32252534824E+03  0.69492066700E+03  0.19557578037E+04  0.12699999809E+01 0.  1.
       -4    1    3    3    0  502 -0.17994581518E+04  0.32252534824E+03 -0.28492277225E+03  0.18502039994E+04  0.12699999809E+01 0. -1.
</event>
<event>
 5   0  0.5202788E-07  0.3893123E+04  0.7818609E-02  0.8026461E-01
       -2   -1    0    0    0  501  0.00000000000E+00  0.00000000000E+00  0.26023474584E+04  0.26023474584E+04  0.25500000920E-02 0. -1.
        2   -1    0    0  501    0  0.00000000000E+00  0.00000000000E+00 -0.14560319720E+04  0.14560319720E+04  0.25500000920E-02 0.  1.
    10030    2    1    2    0    0  0.00000000000E+00  0.00000000000E+00  0.11463154864E+04  0.40583794304E+04  0.38931227064E+04 0.  0.
        1    1    3    3  502    0 -0.37563764345E+03  0.19088926608E+04  0.50619496217E+03  0.20102756451E+04  0.50400001928E-02 0. -1.
       -1    1    3    3    0  502  0.37563764345E+03 -0.19088926608E+04  0.64012052427E+03  0.20481037853E+04  0.50400001928E-02 0.  1.
</event>
<event>
 5   0  0.5134434E-07  0.3786963E+04  0.7818609E-02  0.8048958E-01
        2   -1    0    0  501    0  0.00000000000E+00  0.00000000000E+00  0.19578251739E+04  0.19578251739E+04  0.25500000920E-02 0.  1.
       -2   -1    0    0    0  501  0.00000000000E+00  0.00000000000E+00 -0.18312524507E+04  0.18312524507E+04  0.25500000920E-02 0. -1.
    10030    2    1    2    0    0  0.00000000000E+00  0.00000000000E+00  0.12657272323E+03  0.37890776247E+04  0.37869629773E+04 0.  0.
        5    1    3    3  502    0  0.12889388051E+04  0.11642679646E+04 -0.69103575305E+03  0.18693409637E+04  0.46999998093E+01 0. -1.
       -5    1    3    3    0  502 -0.12889388051E+04 -0.11642679646E+04  0.81760847628E+03  0.19197366609E+04  0.46999998093E+01 0.  1.
</event>
<event>
 5   0  0.5134434E-07  0.3757054E+04  0.7818609E-02  0.8055434E-01
        2   -1    0    0  501    0  0.00000000000E+00  0.00000000000E+00  0.21900052367E+04  0.21900052367E+04  0.25500000920E-02 0. -1.
       -2   -1    0    0    0  501  0.00000000000E+00  0.00000000000E+00 -0.16113497760E+04  0.16113497760E+04  0.25500000920E-02 0.  1.
    10030    2    1    2    0    0  0.00000000000E+00  0.00000000000E+00  0.57865546073E+03  0.38013550127E+04  0.37570544034E+04 0.  0.
        5    1    3    3  502    0  0.10756288325E+04  0.10337649836E+04 -0.86570858195E+03  0.17248538679E+04  0.46999998093E+01 0.  1.
       -5    1    3    3    0  502 -0.10756288325E+04 -0.10337649836E+04  0.14443640427E+04  0.20765011448E+04  0.46999998093E+01 0. -1.
</event>
<event>
 5   0  0.5158266E-07  0.3664127E+04  0.7818609E-02  0.8075959E-01
       -2   -1    0    0    0  501  0.00000000000E+00  0.00000000000E+00  0.16026668193E+04  0.16026668193E+04  0.25500000920E-02 0.  1.
        2   -1    0    0  501    0  0.00000000000E+00  0.00000000000E+00 -0.20942941859E+04  0.20942941859E+04  0.25500000920E-02 0. -1.
    10030    2    1    2    0    0  0.00000000000E+00  0.00000000000E+00 -0.49162736658E+03  0.36969610052E+04  0.36641265270E+04 0.  0.
        2    1    3    3  502    0  0.37967262638E+03  0.27288977058E+03  0.15414536007E+04  0.16108070440E+04  0.25500000920E-02 0.  1.
       -2    1    3    3    0  502 -0.37967262638E+03 -0.27288977058E+03 -0.20330809672E+04  0.20861539611E+04  0.25500000920E-02 0. -1.
</event>
<event>
 5   0  0.1648000E-07  0.3970988E+04  0.7818609E-02  0.8010425E-01
       -3   -1    0    0    0  501  0.00000000000E+00  0.00000000000E+00  0.18474413908E+04  0.18474413936E+04  0.10100000352E+00 0. -1.
        3   -1    0    0  501    0  0.00000000000E+00  0.00000000000E+00 -0.21338632619E+04  0.21338632643E+04  0.10100000352E+00 0.  1.
    10030    2    1    2    0    0  0.00000000000E+00  0.00000000000E+00 -0.28642187102E+03  0.39813046579E+04  0.39709884526E+04 0.  0.
        2    1    3    3  502    0 -0.55874890076E+03  0.19029377378E+04 -0.49079034896E+02  0.19838803189E+04  0.25500000920E-02 0. -1.
       -2    1    3    3    0  502  0.55874890076E+03 -0.19029377378E+04 -0.23734283613E+03  0.19974243390E+04  0.25500000920E-02 0.  1.
</event>
<event>
 5   0  0.5132561E-07  0.3845967E+04  0.7818609E-02  0.8036362E-01
        2   -1    0    0  501    0  0.00000000000E+00  0.00000000000E+00  0.24022116294E+04  0.24022116294E+04  0.25500000920E-02 0.  1.
       -2   -1    0    0    0  501  0.00000000000E+00  0.00000000000E+00 -0.15393588665E+04  0.15393588665E+04  0.25500000920E-02 0. -1.
    10030    2    1    2    0    0  0.00000000000E+00  0.00000000000E+00  0.86285276291E+03  0.39415704958E+04  0.38459671193E+04 0.  0.
        3    1    3    3  502    0 -0.13861730156E+04 -0.13754983427E+02 -0.93444491420E+03  0.16717811270E+04  0.10100000352E+00 0. -1.
       -3    1    3    3    0  502  0.13861730156E+04  0.13754983427E+02  0.17972976771E+04  0.22697893689E+04  0.10100000352E+00 0.  1.
</event>
<event>
 5   0  0.1648000E-07  0.3757323E+04  0.7818609E-02  0.8055376E-01
       -1   -1    0    0    0  501  0.00000000000E+00  0.00000000000E+00  0.15707452097E+04  0.15707452097E+04  0.50400001928E-02 0.  1.
        1   -1    0    0  501    0  0.00000000000E+00  0.00000000000E+00 -0.22469392873E+04  0.22469392873E+04  0.50400001928E-02 0. -1.
    10030    2    1    2    0    0  0.00000000000E+00  0.00000000000E+00 -0.67619407761E+03  0.38176844971E+04  0.37573230482E+04 0.  0.
        3    1    3    3  502    0  0.13384948264E+03 -0.13423958068E+04  0.99035771729E+03  0.16735443241E+04  0.10100000352E+00 0.  1.
       -3    1    3    3    0  502 -0.13384948264E+03  0.13423958068E+04 -0.16665517949E+04  0.21441401730E+04  0.10100000352E+00 0. -1.
</event>
<event>
 5   0  0.5325362E-07  0.3793676E+04  0.7818609E-02  0.8047513E-01
       -2   -1    0    0    0  501  0.00000000000E+00  0.00000000000E+00  0.15469833714E+04  0.15469833714E+04  0.25500000920E-02 0.  1.
        2   -1    0    0  501    0  0.00000000000E+00  0.00000000000E+00 -0.23258127662E+04  0.23258127662E+04  0.25500000920E-02 0. -1.
    10030    2    1    2    0    0  0.00000000000E+00  0.00000000000E+00 -0.77882939482E+03  0.38727961376E+04  0.37936756183E+04 0.  0.
        4    1    3    3  502    0  0.20851978808E+03 -0.72887058215E+03  0.13856007507E+04  0.15794378369E+04  0.12699999809E+01 0.  1.
       -4    1    3    3    0  502 -0.20851978808E+03  0.72887058215E+03 -0.21644301455E+04  0.22933583007E+04  0.12699999809E+01 0. -1.
</event>
<event>
 5   0  0.1648000E-07  0.3700659E+04  0.7818609E-02  0.8067816E-01
       -1   -1    0    0    0  501  0.00000000000E+00  0.00000000000E+00  0.23452922690E+04  0.23452922690E+04  0.50400001928E-02 0. -1.
        1   -1    0    0  501    0  0.00000000000E+00  0.00000000000E+00 -0.14598265438E+04  0.14598265438E+04  0.50400001928E-02 0.  1.
    10030    2    1    2    0    0  0.00000000000E+00  0.00000000000E+00  0.88546572516E+03  0.38051188128E+04  0.37006593506E+04 0.  0.
        2    1    3    3  502    0 -0.12023616548E+04  0.14062477726E+04  0.41943130629E+03  0.18971370450E+04  0.25500000920E-02 0. -1.
       -2    1    3    3    0  502  0.12023616548E+04 -0.14062477726E+04  0.46603441886E+03  0.19079817678E+04  0.25500000920E-02 0.  1.
</event>
<event>
 5   0  0.1648000E-07  0.3810259E+04  0.7818609E-02  0.8043957E-01
        1   -1    0    0  501    0  0.00000000000E+00  0.00000000000E+00  0.14571115296E+04  0.14571115296E+04  0.50400001928E-02 0.  1.
       -1   -1    0    0    0  501  0.00000000000E+00  0.00000000000E+00 -0.24908991333E+04  0.24908991333E+04  0.50400001928E-02 0. -1.
    10030    2    1    2    0    0  0.00000000000E+00  0.00000000000E+00 -0.10337876037E+04  0.39480106629E+04  0.38102587031E+04 0.  0.
        1    1    3    3  502    0  0.93078255438E+02 -0.13859784501E+04 -0.18678393425E+04  0.23277507674E+04  0.50400001928E-02 0. -1.
       -1    1    3    3    0  502 -0.93078255438E+02  0.13859784501E+04  0.83405173878E+03  0.16202598954E+04  0.50400001928E-02 0.  1.
</event>
<event>
 5   0  0.5134434E-07  0.3820481E+04  0.7818609E-02  0.8041774E-01
       -2   -1    0    0    0  501  0.00000000000E+00  0.00000000000E+00  0.17889370168E+04  0.17889370168E+04  0.25500000920E-02 0. -1.
        2   -1    0    0  501    0  0.00000000000E+00  0.00000000000E+00 -0.20397688712E+04  0.20397688712E+04  0.25500000920E-02 0.  1.
    10030    2    1    2    0    0  0.00000000000E+00  0.00000000000E+00 -0.25083185441E+03  0.38287058880E+04  0.38204806186E+04 0.  0.
        5    1    3    3  502    0 -0.78870639651E+03 -0.93537302818E+03 -0.15955491753E+04  0.20106664921E+04  0.46999998093E+01 0.  1.
       -5    1    3    3    0  502  0.78870639651E+03  0.93537302818E+03  0.13447173209E+04  0.18180393958E+04  0.46999998093E+01 0. -1.
</event>
<event>
 5   0  0.1656617E-07  0.3217314E+04  0.7818609E-02  0.8184259E-01
        1   -1    0    0  501    0  0.00000000000E+00  0.00000000000E+00  0.20071381371E+04  0.20071381372E+04  0.50400001928E-02 0.  1.
       -1   -1    0    0    0  501  0.00000000000E+00  0.00000000000E+00 -0.12892872877E+04  0.12892872877E+04  0.50400001928E-02 0. -1.
    10030    2    1    2    0    0  0.00000000000E+00  0.00000000000E+00  0.71785084944E+03  0.32964254249E+04  0.32173142121E+04 0.  0.
        5    1    3    3  502    0 -0.10994809983E+04  0.76639927036E+03 -0.55263040362E+03  0.14497064393E+04  0.46999998093E+01 0. -1.
       -5    1    3    3    0  502  0.10994809983E+04 -0.76639927036E+03  0.12704812531E+04  0.18467189855E+04  0.46999998093E+01 0.  1.
</event>
<event>
 5   0  0.5132561E-07  0.3804928E+04  0.7818609E-02  0.8045098E-01
       -2   -1    0    0    0  501  0.00000000000E+00  0.00000000000E+00  0.28444036143E+04  0.28444036143E+04  0.25500000920E-02 0.  1.
        2   -1    0    0  501    0  0.00000000000E+00  0.00000000000E+00 -0.12724524558E+04  0.12724524558E+04  0.25500000920E-02 0. -1.
    10030    2    1    2    0    0  0.00000000000E+00  0.00000000000E+00  0.15719511585E+04  0.41168560701E+04  0.38049275233E+04 0.  0.
        3    1    3    3  502    0 -0.18335857915E+03 -0.31039835043E+03  0.28071078036E+04  0.28301628461E+04  0.10100000352E+00 0.  1.
       -3    1    3    3    0  502  0.18335857915E+03  0.31039835043E+03 -0.12351566451E+04  0.12866932240E+04  0.10100000352E+00 0. -1.
</event>
<event>
 5   0  0.5202788E-07  0.3886845E+04  0.7818609E-02  0.8027771E-01
       -2   -1    0    0    0  501  0.00000000000E+00  0.00000000000E+00  0.15891986118E+04  0.15891986118E+04  0.25500000920E-02 0. -1.
        2   -1    0    0  501    0  0.00000000000E+00  0.00000000000E+00 -0.23766014880E+04  0.23766014880E+04  0.25500000920E-02 0.  1.
    10030    2    1    2    0    0  0.00000000000E+00  0.00000000000E+00 -0.78740287625E+03  0.39658000998E+04  0.38868453973E+04 0.  0.
        1    1    3    3  502    0 -0.55633370131E+03  0.14246785584E+04 -0.16170888413E+04  0.22258015416E+04  0.50400001928E-02 0. -1.
       -1    1    3    3    0  502  0.55633370131E+03 -0.14246785584E+04  0.82968596507E+03  0.17399985582E+04  0.50400001928E-02 0.  1.
</event>
<event>
 5   0  0.1648000E-07  0.3766271E+04  0.7818609E-02  0.8053432E-01
       -1   -1    0    0    0  501  0.00000000000E+00  0.00000000000E+00  0.15050573282E+04  0.15050573282E+04  0.50400001928E-02 0. -1.
        1   -1    0    0  501    0  0.00000000000E+00  0.00000000000E+00 -0.23561883547E+04  0.23561883547E+04  0.50400001928E-02 0.  1.
    10030    2    1    2    0    0  0.00000000000E+00  0.00000000000E+00 -0.85113102651E+03  0.38612456829E+04  0.37662705956E+04 0.  0.
        2    1    3    3  502    0 -0.84505746453E+02  0.12630236631E+04 -0.18549362775E+04  0.22456977954E+04  0.25500000920E-02 0.  1.
       -2    1    3    3    0  502  0.84505746453E+02 -0.12630236631E+04  0.10038052510E+04  0.16155478875E+04  0.25500000920E-02 0. -1.
</event>
<event>
 5   0  0.1648000E-07  0.3331621E+04  0.7818609E-02  0.8154896E-01
        1   -1    0    0  501    0  0.00000000000E+00  0.00000000000E+00  0.12847088368E+04  0.12847088368E+04  0.50400001928E-02 0. -1.
       -1   -1    0    0    0  501  0.00000000000E+00  0.00000000000E+00 -0.21599637436E+04  0.21599637436E+04  0.50400001928E-02 0.  1.
    10030    2    1    2    0    0  0.00000000000E+00  0.00000000000E+00 -0.87525490686E+03  0.34446725804E+04  0.33316209320E+04 0.  0.
        2    1    3    3  502    0 -0.12421033390E+04 -0.10544022315E+04 -0.78955930462E+02  0.16312016459E+04  0.25500000920E-02 0. -1.
       -2    1    3    3    0  502  0.12421033390E+04  0.10544022315E+04 -0.79629897640E+03  0.18134709345E+04  0.25500000920E-02 0.  1.
</event>
<event>
 5   0  0.5132561E-07  0.3865573E+04  0.7818609E-02  0.8032228E-01
       -2   -1    0    0    0  501  0.00000000000E+00  0.00000000000E+00  0.14633443365E+04  0.14633443365E+04  0.25500000920E-02 0. -1.
        2   -1    0    0  501    0  0.00000000000E+00  0.00000000000E+00 -0.25528258513E+04  0.25528258513E+04  0.25500000920E-02 0.  1.
    10030    2    1    2    0    0  0.00000000000E+00  0.00000000000E+00 -0.10894815148E+04  0.40161701877E+04  0.38655727914E+04 0.  0.
        3    1    3    3  502    0 -0.13733792802E+04  0.13591019529E+04 -0.59493951108E+03  0.20217026976E+04  0.10100000352E+00 0.  1.
       -3    1    3    3    0  502  0.13733792802E+04 -0.13591019529E+04 -0.49454200372E+03  0.19944674901E+04  0.10100000352E+00 0. -1.
</event>
<event>
 5   0  0.5132561E-07  0.3781057E+04  0.7818609E-02  0.8050232E-01
       -2   -1    0    0    0  501  0.00000000000E+00  0.00000000000E+00  0.15601651304E+04  0.15601651304E+04  0.25500000920E-02 0. -1.
        2   -1    0    0  501    0  0.00000000000E+00  0.00000000000E+00 -0.22908456902E+04  0.22908456902E+04  0.25500000920E-02 0.  1.
    10030    2    1    2    0    0  0.00000000000E+00  0.00000000000E+00 -0.73068055979E+03  0.38510108206E+04  0.37810567650E+04 0.  0.
        3    1    3    3  502    0  0.91085700231E+03 -0.16302514067E+04 -0.66526670647E+03  0.19824126535E+04  0.10100000352E+00 0.  1.
       -3    1    3    3    0  502 -0.91085700231E+03  0.16302514067E+04 -0.65413853323E+02  0.18685981671E+04  0.10100000352E+00 0. -1.
</event>
<event>
 5   0  0.1648000E-07  0.3814030E+04  0.7818609E-02  0.8043151E-01
       -1   -1    0    0    0  501  0.00000000000E+00  0.00000000000E+00  0.19598191877E+04  0.19598191877E+04  0.50400001928E-02 0.  1.
        1   -1    0    0  501    0  0.00000000000E+00  0.00000000000E+00 -0.18556338092E+04  0.18556338092E+04  0.50400001928E-02 0. -1.
    10030    2    1    2    0    0  0.00000000000E+00  0.00000000000E+00  0.10418537848E+03  0.38154529969E+04  0.38140302802E+04 0.  0.
        4    1    3    3  502    0 -0.57219954277E+03 -0.13344730484E+04 -0.11846833696E+04  0.18739548907E+04  0.12699999809E+01 0.  1.
       -4    1    3    3    0  502  0.57219954277E+03  0.13344730484E+04  0.12888687480E+04  0.19414981061E+04  0.12699999809E+01 0. -1.
</event>
<event>
 5   0  0.1648000E-07  0.3783137E+04  0.7818609E-02  0.8049783E-01
       -1   -1    0    0    0  501  0.00000000000E+00  0.00000000000E+00  0.13899594288E+04  0.13899594289E+04  0.50400001928E-02 0. -1.
        1   -1    0    0  501    0  0.00000000000E+00  0.00000000000E+00 -0.25741977833E+04  0.25741977833E+04  0.50400001928E-02 0.  1.
    10030    2    1    2    0    0  0.00000000000E+00  0.00000000000E+00 -0.11842383545E+04  0.39641572122E+04  0.37831365192E+04 0.  0.
        4    1    3    3  502    0 -0.17656654453E+04  0.56690800085E+03 -0.98288371911E+03  0.20988142281E+04  0.12699999809E+01 0. -1.
       -4    1    3    3    0  502  0.17656654453E+04 -0.56690800085E+03 -0.20135463537E+03  0.18653429840E+04  0.12699999809E+01 0.  1.
</event>
<event>
 5   0  0.1648000E-07  0.3826809E+04  0.7818609E-02  0.8040426E-01
       -1   -1    0    0    0  501  0.00000000000E+00  0.00000000000E+00  0.11925389563E+04  0.11925389563E+04  0.50400001928E-02 0.  1.
        1   -1    0    0  501    0  0.00000000000E+00  0.00000000000E+00 -0.30700189114E+04  0.30700189114E+04  0.50400001928E-02 0. -1.
    10030    2    1    2    0    0  0.00000000000E+00  0.00000000000E+00 -0.18774799551E+04  0.42625578677E+04  0.38268091923E+04 0.  0.
        1    1    3    3  502    0 -0.11163469219E+04 -0.14492349003E+04 -0.15635043020E+04  0.24064617073E+04  0.50400001928E-02 0. -1.
       -1    1    3    3    0  502  0.11163469219E+04  0.14492349003E+04 -0.31397565306E+03  0.18560961605E+04  0.50400001928E-02 0.  1.
</event>
<event>
 5   0  0.1648000E-07  0.3820751E+04  0.7818609E-02  0.8041716E-01
       -1   -1    0    0    0  501  0.00000000000E+00  0.00000000000E+00  0.16781104425E+04  0.16781104425E+04  0.50400001928E-02 0. -1.
        1   -1    0    0  501    0  0.00000000000E+00  0.00000000000E+00 -0.21747875129E+04  0.21747875129E+04  0.50400001928E-02 0.  1.
    10030    2    1    2    0    0  0.00000000000E+00  0.00000000000E+00 -0.49667707041E+03  0.38528979554E+04  0.38207505209E+04 0.  0.
        1    1    3    3  502    0 -0.14134327270E+04 -0.18923384514E+03  0.10335503495E+04  0.17612006833E+04  0.50400001928E-02 0. -1.
       -1    1    3    3    0  502  0.14134327270E+04  0.18923384514E+03 -0.15302274199E+04  0.20916972722E+04  0.50400001928E-02 0.  1.
</event>
<event>
 5   0  0.1648000E-07  0.3850764E+04  0.7818609E-02  0.8035348E-01
       -1   -1    0    0    0  501  0.00000000000E+00  0.00000000000E+00  0.14889594939E+04  0.14889594939E+04  0.50400001928E-02 0.  1.
        1   -1    0    0  501    0  0.00000000000E+00  0.00000000000E+00 -0.24897227313E+04  0.24897227313E+04  0.50400001928E-02 0. -1.
    10030    2    1    2    0    0  0.00000000000E+00  0.00000000000E+00 -0.10007632374E+04  0.39786822252E+04  0.38507642348E+04 0.  0.
        2    1    3    3  502    0  0.71977595084E+01  0.54790106857E+03 -0.24074609569E+04  0.24690313177E+04  0.25500000920E-02 0. -1.
       -2    1    3    3    0  502 -0.71977595084E+01 -0.54790106857E+03  0.14066977195E+04  0.15096509075E+04  0.25500000920E-02 0.  1.
</event>
<event>
 5   0  0.1656617E-07  0.3780206E+04  0.7818609E-02  0.8050416E-01
       -1   -1    0    0    0  501  0.00000000000E+00  0.00000000000E+00  0.20113200295E+04  0.20113200295E+04  0.50400001928E-02 0.  1.
        1   -1    0    0  501    0  0.00000000000E+00  0.00000000000E+00 -0.17761915493E+04  0.17761915493E+04  0.50400001928E-02 0. -1.
    10030    2    1    2    0    0  0.00000000000E+00  0.00000000000E+00  0.23512848021E+03  0.37875115789E+04  0.37802061528E+04 0.  0.
        5    1    3    3  502    0 -0.17375619789E+04  0.74328127081E+03  0.14726729954E+03  0.18955997535E+04  0.46999998093E+01 0. -1.
       -5    1    3    3    0  502  0.17375619789E+04 -0.74328127081E+03  0.87861180676E+02  0.18919118254E+04  0.46999998093E+01 0.  1.
</event>
<event>
 5   0  0.1648000E-07  0.3825884E+04  0.7818609E-02  0.8040623E-01
        1   -1    0    0  501    0  0.00000000000E+00  0.00000000000E+00  0.17513878406E+04  0.17513878406E+04  0.50400001928E-02 0.  1.
       -1   -1    0    0    0  501  0.00000000000E+00  0.00000000000E+00 -0.20893980151E+04  0.20893980151E+04  0.50400001928E-02 0. -1.
    10030    2    1    2    0    0  0.00000000000E+00  0.00000000000E+00 -0.33801017449E+03  0.38407858557E+04  0.38258835727E+04 0.  0.
        2    1    3    3  502    0 -0.18569664307E+04 -0.20270774888E+03 -0.58283827572E+03  0.19568125132E+04  0.25500000920E-02 0.  1.
       -2    1    3    3    0  502  0.18569664307E+04  0.20270774888E+03  0.24482810122E+03  0.18839733425E+04  0.25500000920E-02 0. -1.
</event>
<event>
 5   0  0.5202788E-07  0.3734750E+04  0.7818609E-02  0.8060304E-01
        2   -1    0    0  501    0  0.00000000000E+00  0.00000000000E+00  0.18381328190E+04  0.18381328190E+04  0.25500000920E-02 0.  1.
       -2   -1    0    0    0  501  0.00000000000E+00  0.00000000000E+00 -0.18970825655E+04  0.18970825655E+04  0.25500000920E-02 0. -1.
    10030    2    1    2    0    0  0.00000000000E+00  0.00000000000E+00 -0.58949746486E+02  0.37352153846E+04  0.37347501786E+04 0.  0.
        1    1    3    3  502    0 -0.15617910725E+04  0.80140789140E+03 -0.66645589561E+03  0.18776606252E+04  0.50400001928E-02 0. -1.
       -1    1    3    3    0  502  0.15617910725E+04 -0.80140789140E+03  0.60750614912E+03  0.18575547593E+04  0.50400001928E-02 0.  1.
</event>
<event>
 5   0  0.5202788E-07  0.3787328E+04  0.7818609E-02  0.8048880E-01
       -2   -1    0    0    0  501  0.00000000000E+00  0.00000000000E+00  0.17765166193E+04  0.17765166193E+04  0.25500000920E-02 0.  1.
        2   -1    0    0  501    0  0.00000000000E+00  0.00000000000E+00 -0.20185367638E+04  0.20185367638E+04  0.25500000920E-02 0. -1.
    10030    2    1    2    0    0  0.00000000000E+00  0.00000000000E+00 -0.24202014446E+03  0.37950533831E+04  0.37873284028E+04 0.  0.
        1    1    3    3  502    0  0.15026954083E+04  0.52222167560E+03  0.90829256061E+03  0.18318854616E+04  0.50400001928E-02 0.  1.
       -1    1    3    3    0  502 -0.15026954083E+04 -0.52222167560E+03 -0.11503127051E+04  0.19631679215E+04  0.50400001928E-02 0. -1.
</event>
<event>
 5   0  0.5158266E-07  0.3801911E+04  0.7818609E-02  0.8045745E-01
       -2   -1    0    0    0  501  0.00000000000E+00  0.00000000000E+00  0.17879400666E+04  0.17879400666E+04  0.25500000920E-02 0.  1.
        2   -1    0    0  501    0  0.00000000000E+00  0.00000000000E+00 -0.20211150568E+04  0.20211150568E+04  0.25500000920E-02 0. -1.
    10030    2    1    2    0    0  0.00000000000E+00  0.00000000000E+00 -0.23317499021E+03  0.38090551234E+04  0.38019114084E+04 0.  0.
        2    1    3    3  502    0 -0.50199521301E+03  0.96195456660E+03 -0.16803780306E+04  0.20002565105E+04  0.25500000920E-02 0. -1.
       -2    1    3    3    0  502  0.50199521301E+03 -0.96195456660E+03  0.14472030404E+04  0.18087986129E+04  0.25500000920E-02 0.  1.
</event>
<event>
 5   0  0.1648000E-07  0.3785984E+04  0.7818609E-02  0.8049169E-01
        1   -1    0    0  501    0  0.00000000000E+00  0.00000000000E+00  0.23858669663E+04  0.23858669663E+04  0.50400001928E-02 0. -1.
       -1   -1    0    0    0  501  0.00000000000E+00  0.00000000000E+00 -0.15019353560E+04  0.15019353560E+04  0.50400001928E-02 0.  1.
    10030    2    1    2    0    0  0.00000000000E+00  0.00000000000E+00  0.88393161027E+03  0.38878023223E+04  0.37859835982E+04 0.  0.
        4    1    3    3  502    0  0.12250624741E+04 -0.40690254169E+03 -0.97985306239E+03  0.16206361037E+04  0.12699999809E+01 0.  1.
       -4    1    3    3    0  502 -0.12250624741E+04  0.40690254169E+03  0.18637846727E+04  0.22671662186E+04  0.12699999809E+01 0. -1.
</event>
<event>
 5   0  0.1648000E-07  0.3330552E+04  0.7818609E-02  0.8155165E-01
       -1   -1    0    0    0  501  0.00000000000E+00  0.00000000000E+00  0.12883765774E+04  0.12883765774E+04  0.50400001928E-02 0. -1.
        1   -1    0    0  501    0  0.00000000000E+00  0.00000000000E+00 -0.21524329333E+04  0.21524329333E+04  0.50400001928E-02 0.  1.
    10030    2    1    2    0    0  0.00000000000E+00  0.00000000000E+00 -0.86405635586E+03  0.34408095107E+04  0.33305520117E+04 0.  0.
        4    1    3    3  502    0  0.49683509608E+03 -0.16437776702E+03 -0.20652743191E+04  0.21305456552E+04  0.12699999809E+01 0.  1.
       -4    1    3    3    0  502 -0.49683509608E+03  0.16437776702E+03  0.12012179632E+04  0.13102638555E+04  0.12699999809E+01 0. -1.
</event>
<event>
 5   0  0.1648000E-07  0.3825997E+04  0.7818609E-02  0.8040599E-01
       -1   -1    0    0    0  501  0.00000000000E+00  0.00000000000E+00  0.16232415809E+04  0.16232415809E+04  0.50400001928E-02 0.  1.
        1   -1    0    0  501    0  0.00000000000E+00  0.00000000000E+00 -0.22544789400E+04  0.22544789400E+04  0.50400001928E-02 0. -1.
    10030    2    1    2    0    0  0.00000000000E+00  0.00000000000E+00 -0.63123735913E+03  0.38777205209E+04  0.38259973646E+04 0.  0.
        1    1    3    3  502    0 -0.68918522767E+03 -0.95727216727E+03  0.12108018691E+04  0.16903808584E+04  0.50400001928E-02 0.  1.
       -1    1    3    3    0  502  0.68918522767E+03  0.95727216727E+03 -0.18420392283E+04  0.21873396624E+04  0.50400001928E-02 0. -1.
</event>
<event>
 5   0  0.1648000E-07  0.3738602E+04  0.7818609E-02  0.8059461E-01
        1   -1    0    0  501    0  0.00000000000E+00  0.00000000000E+00  0.26742508623E+04  0.26742508624E+04  0.50400001928E-02 0. -1.
       -1   -1    0    0    0  501  0.00000000000E+00  0.00000000000E+00 -0.13066414459E+04  0.13066414459E+04  0.50400001928E-02 0.  1.
    10030    2    1    2    0    0  0.00000000000E+00  0.00000000000E+00  0.13676094165E+04  0.39808923082E+04  0.37386024198E+04 0.  0.
        2    1    3    3  502    0 -0.95121881949E+03 -0.84208038259E+03  0.21439391641E+04  0.24920657601E+04  0.25500000920E-02 0. -1.
       -2    1    3    3    0  502  0.95121881949E+03  0.84208038259E+03 -0.77632974763E+03  0.14888265481E+04  0.25500000920E-02 0.  1.
</event>
<event>
 5   0  0.1648000E-07  0.3584130E+04  0.7818609E-02  0.8094137E-01
        1   -1    0    0  501    0  0.00000000000E+00  0.00000000000E+00  0.19138445055E+04  0.19138445055E+04  0.50400001928E-02 0.  1.
       -1   -1    0    0    0  501  0.00000000000E+00  0.00000000000E+00 -0.16780341697E+04  0.16780341697E+04  0.50400001928E-02 0. -1.
    10030    2    1    2    0    0  0.00000000000E+00  0.00000000000E+00  0.23581033581E+03  0.35918786752E+04  0.35841297274E+04 0.  0.
        2    1    3    3  502    0 -0.64795630852E+03  0.16699699742E+04  0.17140018852E+03  0.17994513378E+04  0.25500000920E-02 0.  1.
       -2    1    3    3    0  502  0.64795630852E+03 -0.16699699742E+04  0.64410147285E+02  0.17924273373E+04  0.25500000920E-02 0. -1.
</event>
<event>
 5   0  0.5132561E-07  0.3805075E+04  0.7818609E-02  0.8045067E-01
        2   -1    0    0  501    0  0.00000000000E+00  0.00000000000E+00  0.28393448126E+04  0.28393448126E+04  0.25500000920E-02 0.  1.
       -2   -1    0    0    0  501  0.00000000000E+00  0.00000000000E+00 -0.12748185981E+04  0.12748185981E+04  0.25500000920E-02 0. -1.
    10030    2    1    2    0    0  0.00000000000E+00  0.00000000000E+00  0.15645262146E+04  0.41141634107E+04  0.38050753336E+04 0.  0.
        3    1    3    3  502    0  0.14093813349E+03 -0.28824662258E+02  0.28334559620E+04  0.28371054118E+04  0.10100000352E+00 0.  1.
       -3    1    3    3    0  502 -0.14093813349E+03  0.28824662258E+02 -0.12689297474E+04  0.12770579990E+04  0.10100000352E+00 0. -1.
</event>
<event>
 5   0  0.5202788E-07  0.3820148E+04  0.7818609E-02  0.8041845E-01
        2   -1    0    0  501    0  0.00000000000E+00  0.00000000000E+00  0.24856419051E+04  0.24856419051E+04  0.25500000920E-02 0.  1.
       -2   -1    0    0    0  501  0.00000000000E+00  0.00000000000E+00 -0.14677827639E+04  0.14677827639E+04  0.25500000920E-02 0. -1.
    10030    2    1    2    0    0  0.00000000000E+00  0.00000000000E+00  0.10178591412E+04  0.39534246690E+04  0.38201478220E+04 0.  0.
        1    1    3    3  502    0 -0.40640525340E+03 -0.94027258885E+03 -0.11594896187E+04  0.15471567301E+04  0.50400001928E-02 0. -1.
       -1    1    3    3    0  502  0.40640525340E+03  0.94027258885E+03  0.21773487600E+04  0.24062679389E+04  0.50400001928E-02 0.  1.
</event>
<event>
 5   0  0.5132561E-07  0.3783982E+04  0.7818609E-02  0.8049601E-01
        2   -1    0    0  501    0  0.00000000000E+00  0.00000000000E+00  0.15374187476E+04  0.15374187476E+04  0.25500000920E-02 0.  1.
       -2   -1    0    0    0  501  0.00000000000E+00  0.00000000000E+00 -0.23283370554E+04  0.23283370554E+04  0.25500000920E-02 0. -1.
    10030    2    1    2    0    0  0.00000000000E+00  0.00000000000E+00 -0.79091830776E+03  0.38657558030E+04  0.37839815220E+04 0.  0.
        3    1    3    3  502    0  0.89148057879E+03  0.15896624120E+04  0.12331873824E+03  0.18267380020E+04  0.10100000352E+00 0. -1.
       -3    1    3    3    0  502 -0.89148057879E+03 -0.15896624120E+04 -0.91423704600E+03  0.20390178010E+04  0.10100000352E+00 0.  1.
</event>
<event>
 5   0  0.1648000E-07  0.3845275E+04  0.7818609E-02  0.8036508E-01
       -1   -1    0    0    0  501  0.00000000000E+00  0.00000000000E+00  0.17157604458E+04  0.17157604458E+04  0.50400001928E-02 0.  1.
        1   -1    0    0  501    0  0.00000000000E+00  0.00000000000E+00 -0.21544586223E+04  0.21544586223E+04  0.50400001928E-02 0. -1.
    10030    2    1    2    0    0  0.00000000000E+00  0.00000000000E+00 -0.43869817655E+03  0.38702190682E+04  0.38452749636E+04 0.  0.
        1    1    3    3  502    0 -0.19221237600E+04 -0.44314736198E+02 -0.22273867564E+03  0.19354937515E+04  0.50400001928E-02 0.  1.
       -1    1    3    3    0  502  0.19221237600E+04  0.44314736198E+02 -0.21595950091E+03  0.19347253166E+04  0.50400001928E-02 0. -1.
</event>
<event>
 5   0  0.5158266E-07  0.3828664E+04  0.7818609E-02  0.8040032E-01
        2   -1    0    0  501    0  0.00000000000E+00  0.00000000000E+00  0.23373417620E+04  0.23373417620E+04  0.25500000920E-02 0.  1.
       -2   -1    0    0    0  501  0.00000000000E+00  0.00000000000E+00 -0.15678779193E+04  0.15678779193E+04  0.25500000920E-02 0. -1.
    10030    2    1    2    0    0  0.00000000000E+00  0.00000000000E+00  0.76946384275E+03  0.39052196813E+04  0.38286637557E+04 0.  0.
        2    1    3    3  502    0  0.10282837362E+04 -0.12033923180E+04 -0.71343236939E+03  0.17362333538E+04  0.25500000920E-02 0. -1.
       -2    1    3    3    0  502 -0.10282837362E+04  0.12033923180E+04  0.14828962121E+04  0.21689863275E+04  0.25500000920E-02 0.  1.
</event>
<event>
 5   0  0.5158266E-07  0.3783106E+04  0.7818609E-02  0.8049790E-01
       -2   -1    0    0    0  501  0.00000000000E+00  0.00000000000E+00  0.12473506362E+04  0.12473506362E+04  0.25500000920E-02 0.  1.
        2   -1    0    0  501    0  0.00000000000E+00  0.00000000000E+00 -0.28684573789E+04  0.28684573789E+04  0.25500000920E-02 0. -1.
    10030    2    1    2    0    0  0.00000000000E+00  0.00000000000E+00 -0.16211067426E+04  0.41158080151E+04  0.37831056747E+04 0.  0.
        2    1    3    3  502    0  0.38526008242E+03 -0.54950782993E+02 -0.28244340196E+04  0.28511177546E+04  0.25500000920E-02 0. -1.
       -2    1    3    3    0  502 -0.38526008242E+03  0.54950782993E+02  0.12033272769E+04  0.12646902605E+04  0.25500000920E-02 0.  1.
</event>
<event>
 5   0  0.1648000E-07  0.3748406E+04  0.7818609E-02  0.8057318E-01
        1   -1    0    0  501    0  0.00000000000E+00  0.00000000000E+00  0.27816636601E+04  0.27816636601E+04  0.50400001928E-02 0.  1.
       -1   -1    0    0    0  501  0.00000000000E+00  0.00000000000E+00 -0.12627828817E+04  0.12627828817E+04  0.50400001928E-02 0. -1.
    10030    2    1    2    0    0  0.00000000000E+00  0.00000000000E+00  0.15188807784E+04  0.40444465418E+04  0.37484061961E+04 0.  0.
        1    1    3    3  502    0  0.12387064783E+03 -0.18607838747E+04  0.96065362909E+03  0.20977883499E+04  0.50400001928E-02 0. -1.
       -1    1    3    3    0  502 -0.12387064783E+03  0.18607838747E+04  0.55822714929E+03  0.19466581919E+04  0.50400001928E-02 0.  1.
</event>
<event>
 5   0  0.1648000E-07  0.3737070E+04  0.7818609E-02  0.8059796E-01
        1   -1    0    0  501    0  0.00000000000E+00  0.00000000000E+00  0.22982964366E+04  0.22982964366E+04  0.50400001928E-02 0.  1.
       -1   -1    0    0    0  501  0.00000000000E+00  0.00000000000E+00 -0.15191352338E+04  0.15191352338E+04  0.50400001928E-02 0. -1.
    10030    2    1    2    0    0  0.00000000000E+00  0.00000000000E+00  0.77916120280E+03  0.38174316704E+04  0.37370700258E+04 0.  0.
        4    1    3    3  502    0 -0.40739620004E+03  0.10908103119E+04 -0.11032077294E+04  0.16040285869E+04  0.12699999809E+01 0. -1.
       -4    1    3    3    0  502  0.40739620004E+03 -0.10908103119E+04  0.18823689322E+04  0.22134030835E+04  0.12699999809E+01 0.  1.
</event>
<event>
 5   0  0.1656617E-07  0.3815389E+04  0.7818609E-02  0.8042860E-01
        1   -1    0    0  501    0  0.00000000000E+00  0.00000000000E+00  0.27651097327E+04  0.27651097327E+04  0.50400001928E-02 0. -1.
       -1   -1    0    0    0  501  0.00000000000E+00  0.00000000000E+00 -0.13161498066E+04  0.13161498066E+04  0.50400001928E-02 0.  1.
    10030    2    1    2    0    0  0.00000000000E+00  0.00000000000E+00  0.14489599260E+04  0.40812595393E+04  0.38153891754E+04 0.  0.
        5    1    3    3  502    0 -0.15190155602E+04  0.99613224757E+03  0.10112981851E+03  0.18193232415E+04  0.46999998093E+01 0.  1.
       -5    1    3    3    0  502  0.15190155602E+04 -0.99613224757E+03  0.13478301075E+04  0.22619362978E+04  0.46999998093E+01 0. -1.
</event>
<event>
 5   0  0.5325362E-07  0.3291149E+04  0.7818609E-02  0.8165151E-01
        2   -1    0    0  501    0  0.00000000000E+00  0.00000000000E+00  0.20706918037E+04  0.20706918037E+04  0.25500000920E-02 0.  1.
       -2   -1    0    0    0  501  0.00000000000E+00  0.00000000000E+00 -0.13077347460E+04  0.13077347460E+04  0.25500000920E-02 0. -1.
    10030    2    1    2    0    0  0.00000000000E+00  0.00000000000E+00  0.76295705773E+03  0.33784265497E+04  0.32911491124E+04 0.  0.
        4    1    3    3  502    0  0.78273516477E+03  0.81903206772E+03  0.16066218297E+04  0.19658899213E+04  0.12699999809E+01 0.  1.
       -4    1    3    3    0  502 -0.78273516477E+03 -0.81903206772E+03 -0.84366477202E+03  0.14125366284E+04  0.12699999809E+01 0. -1.
</event>
<event>
 5   0  0.1656617E-07  0.3551314E+04  0.7818609E-02  0.8101736E-01
        1   -1    0    0  501    0  0.00000000000E+00  0.00000000000E+00  0.21325954841E+04  0.21325954841E+04  0.50400001928E-02 0.  1.
       -1   -1    0    0    0  501  0.00000000000E+00  0.00000000000E+00 -0.14784605126E+04  0.14784605126E+04  0.50400001928E-02 0. -1.
    10030    2    1    2    0    0  0.00000000000E+00  0.00000000000E+00  0.65413497154E+03  0.36110559967E+04  0.35513142427E+04 0.  0.
        5    1    3    3  502    0  0.94344826072E+03 -0.32246154452E+03  0.18210907675E+04  0.20761670795E+04  0.46999998093E+01 0.  1.
       -5    1    3    3    0  502 -0.94344826072E+03  0.32246154452E+03 -0.11669557960E+04  0.15348889172E+04  0.46999998093E+01 0. -1.
</event>
<event>
 5   0  0.5202788E-07  0.3793428E+04  0.7818609E-02  0.8047567E-01
       -2   -1    0    0    0  501  0.00000000000E+00  0.00000000000E+00  0.16561346237E+04  0.16561346237E+04  0.25500000920E-02 0.  1.
        2   -1    0    0  501    0  0.00000000000E+00  0.00000000000E+00 -0.21722408322E+04  0.21722408322E+04  0.25500000920E-02 0. -1.
    10030    2    1    2    0    0  0.00000000000E+00  0.00000000000E+00 -0.51610620851E+03  0.38283754559E+04  0.37934276075E+04 0.  0.
        1    1    3    3  502    0  0.53687961997E+03 -0.28416903312E+03 -0.20714181327E+04  0.21586488474E+04  0.50400001928E-02 0. -1.
       -1    1    3    3    0  502 -0.53687961997E+03  0.28416903312E+03  0.15553119242E+04  0.16697266085E+04  0.50400001928E-02 0.  1.
</event>
<event>
 5   0  0.1656617E-07  0.3758811E+04  0.7818609E-02  0.8055052E-01
        1   -1    0    0  501    0  0.00000000000E+00  0.00000000000E+00  0.20028756035E+04  0.20028756035E+04  0.50400001928E-02 0.  1.
       -1   -1    0    0    0  501  0.00000000000E+00  0.00000000000E+00 -0.17635471357E+04  0.17635471358E+04  0.50400001928E-02 0. -1.
    10030    2    1    2    0    0  0.00000000000E+00  0.00000000000E+00  0.23932846774E+03  0.37664227392E+04  0.37588112662E+04 0.  0.
        5    1    3    3  502    0  0.54899717210E+03 -0.66756202496E+03  0.17919074625E+04  0.19894701295E+04  0.46999998093E+01 0.  1.
       -5    1    3    3    0  502 -0.54899717210E+03  0.66756202496E+03 -0.15525789948E+04  0.17769526097E+04  0.46999998093E+01 0. -1.
</event>
<event>
 5   0  0.1648000E-07  0.3823302E+04  0.7818609E-02  0.8041173E-01
       -1   -1    0    0    0  501  0.00000000000E+00  0.00000000000E+00  0.12501017506E+04  0.12501017506E+04  0.50400001928E-02 0. -1.
        1   -1    0    0  501    0  0.00000000000E+00  0.00000000000E+00 -0.29232903218E+04  0.29232903218E+04  0.50400001928E-02 0.  1.
    10030    2    1    2    0    0  0.00000000000E+00  0.00000000000E+00 -0.16731885711E+04  0.41733920724E+04  0.38233024201E+04 0.  0.
        3    1    3    3  502    0 -0.19063883697E+03 -0.16669098665E+04  0.16353321161E+03  0.16857267841E+04  0.10100000352E+00 0. -1.
       -3    1    3    3    0  502  0.19063883697E+03  0.16669098665E+04 -0.18367217828E+04  0.24876652883E+04  0.10100000352E+00 0.  1.
</event>
<event>
 5   0  0.1648000E-07  0.3587377E+04  0.7818609E-02  0.8093389E-01
        1   -1    0    0  501    0  0.00000000000E+00  0.00000000000E+00  0.18310278825E+04  0.18310278825E+04  0.50400001928E-02 0. -1.
       -1   -1    0    0    0  501  0.00000000000E+00  0.00000000000E+00 -0.17571109325E+04  0.17571109325E+04  0.50400001928E-02 0.  1.
    10030    2    1    2    0    0  0.00000000000E+00  0.00000000000E+00  0.73916950005E+02  0.35881388151E+04  0.35873773764E+04 0.  0.
        3    1    3    3  502    0  0.26925829341E+03 -0.84561654078E+03  0.15960554253E+04  0.18261873654E+04  0.10100000352E+00 0. -1.
       -3    1    3    3    0  502 -0.26925829341E+03  0.84561654078E+03 -0.15221384753E+04  0.17619514497E+04  0.10100000352E+00 0.  1.
</event>
<event>
 5   0  0.1656617E-07  0.3846861E+04  0.7818609E-02  0.8036173E-01
       -1   -1    0    0    0  501  0.00000000000E+00  0.00000000000E+00  0.13015181698E+04  0.13015181698E+04  0.50400001928E-02 0.  1.
        1   -1    0    0  501    0  0.00000000000E+00  0.00000000000E+00 -0.28425149411E+04  0.28425149411E+04  0.50400001928E-02 0. -1.
    10030    2    1    2    0    0  0.00000000000E+00  0.00000000000E+00 -0.15409967713E+04  0.41440331109E+04  0.38468609768E+04 0.  0.
        5    1    3    3  502    0 -0.42664953667E+03  0.17875735249E+04 -0.15910405923E+03  0.18446639601E+04  0.46999998093E+01 0.  1.
       -5    1    3    3    0  502  0.42664953667E+03 -0.17875735249E+04 -0.13818927121E+04  0.22993691508E+04  0.46999998093E+01 0. -1.
</event>
<event>
 5   0  0.5325362E-07  0.3173761E+04  0.7818609E-02  0.8195781E-01
       -2   -1    0    0    0  501  0.00000000000E+00  0.00000000000E+00  0.23620534086E+04  0.23620534086E+04  0.25500000920E-02 0.  1.
        2   -1    0    0  501    0  0.00000000000E+00  0.00000000000E+00 -0.10661019779E+04  0.10661019779E+04  0.25500000920E-02 0. -1.
    10030    2    1    2    0    0  0.00000000000E+00  0.00000000000E+00  0.12959514306E+04  0.34281553865E+04  0.31737610564E+04 0.  0.
        4    1    3    3  502    0  0.10081975202E+01  0.69370651382E+03 -0.89364436132E+03  0.11312964250E+04  0.12699999809E+01 0. -1.
       -4    1    3    3    0  502 -0.10081975202E+01 -0.69370651382E+03  0.21895957920E+04  0.22968589615E+04  0.12699999809E+01 0.  1.
</event>
<event>
 5   0  0.5132561E-07  0.3775829E+04  0.7818609E-02  0.8051362E-01
       -2   -1    0    0    0  501  0.00000000000E+00  0.00000000000E+00  0.15097461572E+04  0.15097461572E+04  0.25500000920E-02 0.  1.
        2   -1    0    0  501    0  0.00000000000E+00  0.00000000000E+00 -0.23608079948E+04  0.23608079948E+04  0.25500000920E-02 0. -1.
    10030    2    1    2    0    0  0.00000000000E+00  0.00000000000E+00 -0.85106183756E+03  0.38705541520E+04  0.37758288086E+04 0.  0.
        3    1    3    3  502    0 -0.83337056813E+03  0.20036785077E+03  0.12988009063E+04  0.15561290383E+04  0.10100000352E+00 0.  1.
       -3    1    3    3    0  502  0.83337056813E+03 -0.20036785077E+03 -0.21498627438E+04  0.23144251137E+04  0.10100000352E+00 0. -1.
</event>
<event>
 5   0  0.5158266E-07  0.3759645E+04  0.7818609E-02  0.8054871E-01
        2   -1    0    0  501    0  0.00000000000E+00  0.00000000000E+00  0.14801183227E+04  0.14801183227E+04  0.25500000920E-02 0.  1.
       -2   -1    0    0    0  501  0.00000000000E+00  0.00000000000E+00 -0.23874666859E+04  0.23874666859E+04  0.25500000920E-02 0. -1.
    10030    2    1    2    0    0  0.00000000000E+00  0.00000000000E+00 -0.90734836320E+03  0.38675850085E+04  0.37596452952E+04 0.  0.
        2    1    3    3  502    0  0.12008004053E+04  0.14463095945E+04 -0.45404497105E+03  0.19338794927E+04  0.25500000920E-02 0. -1.
       -2    1    3    3    0  502 -0.12008004053E+04 -0.14463095945E+04 -0.45330339215E+03  0.19337055158E+04  0.25500000920E-02 0.  1.
</event>
<event>
 5   0  0.5202788E-07  0.3773805E+04  0.7818609E-02  0.8051800E-01
        2   -1    0    0  501    0  0.00000000000E+00  0.00000000000E+00  0.18116956784E+04  0.18116956784E+04  0.25500000920E-02 0. -1.
       -2   -1    0    0    0  501  0.00000000000E+00  0.00000000000E+00 -0.19652310251E+04  0.19652310251E+04  0.25500000920E-02 0.  1.
    10030    2    1    2    0    0  0.00000000000E+00  0.00000000000E+00 -0.15353534663E+03  0.37769267035E+04  0.37738047407E+04 0.  0.
        1    1    3    3  502    0 -0.15622394284E+04  0.33808290602E+03  0.92681232759E+03  0.18476669542E+04  0.50400001928E-02 0. -1.
       -1    1    3    3    0  502  0.15622394284E+04 -0.33808290602E+03 -0.10803476742E+04  0.19292597493E+04  0.50400001928E-02 0.  1.
</event>
<event>
 5   0  0.5134434E-07  0.3720383E+04  0.7818609E-02  0.8063460E-01
       -2   -1    0    0    0  501  0.00000000000E+00  0.00000000000E+00  0.27328511614E+04  0.27328511614E+04  0.25500000920E-02 0. -1.
        2   -1    0    0  501    0  0.00000000000E+00  0.00000000000E+00 -0.12661912135E+04  0.12661912135E+04  0.25500000920E-02 0.  1.
    10030    2    1    2    0    0  0.00000000000E+00  0.00000000000E+00  0.14666599480E+04  0.39990423749E+04  0.37203828450E+04 0.  0.
        5    1    3    3  502    0  0.12284373392E+04 -0.38978286613E+03 -0.70852071981E+03  0.14707184229E+04  0.46999998093E+01 0.  1.
       -5    1    3    3    0  502 -0.12284373392E+04  0.38978286613E+03  0.21751806678E+04  0.25283239520E+04  0.46999998093E+01 0. -1.
</event>
<event>
 5   0  0.5132561E-07  0.3579108E+04  0.7818609E-02  0.8095294E-01
        2   -1    0    0  501    0  0.00000000000E+00  0.00000000000E+00  0.20286268485E+04  0.20286268485E+04  0.25500000920E-02 0.  1.
       -2   -1    0    0    0  501  0.00000000000E+00  0.00000000000E+00 -0.15786554879E+04  0.15786554879E+04  0.25500000920E-02 0. -1.
    10030    2    1    2    0    0  0.00000000000E+00  0.00000000000E+00  0.44997136062E+03  0.36072823364E+04  0.35791076582E+04 0.  0.
        3    1    3    3  502    0  0.46356347278E+03  0.12699794144E+04 -0.95674759086E+03  0.16562321000E+04  0.10100000352E+00 0. -1.
       -3    1    3    3    0  502 -0.46356347278E+03 -0.12699794144E+04  0.14067189515E+04  0.19510502364E+04  0.10100000352E+00 0.  1.
</event>
<event>
 5   0  0.1648000E-07  0.3806839E+04  0.7818609E-02  0.8044689E-01
        1   -1    0    0  501    0  0.00000000000E+00  0.00000000000E+00  0.22234630057E+04  0.22234630057E+04  0.50400001928E-02 0.  1.
       -1   -1    0    0    0  501  0.00000000000E+00  0.00000000000E+00 -0.16294426568E+04  0.16294426568E+04  0.50400001928E-02 0. -1.
    10030    2    1    2    0    0  0.00000000000E+00  0.00000000000E+00  0.59402034886E+03  0.38529056625E+04  0.38068388289E+04 0.  0.
        3    1    3    3  502    0  0.12871680122E+03 -0.18938185673E+04  0.15427637464E+03  0.19044468989E+04  0.10100000352E+00 0. -1.
       -3    1    3    3    0  502 -0.12871680122E+03  0.18938185673E+04  0.43974397422E+03  0.19484587637E+04  0.10100000352E+00 0.  1.
</event>
<event>
 5   0  0.1648000E-07  0.3821657E+04  0.7818609E-02  0.8041523E-01
        1   -1    0    0  501    0  0.00000000000E+00  0.00000000000E+00  0.21534157755E+04  0.21534157755E+04  0.50400001928E-02 0. -1.
       -1   -1    0    0    0  501  0.00000000000E+00  0.00000000000E+00 -0.16955690205E+04  0.16955690205E+04  0.50400001928E-02 0.  1.
    10030    2    1    2    0    0  0.00000000000E+00  0.00000000000E+00  0.45784675498E+03  0.38489847961E+04  0.38216567493E+04 0.  0.
        3    1    3    3  502    0 -0.14119273775E+04 -0.17103702772E+03 -0.10563180934E+04  0.17716095814E+04  0.10100000352E+00 0.  1.
       -3    1    3    3    0  502  0.14119273775E+04  0.17103702772E+03  0.15141648484E+04  0.20773752147E+04  0.10100000352E+00 0. -1.
</event>
<event>
 5   0  0.1656617E-07  0.3767765E+04  0.7818609E-02  0.8053108E-01
        1   -1    0    0  501    0  0.00000000000E+00  0.00000000000E+00  0.11513342384E+04  0.11513342384E+04  0.50400001928E-02 0. -1.
       -1   -1    0    0    0  501  0.00000000000E+00  0.00000000000E+00 -0.30825228264E+04  0.30825228264E+04  0.50400001928E-02 0.  1.
    10030    2    1    2    0    0  0.00000000000E+00  0.00000000000E+00 -0.19311885880E+04  0.42338570647E+04  0.37677654229E+04 0.  0.
        5    1    3    3  502    0 -0.17205406591E+04 -0.52538294910E+02 -0.18257767899E+04  0.25092834452E+04  0.46999998093E+01 0.  1.
       -5    1    3    3    0  502  0.17205406591E+04  0.52538294910E+02 -0.10541179814E+03  0.17245736195E+04  0.46999998093E+01 0. -1.
</event>
<event>
 5   0  0.1648000E-07  0.3786047E+04  0.7818609E-02  0.8049156E-01
       -1   -1    0    0    0  501  0.00000000000E+00  0.00000000000E+00  0.16173822334E+04  0.16173822334E+04  0.50400001928E-02 0. -1.
        1   -1    0    0  501    0  0.00000000000E+00  0.00000000000E+00 -0.22156411840E+04  0.22156411841E+04  0.50400001928E-02 0.  1.
    10030    2    1    2    0    0  0.00000000000E+00  0.00000000000E+00 -0.59825895066E+03  0.38330234174E+04  0.37860473778E+04 0.  0.
        3    1    3    3  502    0 -0.12952943716E+04 -0.62131574099E+03 -0.15471936587E+04  0.21113097800E+04  0.10100000352E+00 0.  1.
       -3    1    3    3    0  502  0.12952943716E+04  0.62131574099E+03  0.94893470808E+03  0.17217136375E+04  0.10100000352E+00 0. -1.
</event>
<event>
 5   0  0.5158266E-07  0.3776262E+04  0.7818609E-02  0.8051268E-01
        2   -1    0    0  501    0  0.00000000000E+00  0.00000000000E+00  0.24232979469E+04  0.24232979469E+04  0.25500000920E-02 0.  1.
       -2   -1    0    0    0  501  0.00000000000E+00  0.00000000000E+00 -0.14711513088E+04  0.14711513088E+04  0.25500000920E-02 0. -1.
    10030    2    1    2    0    0  0.00000000000E+00  0.00000000000E+00  0.95214663810E+03  0.38944492558E+04  0.37762616151E+04 0.  0.
        2    1    3    3  502    0  0.19071591671E+03 -0.17870810604E+04 -0.12083921938E+03  0.18012865942E+04  0.25500000920E-02 0. -1.
       -2    1    3    3    0  502 -0.19071591671E+03  0.17870810604E+04  0.10729858575E+04  0.20931626616E+04  0.25500000920E-02 0.  1.
</event>
<event>
 5   0  0.5132561E-07  0.3760379E+04  0.7818609E-02  0.8054711E-01
       -2   -1    0    0    0  501  0.00000000000E+00  0.00000000000E+00  0.14205490046E+04  0.14205490046E+04  0.25500000920E-02 0. -1.
        2   -1    0    0  501    0  0.00000000000E+00  0.00000000000E+00 -0.24885538480E+04  0.24885538480E+04  0.25500000920E-02 0.  1.
    10030    2    1    2    0    0  0.00000000000E+00  0.00000000000E+00 -0.10680048434E+04  0.39091028526E+04  0.37603790722E+04 0.  0.
        3    1    3    3  502    0 -0.15663831307E+04 -0.26465502034E+03 -0.15795203430E+04  0.22401970708E+04  0.10100000352E+00 0.  1.
       -3    1    3    3    0  502  0.15663831307E+04  0.26465502034E+03  0.51151549957E+03  0.16689057818E+04  0.10100000352E+00 0. -1.
</event>
<event>
 5   0  0.1648000E-07  0.3722801E+04  0.7818609E-02  0.8062927E-01
        1   -1    0    0  501    0  0.00000000000E+00  0.00000000000E+00  0.23463960131E+04  0.23463960131E+04  0.50400001928E-02 0.  1.
       -1   -1    0    0    0  501  0.00000000000E+00  0.00000000000E+00 -0.14766529333E+04  0.14766529333E+04  0.50400001928E-02 0. -1.
    10030    2    1    2    0    0  0.00000000000E+00  0.00000000000E+00  0.86974307979E+03  0.38230489464E+04  0.37228013944E+04 0.  0.
        3    1    3    3  502    0 -0.14589883718E+04 -0.11498462642E+04  0.55646191712E+03  0.19391862664E+04  0.10100000352E+00 0. -1.
       -3    1    3    3    0  502  0.14589883718E+04  0.11498462642E+04  0.31328116266E+03  0.18838626801E+04  0.10100000352E+00 0.  1.
</event>
<event>
 5   0  0.1648000E-07  0.3819679E+04  0.7818609E-02  0.8041945E-01
        1   -1    0    0  501    0  0.00000000000E+00  0.00000000000E+00  0.18791712310E+04  0.18791712310E+04  0.50400001928E-02 0. -1.
       -1   -1    0    0    0  501  0.00000000000E+00  0.00000000000E+00 -0.19410082440E+04  0.19410082440E+04  0.50400001928E-02 0.  1.
    10030    2    1    2    0    0  0.00000000000E+00  0.00000000000E+00 -0.61837013016E+02  0.38201794749E+04  0.38196789662E+04 0.  0.
        2    1    3    3  502    0  0.16333600723E+04 -0.59968299440E+03 -0.81842376061E+03  0.19228370372E+04  0.25500000920E-02 0.  1.
       -2    1    3    3    0  502 -0.16333600723E+04  0.59968299440E+03  0.75658674760E+03  0.18973424378E+04  0.25500000920E-02 0. -1.
</event>
<event>
 5   0  0.5158266E-07  0.3785795E+04  0.7818609E-02  0.8049210E-01
        2   -1    0    0  501    0  0.00000000000E+00  0.00000000000E+00  0.20363872790E+04  0.20363872790E+04  0.25500000920E-02 0.  1.
       -2   -1    0    0    0  501  0.00000000000E+00  0.00000000000E+00 -0.17595185034E+04  0.17595185034E+04  0.25500000920E-02 0. -1.
    10030    2    1    2    0    0  0.00000000000E+00  0.00000000000E+00  0.27686877556E+03  0.37959057824E+04  0.37857950803E+04 0.  0.
        2    1    3    3  502    0  0.15106175293E+04 -0.90248392607E+03 -0.56100912716E+03  0.18469363274E+04  0.25500000920E-02 0. -1.
       -2    1    3    3    0  502 -0.15106175293E+04  0.90248392607E+03  0.83787790272E+03  0.19489694550E+04  0.25500000920E-02 0.  1.
</event>
<event>
 5   0  0.1648000E-07  0.3784762E+04  0.7818609E-02  0.8049433E-01
       -1   -1    0    0    0  501  0.00000000000E+00  0.00000000000E+00  0.14822836831E+04  0.14822836831E+04  0.50400001928E-02 0. -1.
        1   -1    0    0  501    0  0.00000000000E+00  0.00000000000E+00 -0.24159384944E+04  0.24159384944E+04  0.50400001928E-02 0.  1.
    10030    2    1    2    0    0  0.00000000000E+00  0.00000000000E+00 -0.93365481128E+03  0.38982221775E+04  0.37847621905E+04 0.  0.
        4    1    3    3  502    0  0.25497591844E+03 -0.79668788103E+02  0.14627657887E+04  0.14869583721E+04  0.12699999809E+01 0. -1.
       -4    1    3    3    0  502 -0.25497591844E+03  0.79668788103E+02 -0.23964206000E+04  0.24112638055E+04  0.12699999809E+01 0.  1.
</event>
<event>
 5   0  0.5202788E-07  0.4269457E+04  0.7818609E-02  0.7952290E-01
        2   -1    0    0  501    0  0.00000000000E+00  0.00000000000E+00  0.28283662928E+04  0.28283662928E+04  0.25500000920E-02 0. -1.
       -2   -1    0    0    0  501  0.00000000000E+00  0.00000000000E+00 -0.16112005084E+04  0.16112005084E+04  0.25500000920E-02 0.  1.
    10030    2    1    2    0    0  0.00000000000E+00  0.00000000000E+00  0.12171657844E+04  0.44395668012E+04  0.42694567378E+04 0.  0.
        1    1    3    3  502    0  0.99499698953E+03  0.12186818123E+04  0.21089371876E+04  0.26311253163E+04  0.50400001928E-02 0. -1.
       -1    1    3    3    0  502 -0.99499698953E+03 -0.12186818123E+04 -0.89177140318E+03  0.18084414849E+04  0.50400001928E-02 0.  1.
</event>
<event>
 5   0  0.1648000E-07  0.3826448E+04  0.7818609E-02  0.8040503E-01
        1   -1    0    0  501    0  0.00000000000E+00  0.00000000000E+00  0.19684140653E+04  0.19684140653E+04  0.50400001928E-02 0. -1.
       -1   -1    0    0    0  501  0.00000000000E+00  0.00000000000E+00 -0.18595817752E+04  0.18595817752E+04  0.50400001928E-02 0.  1.
    10030    2    1    2    0    0  0.00000000000E+00  0.00000000000E+00  0.10883229011E+03  0.38279958405E+04  0.38264484430E+04 0.  0.
        4    1    3    3  502    0 -0.48490305139E+03 -0.56836250105E+03 -0.17076190394E+04  0.18639021698E+04  0.12699999809E+01 0.  1.
       -4    1    3    3    0  502  0.48490305139E+03  0.56836250105E+03  0.18164513295E+04  0.19640936707E+04  0.12699999809E+01 0. -1.
</event>
<event>
 5   0  0.1648000E-07  0.3860913E+04  0.7818609E-02  0.8033208E-01
        1   -1    0    0  501    0  0.00000000000E+00  0.00000000000E+00  0.23091782508E+04  0.23091782508E+04  0.50400001928E-02 0.  1.
       -1   -1    0    0    0  501  0.00000000000E+00  0.00000000000E+00 -0.16138479593E+04  0.16138479593E+04  0.50400001928E-02 0. -1.
    10030    2    1    2    0    0  0.00000000000E+00  0.00000000000E+00  0.69533029152E+03  0.39230262101E+04  0.38609131602E+04 0.  0.
        3    1    3    3  502    0  0.64055322441E+03  0.46920100895E+03 -0.14402462822E+04  0.16446177014E+04  0.10100000352E+00 0. -1.
       -3    1    3    3    0  502 -0.64055322441E+03 -0.46920100895E+03  0.21355765737E+04  0.22784085087E+04  0.10100000352E+00 0.  1.
</event>
<event>
 5   0  0.1648000E-07  0.3850073E+04  0.7818609E-02  0.8035494E-01
        1   -1    0    0  501    0  0.00000000000E+00  0.00000000000E+00  0.12242910189E+04  0.12242910189E+04  0.50400001928E-02 0.  1.
       -1   -1    0    0    0  501  0.00000000000E+00  0.00000000000E+00 -0.30268661867E+04  0.30268661867E+04  0.50400001928E-02 0. -1.
    10030    2    1    2    0    0  0.00000000000E+00  0.00000000000E+00 -0.18025751678E+04  0.42511572056E+04  0.38500727722E+04 0.  0.
        2    1    3    3  502    0 -0.37014573194E+03  0.18335778431E+04 -0.39922196783E+03  0.19126928005E+04  0.25500000920E-02 0.  1.
       -2    1    3    3    0  502  0.37014573194E+03 -0.18335778431E+04 -0.14033532000E+04  0.23384644050E+04  0.25500000920E-02 0. -1.
</event>
<event>
 5   0  0.5202788E-07  0.3768774E+04  0.7818609E-02  0.8052889E-01
       -2   -1    0    0    0  501  0.00000000000E+00  0.00000000000E+00  0.18769609387E+04  0.18769609387E+04  0.25500000920E-02 0. -1.
        2   -1    0    0  501    0  0.00000000000E+00  0.00000000000E+00 -0.18918423721E+04  0.18918423721E+04  0.25500000920E-02 0.  1.
    10030    2    1    2    0    0  0.00000000000E+00  0.00000000000E+00 -0.14881433365E+02  0.37688033108E+04  0.37687739304E+04 0.  0.
        1    1    3    3  502    0  0.87854633284E+03 -0.15142075843E+04 -0.70475954509E+03  0.18871550768E+04  0.50400001928E-02 0.  1.
       -1    1    3    3    0  502 -0.87854633284E+03  0.15142075843E+04  0.68987811173E+03  0.18816482340E+04  0.50400001928E-02 0. -1.
</event>
<event>
 5   0  0.5134434E-07  0.3832864E+04  0.7818609E-02  0.8039139E-01
       -2   -1    0    0    0  501  0.00000000000E+00  0.00000000000E+00  0.14124280815E+04  0.14124280815E+04  0.25500000920E-02 0.  1.
        2   -1    0    0  501    0  0.00000000000E+00  0.00000000000E+00 -0.26002823542E+04  0.26002823542E+04  0.25500000920E-02 0. -1.
    10030    2    1    2    0    0  0.00000000000E+00  0.00000000000E+00 -0.11878542728E+04  0.40127104357E+04  0.38328641076E+04 0.  0.
        5    1    3    3  502    0  0.17574834651E+04  0.71317178228E+03 -0.88126408901E+03  0.20914135425E+04  0.46999998093E+01 0. -1.
       -5    1    3    3    0  502 -0.17574834651E+04 -0.71317178228E+03 -0.30659018374E+03  0.19212968932E+04  0.46999998093E+01 0.  1.
</event>
<event>
 5   0  0.1656617E-07  0.3770484E+04  0.7818609E-02  0.8052519E-01
       -1   -1    0    0    0  501  0.00000000000E+00  0.00000000000E+00  0.12841889695E+04  0.12841889695E+04  0.50400001928E-02 0. -1.
        1   -1    0    0  501    0  0.00000000000E+00  0.00000000000E+00 -0.27676127298E+04  0.27676127298E+04  0.50400001928E-02 0.  1.
    10030    2    1    2    0    0  0.00000000000E+00  0.00000000000E+00 -0.14834237603E+04  0.40518016994E+04  0.37704841809E+04 0.  0.
        5    1    3    3  502    0 -0.17431720738E+04  0.71649900203E+03 -0.79090921914E+03  0.20439127138E+04  0.46999998093E+01 0. -1.
       -5    1    3    3    0  502  0.17431720738E+04 -0.71649900203E+03 -0.69251454120E+03  0.20078889856E+04  0.46999998093E+01 0.  1.
</event>
<event>
 5   0  0.5325362E-07  0.3774005E+04  0.7818609E-02  0.8051756E-01
        2   -1    0    0  501    0  0.00000000000E+00  0.00000000000E+00  0.21897435104E+04  0.21897435104E+04  0.25500000920E-02 0. -1.
       -2   -1    0    0    0  501  0.00000000000E+00  0.00000000000E+00 -0.16261166201E+04  0.16261166201E+04  0.25500000920E-02 0.  1.
    10030    2    1    2    0    0  0.00000000000E+00  0.00000000000E+00  0.56362689036E+03  0.38158601305E+04  0.37740049369E+04 0.  0.
        4    1    3    3  502    0  0.75136944155E+03  0.45431646221E+03  0.19706120384E+04  0.21573763937E+04  0.12699999809E+01 0.  1.
       -4    1    3    3    0  502 -0.75136944155E+03 -0.45431646221E+03 -0.14069851480E+04  0.16584837368E+04  0.12699999809E+01 0. -1.
</event>
<event>
 5   0  0.1648000E-07  0.3774332E+04  0.7818609E-02  0.8051686E-01
       -1   -1    0    0    0  501  0.00000000000E+00  0.00000000000E+00  0.17517890685E+04  0.17517890685E+04  0.50400001928E-02 0.  1.
        1   -1    0    0  501    0  0.00000000000E+00  0.00000000000E+00 -0.20330042965E+04  0.20330042965E+04  0.50400001928E-02 0. -1.
    10030    2    1    2    0    0  0.00000000000E+00  0.00000000000E+00 -0.28121522806E+03  0.37847933650E+04  0.37743315714E+04 0.  0.
        1    1    3    3  502    0  0.10521161239E+04  0.96739727031E+03 -0.13763337504E+04  0.19842127934E+04  0.50400001928E-02 0. -1.
       -1    1    3    3    0  502 -0.10521161239E+04 -0.96739727031E+03  0.10951185224E+04  0.18005805716E+04  0.50400001928E-02 0.  1.
</event>
<event>
 5   0  0.1656617E-07  0.3727878E+04  0.7818609E-02  0.8061812E-01
       -1   -1    0    0    0  501  0.00000000000E+00  0.00000000000E+00  0.13890834272E+04  0.13890834272E+04  0.50400001928E-02 0. -1.
        1   -1    0    0  501    0  0.00000000000E+00  0.00000000000E+00 -0.25011234830E+04  0.25011234830E+04  0.50400001928E-02 0.  1.
    10030    2    1    2    0    0  0.00000000000E+00  0.00000000000E+00 -0.11120400558E+04  0.38902069102E+04  0.37278783133E+04 0.  0.
        5    1    3    3  502    0 -0.79980643315E+03 -0.51015415939E+03 -0.22303479082E+04  0.24237205859E+04  0.46999998093E+01 0.  1.
       -5    1    3    3    0  502  0.79980643315E+03  0.51015415939E+03  0.11183078524E+04  0.14664863244E+04  0.46999998093E+01 0. -1.
</event>
<event>
 5   0  0.1648000E-07  0.4038043E+04  0.7818609E-02  0.7996916E-01
       -1   -1    0    0    0  501  0.00000000000E+00  0.00000000000E+00  0.15771915297E+04  0.15771915297E+04  0.50400001928E-02 0.  1.
        1   -1    0    0  501    0  0.00000000000E+00  0.00000000000E+00 -0.25846239462E+04  0.25846239462E+04  0.50400001928E-02 0. -1.
    10030    2    1    2    0    0  0.00000000000E+00  0.00000000000E+00 -0.10074324166E+04  0.41618154759E+04  0.40380425929E+04 0.  0.
        2    1    3    3  502    0  0.21474171002E+03  0.76322812740E+02  0.15638923121E+04  0.15804108129E+04  0.25500000920E-02 0.  1.
       -2    1    3    3    0  502 -0.21474171002E+03 -0.76322812740E+02 -0.25713247287E+04  0.25814046630E+04  0.25500000920E-02 0. -1.
</event>
<event>
 5   0  0.1648000E-07  0.3809316E+04  0.7818609E-02  0.8044159E-01
        1   -1    0    0  501    0  0.00000000000E+00  0.00000000000E+00  0.20531580781E+04  0.20531580782E+04  0.50400001928E-02 0. -1.
       -1   -1    0    0    0  501  0.00000000000E+00  0.00000000000E+00 -0.17668984893E+04  0.17668984893E+04  0.50400001928E-02 0.  1.
    10030    2    1    2    0    0  0.00000000000E+00  0.00000000000E+00  0.28625958884E+03  0.38200565675E+04  0.38093159001E+04 0.  0.
        2    1    3    3  502    0  0.14118667377E+04  0.89442135993E+03  0.10591409297E+04  0.19786704534E+04  0.25500000920E-02 0. -1.
       -2    1    3    3    0  502 -0.14118667377E+04 -0.89442135993E+03 -0.77288134086E+03  0.18413861141E+04  0.25500000920E-02 0.  1.
</event>
<event>
 5   0  0.1648000E-07  0.3810910E+04  0.7818609E-02  0.8043818E-01
        3   -1    0    0  501    0  0.00000000000E+00  0.00000000000E+00  0.22074117822E+04  0.22074117845E+04  0.10100000352E+00 0. -1.
       -3   -1    0    0    0  501  0.00000000000E+00  0.00000000000E+00 -0.16448032605E+04  0.16448032636E+04  0.10100000352E+00 0.  1.
    10030    2    1    2    0    0  0.00000000000E+00  0.00000000000E+00  0.56260852168E+03  0.38522150481E+04  0.38109096589E+04 0.  0.
        2    1    3    3  502    0 -0.38866966834E+03 -0.46266365004E+03 -0.15453896462E+04  0.16593224288E+04  0.25500000920E-02 0.  1.
       -2    1    3    3    0  502  0.38866966834E+03  0.46266365004E+03  0.21079981679E+04  0.21928926193E+04  0.25500000920E-02 0. -1.
</event>
<event>
 5   0  0.1656617E-07  0.3799979E+04  0.7818609E-02  0.8046159E-01
       -1   -1    0    0    0  501  0.00000000000E+00  0.00000000000E+00  0.18213499545E+04  0.18213499545E+04  0.50400001928E-02 0.  1.
        1   -1    0    0  501    0  0.00000000000E+00  0.00000000000E+00 -0.19820246971E+04  0.19820246971E+04  0.50400001928E-02 0. -1.
    10030    2    1    2    0    0  0.00000000000E+00  0.00000000000E+00 -0.16067474265E+03  0.38033746516E+04  0.37999792588E+04 0.  0.
        5    1    3    3  502    0 -0.32581536177E+02 -0.16858639717E+04 -0.95675646923E+03  0.19387119226E+04  0.46999998093E+01 0. -1.
       -5    1    3    3    0  502  0.32581536177E+02  0.16858639717E+04  0.79608172658E+03  0.18646627290E+04  0.46999998093E+01 0.  1.
</event>
<event>
 5   0  0.1648000E-07  0.3565678E+04  0.7818609E-02  0.8098399E-01
        1   -1    0    0  501    0  0.00000000000E+00  0.00000000000E+00  0.20794565332E+04  0.20794565332E+04  0.50400001928E-02 0. -1.
       -1   -1    0    0    0  501  0.00000000000E+00  0.00000000000E+00 -0.15285318308E+04  0.15285318308E+04  0.50400001928E-02 0.  1.
    10030    2    1    2    0    0  0.00000000000E+00  0.00000000000E+00  0.55092470241E+03  0.36079883640E+04  0.35656783376E+04 0.  0.
        2    1    3    3  502    0 -0.53034981812E+02 -0.11527330584E+04  0.16505986574E+04  0.20139717329E+04  0.25500000920E-02 0. -1.
       -2    1    3    3    0  502  0.53034981812E+02  0.11527330584E+04 -0.10996739550E+04  0.15940166312E+04  0.25500000920E-02 0.  1.
</event>
<event>
 5   0  0.1648000E-07  0.2981598E+04  0.7818609E-02  0.8249005E-01
        1   -1    0    0  501    0  0.00000000000E+00  0.00000000000E+00  0.15623544919E+04  0.15623544919E+04  0.50400001928E-02 0.  1.
       -1   -1    0    0    0  501  0.00000000000E+00  0.00000000000E+00 -0.14225207850E+04  0.14225207850E+04  0.50400001928E-02 0. -1.
    10030    2    1    2    0    0  0.00000000000E+00  0.00000000000E+00  0.13983370689E+03  0.29848752769E+04  0.29815980536E+04 0.  0.
        2    1    3    3  502    0  0.92428285659E+03  0.54448717801E+03  0.11062922206E+04  0.15409891510E+04  0.25500000920E-02 0.  1.
       -2    1    3    3    0  502 -0.92428285659E+03 -0.54448717801E+03 -0.96645851373E+03  0.14438861260E+04  0.25500000920E-02 0. -1.
</event>
<event>
 5   0  0.1648000E-07  0.3824750E+04  0.7818609E-02  0.8040864E-01
       -1   -1    0    0    0  501  0.00000000000E+00  0.00000000000E+00  0.25000149907E+04  0.25000149907E+04  0.50400001928E-02 0.  1.
        1   -1    0    0  501    0  0.00000000000E+00  0.00000000000E+00 -0.14628625095E+04  0.14628625095E+04  0.50400001928E-02 0. -1.
    10030    2    1    2    0    0  0.00000000000E+00  0.00000000000E+00  0.10371524811E+04  0.39628775002E+04  0.38247500327E+04 0.  0.
        2    1    3    3  502    0  0.13943541607E+04 -0.12846932892E+04  0.25951076537E+03  0.19136369065E+04  0.25500000920E-02 0. -1.
       -2    1    3    3    0  502 -0.13943541607E+04  0.12846932892E+04  0.77764171577E+03  0.20492405937E+04  0.25500000920E-02 0.  1.
</event>
<event>
 5   0  0.5202788E-07  0.3824861E+04  0.7818609E-02  0.8040841E-01
        2   -1    0    0  501    0  0.00000000000E+00  0.00000000000E+00  0.25820176832E+04  0.25820176832E+04  0.25500000920E-02 0. -1.
       -2   -1    0    0    0  501  0.00000000000E+00  0.00000000000E+00 -0.14164852601E+04  0.14164852601E+04  0.25500000920E-02 0.  1.
    10030    2    1    2    0    0  0.00000000000E+00  0.00000000000E+00  0.11655324231E+04  0.39985029433E+04  0.38248607763E+04 0.  0.
        1    1    3    3  502    0  0.93941286097E+03 -0.70878979305E+03  0.21586882802E+04  0.24586204638E+04  0.50400001928E-02 0. -1.
       -1    1    3    3    0  502 -0.93941286097E+03  0.70878979305E+03 -0.99315585709E+03  0.15398824795E+04  0.50400001928E-02 0.  1.
</event>
<event>
 5   0  0.1656617E-07  0.3739630E+04  0.7818609E-02  0.8059236E-01
       -1   -1    0    0    0  501  0.00000000000E+00  0.00000000000E+00  0.15285329390E+04  0.15285329390E+04  0.50400001928E-02 0. -1.
        1   -1    0    0  501    0  0.00000000000E+00  0.00000000000E+00 -0.22872967461E+04  0.22872967461E+04  0.50400001928E-02 0.  1.
    10030    2    1    2    0    0  0.00000000000E+00  0.00000000000E+00 -0.75876380708E+03  0.38158296850E+04  0.37396301515E+04 0.  0.
        5    1    3    3  502    0 -0.76202995256E+03  0.11156894554E+04 -0.16982882203E+04  0.21701745503E+04  0.46999998093E+01 0.  1.
       -5    1    3    3    0  502  0.76202995256E+03 -0.11156894554E+04  0.93952441323E+03  0.16456551348E+04  0.46999998093E+01 0. -1.
</event>
<event>
 5   0  0.1648000E-07  0.3786265E+04  0.7818609E-02  0.8049109E-01
       -1   -1    0    0    0  501  0.00000000000E+00  0.00000000000E+00  0.29949127163E+04  0.29949127163E+04  0.50400001928E-02 0. -1.
        1   -1    0    0  501    0  0.00000000000E+00  0.00000000000E+00 -0.11966793336E+04  0.11966793336E+04  0.50400001928E-02 0.  1.
    10030    2    1    2    0    0  0.00000000000E+00  0.00000000000E+00  0.17982333827E+04  0.41915920500E+04  0.37862647312E+04 0.  0.
        2    1    3    3  502    0  0.13854726747E+04  0.39018180237E+03 -0.46223045084E+03  0.15117649820E+04  0.25500000920E-02 0.  1.
       -2    1    3    3    0  502 -0.13854726747E+04 -0.39018180237E+03  0.22604638335E+04  0.26798270679E+04  0.25500000920E-02 0. -1.
</event>
<event>
 5   0  0.1648000E-07  0.3787100E+04  0.7818609E-02  0.8048929E-01
       -1   -1    0    0    0  501  0.00000000000E+00  0.00000000000E+00  0.14884145956E+04  0.14884145956E+04  0.50400001928E-02 0. -1.
        1   -1    0    0  501    0  0.00000000000E+00  0.00000000000E+00 -0.24089607981E+04  0.24089607981E+04  0.50400001928E-02 0.  1.
    10030    2    1    2    0    0  0.00000000000E+00  0.00000000000E+00 -0.92054620252E+03  0.38973753937E+04  0.37871004276E+04 0.  0.
        1    1    3    3  502    0  0.91700204103E+03  0.13648348326E+04  0.50614844766E+03  0.17204223652E+04  0.50400001928E-02 0. -1.
       -1    1    3    3    0  502 -0.91700204103E+03 -0.13648348326E+04 -0.14266946502E+04  0.21769530285E+04  0.50400001928E-02 0.  1.
</event>
<event>
 5   0  0.5134434E-07  0.3684914E+04  0.7818609E-02  0.8071313E-01
        2   -1    0    0  501    0  0.00000000000E+00  0.00000000000E+00  0.24791984065E+04  0.24791984065E+04  0.25500000920E-02 0. -1.
       -2   -1    0    0    0  501  0.00000000000E+00  0.00000000000E+00 -0.13692524184E+04  0.13692524184E+04  0.25500000920E-02 0.  1.
    10030    2    1    2    0    0  0.00000000000E+00  0.00000000000E+00  0.11099459881E+04  0.38484508249E+04  0.36849143348E+04 0.  0.
        5    1    3    3  502    0 -0.79669639838E+03 -0.16603204868E+04  0.49555287809E+03  0.19070878362E+04  0.46999998093E+01 0.  1.
       -5    1    3    3    0  502  0.79669639838E+03  0.16603204868E+04  0.61439311005E+03  0.19413629887E+04  0.46999998093E+01 0. -1.
</event>
<event>
 5   0  0.5134434E-07  0.3775277E+04  0.7818609E-02  0.8051481E-01
       -2   -1    0    0    0  501  0.00000000000E+00  0.00000000000E+00  0.13289331266E+04  0.13289331266E+04  0.25500000920E-02 0.  1.
        2   -1    0    0  501    0  0.00000000000E+00  0.00000000000E+00 -0.26812321837E+04  0.26812321837E+04  0.25500000920E-02 0. -1.
    10030    2    1    2    0    0  0.00000000000E+00  0.00000000000E+00 -0.13522990571E+04  0.40101653102E+04  0.37752765562E+04 0.  0.
        5    1    3    3  502    0  0.44069727657E+03 -0.86582552857E+03  0.10429663491E+04  0.14253662094E+04  0.46999998093E+01 0.  1.
       -5    1    3    3    0  502 -0.44069727657E+03  0.86582552857E+03 -0.23952654062E+04  0.25847991008E+04  0.46999998093E+01 0. -1.
</event>
<event>
 5   0  0.5325362E-07  0.3858488E+04  0.7818609E-02  0.8033719E-01
       -2   -1    0    0    0  501  0.00000000000E+00  0.00000000000E+00  0.12203580288E+04  0.12203580288E+04  0.25500000920E-02 0.  1.
        2   -1    0    0  501    0  0.00000000000E+00  0.00000000000E+00 -0.30499104722E+04  0.30499104722E+04  0.25500000920E-02 0. -1.
    10030    2    1    2    0    0  0.00000000000E+00  0.00000000000E+00 -0.18295524435E+04  0.42702685010E+04  0.38584881660E+04 0.  0.
        4    1    3    3  502    0 -0.17463809862E+04 -0.71108348636E+00 -0.18221076692E+04  0.25238710398E+04  0.12699999809E+01 0. -1.
       -4    1    3    3    0  502  0.17463809862E+04  0.71108348636E+00 -0.74447743017E+01  0.17463974611E+04  0.12699999809E+01 0.  1.
</event>
<event>
 5   0  0.1656617E-07  0.3597714E+04  0.7818609E-02  0.8091016E-01
        1   -1    0    0  501    0  0.00000000000E+00  0.00000000000E+00  0.28529422316E+04  0.28529422316E+04  0.50400001928E-02 0. -1.
       -1   -1    0    0    0  501  0.00000000000E+00  0.00000000000E+00 -0.11342276803E+04  0.11342276803E+04  0.50400001928E-02 0.  1.
    10030    2    1    2    0    0  0.00000000000E+00  0.00000000000E+00  0.17187145513E+04  0.39871699119E+04  0.35977137459E+04 0.  0.
        5    1    3    3  502    0  0.69765243605E+03  0.15118589897E+04  0.10490980445E+03  0.16683718661E+04  0.46999998093E+01 0.  1.
       -5    1    3    3    0  502 -0.69765243605E+03 -0.15118589897E+04  0.16138047468E+04  0.23187980458E+04  0.46999998093E+01 0. -1.
</event>
<event>
 5   0  0.5158266E-07  0.3821036E+04  0.7818609E-02  0.8041656E-01
        2   -1    0    0  501    0  0.00000000000E+00  0.00000000000E+00  0.21411680317E+04  0.21411680317E+04  0.25500000920E-02 0. -1.
       -2   -1    0    0    0  501  0.00000000000E+00  0.00000000000E+00 -0.17047143007E+04  0.17047143007E+04  0.25500000920E-02 0.  1.
    10030    2    1    2    0    0  0.00000000000E+00  0.00000000000E+00  0.43645373093E+03  0.38458823324E+04  0.38210363850E+04 0.  0.
        2    1    3    3  502    0  0.12177049864E+04 -0.46652536104E+02  0.16992218434E+04  0.20910133348E+04  0.25500000920E-02 0. -1.
       -2    1    3    3    0  502 -0.12177049864E+04  0.46652536104E+02 -0.12627681125E+04  0.17548689977E+04  0.25500000920E-02 0.  1.
</event>
<event>
 5   0  0.1648000E-07  0.3818671E+04  0.7818609E-02  0.8042160E-01
        1   -1    0    0  501    0  0.00000000000E+00  0.00000000000E+00  0.19902330394E+04  0.19902330394E+04  0.50400001928E-02 0.  1.
       -1   -1    0    0    0  501  0.00000000000E+00  0.00000000000E+00 -0.18317266218E+04  0.18317266218E+04  0.50400001928E-02 0. -1.
    10030    2    1    2    0    0  0.00000000000E+00  0.00000000000E+00  0.15850641755E+03  0.38219596612E+04  0.38186714139E+04 0.  0.
        2    1    3    3  502    0  0.18006541684E+04 -0.57719521826E+03  0.34415655838E+03  0.19219660483E+04  0.25500000920E-02 0. -1.
       -2    1    3    3    0  502 -0.18006541684E+04  0.57719521826E+03 -0.18565014083E+03  0.18999936129E+04  0.25500000920E-02 0.  1.
</event>
<event>
 5   0  0.5158266E-07  0.4368257E+04  0.7818609E-02  0.7934116E-01
       -2   -1    0    0    0  501  0.00000000000E+00  0.00000000000E+00  0.29675017073E+04  0.29675017073E+04  0.25500000920E-02 0. -1.
        2   -1    0    0  501    0  0.00000000000E+00  0.00000000000E+00 -0.16075536372E+04  0.16075536372E+04  0.25500000920E-02 0.  1.
    10030    2    1    2    0    0  0.00000000000E+00  0.00000000000E+00  0.13599480702E+04  0.45750553445E+04  0.43682573931E+04 0.  0.
        2    1    3    3  502    0  0.10285260257E+04  0.12024792122E+04 -0.89682084884E+03  0.18188209577E+04  0.25500000920E-02 0.  1.
       -2    1    3    3    0  502 -0.10285260257E+04 -0.12024792122E+04  0.22567689190E+04  0.27562343868E+04  0.25500000920E-02 0. -1.
</event>
<event>
 5   0  0.1656617E-07  0.3774227E+04  0.7818609E-02  0.8051708E-01
       -1   -1    0    0    0  501  0.00000000000E+00  0.00000000000E+00  0.14462114012E+04  0.14462114012E+04  0.50400001928E-02 0. -1.
        1   -1    0    0  501    0  0.00000000000E+00  0.00000000000E+00 -0.24624321057E+04  0.24624321057E+04  0.50400001928E-02 0.  1.
    10030    2    1    2    0    0  0.00000000000E+00  0.00000000000E+00 -0.10162207045E+04  0.39086435070E+04  0.37742270128E+04 0.  0.
        5    1    3    3  502    0 -0.11571667523E+04 -0.77663111127E+03  0.80959828119E+03  0.16117264788E+04  0.46999998093E+01 0. -1.
       -5    1    3    3    0  502  0.11571667523E+04  0.77663111127E+03 -0.18258189857E+04  0.22969170282E+04  0.46999998093E+01 0.  1.
</event>
<event>
 5   0  0.5325362E-07  0.3783800E+04  0.7818609E-02  0.8049640E-01
       -2   -1    0    0    0  501  0.00000000000E+00  0.00000000000E+00  0.13383898393E+04  0.13383898393E+04  0.25500000920E-02 0.  1.
        2   -1    0    0  501    0  0.00000000000E+00  0.00000000000E+00 -0.26743228182E+04  0.26743228182E+04  0.25500000920E-02 0. -1.
    10030    2    1    2    0    0  0.00000000000E+00  0.00000000000E+00 -0.13359329789E+04  0.40127126574E+04  0.37838004634E+04 0.  0.
        4    1    3    3  502    0  0.30761124322E+01  0.11127812400E+04 -0.22905607047E+04  0.25465587575E+04  0.12699999809E+01 0. -1.
       -4    1    3    3    0  502 -0.30761124322E+01 -0.11127812400E+04  0.95462772583E+03  0.14661538999E+04  0.12699999809E+01 0.  1.
</event>
<event>
 5   0  0.1648000E-07  0.3791220E+04  0.7818609E-02  0.8048042E-01
        1   -1    0    0  501    0  0.00000000000E+00  0.00000000000E+00  0.22976709729E+04  0.22976709729E+04  0.50400001928E-02 0. -1.
       -1   -1    0    0    0  501  0.00000000000E+00  0.00000000000E+00 -0.15639045296E+04  0.15639045296E+04  0.50400001928E-02 0.  1.
    10030    2    1    2    0    0  0.00000000000E+00  0.00000000000E+00  0.73376644326E+03  0.38615755025E+04  0.37912204062E+04 0.  0.
        1    1    3    3  502    0 -0.93713008981E+03 -0.96888518150E+03 -0.99066185485E+03  0.16728305984E+04  0.50400001928E-02 0.  1.
       -1    1    3    3    0  502  0.93713008981E+03  0.96888518150E+03  0.17244282981E+04  0.21887449042E+04  0.50400001928E-02 0. -1.
</event>
<event>
 5   0  0.1656617E-07  0.3665597E+04  0.7818609E-02  0.8075629E-01
       -1   -1    0    0    0  501  0.00000000000E+00  0.00000000000E+00  0.26429770298E+04  0.26429770298E+04  0.50400001928E-02 0.  1.
        1   -1    0    0  501    0  0.00000000000E+00  0.00000000000E+00 -0.12709723956E+04  0.12709723956E+04  0.50400001928E-02 0. -1.
    10030    2    1    2    0    0  0.00000000000E+00  0.00000000000E+00  0.13720046343E+04  0.39139494254E+04  0.36655972758E+04 0.  0.
        5    1    3    3  502    0 -0.98451065584E+03  0.73736266883E+03 -0.76479110674E+03  0.14484103230E+04  0.46999998093E+01 0. -1.
       -5    1    3    3    0  502  0.98451065584E+03 -0.73736266883E+03  0.21367957410E+04  0.24655391024E+04  0.46999998093E+01 0.  1.
</event>
<event>
 5   0  0.1648000E-07  0.3884642E+04  0.7818609E-02  0.8028231E-01
        1   -1    0    0  501    0  0.00000000000E+00  0.00000000000E+00  0.13288854733E+04  0.13288854733E+04  0.50400001928E-02 0.  1.
       -1   -1    0    0    0  501  0.00000000000E+00  0.00000000000E+00 -0.28389286171E+04  0.28389286171E+04  0.50400001928E-02 0. -1.
    10030    2    1    2    0    0  0.00000000000E+00  0.00000000000E+00 -0.15100431438E+04  0.41678140904E+04  0.38846420679E+04 0.  0.
        1    1    3    3  502    0  0.13758656163E+04  0.12766423964E+04 -0.21880037056E+03  0.18896284303E+04  0.50400001928E-02 0.  1.
       -1    1    3    3    0  502 -0.13758656163E+04 -0.12766423964E+04 -0.12912427732E+04  0.22781856601E+04  0.50400001928E-02 0. -1.
</event>
<event>
 5   0  0.5158266E-07  0.3777588E+04  0.7818609E-02  0.8050982E-01
        2   -1    0    0  501    0  0.00000000000E+00  0.00000000000E+00  0.14969499542E+04  0.14969499542E+04  0.25500000920E-02 0. -1.
       -2   -1    0    0    0  501  0.00000000000E+00  0.00000000000E+00 -0.23832074576E+04  0.23832074576E+04  0.25500000920E-02 0.  1.
    10030    2    1    2    0    0  0.00000000000E+00  0.00000000000E+00 -0.88625750340E+03  0.38801574118E+04  0.37775877459E+04 0.  0.
        2    1    3    3  502    0  0.17063131044E+04  0.38629429207E+03  0.28811024507E+03  0.17730581501E+04  0.25500000920E-02 0. -1.
       -2    1    3    3    0  502 -0.17063131044E+04 -0.38629429207E+03 -0.11743677485E+04  0.21070992617E+04  0.25500000920E-02 0.  1.
</event>
<event>
 5   0  0.5132561E-07  0.3813087E+04  0.7818609E-02  0.8043352E-01
       -2   -1    0    0    0  501  0.00000000000E+00  0.00000000000E+00  0.14039318045E+04  0.14039318046E+04  0.25500000920E-02 0.  1.
        2   -1    0    0  501    0  0.00000000000E+00  0.00000000000E+00 -0.25890916090E+04  0.25890916090E+04  0.25500000920E-02 0. -1.
    10030    2    1    2    0    0  0.00000000000E+00  0.00000000000E+00 -0.11851598045E+04  0.39930234136E+04  0.38130869672E+04 0.  0.
        3    1    3    3  502    0  0.12488128857E+04 -0.10181476103E+04 -0.16598654688E+04  0.23132902033E+04  0.10100000352E+00 0. -1.
       -3    1    3    3    0  502 -0.12488128857E+04  0.10181476103E+04  0.47470566432E+03  0.16797332103E+04  0.10100000352E+00 0.  1.
</event>
<event>
 5   0  0.1656617E-07  0.3095804E+04  0.7818609E-02  0.8216891E-01
       -1   -1    0    0    0  501  0.00000000000E+00  0.00000000000E+00  0.16893472706E+04  0.16893472706E+04  0.50400001928E-02 0. -1.
        1   -1    0    0  501    0  0.00000000000E+00  0.00000000000E+00 -0.14182992019E+04  0.14182992019E+04  0.50400001928E-02 0.  1.
    10030    2    1    2    0    0  0.00000000000E+00  0.00000000000E+00  0.27104806866E+03  0.31076464725E+04  0.30958035375E+04 0.  0.
        5    1    3    3  502    0 -0.34293619529E+02  0.86811569506E+03  0.14215090576E+04  0.16659864955E+04  0.46999998093E+01 0. -1.
       -5    1    3    3    0  502  0.34293619529E+02 -0.86811569506E+03 -0.11504609889E+04  0.14416599770E+04  0.46999998093E+01 0.  1.
</event>
<event>
 5   0  0.5134434E-07  0.3110125E+04  0.7818609E-02  0.8212965E-01
        2   -1    0    0  501    0  0.00000000000E+00  0.00000000000E+00  0.18895943852E+04  0.18895943852E+04  0.25500000920E-02 0.  1.
       -2   -1    0    0    0  501  0.00000000000E+00  0.00000000000E+00 -0.12797555142E+04  0.12797555142E+04  0.25500000920E-02 0. -1.
    10030    2    1    2    0    0  0.00000000000E+00  0.00000000000E+00  0.60983887106E+03  0.31693498994E+04  0.31101246496E+04 0.  0.
        5    1    3    3  502    0 -0.51799043690E+03 -0.10422528506E+04  0.13558641055E+04  0.17868952572E+04  0.46999998093E+01 0.  1.
       -5    1    3    3    0  502  0.51799043690E+03  0.10422528506E+04 -0.74602523449E+03  0.13824546422E+04  0.46999998093E+01 0. -1.
</event>
<event>
 5   0  0.5134434E-07  0.3766191E+04  0.7818609E-02  0.8053449E-01
       -2   -1    0    0    0  501  0.00000000000E+00  0.00000000000E+00  0.18782458270E+04  0.18782458270E+04  0.25500000920E-02 0.  1.
        2   -1    0    0  501    0  0.00000000000E+00  0.00000000000E+00 -0.18879573573E+04  0.18879573573E+04  0.25500000920E-02 0. -1.
    10030    2    1    2    0    0  0.00000000000E+00  0.00000000000E+00 -0.97115303107E+01  0.37662031843E+04  0.37661906632E+04 0.  0.
        5    1    3    3  502    0  0.11749113168E+04 -0.60504421766E+03 -0.13463261508E+04  0.18865607073E+04  0.46999998093E+01 0. -1.
       -5    1    3    3    0  502 -0.11749113168E+04  0.60504421766E+03  0.13366146205E+04  0.18796424771E+04  0.46999998093E+01 0.  1.
</event>
<event>
 5   0  0.5134434E-07  0.3788190E+04  0.7818609E-02  0.8048694E-01
        2   -1    0    0  501    0  0.00000000000E+00  0.00000000000E+00  0.19127693024E+04  0.19127693025E+04  0.25500000920E-02 0. -1.
       -2   -1    0    0    0  501  0.00000000000E+00  0.00000000000E+00 -0.18756031044E+04  0.18756031044E+04  0.25500000920E-02 0.  1.
    10030    2    1    2    0    0  0.00000000000E+00  0.00000000000E+00  0.37166198024E+02  0.37883724069E+04  0.37881900912E+04 0.  0.
        5    1    3    3  502    0 -0.30635239628E+03 -0.66238935459E+03 -0.17293461232E+04  0.18770379728E+04  0.46999998093E+01 0.  1.
       -5    1    3    3    0  502  0.30635239628E+03  0.66238935459E+03  0.17665123212E+04  0.19113344340E+04  0.46999998093E+01 0. -1.
</event>
<event>
 5   0  0.1648000E-07  0.3815643E+04  0.7818609E-02  0.8042806E-01
       -1   -1    0    0    0  501  0.00000000000E+00  0.00000000000E+00  0.14286503207E+04  0.14286503207E+04  0.50400001928E-02 0. -1.
        1   -1    0    0  501    0  0.00000000000E+00  0.00000000000E+00 -0.25477068082E+04  0.25477068083E+04  0.50400001928E-02 0.  1.
    10030    2    1    2    0    0  0.00000000000E+00  0.00000000000E+00 -0.11190564875E+04  0.39763571290E+04  0.38156426189E+04 0.  0.
        1    1    3    3  502    0  0.47983970658E+02  0.10622727442E+04 -0.22102462756E+04  0.24527361137E+04  0.50400001928E-02 0.  1.
       -1    1    3    3    0  502 -0.47983970658E+02 -0.10622727442E+04  0.10911897881E+04  0.15236210153E+04  0.50400001928E-02 0. -1.
</event>
<event>
 5   0  0.5325362E-07  0.4243939E+04  0.7818609E-02  0.7957066E-01
       -2   -1    0    0    0  501  0.00000000000E+00  0.00000000000E+00  0.16301613923E+04  0.16301613923E+04  0.25500000920E-02 0. -1.
        2   -1    0    0  501    0  0.00000000000E+00  0.00000000000E+00 -0.27621526190E+04  0.27621526190E+04  0.25500000920E-02 0.  1.
    10030    2    1    2    0    0  0.00000000000E+00  0.00000000000E+00 -0.11319912268E+04  0.43923140113E+04  0.42439390001E+04 0.  0.
        4    1    3    3  502    0  0.32602857093E+03  0.13608866561E+04 -0.22168959351E+04  0.26216285625E+04  0.12699999809E+01 0.  1.
       -4    1    3    3    0  502 -0.32602857093E+03 -0.13608866561E+04  0.10849047083E+04  0.17706854488E+04  0.12699999809E+01 0. -1.
</event>
<event>
 5   0  0.1648000E-07  0.3520237E+04  0.7818609E-02  0.8109011E-01
        1   -1    0    0  501    0  0.00000000000E+00  0.00000000000E+00  0.19383072943E+04  0.19383072943E+04  0.50400001928E-02 0. -1.
       -1   -1    0    0    0  501  0.00000000000E+00  0.00000000000E+00 -0.15983108749E+04  0.15983108749E+04  0.50400001928E-02 0.  1.
    10030    2    1    2    0    0  0.00000000000E+00  0.00000000000E+00  0.33999641935E+03  0.35366181692E+04  0.35202372803E+04 0.  0.
        1    1    3    3  502    0  0.91305019526E+03 -0.53600477990E+03  0.15826193593E+04  0.19041128694E+04  0.50400001928E-02 0. -1.
       -1    1    3    3    0  502 -0.91305019526E+03  0.53600477990E+03 -0.12426229399E+04  0.16325052998E+04  0.50400001928E-02 0.  1.
</event>
<event>
 5   0  0.1648000E-07  0.3791826E+04  0.7818609E-02  0.8047911E-01
        1   -1    0    0  501    0  0.00000000000E+00  0.00000000000E+00  0.22666740591E+04  0.22666740591E+04  0.50400001928E-02 0.  1.
       -1   -1    0    0    0  501  0.00000000000E+00  0.00000000000E+00 -0.15857971417E+04  0.15857971417E+04  0.50400001928E-02 0. -1.
    10030    2    1    2    0    0  0.00000000000E+00  0.00000000000E+00  0.68087691739E+03  0.38524712007E+04  0.37918255466E+04 0.  0.
        3    1    3    3  502    0 -0.87486420599E+03  0.13323889891E+04  0.13834229815E+04  0.21105702909E+04  0.10100000352E+00 0.  1.
       -3    1    3    3    0  502  0.87486420599E+03 -0.13323889891E+04 -0.70254606406E+03  0.17419009098E+04  0.10100000352E+00 0. -1.
</event>
<event>
 5   0  0.1648000E-07  0.3931583E+04  0.7818609E-02  0.8018492E-01
        1   -1    0    0  501    0  0.00000000000E+00  0.00000000000E+00  0.18589823318E+04  0.18589823318E+04  0.50400001928E-02 0.  1.
       -1   -1    0    0    0  501  0.00000000000E+00  0.00000000000E+00 -0.20787378911E+04  0.20787378911E+04  0.50400001928E-02 0. -1.
    10030    2    1    2    0    0  0.00000000000E+00  0.00000000000E+00 -0.21975555935E+03  0.39377202229E+04  0.39315834021E+04 0.  0.
        2    1    3    3  502    0 -0.12287975167E+04  0.13714872461E+04 -0.79900438374E+03  0.20073187611E+04  0.25500000920E-02 0. -1.
       -2    1    3    3    0  502  0.12287975167E+04 -0.13714872461E+04  0.57924882439E+03  0.19304014618E+04  0.25500000920E-02 0.  1.
</event>
<event>
 5   0  0.5325362E-07  0.3662470E+04  0.7818609E-02  0.8076330E-01
        2   -1    0    0  501    0  0.00000000000E+00  0.00000000000E+00  0.29547253777E+04  0.29547253777E+04  0.25500000920E-02 0.  1.
       -2   -1    0    0    0  501  0.00000000000E+00  0.00000000000E+00 -0.11349348733E+04  0.11349348733E+04  0.25500000920E-02 0. -1.
    10030    2    1    2    0    0  0.00000000000E+00  0.00000000000E+00  0.18197905044E+04  0.40896602511E+04  0.36624695889E+04 0.  0.
        4    1    3    3  502    0  0.44135478063E+03  0.44302239924E+02  0.28938295282E+04  0.29276283374E+04  0.12699999809E+01 0.  1.
       -4    1    3    3    0  502 -0.44135478063E+03 -0.44302239924E+02 -0.10740390238E+04  0.11620319137E+04  0.12699999809E+01 0. -1.
</event>
<event>
 5   0  0.1648000E-07  0.3835694E+04  0.7818609E-02  0.8038538E-01
       -1   -1    0    0    0  501  0.00000000000E+00  0.00000000000E+00  0.25406045884E+04  0.25406045884E+04  0.50400001928E-02 0. -1.
        1   -1    0    0  501    0  0.00000000000E+00  0.00000000000E+00 -0.14477408815E+04  0.14477408815E+04  0.50400001928E-02 0.  1.
    10030    2    1    2    0    0  0.00000000000E+00  0.00000000000E+00  0.10928637070E+04  0.39883454699E+04  0.38356940057E+04 0.  0.
        4    1    3    3  502    0  0.18094765784E+04  0.62756681836E+03  0.44198567483E+03  0.19655529880E+04  0.12699999809E+01 0. -1.
       -4    1    3    3    0  502 -0.18094765784E+04 -0.62756681836E+03  0.65087803214E+03  0.20227924819E+04  0.12699999809E+01 0.  1.
</event>
<event>
 5   0  0.1648000E-07  0.3586360E+04  0.7818609E-02  0.8093623E-01
       -1   -1    0    0    0  501  0.00000000000E+00  0.00000000000E+00  0.12350232483E+04  0.12350232483E+04  0.50400001928E-02 0.  1.
        1   -1    0    0  501    0  0.00000000000E+00  0.00000000000E+00 -0.26035897244E+04  0.26035897244E+04  0.50400001928E-02 0. -1.
    10030    2    1    2    0    0  0.00000000000E+00  0.00000000000E+00 -0.13685664761E+04  0.38386129728E+04  0.35863596243E+04 0.  0.
        3    1    3    3  502    0  0.10685818525E+04 -0.56136598824E+03 -0.21036382782E+04  0.24253438857E+04  0.10100000352E+00 0. -1.
       -3    1    3    3    0  502 -0.10685818525E+04  0.56136598824E+03  0.73507180205E+03  0.14132690871E+04  0.10100000352E+00 0.  1.
</event>
<event>
 5   0  0.5202788E-07  0.3821924E+04  0.7818609E-02  0.8041466E-01
       -2   -1    0    0    0  501  0.00000000000E+00  0.00000000000E+00  0.17591069858E+04  0.17591069858E+04  0.25500000920E-02 0. -1.
        2   -1    0    0  501    0  0.00000000000E+00  0.00000000000E+00 -0.20759256888E+04  0.20759256888E+04  0.25500000920E-02 0.  1.
    10030    2    1    2    0    0  0.00000000000E+00  0.00000000000E+00 -0.31681870299E+03  0.38350326745E+04  0.38219237988E+04 0.  0.
        1    1    3    3  502    0  0.13527492330E+04 -0.67064270539E+03 -0.13337865914E+04  0.20146162903E+04  0.50400001928E-02 0.  1.
       -1    1    3    3    0  502 -0.13527492330E+04  0.67064270539E+03  0.10169678884E+04  0.18204163842E+04  0.50400001928E-02 0. -1.
</event>
<event>
 5   0  0.5134434E-07  0.3509299E+04  0.7818609E-02  0.8111590E-01
        2   -1    0    0  501    0  0.00000000000E+00  0.00000000000E+00  0.18711008365E+04  0.18711008365E+04  0.25500000920E-02 0. -1.
       -2   -1    0    0    0  501  0.00000000000E+00  0.00000000000E+00 -0.16454456648E+04  0.16454456648E+04  0.25500000920E-02 0.  1.
    10030    2    1    2    0    0  0.00000000000E+00  0.00000000000E+00  0.22565517165E+03  0.35165465013E+04  0.35092989384E+04 0.  0.
        5    1    3    3  502    0  0.12900166147E+04  0.40888837211E+03  0.12320228158E+04  0.18300914938E+04  0.46999998093E+01 0. -1.
       -5    1    3    3    0  502 -0.12900166147E+04 -0.40888837211E+03 -0.10063676442E+04  0.16864550075E+04  0.46999998093E+01 0.  1.
</event>
<event>
 5   0  0.1648000E-07  0.3801029E+04  0.7818609E-02  0.8045934E-01
        1   -1    0    0  501    0  0.00000000000E+00  0.00000000000E+00  0.19866364073E+04  0.19866364073E+04  0.50400001928E-02 0.  1.
       -1   -1    0    0    0  501  0.00000000000E+00  0.00000000000E+00 -0.18181256813E+04  0.18181256813E+04  0.50400001928E-02 0. -1.
    10030    2    1    2    0    0  0.00000000000E+00  0.00000000000E+00  0.16851072600E+03  0.38047620887E+04  0.38010286353E+04 0.  0.
        4    1    3    3  502    0  0.15114491068E+03  0.18850760627E+04 -0.10460033336E+03  0.18940167341E+04  0.12699999809E+01 0. -1.
       -4    1    3    3    0  502 -0.15114491068E+03 -0.18850760627E+04  0.27311105936E+03  0.19107453546E+04  0.12699999809E+01 0.  1.
</event>
<event>
 5   0  0.5325362E-07  0.3805925E+04  0.7818609E-02  0.8044885E-01
        2   -1    0    0  501    0  0.00000000000E+00  0.00000000000E+00  0.12447207969E+04  0.12447207969E+04  0.25500000920E-02 0. -1.
       -2   -1    0    0    0  501  0.00000000000E+00  0.00000000000E+00 -0.29093000734E+04  0.29093000734E+04  0.25500000920E-02 0.  1.
    10030    2    1    2    0    0  0.00000000000E+00  0.00000000000E+00 -0.16645792765E+04  0.41540208703E+04  0.38059250155E+04 0.  0.
        4    1    3    3  502    0  0.17598624148E+04 -0.47340101240E+03 -0.23443121191E+03  0.18374394802E+04  0.12699999809E+01 0. -1.
       -4    1    3    3    0  502 -0.17598624148E+04  0.47340101240E+03 -0.14301480646E+04  0.23165813901E+04  0.12699999809E+01 0.  1.
</event>
<event>
 5   0  0.5158266E-07  0.3783861E+04  0.7818609E-02  0.8049627E-01
        2   -1    0    0  501    0  0.00000000000E+00  0.00000000000E+00  0.26308527028E+04  0.26308527028E+04  0.25500000920E-02 0.  1.
       -2   -1    0    0    0  501  0.00000000000E+00  0.00000000000E+00 -0.13605481806E+04  0.13605481806E+04  0.25500000920E-02 0. -1.
    10030    2    1    2    0    0  0.00000000000E+00  0.00000000000E+00  0.12703045221E+04  0.39914008834E+04  0.37838614447E+04 0.  0.
        2    1    3    3  502    0  0.47583265481E+03  0.14187696779E+04  0.18562631981E+04  0.23843315992E+04  0.25500000920E-02 0.  1.
       -2    1    3    3    0  502 -0.47583265481E+03 -0.14187696779E+04 -0.58595867591E+03  0.16070692842E+04  0.25500000920E-02 0. -1.
</event>
<event>
 5   0  0.1648000E-07  0.3101030E+04  0.7818609E-02  0.8215455E-01
        1   -1    0    0  501    0  0.00000000000E+00  0.00000000000E+00  0.12613225359E+04  0.12613225359E+04  0.50400001928E-02 0. -1.
       -1   -1    0    0    0  501  0.00000000000E+00  0.00000000000E+00 -0.19060130305E+04  0.19060130305E+04  0.50400001928E-02 0.  1.
    10030    2    1    2    0    0  0.00000000000E+00  0.00000000000E+00 -0.64469049461E+03  0.31673355664E+04  0.31010302733E+04 0.  0.
        1    1    3    3  502    0  0.90089273027E+03  0.12476634058E+04 -0.51566855701E+03  0.16230174819E+04  0.50400001928E-02 0.  1.
       -1    1    3    3    0  502 -0.90089273027E+03 -0.12476634058E+04 -0.12902193760E+03  0.15443180845E+04  0.50400001928E-02 0. -1.
</event>
<event>
 5   0  0.5158266E-07  0.3792146E+04  0.7818609E-02  0.8047842E-01
       -2   -1    0    0    0  501  0.00000000000E+00  0.00000000000E+00  0.18633838080E+04  0.18633838080E+04  0.25500000920E-02 0. -1.
        2   -1    0    0  501    0  0.00000000000E+00  0.00000000000E+00 -0.19293354310E+04  0.19293354310E+04  0.25500000920E-02 0.  1.
    10030    2    1    2    0    0  0.00000000000E+00  0.00000000000E+00 -0.65951623034E+02  0.37927192390E+04  0.37921457790E+04 0.  0.
        2    1    3    3  502    0 -0.51196305029E+03 -0.60376278603E+03  0.16902057233E+04  0.18663952030E+04  0.25500000920E-02 0. -1.
       -2    1    3    3    0  502  0.51196305029E+03  0.60376278603E+03 -0.17561573463E+04  0.19263240360E+04  0.25500000920E-02 0.  1.
</event>
<event>
 5   0  0.1648000E-07  0.4191735E+04  0.7818609E-02  0.7966946E-01
       -1   -1    0    0    0  501  0.00000000000E+00  0.00000000000E+00  0.21080788044E+04  0.21080788044E+04  0.50400001928E-02 0. -1.
        1   -1    0    0  501    0  0.00000000000E+00  0.00000000000E+00 -0.20837271142E+04  0.20837271142E+04  0.50400001928E-02 0.  1.
    10030    2    1    2    0    0  0.00000000000E+00  0.00000000000E+00  0.24351690192E+02  0.41918059186E+04  0.41917351842E+04 0.  0.
        2    1    3    3  502    0 -0.25936643138E+03 -0.13669831557E+04  0.15796036694E+04  0.21050087045E+04  0.25500000920E-02 0. -1.
       -2    1    3    3    0  502  0.25936643138E+03  0.13669831557E+04 -0.15552519792E+04  0.20867972141E+04  0.25500000920E-02 0.  1.
</event>
<event>
 5   0  0.1648000E-07  0.3791805E+04  0.7818609E-02  0.8047916E-01
        1   -1    0    0  501    0  0.00000000000E+00  0.00000000000E+00  0.18288508222E+04  0.18288508222E+04  0.50400001928E-02 0. -1.
       -1   -1    0    0    0  501  0.00000000000E+00  0.00000000000E+00 -0.19654124997E+04  0.19654124997E+04  0.50400001928E-02 0.  1.
    10030    2    1    2    0    0  0.00000000000E+00  0.00000000000E+00 -0.13656167751E+03  0.37942633218E+04  0.37918049876E+04 0.  0.
        4    1    3    3  502    0  0.15095523901E+04  0.11286988161E+04  0.13614359916E+03  0.18897740946E+04  0.12699999809E+01 0. -1.
       -4    1    3    3    0  502 -0.15095523901E+04 -0.11286988161E+04 -0.27270527667E+03  0.19044892273E+04  0.12699999809E+01 0.  1.
</event>
<event>
 5   0  0.5202788E-07  0.4017368E+04  0.7818609E-02  0.8001052E-01
       -2   -1    0    0    0  501  0.00000000000E+00  0.00000000000E+00  0.19148237663E+04  0.19148237663E+04  0.25500000920E-02 0. -1.
        2   -1    0    0  501    0  0.00000000000E+00  0.00000000000E+00 -0.21071453357E+04  0.21071453357E+04  0.25500000920E-02 0.  1.
    10030    2    1    2    0    0  0.00000000000E+00  0.00000000000E+00 -0.19232156945E+03  0.40219691020E+04  0.40173682768E+04 0.  0.
        1    1    3    3  502    0 -0.52019508930E+03  0.41325351232E+03  0.18016447689E+04  0.19202357328E+04  0.50400001928E-02 0. -1.
       -1    1    3    3    0  502  0.52019508930E+03 -0.41325351232E+03 -0.19939663384E+04  0.21017333691E+04  0.50400001928E-02 0.  1.
</event>
<event>
 5   0  0.5158266E-07  0.2912305E+04  0.7818609E-02  0.8269226E-01
       -2   -1    0    0    0  501  0.00000000000E+00  0.00000000000E+00  0.10347898936E+04  0.10347898936E+04  0.25500000920E-02 0.  1.
        2   -1    0    0  501    0  0.00000000000E+00  0.00000000000E+00 -0.20490920097E+04  0.20490920097E+04  0.25500000920E-02 0. -1.
    10030    2    1    2    0    0  0.00000000000E+00  0.00000000000E+00 -0.10143021161E+04  0.30838819033E+04  0.29123047249E+04 0.  0.
        2    1    3    3  502    0 -0.75423053312E+03 -0.10536724785E+04 -0.12105846778E+04  0.17733033161E+04  0.25500000920E-02 0. -1.
       -2    1    3    3    0  502  0.75423053312E+03  0.10536724785E+04  0.19628256164E+03  0.13105785871E+04  0.25500000920E-02 0.  1.
</event>
<event>
 5   0  0.1648000E-07  0.2803049E+04  0.7818609E-02  0.8302322E-01
        1   -1    0    0  501    0  0.00000000000E+00  0.00000000000E+00  0.22846133432E+04  0.22846133432E+04  0.50400001928E-02 0. -1.
       -1   -1    0    0    0  501  0.00000000000E+00  0.00000000000E+00 -0.85978253448E+03  0.85978253450E+03  0.50400001928E-02 0.  1.
    10030    2    1    2    0    0  0.00000000000E+00  0.00000000000E+00  0.14248308088E+04  0.31443958777E+04  0.28030488049E+04 0.  0.
        1    1    3    3  502    0 -0.43817784639E+03  0.10775472307E+04 -0.16455515015E+03  0.11748132860E+04  0.50400001928E-02 0.  1.
       -1    1    3    3    0  502  0.43817784639E+03 -0.10775472307E+04  0.15893859589E+04  0.19695825918E+04  0.50400001928E-02 0. -1.
</event>
<event>
 5   0  0.1648000E-07  0.3796014E+04  0.7818609E-02  0.8047011E-01
       -1   -1    0    0    0  501  0.00000000000E+00  0.00000000000E+00  0.29358080111E+04  0.29358080111E+04  0.50400001928E-02 0. -1.
        1   -1    0    0  501    0  0.00000000000E+00  0.00000000000E+00 -0.12270661636E+04  0.12270661636E+04  0.50400001928E-02 0.  1.
    10030    2    1    2    0    0  0.00000000000E+00  0.00000000000E+00  0.17087418475E+04  0.41628741747E+04  0.37960140533E+04 0.  0.
        2    1    3    3  502    0  0.14619471001E+04  0.10400497098E+04  0.15334385402E+04  0.23601750950E+04  0.25500000920E-02 0. -1.
       -2    1    3    3    0  502 -0.14619471001E+04 -0.10400497098E+04  0.17530330733E+03  0.18026990797E+04  0.25500000920E-02 0.  1.
</event>
<event>
 5   0  0.5202788E-07  0.3728961E+04  0.7818609E-02  0.8061574E-01
        2   -1    0    0  501    0  0.00000000000E+00  0.00000000000E+00  0.30506854472E+04  0.30506854472E+04  0.25500000920E-02 0. -1.
       -2   -1    0    0    0  501  0.00000000000E+00  0.00000000000E+00 -0.11395104819E+04  0.11395104819E+04  0.25500000920E-02 0.  1.
    10030    2    1    2    0    0  0.00000000000E+00  0.00000000000E+00  0.19111749653E+04  0.41901959291E+04  0.37289612731E+04 0.  0.
        1    1    3    3  502    0  0.68136089360E+03 -0.60794119713E+03  0.27822119113E+04  0.29282329630E+04  0.50400001928E-02 0. -1.
       -1    1    3    3    0  502 -0.68136089360E+03  0.60794119713E+03 -0.87103694597E+03  0.12619629661E+04  0.50400001928E-02 0.  1.
</event>
<event>
 5   0  0.1648000E-07  0.3808843E+04  0.7818609E-02  0.8044260E-01
       -1   -1    0    0    0  501  0.00000000000E+00  0.00000000000E+00  0.16823102769E+04  0.16823102769E+04  0.50400001928E-02 0. -1.
        1   -1    0    0  501    0  0.00000000000E+00  0.00000000000E+00 -0.21558569948E+04  0.21558569948E+04  0.50400001928E-02 0.  1.
    10030    2    1    2    0    0  0.00000000000E+00  0.00000000000E+00 -0.47354671788E+03  0.38381672717E+04  0.38088425422E+04 0.  0.
        2    1    3    3  502    0 -0.55684499933E+03 -0.37470076495E+03  0.15591781244E+04  0.16975021179E+04  0.25500000920E-02 0. -1.
       -2    1    3    3    0  502  0.55684499933E+03  0.37470076495E+03 -0.20327248423E+04  0.21406651539E+04  0.25500000920E-02 0.  1.
</event>
<event>
 5   0  0.1648000E-07  0.3790266E+04  0.7818609E-02  0.8048247E-01
       -1   -1    0    0    0  501  0.00000000000E+00  0.00000000000E+00  0.14270859879E+04  0.14270859879E+04  0.50400001928E-02 0. -1.
        1   -1    0    0  501    0  0.00000000000E+00  0.00000000000E+00 -0.25166871289E+04  0.25166871289E+04  0.50400001928E-02 0.  1.
    10030    2    1    2    0    0  0.00000000000E+00  0.00000000000E+00 -0.10896011409E+04  0.39437731168E+04  0.37902659208E+04 0.  0.
        3    1    3    3  502    0 -0.17502832992E+04 -0.71986950969E+03 -0.64793714330E+03  0.20003815362E+04  0.10100000352E+00 0. -1.
       -3    1    3    3    0  502  0.17502832992E+04  0.71986950969E+03 -0.44166399763E+03  0.19433915806E+04  0.10100000352E+00 0.  1.
</event>
<event>
 5   0  0.5325362E-07  0.3764700E+04  0.7818609E-02  0.8053773E-01
       -2   -1    0    0    0  501  0.00000000000E+00  0.00000000000E+00  0.14811810533E+04  0.14811810533E+04  0.25500000920E-02 0.  1.
        2   -1    0    0  501    0  0.00000000000E+00  0.00000000000E+00 -0.23921730959E+04  0.23921730959E+04  0.25500000920E-02 0. -1.
    10030    2    1    2    0    0  0.00000000000E+00  0.00000000000E+00 -0.91099204265E+03  0.38733541492E+04  0.37646999699E+04 0.  0.
        4    1    3    3  502    0  0.68181121169E+03  0.83710199166E+03 -0.20419566536E+04  0.23098040742E+04  0.12699999809E+01 0. -1.
       -4    1    3    3    0  502 -0.68181121169E+03 -0.83710199166E+03  0.11309646110E+04  0.15635500750E+04  0.12699999809E+01 0.  1.
</event>
<event>
 5   0  0.5325362E-07  0.3478495E+04  0.7818609E-02  0.8118905E-01
       -2   -1    0    0    0  501  0.00000000000E+00  0.00000000000E+00  0.12478820552E+04  0.12478820552E+04  0.25500000920E-02 0. -1.
        2   -1    0    0  501    0  0.00000000000E+00  0.00000000000E+00 -0.24240924105E+04  0.24240924105E+04  0.25500000920E-02 0.  1.
    10030    2    1    2    0    0  0.00000000000E+00  0.00000000000E+00 -0.11762103552E+04  0.36719744657E+04  0.34784947430E+04 0.  0.
        4    1    3    3  502    0  0.40104325484E+03  0.47524184625E+03 -0.23027315899E+04  0.23852179969E+04  0.12699999809E+01 0.  1.
       -4    1    3    3    0  502 -0.40104325484E+03 -0.47524184625E+03  0.11265212347E+04  0.12867564687E+04  0.12699999809E+01 0. -1.
</event>
<event>
 5   0  0.5325362E-07  0.3759158E+04  0.7818609E-02  0.8054977E-01
       -2   -1    0    0    0  501  0.00000000000E+00  0.00000000000E+00  0.17818683710E+04  0.17818683710E+04  0.25500000920E-02 0.  1.
        2   -1    0    0  501    0  0.00000000000E+00  0.00000000000E+00 -0.19826481582E+04  0.19826481582E+04  0.25500000920E-02 0. -1.
    10030    2    1    2    0    0  0.00000000000E+00  0.00000000000E+00 -0.20077978723E+03  0.37645165292E+04  0.37591584398E+04 0.  0.
        4    1    3    3  502    0 -0.12278416616E+04 -0.14187828607E+04 -0.21134709556E+03  0.18881761463E+04  0.12699999809E+01 0.  1.
       -4    1    3    3    0  502  0.12278416616E+04  0.14187828607E+04  0.10567308324E+02  0.18763403829E+04  0.12699999809E+01 0. -1.
</event>
<event>
 5   0  0.5132561E-07  0.3423879E+04  0.7818609E-02  0.8132070E-01
        2   -1    0    0  501    0  0.00000000000E+00  0.00000000000E+00  0.11189889026E+04  0.11189889027E+04  0.25500000920E-02 0. -1.
       -2   -1    0    0    0  501  0.00000000000E+00  0.00000000000E+00 -0.26190934194E+04  0.26190934194E+04  0.25500000920E-02 0.  1.
    10030    2    1    2    0    0  0.00000000000E+00  0.00000000000E+00 -0.15001045167E+04  0.37380823220E+04  0.34238787778E+04 0.  0.
        3    1    3    3  502    0 -0.35621565172E+03  0.16681334633E+04 -0.59117232539E+03  0.18052821304E+04  0.10100000352E+00 0. -1.
       -3    1    3    3    0  502  0.35621565172E+03 -0.16681334633E+04 -0.90893219134E+03  0.19328001916E+04  0.10100000352E+00 0.  1.
</event>
<event>
 5   0  0.1648000E-07  0.3809296E+04  0.7818609E-02  0.8044163E-01
        1   -1    0    0  501    0  0.00000000000E+00  0.00000000000E+00  0.27565273719E+04  0.27565273719E+04  0.50400001928E-02 0.  1.
       -1   -1    0    0    0  501  0.00000000000E+00  0.00000000000E+00 -0.13160339649E+04  0.13160339649E+04  0.50400001928E-02 0. -1.
    10030    2    1    2    0    0  0.00000000000E+00  0.00000000000E+00  0.14404934070E+04  0.40725613369E+04  0.38092958125E+04 0.  0.
        1    1    3    3  502    0 -0.67111476618E+03 -0.89030257087E+03 -0.93070836134E+03  0.14523263239E+04  0.50400001928E-02 0. -1.
       -1    1    3    3    0  502  0.67111476618E+03  0.89030257087E+03  0.23712017684E+04  0.26202350130E+04  0.50400001928E-02 0.  1.
</event>
<event>
 5   0  0.5158266E-07  0.3471403E+04  0.7818609E-02  0.8120601E-01
       -2   -1    0    0    0  501  0.00000000000E+00  0.00000000000E+00  0.21283341839E+04  0.21283341839E+04  0.25500000920E-02 0. -1.
        2   -1    0    0  501    0  0.00000000000E+00  0.00000000000E+00 -0.14155010554E+04  0.14155010554E+04  0.25500000920E-02 0.  1.
    10030    2    1    2    0    0  0.00000000000E+00  0.00000000000E+00  0.71283312851E+03  0.35438352393E+04  0.34714027618E+04 0.  0.
        2    1    3    3  502    0  0.40290552463E+02  0.13513012411E+04  0.14677171025E+04  0.19954527972E+04  0.25500000920E-02 0.  1.
       -2    1    3    3    0  502 -0.40290552463E+02 -0.13513012411E+04 -0.75488397399E+03  0.15483824421E+04  0.25500000920E-02 0. -1.
</event>
<event>
 5   0  0.5202788E-07  0.3777532E+04  0.7818609E-02  0.8050994E-01
        2   -1    0    0  501    0  0.00000000000E+00  0.00000000000E+00  0.13443479494E+04  0.13443479494E+04  0.25500000920E-02 0. -1.
       -2   -1    0    0    0  501  0.00000000000E+00  0.00000000000E+00 -0.26536562106E+04  0.26536562106E+04  0.25500000920E-02 0.  1.
    10030    2    1    2    0    0  0.00000000000E+00  0.00000000000E+00 -0.13093082612E+04  0.39980041599E+04  0.37775321495E+04 0.  0.
        1    1    3    3  502    0  0.11057985894E+04  0.14234171994E+04 -0.12519787397E+04  0.21946201969E+04  0.50400001928E-02 0. -1.
       -1    1    3    3    0  502 -0.11057985894E+04 -0.14234171994E+04 -0.57329521489E+02  0.18033839630E+04  0.50400001928E-02 0.  1.
</event>
<event>
 5   0  0.1648000E-07  0.3757892E+04  0.7818609E-02  0.8055252E-01
        1   -1    0    0  501    0  0.00000000000E+00  0.00000000000E+00  0.17660785665E+04  0.17660785665E+04  0.50400001928E-02 0. -1.
       -1   -1    0    0    0  501  0.00000000000E+00  0.00000000000E+00 -0.19990266114E+04  0.19990266114E+04  0.50400001928E-02 0.  1.
    10030    2    1    2    0    0  0.00000000000E+00  0.00000000000E+00 -0.23294804492E+03  0.37651051779E+04  0.37578919901E+04 0.  0.
        2    1    3    3  502    0  0.15026179160E+04 -0.21219783812E+03 -0.12265490458E+04  0.19512332218E+04  0.25500000920E-02 0.  1.
       -2    1    3    3    0  502 -0.15026179160E+04  0.21219783812E+03  0.99360100092E+03  0.18138719561E+04  0.25500000920E-02 0. -1.
</event>
<event>
 5   0  0.1648000E-07  0.3800300E+04  0.7818609E-02  0.8046091E-01
        1   -1    0    0  501    0  0.00000000000E+00  0.00000000000E+00  0.20282041786E+04  0.20282041786E+04  0.50400001928E-02 0.  1.
       -1   -1    0    0    0  501  0.00000000000E+00  0.00000000000E+00 -0.17801804101E+04  0.17801804101E+04  0.50400001928E-02 0. -1.
    10030    2    1    2    0    0  0.00000000000E+00  0.00000000000E+00  0.24802376857E+03  0.38083845887E+04  0.38002996442E+04 0.  0.
        2    1    3    3  502    0 -0.10329943732E+04  0.34872668190E+02 -0.14738318191E+04  0.18001315810E+04  0.25500000920E-02 0. -1.
       -2    1    3    3    0  502  0.10329943732E+04 -0.34872668190E+02  0.17218555877E+04  0.20082530077E+04  0.25500000920E-02 0.  1.
</event>
<event>
 5   0  0.5202788E-07  0.3814988E+04  0.7818609E-02  0.8042946E-01
       -2   -1    0    0    0  501  0.00000000000E+00  0.00000000000E+00  0.15862506615E+04  0.15862506615E+04  0.25500000920E-02 0.  1.
        2   -1    0    0  501    0  0.00000000000E+00  0.00000000000E+00 -0.22937949824E+04  0.22937949824E+04  0.25500000920E-02 0. -1.
    10030    2    1    2    0    0  0.00000000000E+00  0.00000000000E+00 -0.70754432084E+03  0.38800456439E+04  0.38149882349E+04 0.  0.
        1    1    3    3  502    0 -0.90659420347E+03  0.47121426462E+03 -0.19920101277E+04  0.22387631143E+04  0.50400001928E-02 0. -1.
       -1    1    3    3    0  502  0.90659420347E+03 -0.47121426462E+03  0.12844658069E+04  0.16412825296E+04  0.50400001928E-02 0.  1.
</event>
<event>
 5   0  0.5325362E-07  0.3801379E+04  0.7818609E-02  0.8045859E-01
        2   -1    0    0  501    0  0.00000000000E+00  0.00000000000E+00  0.24412010764E+04  0.24412010764E+04  0.25500000920E-02 0. -1.
       -2   -1    0    0    0  501  0.00000000000E+00  0.00000000000E+00 -0.14798539739E+04  0.14798539739E+04  0.25500000920E-02 0.  1.
    10030    2    1    2    0    0  0.00000000000E+00  0.00000000000E+00  0.96134710249E+03  0.39210550502E+04  0.38013792833E+04 0.  0.
        4    1    3    3  502    0 -0.12000236220E+03 -0.10907685906E+04 -0.11201000209E+04  0.15680568723E+04  0.12699999809E+01 0.  1.
       -4    1    3    3    0  502  0.12000236220E+03  0.10907685906E+04  0.20814471234E+04  0.23529981779E+04  0.12699999809E+01 0. -1.
</event>
<event>
 5   0  0.5325362E-07  0.2803481E+04  0.7818609E-02  0.8302189E-01
       -2   -1    0    0    0  501  0.00000000000E+00  0.00000000000E+00  0.14150128820E+04  0.14150128820E+04  0.25500000920E-02 0.  1.
        2   -1    0    0  501    0  0.00000000000E+00  0.00000000000E+00 -0.13885924512E+04  0.13885924512E+04  0.25500000920E-02 0. -1.
    10030    2    1    2    0    0  0.00000000000E+00  0.00000000000E+00  0.26420430718E+02  0.28036053332E+04  0.28034808409E+04 0.  0.
        4    1    3    3  502    0 -0.75153605857E+03 -0.75871984072E+02  0.11940723679E+04  0.14129307973E+04  0.12699999809E+01 0.  1.
       -4    1    3    3    0  502  0.75153605857E+03  0.75871984072E+02 -0.11676519372E+04  0.13906745359E+04  0.12699999809E+01 0. -1.
</event>
<event>
 5   0  0.1648000E-07  0.3900879E+04  0.7818609E-02  0.8024847E-01
       -1   -1    0    0    0  501  0.00000000000E+00  0.00000000000E+00  0.13576136815E+04  0.13576136815E+04  0.50400001928E-02 0.  1.
        1   -1    0    0  501    0  0.00000000000E+00  0.00000000000E+00 -0.28021324619E+04  0.28021324619E+04  0.50400001928E-02 0. -1.
    10030    2    1    2    0    0  0.00000000000E+00  0.00000000000E+00 -0.14445187804E+04  0.41597461433E+04  0.39008785510E+04 0.  0.
        3    1    3    3  502    0 -0.79283423814E+03 -0.16553109054E+04 -0.14260361011E+04  0.23242674749E+04  0.10100000352E+00 0. -1.
       -3    1    3    3    0  502  0.79283423814E+03  0.16553109054E+04 -0.18482679290E+02  0.18354786685E+04  0.10100000352E+00 0.  1.
</event>
<event>
 5   0  0.1656617E-07  0.3836921E+04  0.7818609E-02  0.8038278E-01
        1   -1    0    0  501    0  0.00000000000E+00  0.00000000000E+00  0.34776490157E+04  0.34776490157E+04  0.50400001928E-02 0.  1.
       -1   -1    0    0    0  501  0.00000000000E+00  0.00000000000E+00 -0.10583270965E+04  0.10583270965E+04  0.50400001928E-02 0. -1.
    10030    2    1    2    0    0  0.00000000000E+00  0.00000000000E+00  0.24193219192E+04  0.45359761121E+04  0.38369207369E+04 0.  0.
        5    1    3    3  502    0 -0.17136245722E+04  0.85957143707E+03  0.12940521117E+04  0.23129991758E+04  0.46999998093E+01 0.  1.
       -5    1    3    3    0  502  0.17136245722E+04 -0.85957143707E+03  0.11252698075E+04  0.22229769363E+04  0.46999998093E+01 0. -1.
</event>
<event>
 5   0  0.5158266E-07  0.3766424E+04  0.7818609E-02  0.8053399E-01
       -2   -1    0    0    0  501  0.00000000000E+00  0.00000000000E+00  0.12763128238E+04  0.12763128238E+04  0.25500000920E-02 0.  1.
        2   -1    0    0  501    0  0.00000000000E+00  0.00000000000E+00 -0.27786974919E+04  0.27786974919E+04  0.25500000920E-02 0. -1.
    10030    2    1    2    0    0  0.00000000000E+00  0.00000000000E+00 -0.15023846680E+04  0.40550103157E+04  0.37664238967E+04 0.  0.
        2    1    3    3  502    0 -0.55487978590E+02  0.71136896086E+03  0.11251457007E+04  0.13323203677E+04  0.25500000920E-02 0.  1.
       -2    1    3    3    0  502  0.55487978590E+02 -0.71136896086E+03 -0.26275303688E+04  0.27226899480E+04  0.25500000920E-02 0. -1.
</event>
<event>
 5   0  0.1648000E-07  0.2752009E+04  0.7818609E-02  0.8318324E-01
        1   -1    0    0  501    0  0.00000000000E+00  0.00000000000E+00  0.16585599176E+04  0.16585599176E+04  0.50400001928E-02 0. -1.
       -1   -1    0    0    0  501  0.00000000000E+00  0.00000000000E+00 -0.11415856659E+04  0.11415856659E+04  0.50400001928E-02 0.  1.
    10030    2    1    2    0    0  0.00000000000E+00  0.00000000000E+00  0.51697425166E+03  0.28001455835E+04  0.27520088866E+04 0.  0.
        2    1    3    3  502    0  0.31397644844E+03  0.66425465705E+03  0.14422687218E+04  0.16186273585E+04  0.25500000920E-02 0. -1.
       -2    1    3    3    0  502 -0.31397644844E+03 -0.66425465705E+03 -0.92529447016E+03  0.11815182250E+04  0.25500000920E-02 0.  1.
</event>
<event>
 5   0  0.1648000E-07  0.3798308E+04  0.7818609E-02  0.8046518E-01
        1   -1    0    0  501    0  0.00000000000E+00  0.00000000000E+00  0.17761564492E+04  0.17761564492E+04  0.50400001928E-02 0. -1.
       -1   -1    0    0    0  501  0.00000000000E+00  0.00000000000E+00 -0.20306694726E+04  0.20306694726E+04  0.50400001928E-02 0.  1.
    10030    2    1    2    0    0  0.00000000000E+00  0.00000000000E+00 -0.25451302345E+03  0.38068259218E+04  0.37983084024E+04 0.  0.
        2    1    3    3  502    0 -0.40903617178E+03 -0.11602699577E+04 -0.15773076350E+04  0.20003590528E+04  0.25500000920E-02 0.  1.
       -2    1    3    3    0  502  0.40903617178E+03  0.11602699577E+04  0.13227946115E+04  0.18064668690E+04  0.25500000920E-02 0. -1.
</event>
<event>
 5   0  0.1648000E-07  0.3847324E+04  0.7818609E-02  0.8036075E-01
       -1   -1    0    0    0  501  0.00000000000E+00  0.00000000000E+00  0.26030708357E+04  0.26030708357E+04  0.50400001928E-02 0. -1.
        1   -1    0    0  501    0  0.00000000000E+00  0.00000000000E+00 -0.14215806120E+04  0.14215806120E+04  0.50400001928E-02 0.  1.
    10030    2    1    2    0    0  0.00000000000E+00  0.00000000000E+00  0.11814902237E+04  0.40246514478E+04  0.38473237617E+04 0.  0.
        1    1    3    3  502    0  0.17016105034E+04 -0.60594692482E+03 -0.10143615771E+03  0.18091266609E+04  0.50400001928E-02 0.  1.
       -1    1    3    3    0  502 -0.17016105034E+04  0.60594692482E+03  0.12829263814E+04  0.22155247868E+04  0.50400001928E-02 0. -1.
</event>
<event>
 5   0  0.5158266E-07  0.3901544E+04  0.7818609E-02  0.8024708E-01
        2   -1    0    0  501    0  0.00000000000E+00  0.00000000000E+00  0.14148568922E+04  0.14148568922E+04  0.25500000920E-02 0. -1.
       -2   -1    0    0    0  501  0.00000000000E+00  0.00000000000E+00 -0.26896788018E+04  0.26896788018E+04  0.25500000920E-02 0.  1.
    10030    2    1    2    0    0  0.00000000000E+00  0.00000000000E+00 -0.12748219096E+04  0.41045356940E+04  0.39015435871E+04 0.  0.
        2    1    3    3  502    0 -0.16058629228E+04  0.82915696582E+03 -0.14099278533E+04  0.22922027729E+04  0.25500000920E-02 0.  1.
       -2    1    3    3    0  502  0.16058629228E+04 -0.82915696582E+03  0.13510594369E+03  0.18123329211E+04  0.25500000920E-02 0. -1.
</event>
<event>
 5   0  0.5325362E-07  0.3771025E+04  0.7818609E-02  0.8052402E-01
        2   -1    0    0  501    0  0.00000000000E+00  0.00000000000E+00  0.26009038741E+04  0.26009038741E+04  0.25500000920E-02 0.  1.
       -2   -1    0    0    0  501  0.00000000000E+00  0.00000000000E+00 -0.13668932055E+04  0.13668932055E+04  0.25500000920E-02 0. -1.
    10030    2    1    2    0    0  0.00000000000E+00  0.00000000000E+00  0.12340106686E+04  0.39677970796E+04  0.37710252366E+04 0.  0.
        4    1    3    3  502    0  0.83821629419E+03  0.45065021833E+03 -0.10956462861E+04  0.14512527596E+04  0.12699999809E+01 0. -1.
       -4    1    3    3    0  502 -0.83821629419E+03 -0.45065021833E+03  0.23296569547E+04  0.25165443200E+04  0.12699999809E+01 0.  1.
</event>
<event>
 5   0  0.1648000E-07  0.3246453E+04  0.7818609E-02  0.8176656E-01
       -1   -1    0    0    0  501  0.00000000000E+00  0.00000000000E+00  0.10590898962E+04  0.10590898963E+04  0.50400001928E-02 0.  1.
        1   -1    0    0  501    0  0.00000000000E+00  0.00000000000E+00 -0.24878566523E+04  0.24878566523E+04  0.50400001928E-02 0. -1.
    10030    2    1    2    0    0  0.00000000000E+00  0.00000000000E+00 -0.14287667561E+04  0.35469465486E+04  0.32464527373E+04 0.  0.
        3    1    3    3  502    0  0.13319022488E+04 -0.23002788243E+03  0.26769885686E+03  0.13778748547E+04  0.10100000352E+00 0.  1.
       -3    1    3    3    0  502 -0.13319022488E+04  0.23002788243E+03 -0.16964656130E+04  0.21690716939E+04  0.10100000352E+00 0. -1.
</event>
<event>
 5   0  0.5202788E-07  0.3228041E+04  0.7818609E-02  0.8181451E-01
       -2   -1    0    0    0  501  0.00000000000E+00  0.00000000000E+00  0.10016883103E+04  0.10016883103E+04  0.25500000920E-02 0. -1.
        2   -1    0    0  501    0  0.00000000000E+00  0.00000000000E+00 -0.26006721940E+04  0.26006721940E+04  0.25500000920E-02 0.  1.
    10030    2    1    2    0    0  0.00000000000E+00  0.00000000000E+00 -0.15989838837E+04  0.36023605043E+04  0.32280414716E+04 0.  0.
        1    1    3    3  502    0 -0.13758098223E+04  0.16872157053E+03  0.12328048437E+03  0.13915881982E+04  0.50400001928E-02 0. -1.
       -1    1    3    3    0  502  0.13758098223E+04 -0.16872157053E+03 -0.17222643681E+04  0.22107723060E+04  0.50400001928E-02 0.  1.
</event>
<event>
 5   0  0.1648000E-07  0.3722756E+04  0.7818609E-02  0.8062937E-01
        1   -1    0    0  501    0  0.00000000000E+00  0.00000000000E+00  0.19322408657E+04  0.19322408657E+04  0.50400001928E-02 0.  1.
       -1   -1    0    0    0  501  0.00000000000E+00  0.00000000000E+00 -0.17931139368E+04  0.17931139368E+04  0.50400001928E-02 0. -1.
    10030    2    1    2    0    0  0.00000000000E+00  0.00000000000E+00  0.13912692894E+03  0.37253548025E+04  0.37227559821E+04 0.  0.
        2    1    3    3  502    0 -0.12906391239E+04 -0.78333273617E+03  0.11590698060E+04  0.19033660549E+04  0.25500000920E-02 0.  1.
       -2    1    3    3    0  502  0.12906391239E+04  0.78333273617E+03 -0.10199428771E+04  0.18219887476E+04  0.25500000920E-02 0. -1.
</event>
<event>
 5   0  0.1648000E-07  0.3715799E+04  0.7818609E-02  0.8064470E-01
       -1   -1    0    0    0  501  0.00000000000E+00  0.00000000000E+00  0.14332868200E+04  0.14332868200E+04  0.50400001928E-02 0.  1.
        1   -1    0    0  501    0  0.00000000000E+00  0.00000000000E+00 -0.24083043916E+04  0.24083043916E+04  0.50400001928E-02 0. -1.
    10030    2    1    2    0    0  0.00000000000E+00  0.00000000000E+00 -0.97501757154E+03  0.38415912116E+04  0.37157992104E+04 0.  0.
        1    1    3    3  502    0 -0.13647584713E+04  0.11541306295E+04 -0.10118342315E+04  0.20538723687E+04  0.50400001928E-02 0. -1.
       -1    1    3    3    0  502  0.13647584713E+04 -0.11541306295E+04  0.36816659957E+02  0.17877188429E+04  0.50400001928E-02 0.  1.
</event>
<event>
 5   0  0.1648000E-07  0.3340321E+04  0.7818609E-02  0.8152711E-01
       -1   -1    0    0    0  501  0.00000000000E+00  0.00000000000E+00  0.18939720116E+04  0.18939720116E+04  0.50400001928E-02 0.  1.
        1   -1    0    0  501    0  0.00000000000E+00  0.00000000000E+00 -0.14727972820E+04  0.14727972820E+04  0.50400001928E-02 0. -1.
    10030    2    1    2    0    0  0.00000000000E+00  0.00000000000E+00  0.42117472957E+03  0.33667692936E+04  0.33403214402E+04 0.  0.
        3    1    3    3  502    0 -0.96810514101E+03 -0.11888072382E+04 -0.45718884795E+03  0.15998474510E+04  0.10100000352E+00 0. -1.
       -3    1    3    3    0  502  0.96810514101E+03  0.11888072382E+04  0.87836357751E+03  0.17669218427E+04  0.10100000352E+00 0.  1.
</event>
<event>
 5   0  0.1648000E-07  0.3782482E+04  0.7818609E-02  0.8049925E-01
       -1   -1    0    0    0  501  0.00000000000E+00  0.00000000000E+00  0.17789832010E+04  0.17789832010E+04  0.50400001928E-02 0.  1.
        1   -1    0    0  501    0  0.00000000000E+00  0.00000000000E+00 -0.20105820998E+04  0.20105820998E+04  0.50400001928E-02 0. -1.
    10030    2    1    2    0    0  0.00000000000E+00  0.00000000000E+00 -0.23159889880E+03  0.37895653009E+04  0.37824816086E+04 0.  0.
        1    1    3    3  502    0  0.17599768981E+04  0.60593550487E+03 -0.45126268981E+03  0.19152844523E+04  0.50400001928E-02 0. -1.
       -1    1    3    3    0  502 -0.17599768981E+04 -0.60593550487E+03  0.21966379100E+03  0.18742808485E+04  0.50400001928E-02 0.  1.
</event>
<event>
 5   0  0.1648000E-07  0.3768995E+04  0.7818609E-02  0.8052841E-01
        1   -1    0    0  501    0  0.00000000000E+00  0.00000000000E+00  0.12165807280E+04  0.12165807280E+04  0.50400001928E-02 0.  1.
       -1   -1    0    0    0  501  0.00000000000E+00  0.00000000000E+00 -0.29191075587E+04  0.29191075587E+04  0.50400001928E-02 0. -1.
    10030    2    1    2    0    0  0.00000000000E+00  0.00000000000E+00 -0.17025268307E+04  0.41356882868E+04  0.37689945604E+04 0.  0.
        1    1    3    3  502    0 -0.20960620936E+03  0.16801596956E+04  0.56548523811E+02  0.16941278291E+04  0.50400001928E-02 0.  1.
       -1    1    3    3    0  502  0.20960620936E+03 -0.16801596956E+04 -0.17590753545E+04  0.24415604577E+04  0.50400001928E-02 0. -1.
</event>
<event>
 5   0  0.1648000E-07  0.3752980E+04  0.7818609E-02  0.8056321E-01
       -1   -1    0    0    0  501  0.00000000000E+00  0.00000000000E+00  0.21462536637E+04  0.21462536637E+04  0.50400001928E-02 0.  1.
        1   -1    0    0  501    0  0.00000000000E+00  0.00000000000E+00 -0.16406326859E+04  0.16406326859E+04  0.50400001928E-02 0. -1.
    10030    2    1    2    0    0  0.00000000000E+00  0.00000000000E+00  0.50562097780E+03  0.37868863496E+04  0.37529795699E+04 0.  0.
        2    1    3    3  502    0 -0.11427905189E+04 -0.83828337540E+03  0.14937691447E+04  0.20591346350E+04  0.25500000920E-02 0.  1.
       -2    1    3    3    0  502  0.11427905189E+04  0.83828337540E+03 -0.98814816688E+03  0.17277517146E+04  0.25500000920E-02 0. -1.
</event>
<event>
 5   0  0.1648000E-07  0.3805733E+04  0.7818609E-02  0.8044926E-01
        1   -1    0    0  501    0  0.00000000000E+00  0.00000000000E+00  0.17756686634E+04  0.17756686634E+04  0.50400001928E-02 0. -1.
       -1   -1    0    0    0  501  0.00000000000E+00  0.00000000000E+00 -0.20391756586E+04  0.20391756586E+04  0.50400001928E-02 0.  1.
    10030    2    1    2    0    0  0.00000000000E+00  0.00000000000E+00 -0.26350699519E+03  0.38148443219E+04  0.38057326843E+04 0.  0.
        1    1    3    3  502    0  0.53144250683E+01 -0.14138807691E+04 -0.14083068220E+04  0.19955989520E+04  0.50400001928E-02 0.  1.
       -1    1    3    3    0  502 -0.53144250683E+01  0.14138807691E+04  0.11447998268E+04  0.18192453699E+04  0.50400001928E-02 0. -1.
</event>
<event>
 5   0  0.5158266E-07  0.3812812E+04  0.7818609E-02  0.8043411E-01
       -2   -1    0    0    0  501  0.00000000000E+00  0.00000000000E+00  0.14668607785E+04  0.14668607785E+04  0.25500000920E-02 0. -1.
        2   -1    0    0  501    0  0.00000000000E+00  0.00000000000E+00 -0.24776614804E+04  0.24776614804E+04  0.25500000920E-02 0.  1.
    10030    2    1    2    0    0  0.00000000000E+00  0.00000000000E+00 -0.10108007019E+04  0.39445222589E+04  0.38128123205E+04 0.  0.
        2    1    3    3  502    0  0.52120007617E+03  0.12157464472E+04  0.91486528790E+03  0.16083119842E+04  0.25500000920E-02 0. -1.
       -2    1    3    3    0  502 -0.52120007617E+03 -0.12157464472E+04 -0.19256659898E+04  0.23362102747E+04  0.25500000920E-02 0.  1.
</event>
<event>
 5   0  0.1648000E-07  0.3775263E+04  0.7818609E-02  0.8051484E-01
       -1   -1    0    0    0  501  0.00000000000E+00  0.00000000000E+00  0.13214294935E+04  0.13214294935E+04  0.50400001928E-02 0.  1.
        1   -1    0    0  501    0  0.00000000000E+00  0.00000000000E+00 -0.26964377842E+04  0.26964377842E+04  0.50400001928E-02 0. -1.
    10030    2    1    2    0    0  0.00000000000E+00  0.00000000000E+00 -0.13750082907E+04  0.40178672778E+04  0.37752628600E+04 0.  0.
        2    1    3    3  502    0  0.49778542975E+03  0.18183672189E+04 -0.78792183141E+03  0.20432989231E+04  0.25500000920E-02 0. -1.
       -2    1    3    3    0  502 -0.49778542975E+03 -0.18183672189E+04 -0.58708645930E+03  0.19745683547E+04  0.25500000920E-02 0.  1.
</event>
<event>
 5   0  0.1656617E-07  0.3754442E+04  0.7818609E-02  0.8056003E-01
       -1   -1    0    0    0  501  0.00000000000E+00  0.00000000000E+00  0.26569061679E+04  0.26569061679E+04  0.50400001928E-02 0. -1.
        1   -1    0    0  501    0  0.00000000000E+00  0.00000000000E+00 -0.13263391389E+04  0.13263391389E+04  0.50400001928E-02 0.  1.
    10030    2    1    2    0    0  0.00000000000E+00  0.00000000000E+00  0.13305670290E+04  0.39832453069E+04  0.37544419766E+04 0.  0.
        5    1    3    3  502    0  0.15321002495E+04 -0.95181294777E+03  0.11333104751E+03  0.18072479294E+04  0.46999998093E+01 0.  1.
       -5    1    3    3    0  502 -0.15321002495E+04  0.95181294777E+03  0.12172359815E+04  0.21759973775E+04  0.46999998093E+01 0. -1.
</event>
<event>
 5   0  0.5202788E-07  0.3747729E+04  0.7818609E-02  0.8057466E-01
       -2   -1    0    0    0  501  0.00000000000E+00  0.00000000000E+00  0.12511979420E+04  0.12511979420E+04  0.25500000920E-02 0.  1.
        2   -1    0    0  501    0  0.00000000000E+00  0.00000000000E+00 -0.28064048500E+04  0.28064048500E+04  0.25500000920E-02 0. -1.
    10030    2    1    2    0    0  0.00000000000E+00  0.00000000000E+00 -0.15552069080E+04  0.40576027919E+04  0.37477288977E+04 0.  0.
        1    1    3    3  502    0 -0.53940864556E+03 -0.30360629101E+03 -0.26925235958E+04  0.27627561928E+04  0.50400001928E-02 0. -1.
       -1    1    3    3    0  502  0.53940864556E+03  0.30360629101E+03  0.11373166878E+04  0.12948465991E+04  0.50400001928E-02 0.  1.
</event>
<event>
 5   0  0.5202788E-07  0.3814416E+04  0.7818609E-02  0.8043068E-01
        2   -1    0    0  501    0  0.00000000000E+00  0.00000000000E+00  0.25874654172E+04  0.25874654172E+04  0.25500000920E-02 0.  1.
       -2   -1    0    0    0  501  0.00000000000E+00  0.00000000000E+00 -0.14057932787E+04  0.14057932787E+04  0.25500000920E-02 0. -1.
    10030    2    1    2    0    0  0.00000000000E+00  0.00000000000E+00  0.11816721385E+04  0.39932586959E+04  0.38144155476E+04 0.  0.
        1    1    3    3  502    0 -0.12989421672E+03  0.18348235261E+04  0.63230792774E+02  0.18405021088E+04  0.50400001928E-02 0. -1.
       -1    1    3    3    0  502  0.12989421672E+03 -0.18348235261E+04  0.11184413457E+04  0.21527565871E+04  0.50400001928E-02 0.  1.
</event>
<event>
 5   0  0.5158266E-07  0.3774757E+04  0.7818609E-02  0.8051594E-01
       -2   -1    0    0    0  501  0.00000000000E+00  0.00000000000E+00  0.21001289837E+04  0.21001289837E+04  0.25500000920E-02 0.  1.
        2   -1    0    0  501    0  0.00000000000E+00  0.00000000000E+00 -0.16961799472E+04  0.16961799472E+04  0.25500000920E-02 0. -1.
    10030    2    1    2    0    0  0.00000000000E+00  0.00000000000E+00  0.40394903644E+03  0.37963089309E+04  0.37747565054E+04 0.  0.
        2    1    3    3  502    0  0.92898360831E+03  0.86918285640E+03  0.16041037245E+04  0.20473490521E+04  0.25500000920E-02 0.  1.
       -2    1    3    3    0  502 -0.92898360831E+03 -0.86918285640E+03 -0.12001546880E+04  0.17489598788E+04  0.25500000920E-02 0. -1.
</event>
<event>
 5   0  0.5134434E-07  0.3842268E+04  0.7818609E-02  0.8037145E-01
        2   -1    0    0  501    0  0.00000000000E+00  0.00000000000E+00  0.16656442928E+04  0.16656442928E+04  0.25500000920E-02 0.  1.
       -2   -1    0    0    0  501  0.00000000000E+00  0.00000000000E+00 -0.22158131739E+04  0.22158131740E+04  0.25500000920E-02 0. -1.
    10030    2    1    2    0    0  0.00000000000E+00  0.00000000000E+00 -0.55016888112E+03  0.38814574668E+04  0.38422683754E+04 0.  0.
        5    1    3    3  502    0 -0.16701057657E+04 -0.48278673018E+03 -0.11009793041E+04  0.20577934332E+04  0.46999998093E+01 0.  1.
       -5    1    3    3    0  502  0.16701057657E+04  0.48278673018E+03  0.55081042294E+03  0.18236640336E+04  0.46999998093E+01 0. -1.
</event>
<event>
 5   0  0.1648000E-07  0.3800021E+04  0.7818609E-02  0.8046150E-01
       -1   -1    0    0    0  501  0.00000000000E+00  0.00000000000E+00  0.26683980871E+04  0.26683980871E+04  0.50400001928E-02 0. -1.
        1   -1    0    0  501    0  0.00000000000E+00  0.00000000000E+00 -0.13528866553E+04  0.13528866553E+04  0.50400001928E-02 0.  1.
    10030    2    1    2    0    0  0.00000000000E+00  0.00000000000E+00  0.13155114319E+04  0.40212847424E+04  0.38000211384E+04 0.  0.
        4    1    3    3  502    0  0.10620657016E+04  0.26562907539E+03  0.23010755751E+04  0.25482332655E+04  0.12699999809E+01 0. -1.
       -4    1    3    3    0  502 -0.10620657016E+04 -0.26562907539E+03 -0.98556414323E+03  0.14730514769E+04  0.12699999809E+01 0.  1.
</event>
<event>
 5   0  0.5202788E-07  0.3463410E+04  0.7818609E-02  0.8122516E-01
        2   -1    0    0  501    0  0.00000000000E+00  0.00000000000E+00  0.25373026483E+04  0.25373026483E+04  0.25500000920E-02 0. -1.
       -2   -1    0    0    0  501  0.00000000000E+00  0.00000000000E+00 -0.11818857580E+04  0.11818857580E+04  0.25500000920E-02 0.  1.
    10030    2    1    2    0    0  0.00000000000E+00  0.00000000000E+00  0.13554168903E+04  0.37191884063E+04  0.34634098018E+04 0.  0.
        1    1    3    3  502    0 -0.44679697901E+03 -0.99553358816E+03  0.21216645236E+04  0.23858279520E+04  0.50400001928E-02 0. -1.
       -1    1    3    3    0  502  0.44679697901E+03  0.99553358816E+03 -0.76624763334E+03  0.13333604544E+04  0.50400001928E-02 0.  1.
</event>
<event>
 5   0  0.1648000E-07  0.3577996E+04  0.7818609E-02  0.8095551E-01
        1   -1    0    0  501    0  0.00000000000E+00  0.00000000000E+00  0.19623633510E+04  0.19623633510E+04  0.50400001928E-02 0.  1.
       -1   -1    0    0    0  501  0.00000000000E+00  0.00000000000E+00 -0.16309486673E+04  0.16309486673E+04  0.50400001928E-02 0. -1.
    10030    2    1    2    0    0  0.00000000000E+00  0.00000000000E+00  0.33141468369E+03  0.35933120183E+04  0.35779960269E+04 0.  0.
        1    1    3    3  502    0  0.10553356588E+04  0.24886881184E+03  0.15947689509E+04  0.19284597598E+04  0.50400001928E-02 0.  1.
       -1    1    3    3    0  502 -0.10553356588E+04 -0.24886881184E+03 -0.12633542672E+04  0.16648522585E+04  0.50400001928E-02 0. -1.
</event>
<event>
 5   0  0.1648000E-07  0.3775002E+04  0.7818609E-02  0.8051541E-01
        1   -1    0    0  501    0  0.00000000000E+00  0.00000000000E+00  0.25043252235E+04  0.25043252235E+04  0.50400001928E-02 0. -1.
       -1   -1    0    0    0  501  0.00000000000E+00  0.00000000000E+00 -0.14226025345E+04  0.14226025345E+04  0.50400001928E-02 0.  1.
    10030    2    1    2    0    0  0.00000000000E+00  0.00000000000E+00  0.10817226890E+04  0.39269277580E+04  0.37750016742E+04 0.  0.
        2    1    3    3  502    0  0.14175742388E+03  0.11523965878E+04 -0.10071642974E+04  0.15370403329E+04  0.25500000920E-02 0.  1.
       -2    1    3    3    0  502 -0.14175742388E+03 -0.11523965878E+04  0.20888869864E+04  0.23898874251E+04  0.25500000920E-02 0. -1.
</event>
<event>
 5   0  0.1648000E-07  0.3773255E+04  0.7818609E-02  0.8051919E-01
        1   -1    0    0  501    0  0.00000000000E+00  0.00000000000E+00  0.27548921193E+04  0.27548921193E+04  0.50400001928E-02 0.  1.
       -1   -1    0    0    0  501  0.00000000000E+00  0.00000000000E+00 -0.12920157673E+04  0.12920157673E+04  0.50400001928E-02 0. -1.
    10030    2    1    2    0    0  0.00000000000E+00  0.00000000000E+00  0.14628763520E+04  0.40469078866E+04  0.37732553878E+04 0.  0.
        1    1    3    3  502    0  0.11905767389E+04  0.13246088933E+04  0.63967497471E+02  0.17821766277E+04  0.50400001928E-02 0. -1.
       -1    1    3    3    0  502 -0.11905767389E+04 -0.13246088933E+04  0.13989088546E+04  0.22647312589E+04  0.50400001928E-02 0.  1.
</event>
<event>
 5   0  0.1656617E-07  0.3825232E+04  0.7818609E-02  0.8040762E-01
       -1   -1    0    0    0  501  0.00000000000E+00  0.00000000000E+00  0.15487980516E+04  0.15487980516E+04  0.50400001928E-02 0.  1.
        1   -1    0    0  501    0  0.00000000000E+00  0.00000000000E+00 -0.23618955031E+04  0.23618955031E+04  0.50400001928E-02 0. -1.
    10030    2    1    2    0    0  0.00000000000E+00  0.00000000000E+00 -0.81309745149E+03  0.39106935548E+04  0.38252315765E+04 0.  0.
        5    1    3    3  502    0 -0.17789264612E+04  0.67511767082E+03 -0.20800945182E+03  0.19140671999E+04  0.46999998093E+01 0.  1.
       -5    1    3    3    0  502  0.17789264612E+04 -0.67511767082E+03 -0.60508799967E+03  0.19966263549E+04  0.46999998093E+01 0. -1.
</event>
<event>
 5   0  0.1648000E-07  0.3773639E+04  0.7818609E-02  0.8051836E-01
       -1   -1    0    0    0  501  0.00000000000E+00  0.00000000000E+00  0.27788082793E+04  0.27788082793E+04  0.50400001928E-02 0. -1.
        1   -1    0    0  501    0  0.00000000000E+00  0.00000000000E+00 -0.12811564337E+04  0.12811564337E+04  0.50400001928E-02 0.  1.
    10030    2    1    2    0    0  0.00000000000E+00  0.00000000000E+00  0.14976518456E+04  0.40599647130E+04  0.37736391481E+04 0.  0.
        2    1    3    3  502    0 -0.10463664422E+04 -0.83388767319E+03  0.21801187382E+04  0.25579619027E+04  0.25500000920E-02 0. -1.
       -2    1    3    3    0  502  0.10463664422E+04  0.83388767319E+03 -0.68246689253E+03  0.15020028104E+04  0.25500000920E-02 0.  1.
</event>
<event>
 5   0  0.5202788E-07  0.3743760E+04  0.7818609E-02  0.8058333E-01
        2   -1    0    0  501    0  0.00000000000E+00  0.00000000000E+00  0.10976165153E+04  0.10976165153E+04  0.25500000920E-02 0.  1.
       -2   -1    0    0    0  501  0.00000000000E+00  0.00000000000E+00 -0.31923131053E+04  0.31923131053E+04  0.25500000920E-02 0. -1.
    10030    2    1    2    0    0  0.00000000000E+00  0.00000000000E+00 -0.20946965901E+04  0.42899296206E+04  0.37437604551E+04 0.  0.
        1    1    3    3  502    0  0.12890089562E+04  0.85020242855E+03 -0.22597969150E+04  0.27369819795E+04  0.50400001928E-02 0. -1.
       -1    1    3    3    0  502 -0.12890089562E+04 -0.85020242855E+03  0.16510032498E+03  0.15529476411E+04  0.50400001928E-02 0.  1.
</event>
<event>
 5   0  0.5132561E-07  0.3476540E+04  0.7818609E-02  0.8119372E-01
       -2   -1    0    0    0  501  0.00000000000E+00  0.00000000000E+00  0.12865618166E+04  0.12865618166E+04  0.25500000920E-02 0.  1.
        2   -1    0    0  501    0  0.00000000000E+00  0.00000000000E+00 -0.23485717135E+04  0.23485717135E+04  0.25500000920E-02 0. -1.
    10030    2    1    2    0    0  0.00000000000E+00  0.00000000000E+00 -0.10620098970E+04  0.36351335301E+04  0.34765400559E+04 0.  0.
        3    1    3    3  502    0  0.16277982992E+04 -0.44950113732E+03 -0.10013399000E+03  0.16916871465E+04  0.10100000352E+00 0.  1.
       -3    1    3    3    0  502 -0.16277982992E+04  0.44950113732E+03 -0.96187590697E+03  0.19434463836E+04  0.10100000352E+00 0. -1.
</event>
<event>
 5   0  0.1648000E-07  0.3846044E+04  0.7818609E-02  0.8036345E-01
       -1   -1    0    0    0  501  0.00000000000E+00  0.00000000000E+00  0.13994561255E+04  0.13994561256E+04  0.50400001928E-02 0. -1.
        1   -1    0    0  501    0  0.00000000000E+00  0.00000000000E+00 -0.26424653799E+04  0.26424653799E+04  0.50400001928E-02 0.  1.
    10030    2    1    2    0    0  0.00000000000E+00  0.00000000000E+00 -0.12430092543E+04  0.40419215054E+04  0.38460443900E+04 0.  0.
        1    1    3    3  502    0  0.15116430146E+04 -0.21661418262E+03 -0.18498016300E+04  0.23986980590E+04  0.50400001928E-02 0.  1.
       -1    1    3    3    0  502 -0.15116430146E+04  0.21661418262E+03  0.60679237569E+03  0.16432234464E+04  0.50400001928E-02 0. -1.
</event>
<event>
 5   0  0.1648000E-07  0.3856537E+04  0.7818609E-02  0.8034130E-01
       -1   -1    0    0    0  501  0.00000000000E+00  0.00000000000E+00  0.30249366715E+04  0.30249366715E+04  0.50400001928E-02 0. -1.
        1   -1    0    0  501    0  0.00000000000E+00  0.00000000000E+00 -0.12291888853E+04  0.12291888853E+04  0.50400001928E-02 0.  1.
    10030    2    1    2    0    0  0.00000000000E+00  0.00000000000E+00  0.17957477862E+04  0.42541255569E+04  0.38565365475E+04 0.  0.
        2    1    3    3  502    0 -0.13707507414E+04 -0.49190241329E+03 -0.49626210216E+03  0.15385713027E+04  0.25500000920E-02 0.  1.
       -2    1    3    3    0  502  0.13707507414E+04  0.49190241329E+03  0.22920098883E+04  0.27155542542E+04  0.25500000920E-02 0. -1.
</event>
<event>
 5   0  0.1648000E-07  0.3818400E+04  0.7818609E-02  0.8042218E-01
       -1   -1    0    0    0  501  0.00000000000E+00  0.00000000000E+00  0.22074544361E+04  0.22074544361E+04  0.50400001928E-02 0. -1.
        1   -1    0    0  501    0  0.00000000000E+00  0.00000000000E+00 -0.16512431572E+04  0.16512431573E+04  0.50400001928E-02 0.  1.
    10030    2    1    2    0    0  0.00000000000E+00  0.00000000000E+00  0.55621127888E+03  0.38586975934E+04  0.38183996819E+04 0.  0.
        1    1    3    3  502    0 -0.13451461588E+03 -0.12196511445E+04  0.17562111966E+04  0.21424100596E+04  0.50400001928E-02 0. -1.
       -1    1    3    3    0  502  0.13451461588E+03  0.12196511445E+04 -0.11999999178E+04  0.17162875338E+04  0.50400001928E-02 0.  1.
</event>
<event>
 5   0  0.1648000E-07  0.3969235E+04  0.7818609E-02  0.8010782E-01
        1   -1    0    0  501    0  0.00000000000E+00  0.00000000000E+00  0.23533593286E+04  0.23533593286E+04  0.50400001928E-02 0. -1.
       -1   -1    0    0    0  501  0.00000000000E+00  0.00000000000E+00 -0.16736528450E+04  0.16736528450E+04  0.50400001928E-02 0.  1.
    10030    2    1    2    0    0  0.00000000000E+00  0.00000000000E+00  0.67970648360E+03  0.40270121736E+04  0.39692349568E+04 0.  0.
        4    1    3    3  502    0 -0.12632339131E+04 -0.16154548237E+03 -0.12044227218E+04  0.17528526942E+04  0.12699999809E+01 0.  1.
       -4    1    3    3    0  502  0.12632339131E+04  0.16154548237E+03  0.18841292054E+04  0.22741594793E+04  0.12699999809E+01 0. -1.
</event>
<event>
 5   0  0.1648000E-07  0.3796764E+04  0.7818609E-02  0.8046850E-01
       -1   -1    0    0    0  501  0.00000000000E+00  0.00000000000E+00  0.12443276334E+04  0.12443276334E+04  0.50400001928E-02 0.  1.
        1   -1    0    0  501    0  0.00000000000E+00  0.00000000000E+00 -0.28962259033E+04  0.28962259033E+04  0.50400001928E-02 0. -1.
    10030    2    1    2    0    0  0.00000000000E+00  0.00000000000E+00 -0.16518982700E+04  0.41405535367E+04  0.37967638452E+04 0.  0.
        3    1    3    3  502    0 -0.19368258617E+03 -0.73381195301E+03 -0.27235845865E+04  0.28273496311E+04  0.10100000352E+00 0. -1.
       -3    1    3    3    0  502  0.19368258617E+03  0.73381195301E+03  0.10716863165E+04  0.13132039056E+04  0.10100000352E+00 0.  1.
</event>
<event>
 5   0  0.5202788E-07  0.3726169E+04  0.7818609E-02  0.8062187E-01
       -2   -1    0    0    0  501  0.00000000000E+00  0.00000000000E+00  0.13320297396E+04  0.13320297396E+04  0.25500000920E-02 0.  1.
        2   -1    0    0  501    0  0.00000000000E+00  0.00000000000E+00 -0.26058612709E+04  0.26058612709E+04  0.25500000920E-02 0. -1.
    10030    2    1    2    0    0  0.00000000000E+00  0.00000000000E+00 -0.12738315313E+04  0.39378910104E+04  0.37261694594E+04 0.  0.
        1    1    3    3  502    0  0.11658076700E+03  0.38167112871E+03 -0.25601602858E+04  0.25910778867E+04  0.50400001928E-02 0. -1.
       -1    1    3    3    0  502 -0.11658076700E+03 -0.38167112871E+03  0.12863287545E+04  0.13468131238E+04  0.50400001928E-02 0.  1.
</event>
<event>
 5   0  0.1656617E-07  0.3828505E+04  0.7818609E-02  0.8040065E-01
       -1   -1    0    0    0  501  0.00000000000E+00  0.00000000000E+00  0.14294023488E+04  0.14294023488E+04  0.50400001928E-02 0.  1.
        1   -1    0    0  501    0  0.00000000000E+00  0.00000000000E+00 -0.25635631377E+04  0.25635631377E+04  0.50400001928E-02 0. -1.
    10030    2    1    2    0    0  0.00000000000E+00  0.00000000000E+00 -0.11341607889E+04  0.39929654865E+04  0.38285052803E+04 0.  0.
        5    1    3    3  502    0  0.29060859626E+03  0.18505452734E+04 -0.15597822315E+03  0.18797133986E+04  0.46999998093E+01 0. -1.
       -5    1    3    3    0  502 -0.29060859626E+03 -0.18505452734E+04 -0.97818256571E+03  0.21132520878E+04  0.46999998093E+01 0.  1.
</event>
<event>
 5   0  0.5158266E-07  0.3513434E+04  0.7818609E-02  0.8110614E-01
       -2   -1    0    0    0  501  0.00000000000E+00  0.00000000000E+00  0.15667990668E+04  0.15667990668E+04  0.25500000920E-02 0. -1.
        2   -1    0    0  501    0  0.00000000000E+00  0.00000000000E+00 -0.19696561368E+04  0.19696561368E+04  0.25500000920E-02 0.  1.
    10030    2    1    2    0    0  0.00000000000E+00  0.00000000000E+00 -0.40285707003E+03  0.35364552036E+04  0.35134344434E+04 0.  0.
        2    1    3    3  502    0  0.17506889359E+04 -0.12865405665E+03 -0.26963520764E+03  0.17759973992E+04  0.25500000920E-02 0. -1.
       -2    1    3    3    0  502 -0.17506889359E+04  0.12865405665E+03 -0.13322186239E+03  0.17604578044E+04  0.25500000920E-02 0.  1.
</event>
<event>
 5   0  0.1648000E-07  0.3771975E+04  0.7818609E-02  0.8052196E-01
        1   -1    0    0  501    0  0.00000000000E+00  0.00000000000E+00  0.14608037953E+04  0.14608037953E+04  0.50400001928E-02 0. -1.
       -1   -1    0    0    0  501  0.00000000000E+00  0.00000000000E+00 -0.24349259843E+04  0.24349259843E+04  0.50400001928E-02 0.  1.
    10030    2    1    2    0    0  0.00000000000E+00  0.00000000000E+00 -0.97412218903E+03  0.38957297796E+04  0.37719751426E+04 0.  0.
        4    1    3    3  502    0 -0.10804342654E+04 -0.13963637449E+04 -0.11719758992E+04  0.21191269502E+04  0.12699999809E+01 0.  1.
       -4    1    3    3    0  502  0.10804342654E+04  0.13963637449E+04  0.19785371017E+03  0.17766028294E+04  0.12699999809E+01 0. -1.
</event>
<event>
 5   0  0.5132561E-07  0.3032665E+04  0.7818609E-02  0.8234464E-01
       -2   -1    0    0    0  501  0.00000000000E+00  0.00000000000E+00  0.14437295917E+04  0.14437295917E+04  0.25500000920E-02 0.  1.
        2   -1    0    0  501    0  0.00000000000E+00  0.00000000000E+00 -0.15925863735E+04  0.15925863735E+04  0.25500000920E-02 0. -1.
    10030    2    1    2    0    0  0.00000000000E+00  0.00000000000E+00 -0.14885678179E+03  0.30363159653E+04  0.30326648841E+04 0.  0.
        3    1    3    3  502    0  0.10785717564E+03 -0.22278071594E+03 -0.15722239807E+04  0.15915880979E+04  0.10100000352E+00 0. -1.
       -3    1    3    3    0  502 -0.10785717564E+03  0.22278071594E+03  0.14233671989E+04  0.14447278674E+04  0.10100000352E+00 0.  1.
</event>
<event>
 5   0  0.1648000E-07  0.3825043E+04  0.7818609E-02  0.8040802E-01
        1   -1    0    0  501    0  0.00000000000E+00  0.00000000000E+00  0.26873605064E+04  0.26873605064E+04  0.50400001928E-02 0. -1.
       -1   -1    0    0    0  501  0.00000000000E+00  0.00000000000E+00 -0.13610896401E+04  0.13610896401E+04  0.50400001928E-02 0.  1.
    10030    2    1    2    0    0  0.00000000000E+00  0.00000000000E+00  0.13262708663E+04  0.40484501465E+04  0.38250430296E+04 0.  0.
        1    1    3    3  502    0 -0.95963696104E+03  0.10681969342E+04  0.20001632512E+04  0.24622349235E+04  0.50400001928E-02 0. -1.
       -1    1    3    3    0  502  0.95963696104E+03 -0.10681969342E+04 -0.67389238491E+03  0.15862152230E+04  0.50400001928E-02 0.  1.
</event>
<event>
 5   0  0.5132561E-07  0.3771900E+04  0.7818609E-02  0.8052212E-01
        2   -1    0    0  501    0  0.00000000000E+00  0.00000000000E+00  0.21450626978E+04  0.21450626978E+04  0.25500000920E-02 0.  1.
       -2   -1    0    0    0  501  0.00000000000E+00  0.00000000000E+00 -0.16581370727E+04  0.16581370727E+04  0.25500000920E-02 0. -1.
    10030    2    1    2    0    0  0.00000000000E+00  0.00000000000E+00  0.48692562509E+03  0.38031997705E+04  0.37719003076E+04 0.  0.
        3    1    3    3  502    0 -0.30956535386E+03  0.12044083484E+04  0.16731063710E+04  0.20846378862E+04  0.10100000352E+00 0.  1.
       -3    1    3    3    0  502  0.30956535386E+03 -0.12044083484E+04 -0.11861807459E+04  0.17185618843E+04  0.10100000352E+00 0. -1.
</event>
<event>
 5   0  0.1648000E-07  0.3830805E+04  0.7818609E-02  0.8039576E-01
        1   -1    0    0  501    0  0.00000000000E+00  0.00000000000E+00  0.29554579721E+04  0.29554579721E+04  0.50400001928E-02 0.  1.
       -1   -1    0    0    0  501  0.00000000000E+00  0.00000000000E+00 -0.12413533363E+04  0.12413533363E+04  0.50400001928E-02 0. -1.
    10030    2    1    2    0    0  0.00000000000E+00  0.00000000000E+00  0.17141046358E+04  0.41968113083E+04  0.38308054578E+04 0.  0.
        3    1    3    3  502    0  0.12349310416E+04  0.14355585221E+04  0.11724557497E+04  0.22272259524E+04  0.10100000352E+00 0.  1.
       -3    1    3    3    0  502 -0.12349310416E+04 -0.14355585221E+04  0.54164888615E+03  0.19695853559E+04  0.10100000352E+00 0. -1.
</event>
<event>
 5   0  0.1656617E-07  0.3884190E+04  0.7818609E-02  0.8028325E-01
       -1   -1    0    0    0  501  0.00000000000E+00  0.00000000000E+00  0.20046396872E+04  0.20046396872E+04  0.50400001928E-02 0.  1.
        1   -1    0    0  501    0  0.00000000000E+00  0.00000000000E+00 -0.18815015103E+04  0.18815015103E+04  0.50400001928E-02 0. -1.
    10030    2    1    2    0    0  0.00000000000E+00  0.00000000000E+00  0.12313817696E+03  0.38861411975E+04  0.38841897992E+04 0.  0.
        5    1    3    3  502    0  0.15297368958E+04  0.72607189803E+03  0.10130648234E+04  0.19732201595E+04  0.46999998093E+01 0.  1.
       -5    1    3    3    0  502 -0.15297368958E+04 -0.72607189803E+03 -0.88992664641E+03  0.19129210380E+04  0.46999998093E+01 0. -1.
</event>
<event>
 5   0  0.1648000E-07  0.3779764E+04  0.7818609E-02  0.8050511E-01
        1   -1    0    0  501    0  0.00000000000E+00  0.00000000000E+00  0.21003685563E+04  0.21003685563E+04  0.50400001928E-02 0. -1.
       -1   -1    0    0    0  501  0.00000000000E+00  0.00000000000E+00 -0.17004890133E+04  0.17004890133E+04  0.50400001928E-02 0.  1.
    10030    2    1    2    0    0  0.00000000000E+00  0.00000000000E+00  0.39987954295E+03  0.38008575696E+04  0.37797638307E+04 0.  0.
        3    1    3    3  502    0  0.17377286240E+03  0.14902536186E+04 -0.95564738603E+03  0.17788520996E+04  0.10100000352E+00 0.  1.
       -3    1    3    3    0  502 -0.17377286240E+03 -0.14902536186E+04  0.13555269290E+04  0.20220054700E+04  0.10100000352E+00 0. -1.
</event>
<event>
 5   0  0.5134434E-07  0.3808563E+04  0.7818609E-02  0.8044320E-01
        2   -1    0    0  501    0  0.00000000000E+00  0.00000000000E+00  0.18832069102E+04  0.18832069102E+04  0.25500000920E-02 0.  1.
       -2   -1    0    0    0  501  0.00000000000E+00  0.00000000000E+00 -0.19255922972E+04  0.19255922972E+04  0.25500000920E-02 0. -1.
    10030    2    1    2    0    0  0.00000000000E+00  0.00000000000E+00 -0.42385387015E+02  0.38087992075E+04  0.38085633619E+04 0.  0.
        5    1    3    3  502    0 -0.12678616949E+04 -0.24849435358E+03 -0.14202231782E+04  0.19199684078E+04  0.46999998093E+01 0. -1.
       -5    1    3    3    0  502  0.12678616949E+04  0.24849435358E+03  0.13778377912E+04  0.18888307997E+04  0.46999998093E+01 0.  1.
</event>
<event>
 5   0  0.5202788E-07  0.3812287E+04  0.7818609E-02  0.8043523E-01
        2   -1    0    0  501    0  0.00000000000E+00  0.00000000000E+00  0.25361933520E+04  0.25361933520E+04  0.25500000920E-02 0. -1.
       -2   -1    0    0    0  501  0.00000000000E+00  0.00000000000E+00 -0.14326126050E+04  0.14326126050E+04  0.25500000920E-02 0.  1.
    10030    2    1    2    0    0  0.00000000000E+00  0.00000000000E+00  0.11035807469E+04  0.39688059570E+04  0.38122867493E+04 0.  0.
        1    1    3    3  502    0  0.89794320111E+03 -0.17686780828E+02 -0.11985373444E+04  0.14977004309E+04  0.50400001928E-02 0.  1.
       -1    1    3    3    0  502 -0.89794320111E+03  0.17686780828E+02  0.23021180913E+04  0.24711055261E+04  0.50400001928E-02 0. -1.
</event>
<event>
 5   0  0.5202788E-07  0.3702030E+04  0.7818609E-02  0.8067512E-01
        2   -1    0    0  501    0  0.00000000000E+00  0.00000000000E+00  0.24956008636E+04  0.24956008636E+04  0.25500000920E-02 0. -1.
       -2   -1    0    0    0  501  0.00000000000E+00  0.00000000000E+00 -0.13729187255E+04  0.13729187255E+04  0.25500000920E-02 0.  1.
    10030    2    1    2    0    0  0.00000000000E+00  0.00000000000E+00  0.11226821381E+04  0.38685195890E+04  0.37020303386E+04 0.  0.
        1    1    3    3  502    0  0.19938875363E+03 -0.85529437702E+03  0.22640282475E+04  0.24283962304E+04  0.50400001928E-02 0. -1.
       -1    1    3    3    0  502 -0.19938875363E+03  0.85529437702E+03 -0.11413461094E+04  0.14401233586E+04  0.50400001928E-02 0.  1.
</event>
<event>
 5   0  0.1648000E-07  0.3778126E+04  0.7818609E-02  0.8050865E-01
        1   -1    0    0  501    0  0.00000000000E+00  0.00000000000E+00  0.16738492007E+04  0.16738492007E+04  0.50400001928E-02 0.  1.
       -1   -1    0    0    0  501  0.00000000000E+00  0.00000000000E+00 -0.21319480879E+04  0.21319480880E+04  0.50400001928E-02 0. -1.
    10030    2    1    2    0    0  0.00000000000E+00  0.00000000000E+00 -0.45809888725E+03  0.38057972887E+04  0.37781263097E+04 0.  0.
        2    1    3    3  502    0  0.90170367304E+03  0.11122763857E+04 -0.14702799936E+04  0.20523039570E+04  0.25500000920E-02 0. -1.
       -2    1    3    3    0  502 -0.90170367304E+03 -0.11122763857E+04  0.10121811063E+04  0.17534933317E+04  0.25500000920E-02 0.  1.
</event>
<event>
 5   0  0.1648000E-07  0.2875260E+04  0.7818609E-02  0.8280276E-01
        4   -1    0    0  501    0  0.00000000000E+00  0.00000000000E+00  0.10769036885E+04  0.10769044374E+04  0.12699999809E+01 0. -1.
       -4   -1    0    0    0  501  0.00000000000E+00  0.00000000000E+00 -0.19191862983E+04  0.19191867185E+04  0.12699999809E+01 0.  1.
    10030    2    1    2    0    0  0.00000000000E+00  0.00000000000E+00 -0.84228260981E+03  0.29960911559E+04  0.28752603742E+04 0.  0.
        3    1    3    3  502    0  0.13727847011E+04  0.37895408831E+03 -0.21631922247E+03  0.14404645268E+04  0.10100000352E+00 0. -1.
       -3    1    3    3    0  502 -0.13727847011E+04 -0.37895408831E+03 -0.62596338734E+03  0.15556266291E+04  0.10100000352E+00 0.  1.
</event>
<event>
 5   0  0.5158266E-07  0.3900978E+04  0.7818609E-02  0.8024826E-01
        2   -1    0    0  501    0  0.00000000000E+00  0.00000000000E+00  0.24030822568E+04  0.24030822568E+04  0.25500000920E-02 0.  1.
       -2   -1    0    0    0  501  0.00000000000E+00  0.00000000000E+00 -0.15831362293E+04  0.15831362293E+04  0.25500000920E-02 0. -1.
    10030    2    1    2    0    0  0.00000000000E+00  0.00000000000E+00  0.81994602742E+03  0.39862184861E+04  0.39009776122E+04 0.  0.
        2    1    3    3  502    0  0.13726430181E+04  0.13417914910E+04  0.56209792485E+02  0.19203418448E+04  0.25500000920E-02 0.  1.
       -2    1    3    3    0  502 -0.13726430181E+04 -0.13417914910E+04  0.76373623494E+03  0.20658766412E+04  0.25500000920E-02 0. -1.
</event>
<event>
 5   0  0.1656617E-07  0.3710754E+04  0.7818609E-02  0.8065583E-01
        1   -1    0    0  501    0  0.00000000000E+00  0.00000000000E+00  0.19283753441E+04  0.19283753441E+04  0.50400001928E-02 0. -1.
       -1   -1    0    0    0  501  0.00000000000E+00  0.00000000000E+00 -0.17851416924E+04  0.17851416924E+04  0.50400001928E-02 0.  1.
    10030    2    1    2    0    0  0.00000000000E+00  0.00000000000E+00  0.14323365167E+03  0.37135170365E+04  0.37107536838E+04 0.  0.
        5    1    3    3  502    0  0.41535423021E+03  0.11360200202E+04 -0.13363212380E+04  0.18024530961E+04  0.46999998093E+01 0.  1.
       -5    1    3    3    0  502 -0.41535423021E+03 -0.11360200202E+04  0.14795548896E+04  0.19110639404E+04  0.46999998093E+01 0. -1.
</event>
<event>
 5   0  0.1648000E-07  0.2743505E+04  0.7818609E-02  0.8321026E-01
        1   -1    0    0  501    0  0.00000000000E+00  0.00000000000E+00  0.19924166331E+04  0.19924166331E+04  0.50400001928E-02 0. -1.
       -1   -1    0    0    0  501  0.00000000000E+00  0.00000000000E+00 -0.94443362143E+03  0.94443362144E+03  0.50400001928E-02 0.  1.
    10030    2    1    2    0    0  0.00000000000E+00  0.00000000000E+00  0.10479830117E+04  0.29368502545E+04  0.27435052442E+04 0.  0.
        4    1    3    3  502    0 -0.12414101753E+04 -0.72277117582E+02 -0.95941661366E+02  0.12472087317E+04  0.12699999809E+01 0.  1.
       -4    1    3    3    0  502  0.12414101753E+04  0.72277117582E+02  0.11439246730E+04  0.16896415228E+04  0.12699999809E+01 0. -1.
</event>
<event>
 5   0  0.1648000E-07  0.3826884E+04  0.7818609E-02  0.8040410E-01
        1   -1    0    0  501    0  0.00000000000E+00  0.00000000000E+00  0.31158572841E+04  0.31158572841E+04  0.50400001928E-02 0. -1.
       -1   -1    0    0    0  501  0.00000000000E+00  0.00000000000E+00 -0.11750410494E+04  0.11750410494E+04  0.50400001928E-02 0.  1.
    10030    2    1    2    0    0  0.00000000000E+00  0.00000000000E+00  0.19408162347E+04  0.42908983336E+04  0.38268839611E+04 0.  0.
        3    1    3    3  502    0  0.18043916085E+04 -0.63517556329E+03  0.92047617080E+03  0.21228644479E+04  0.10100000352E+00 0.  1.
       -3    1    3    3    0  502 -0.18043916085E+04  0.63517556329E+03  0.10203400639E+04  0.21680338856E+04  0.10100000352E+00 0. -1.
</event>
<event>
 5   0  0.1656617E-07  0.3804983E+04  0.7818609E-02  0.8045086E-01
        1   -1    0    0  501    0  0.00000000000E+00  0.00000000000E+00  0.13162621693E+04  0.13162621693E+04  0.50400001928E-02 0.  1.
       -1   -1    0    0    0  501  0.00000000000E+00  0.00000000000E+00 -0.27498124376E+04  0.27498124376E+04  0.50400001928E-02 0. -1.
    10030    2    1    2    0    0  0.00000000000E+00  0.00000000000E+00 -0.14335502683E+04  0.40660746068E+04  0.38049830928E+04 0.  0.
        5    1    3    3  502    0 -0.30314420800E+03  0.34553080096E+03  0.12560239481E+04  0.13374999788E+04  0.46999998093E+01 0.  1.
       -5    1    3    3    0  502  0.30314420800E+03 -0.34553080096E+03 -0.26895742164E+04  0.27285746280E+04  0.46999998093E+01 0. -1.
</event>
<event>
 5   0  0.5158266E-07  0.3791183E+04  0.7818609E-02  0.8048050E-01
        2   -1    0    0  501    0  0.00000000000E+00  0.00000000000E+00  0.26199770318E+04  0.26199770318E+04  0.25500000920E-02 0. -1.
       -2   -1    0    0    0  501  0.00000000000E+00  0.00000000000E+00 -0.13714877866E+04  0.13714877866E+04  0.25500000920E-02 0.  1.
    10030    2    1    2    0    0  0.00000000000E+00  0.00000000000E+00  0.12484892451E+04  0.39914648184E+04  0.37911826653E+04 0.  0.
        2    1    3    3  502    0 -0.10613462051E+03  0.17266612588E+04  0.14401987581E+04  0.22509544916E+04  0.25500000920E-02 0. -1.
       -2    1    3    3    0  502  0.10613462051E+03 -0.17266612588E+04 -0.19170951300E+03  0.17405103268E+04  0.25500000920E-02 0.  1.
</event>
<event>
 5   0  0.5158266E-07  0.3799027E+04  0.7818609E-02  0.8046364E-01
        2   -1    0    0  501    0  0.00000000000E+00  0.00000000000E+00  0.19313820245E+04  0.19313820245E+04  0.25500000920E-02 0.  1.
       -2   -1    0    0    0  501  0.00000000000E+00  0.00000000000E+00 -0.18681707566E+04  0.18681707566E+04  0.25500000920E-02 0. -1.
    10030    2    1    2    0    0  0.00000000000E+00  0.00000000000E+00  0.63211267963E+02  0.37995527811E+04  0.37990269375E+04 0.  0.
        2    1    3    3  502    0 -0.62790248651E+03  0.17872202169E+04 -0.10889078997E+03  0.18974390215E+04  0.25500000920E-02 0.  1.
       -2    1    3    3    0  502  0.62790248651E+03 -0.17872202169E+04  0.17210205794E+03  0.19021137596E+04  0.25500000920E-02 0. -1.
</event>
<event>
 5   0  0.1648000E-07  0.3396567E+04  0.7818609E-02  0.8138749E-01
       -1   -1    0    0    0  501  0.00000000000E+00  0.00000000000E+00  0.12840067248E+04  0.12840067248E+04  0.50400001928E-02 0. -1.
        1   -1    0    0  501    0  0.00000000000E+00  0.00000000000E+00 -0.22462245778E+04  0.22462245778E+04  0.50400001928E-02 0.  1.
    10030    2    1    2    0    0  0.00000000000E+00  0.00000000000E+00 -0.96221785304E+03  0.35302313026E+04  0.33965673632E+04 0.  0.
        4    1    3    3  502    0  0.58888591932E+02  0.16787719789E+04 -0.22143164851E+03  0.16943366877E+04  0.12699999809E+01 0. -1.
       -4    1    3    3    0  502 -0.58888591932E+02 -0.16787719789E+04 -0.74078620453E+03  0.18358946149E+04  0.12699999809E+01 0.  1.
</event>
<event>
 5   0  0.1648000E-07  0.2721349E+04  0.7818609E-02  0.8328111E-01
       -1   -1    0    0    0  501  0.00000000000E+00  0.00000000000E+00  0.77466976133E+03  0.77466976135E+03  0.50400001928E-02 0.  1.
        1   -1    0    0  501    0  0.00000000000E+00  0.00000000000E+00 -0.23899674620E+04  0.23899674620E+04  0.50400001928E-02 0. -1.
    10030    2    1    2    0    0  0.00000000000E+00  0.00000000000E+00 -0.16152977007E+04  0.31646372234E+04  0.27213493149E+04 0.  0.
        1    1    3    3  502    0 -0.36664231401E+03 -0.15615104082E+03  0.70528561737E+03  0.81008489436E+03  0.50400001928E-02 0.  1.
       -1    1    3    3    0  502  0.36664231401E+03  0.15615104082E+03 -0.23205833180E+04  0.23545523290E+04  0.50400001928E-02 0. -1.
</event>
<event>
 5   0  0.1648000E-07  0.3824769E+04  0.7818609E-02  0.8040860E-01
        1   -1    0    0  501    0  0.00000000000E+00  0.00000000000E+00  0.18451074034E+04  0.18451074034E+04  0.50400001928E-02 0.  1.
       -1   -1    0    0    0  501  0.00000000000E+00  0.00000000000E+00 -0.19821146789E+04  0.19821146789E+04  0.50400001928E-02 0. -1.
    10030    2    1    2    0    0  0.00000000000E+00  0.00000000000E+00 -0.13700727548E+03  0.38272220823E+04  0.38247689961E+04 0.  0.
        1    1    3    3  502    0 -0.13610138175E+04  0.28508793304E+03  0.12451905188E+04  0.18665832875E+04  0.50400001928E-02 0.  1.
       -1    1    3    3    0  502  0.13610138175E+04 -0.28508793304E+03 -0.13821977943E+04  0.19606387948E+04  0.50400001928E-02 0. -1.
</event>
<event>
 5   0  0.1656617E-07  0.3401959E+04  0.7818609E-02  0.8137426E-01
        1   -1    0    0  501    0  0.00000000000E+00  0.00000000000E+00  0.28023807173E+04  0.28023807173E+04  0.50400001928E-02 0. -1.
       -1   -1    0    0    0  501  0.00000000000E+00  0.00000000000E+00 -0.10324548571E+04  0.10324548572E+04  0.50400001928E-02 0.  1.
    10030    2    1    2    0    0  0.00000000000E+00  0.00000000000E+00  0.17699258601E+04  0.38348355744E+04  0.34019591903E+04 0.  0.
        5    1    3    3  502    0  0.18965808296E+03 -0.13229358629E+04  0.20710778408E+04  0.24648559792E+04  0.46999998093E+01 0. -1.
       -5    1    3    3    0  502 -0.18965808296E+03  0.13229358629E+04 -0.30115198069E+03  0.13699795952E+04  0.46999998093E+01 0.  1.
</event>
<event>
 5   0  0.5202788E-07  0.3655160E+04  0.7818609E-02  0.8077972E-01
       -2   -1    0    0    0  501  0.00000000000E+00  0.00000000000E+00  0.14689710739E+04  0.14689710739E+04  0.25500000920E-02 0. -1.
        2   -1    0    0  501    0  0.00000000000E+00  0.00000000000E+00 -0.22737333763E+04  0.22737333763E+04  0.25500000920E-02 0.  1.
    10030    2    1    2    0    0  0.00000000000E+00  0.00000000000E+00 -0.80476230238E+03  0.37427044503E+04  0.36551599471E+04 0.  0.
        1    1    3    3  502    0 -0.55224702255E+02 -0.10745440138E+04 -0.19150426127E+04  0.21966071141E+04  0.50400001928E-02 0.  1.
       -1    1    3    3    0  502  0.55224702255E+02  0.10745440138E+04  0.11102803103E+04  0.15460973361E+04  0.50400001928E-02 0. -1.
</event>
<event>
 5   0  0.5132561E-07  0.4084100E+04  0.7818609E-02  0.7987792E-01
       -2   -1    0    0    0  501  0.00000000000E+00  0.00000000000E+00  0.32917895938E+04  0.32917895938E+04  0.25500000920E-02 0. -1.
        2   -1    0    0  501    0  0.00000000000E+00  0.00000000000E+00 -0.12667786583E+04  0.12667786583E+04  0.25500000920E-02 0.  1.
    10030    2    1    2    0    0  0.00000000000E+00  0.00000000000E+00  0.20250109356E+04  0.45585682521E+04  0.40841002950E+04 0.  0.
        3    1    3    3  502    0  0.33388379171E+03  0.15912920479E+04  0.23914575449E+04  0.28918433511E+04  0.10100000352E+00 0.  1.
       -3    1    3    3    0  502 -0.33388379171E+03 -0.15912920479E+04 -0.36644660934E+03  0.16667249010E+04  0.10100000352E+00 0. -1.
</event>
<event>
 5   0  0.5202788E-07  0.3797700E+04  0.7818609E-02  0.8046649E-01
       -2   -1    0    0    0  501  0.00000000000E+00  0.00000000000E+00  0.15751828043E+04  0.15751828043E+04  0.25500000920E-02 0. -1.
        2   -1    0    0  501    0  0.00000000000E+00  0.00000000000E+00 -0.22890243867E+04  0.22890243867E+04  0.25500000920E-02 0.  1.
    10030    2    1    2    0    0  0.00000000000E+00  0.00000000000E+00 -0.71384158239E+03  0.38642071909E+04  0.37977002791E+04 0.  0.
        1    1    3    3  502    0 -0.22498672804E+03  0.18854630161E+04 -0.35032346519E+03  0.19308848602E+04  0.50400001928E-02 0. -1.
       -1    1    3    3    0  502  0.22498672804E+03 -0.18854630161E+04 -0.36351811719E+03  0.19333223307E+04  0.50400001928E-02 0.  1.
</event>
<event>
 5   0  0.5132561E-07  0.3664460E+04  0.7818609E-02  0.8075884E-01
       -2   -1    0    0    0  501  0.00000000000E+00  0.00000000000E+00  0.17553028207E+04  0.17553028207E+04  0.25500000920E-02 0. -1.
        2   -1    0    0  501    0  0.00000000000E+00  0.00000000000E+00 -0.19125286996E+04  0.19125286996E+04  0.25500000920E-02 0.  1.
    10030    2    1    2    0    0  0.00000000000E+00  0.00000000000E+00 -0.15722587886E+03  0.36678315203E+04  0.36644601354E+04 0.  0.
        3    1    3    3  502    0 -0.13976022809E+04  0.63770339490E+03  0.92085933368E+03  0.17910722147E+04  0.10100000352E+00 0. -1.
       -3    1    3    3    0  502  0.13976022809E+04 -0.63770339490E+03 -0.10780852125E+04  0.18767593056E+04  0.10100000352E+00 0.  1.
</event>
<event>
 5   0  0.5134434E-07  0.3270557E+04  0.7818609E-02  0.8170428E-01
       -2   -1    0    0    0  501  0.00000000000E+00  0.00000000000E+00  0.13588080315E+04  0.13588080315E+04  0.25500000920E-02 0.  1.
        2   -1    0    0  501    0  0.00000000000E+00  0.00000000000E+00 -0.19680008972E+04  0.19680008972E+04  0.25500000920E-02 0. -1.
    10030    2    1    2    0    0  0.00000000000E+00  0.00000000000E+00 -0.60919286565E+03  0.33268089287E+04  0.32705567875E+04 0.  0.
        5    1    3    3  502    0  0.15897431482E+03  0.13774097000E+04 -0.11864462805E+04  0.18248855254E+04  0.46999998093E+01 0. -1.
       -5    1    3    3    0  502 -0.15897431482E+03 -0.13774097000E+04  0.57725341481E+03  0.15019234033E+04  0.46999998093E+01 0.  1.
</event>
<event>
 5   0  0.1648000E-07  0.3728425E+04  0.7818609E-02  0.8061692E-01
        4   -1    0    0  501    0  0.00000000000E+00  0.00000000000E+00  0.15443750998E+04  0.15443756220E+04  0.12699999809E+01 0.  1.
       -4   -1    0    0    0  501  0.00000000000E+00  0.00000000000E+00 -0.22502867059E+04  0.22502870643E+04  0.12699999809E+01 0. -1.
    10030    2    1    2    0    0  0.00000000000E+00  0.00000000000E+00 -0.70591160611E+03  0.37946626862E+04  0.37284250974E+04 0.  0.
        2    1    3    3  502    0  0.29486145425E+03 -0.28287409394E+03  0.14982384560E+04  0.15529583064E+04  0.25500000920E-02 0.  1.
       -2    1    3    3    0  502 -0.29486145425E+03  0.28287409394E+03 -0.22041500621E+04  0.22417043799E+04  0.25500000920E-02 0. -1.
</event>
<event>
 5   0  0.1648000E-07  0.3782406E+04  0.7818609E-02  0.8049941E-01
        1   -1    0    0  501    0  0.00000000000E+00  0.00000000000E+00  0.17470012835E+04  0.17470012836E+04  0.50400001928E-02 0.  1.
       -1   -1    0    0    0  501  0.00000000000E+00  0.00000000000E+00 -0.20473071606E+04  0.20473071606E+04  0.50400001928E-02 0. -1.
    10030    2    1    2    0    0  0.00000000000E+00  0.00000000000E+00 -0.30030587709E+03  0.37943084442E+04  0.37824057093E+04 0.  0.
        3    1    3    3  502    0  0.17333901991E+04 -0.17851046234E+03 -0.88740833000E+03  0.19555053367E+04  0.10100000352E+00 0. -1.
       -3    1    3    3    0  502 -0.17333901991E+04  0.17851046234E+03  0.58710245291E+03  0.18388031075E+04  0.10100000352E+00 0.  1.
</event>
<event>
 5   0  0.5202788E-07  0.3801970E+04  0.7818609E-02  0.8045732E-01
        2   -1    0    0  501    0  0.00000000000E+00  0.00000000000E+00  0.22794737940E+04  0.22794737940E+04  0.25500000920E-02 0. -1.
       -2   -1    0    0    0  501  0.00000000000E+00  0.00000000000E+00 -0.15853412543E+04  0.15853412543E+04  0.25500000920E-02 0.  1.
    10030    2    1    2    0    0  0.00000000000E+00  0.00000000000E+00  0.69413253967E+03  0.38648150483E+04  0.38019699335E+04 0.  0.
        1    1    3    3  502    0  0.76333388660E+03  0.72176406904E+03  0.19575911540E+04  0.22216626927E+04  0.50400001928E-02 0. -1.
       -1    1    3    3    0  502 -0.76333388660E+03 -0.72176406904E+03 -0.12634586143E+04  0.16431523556E+04  0.50400001928E-02 0.  1.
</event>
<event>
 5   0  0.1648000E-07  0.3116192E+04  0.7818609E-02  0.8211308E-01
       -1   -1    0    0    0  501  0.00000000000E+00  0.00000000000E+00  0.17227517710E+04  0.17227517710E+04  0.50400001928E-02 0.  1.
        1   -1    0    0  501    0  0.00000000000E+00  0.00000000000E+00 -0.14091773147E+04  0.14091773147E+04  0.50400001928E-02 0. -1.
    10030    2    1    2    0    0  0.00000000000E+00  0.00000000000E+00  0.31357445631E+03  0.31319290857E+04  0.31161917235E+04 0.  0.
        3    1    3    3  502    0 -0.99196406890E+03  0.11925334216E+04  0.93013649821E+01  0.15511979890E+04  0.10100000352E+00 0. -1.
       -3    1    3    3    0  502  0.99196406890E+03 -0.11925334216E+04  0.30427309133E+03  0.15807310966E+04  0.10100000352E+00 0.  1.
</event>
<event>
 5   0  0.1648000E-07  0.3598969E+04  0.7818609E-02  0.8090728E-01
       -1   -1    0    0    0  501  0.00000000000E+00  0.00000000000E+00  0.18320449544E+04  0.18320449544E+04  0.50400001928E-02 0. -1.
        1   -1    0    0  501    0  0.00000000000E+00  0.00000000000E+00 -0.17675031771E+04  0.17675031771E+04  0.50400001928E-02 0.  1.
    10030    2    1    2    0    0  0.00000000000E+00  0.00000000000E+00  0.64541777306E+02  0.35995481315E+04  0.35989694511E+04 0.  0.
        2    1    3    3  502    0  0.30146138418E+02 -0.46932690350E+03  0.17694925279E+04  0.18309233568E+04  0.25500000920E-02 0. -1.
       -2    1    3    3    0  502 -0.30146138418E+02  0.46932690350E+03 -0.17049507506E+04  0.17686247748E+04  0.25500000920E-02 0.  1.
</event>
<event>
 5   0  0.1648000E-07  0.3813672E+04  0.7818609E-02  0.8043227E-01
        1   -1    0    0  501    0  0.00000000000E+00  0.00000000000E+00  0.20550725700E+04  0.20550725700E+04  0.50400001928E-02 0.  1.
       -1   -1    0    0    0  501  0.00000000000E+00  0.00000000000E+00 -0.17692921652E+04  0.17692921652E+04  0.50400001928E-02 0. -1.
    10030    2    1    2    0    0  0.00000000000E+00  0.00000000000E+00  0.28578040483E+03  0.38243647352E+04  0.38136721396E+04 0.  0.
        4    1    3    3  502    0 -0.99700415485E+03 -0.15455456110E+04  0.64758416973E+03  0.19498962512E+04  0.12699999809E+01 0. -1.
       -4    1    3    3    0  502  0.99700415485E+03  0.15455456110E+04 -0.36180376491E+03  0.18744684841E+04  0.12699999809E+01 0.  1.
</event>
<event>
 5   0  0.5325362E-07  0.3601180E+04  0.7818609E-02  0.8090221E-01
       -2   -1    0    0    0  501  0.00000000000E+00  0.00000000000E+00  0.11102771127E+04  0.11102771127E+04  0.25500000920E-02 0. -1.
        2   -1    0    0  501    0  0.00000000000E+00  0.00000000000E+00 -0.29201039604E+04  0.29201039604E+04  0.25500000920E-02 0.  1.
    10030    2    1    2    0    0  0.00000000000E+00  0.00000000000E+00 -0.18098268477E+04  0.40303810731E+04  0.36011801366E+04 0.  0.
        4    1    3    3  502    0 -0.12142907108E+04 -0.27326325257E+03 -0.23611203942E+04  0.26690945776E+04  0.12699999809E+01 0.  1.
       -4    1    3    3    0  502  0.12142907108E+04  0.27326325257E+03  0.55129354645E+03  0.13612864955E+04  0.12699999809E+01 0. -1.
</event>
<event>
 5   0  0.1648000E-07  0.3692734E+04  0.7818609E-02  0.8069574E-01
        3   -1    0    0  501    0  0.00000000000E+00  0.00000000000E+00  0.20577581033E+04  0.20577581058E+04  0.10100000352E+00 0.  1.
       -3   -1    0    0    0  501  0.00000000000E+00  0.00000000000E+00 -0.16566921095E+04  0.16566921126E+04  0.10100000352E+00 0. -1.
    10030    2    1    2    0    0  0.00000000000E+00  0.00000000000E+00  0.40106599382E+03  0.37144502184E+04  0.36927342842E+04 0.  0.
        2    1    3    3  502    0  0.12117877520E+03  0.16421079814E+04  0.10408310272E+04  0.19479558890E+04  0.25500000920E-02 0. -1.
       -2    1    3    3    0  502 -0.12117877520E+03 -0.16421079814E+04 -0.63976503338E+03  0.17664943295E+04  0.25500000920E-02 0.  1.
</event>
<event>
 5   0  0.1656617E-07  0.3826079E+04  0.7818609E-02  0.8040581E-01
        1   -1    0    0  501    0  0.00000000000E+00  0.00000000000E+00  0.18136544166E+04  0.18136544166E+04  0.50400001928E-02 0.  1.
       -1   -1    0    0    0  501  0.00000000000E+00  0.00000000000E+00 -0.20178705053E+04  0.20178705053E+04  0.50400001928E-02 0. -1.
    10030    2    1    2    0    0  0.00000000000E+00  0.00000000000E+00 -0.20421608864E+03  0.38315249219E+04  0.38260788042E+04 0.  0.
        5    1    3    3  502    0  0.13293611553E+04  0.13564357305E+04 -0.33173487575E+03  0.19280013200E+04  0.46999998093E+01 0.  1.
       -5    1    3    3    0  502 -0.13293611553E+04 -0.13564357305E+04  0.12751878711E+03  0.19035236019E+04  0.46999998093E+01 0. -1.
</event>
<event>
 5   0  0.1656617E-07  0.3727257E+04  0.7818609E-02  0.8061948E-01
       -1   -1    0    0    0  501  0.00000000000E+00  0.00000000000E+00  0.13537781703E+04  0.13537781703E+04  0.50400001928E-02 0.  1.
        1   -1    0    0  501    0  0.00000000000E+00  0.00000000000E+00 -0.25654949465E+04  0.25654949465E+04  0.50400001928E-02 0. -1.
    10030    2    1    2    0    0  0.00000000000E+00  0.00000000000E+00 -0.12117167761E+04  0.39192731168E+04  0.37272569295E+04 0.  0.
        5    1    3    3  502    0  0.11307108265E+04 -0.40245744801E+03  0.89328518088E+03  0.14961482129E+04  0.46999998093E+01 0.  1.
       -5    1    3    3    0  502 -0.11307108265E+04  0.40245744801E+03 -0.21050019570E+04  0.24231249039E+04  0.46999998093E+01 0. -1.
</event>
<event>
 5   0  0.5134434E-07  0.3834408E+04  0.7818609E-02  0.8038811E-01
       -2   -1    0    0    0  501  0.00000000000E+00  0.00000000000E+00  0.15835404825E+04  0.15835404825E+04  0.25500000920E-02 0.  1.
        2   -1    0    0  501    0  0.00000000000E+00  0.00000000000E+00 -0.23211727366E+04  0.23211727366E+04  0.25500000920E-02 0. -1.
    10030    2    1    2    0    0  0.00000000000E+00  0.00000000000E+00 -0.73763225413E+03  0.39047132191E+04  0.38344079049E+04 0.  0.
        5    1    3    3  502    0 -0.88932907271E+02  0.60381885967E+03  0.14819625817E+04  0.16027293785E+04  0.46999998093E+01 0.  1.
       -5    1    3    3    0  502  0.88932907271E+02 -0.60381885967E+03 -0.22195948358E+04  0.23019838406E+04  0.46999998093E+01 0. -1.
</event>
<event>
 5   0  0.5202788E-07  0.3749125E+04  0.7818609E-02  0.8057162E-01
        2   -1    0    0  501    0  0.00000000000E+00  0.00000000000E+00  0.25113823201E+04  0.25113823201E+04  0.25500000920E-02 0.  1.
       -2   -1    0    0    0  501  0.00000000000E+00  0.00000000000E+00 -0.13992232318E+04  0.13992232318E+04  0.25500000920E-02 0. -1.
    10030    2    1    2    0    0  0.00000000000E+00  0.00000000000E+00  0.11121590884E+04  0.39106055519E+04  0.37491249572E+04 0.  0.
        1    1    3    3  502    0  0.78268335834E+03  0.48518963868E+02 -0.12199123849E+04  0.14502184511E+04  0.50400001928E-02 0. -1.
       -1    1    3    3    0  502 -0.78268335834E+03 -0.48518963868E+02  0.23320714732E+04  0.24603871008E+04  0.50400001928E-02 0.  1.
</event>
<event>
 5   0  0.1648000E-07  0.3711362E+04  0.7818609E-02  0.8065448E-01
       -1   -1    0    0    0  501  0.00000000000E+00  0.00000000000E+00  0.20534351967E+04  0.20534351967E+04  0.50400001928E-02 0.  1.
        1   -1    0    0  501    0  0.00000000000E+00  0.00000000000E+00 -0.16769715802E+04  0.16769715802E+04  0.50400001928E-02 0. -1.
    10030    2    1    2    0    0  0.00000000000E+00  0.00000000000E+00  0.37646361643E+03  0.37304067769E+04  0.37113622656E+04 0.  0.
        2    1    3    3  502    0  0.39731347263E+03 -0.12460162460E+03  0.20058720782E+04  0.20486352420E+04  0.25500000920E-02 0.  1.
       -2    1    3    3    0  502 -0.39731347263E+03  0.12460162460E+03 -0.16294084618E+04  0.16817715349E+04  0.25500000920E-02 0. -1.
</event>
<event>
 5   0  0.5134434E-07  0.3692320E+04  0.7818609E-02  0.8069666E-01
       -2   -1    0    0    0  501  0.00000000000E+00  0.00000000000E+00  0.20531253844E+04  0.20531253844E+04  0.25500000920E-02 0.  1.
        2   -1    0    0  501    0  0.00000000000E+00  0.00000000000E+00 -0.16600574384E+04  0.16600574384E+04  0.25500000920E-02 0. -1.
    10030    2    1    2    0    0  0.00000000000E+00  0.00000000000E+00  0.39306794603E+03  0.37131828229E+04  0.36923196321E+04 0.  0.
        5    1    3    3  502    0 -0.86483095065E+03 -0.11077909669E+04 -0.10073730688E+04  0.17291489205E+04  0.46999998093E+01 0. -1.
       -5    1    3    3    0  502  0.86483095065E+03  0.11077909669E+04  0.14004410149E+04  0.19840339023E+04  0.46999998093E+01 0.  1.
</event>
<event>
 5   0  0.5202788E-07  0.3766266E+04  0.7818609E-02  0.8053433E-01
       -2   -1    0    0    0  501  0.00000000000E+00  0.00000000000E+00  0.14226530241E+04  0.14226530241E+04  0.25500000920E-02 0.  1.
        2   -1    0    0  501    0  0.00000000000E+00  0.00000000000E+00 -0.24926602972E+04  0.24926602972E+04  0.25500000920E-02 0. -1.
    10030    2    1    2    0    0  0.00000000000E+00  0.00000000000E+00 -0.10700072732E+04  0.39153133213E+04  0.37662664323E+04 0.  0.
        1    1    3    3  502    0 -0.10272528213E+04  0.14868297474E+04 -0.10853692203E+04  0.21080648475E+04  0.50400001928E-02 0. -1.
       -1    1    3    3    0  502  0.10272528213E+04 -0.14868297474E+04  0.15361947088E+02  0.18072484738E+04  0.50400001928E-02 0.  1.
</event>
<event>
 5   0  0.5202788E-07  0.2788656E+04  0.7818609E-02  0.8306799E-01
       -2   -1    0    0    0  501  0.00000000000E+00  0.00000000000E+00  0.12183734183E+04  0.12183734183E+04  0.25500000920E-02 0.  1.
        2   -1    0    0  501    0  0.00000000000E+00  0.00000000000E+00 -0.15956933272E+04  0.15956933272E+04  0.25500000920E-02 0. -1.
    10030    2    1    2    0    0  0.00000000000E+00  0.00000000000E+00 -0.37731990890E+03  0.28140667456E+04  0.27886558294E+04 0.  0.
        1    1    3    3  502    0  0.42116331321E+03  0.85594725826E+03  0.83752637187E+03  0.12694387220E+04  0.50400001928E-02 0.  1.
       -1    1    3    3    0  502 -0.42116331321E+03 -0.85594725826E+03 -0.12148462808E+04  0.15446280236E+04  0.50400001928E-02 0. -1.
</event>
<event>
 5   0  0.5132561E-07  0.3831921E+04  0.7818609E-02  0.8039339E-01
       -2   -1    0    0    0  501  0.00000000000E+00  0.00000000000E+00  0.15769856140E+04  0.15769856140E+04  0.25500000920E-02 0. -1.
        2   -1    0    0  501    0  0.00000000000E+00  0.00000000000E+00 -0.23277984502E+04  0.23277984502E+04  0.25500000920E-02 0.  1.
    10030    2    1    2    0    0  0.00000000000E+00  0.00000000000E+00 -0.75081283626E+03  0.39047840642E+04  0.38319210161E+04 0.  0.
        3    1    3    3  502    0 -0.13010519474E+04 -0.73504511317E+03 -0.15973224632E+04  0.21873423485E+04  0.10100000352E+00 0.  1.
       -3    1    3    3    0  502  0.13010519474E+04  0.73504511317E+03  0.84650962692E+03  0.17174417157E+04  0.10100000352E+00 0. -1.
</event>
<event>
 5   0  0.1648000E-07  0.3866396E+04  0.7818609E-02  0.8032055E-01
       -1   -1    0    0    0  501  0.00000000000E+00  0.00000000000E+00  0.17103329658E+04  0.17103329658E+04  0.50400001928E-02 0. -1.
        1   -1    0    0  501    0  0.00000000000E+00  0.00000000000E+00 -0.21851034450E+04  0.21851034451E+04  0.50400001928E-02 0.  1.
    10030    2    1    2    0    0  0.00000000000E+00  0.00000000000E+00 -0.47477047930E+03  0.38954364108E+04  0.38663959733E+04 0.  0.
        4    1    3    3  502    0 -0.17128482795E+04  0.73452838959E+03 -0.75492791131E+03  0.20107956007E+04  0.12699999809E+01 0. -1.
       -4    1    3    3    0  502  0.17128482795E+04 -0.73452838959E+03  0.28015743201E+03  0.18846408101E+04  0.12699999809E+01 0.  1.
</event>
<event>
 5   0  0.1648000E-07  0.3520235E+04  0.7818609E-02  0.8109011E-01
       -1   -1    0    0    0  501  0.00000000000E+00  0.00000000000E+00  0.11376542656E+04  0.11376542656E+04  0.50400001928E-02 0. -1.
        1   -1    0    0  501    0  0.00000000000E+00  0.00000000000E+00 -0.27231597956E+04  0.27231597956E+04  0.50400001928E-02 0.  1.
    10030    2    1    2    0    0  0.00000000000E+00  0.00000000000E+00 -0.15855055300E+04  0.38608140612E+04  0.35202354224E+04 0.  0.
        4    1    3    3  502    0  0.11180195782E+03  0.53451438953E+03 -0.26279014580E+04  0.26840404237E+04  0.12699999809E+01 0.  1.
       -4    1    3    3    0  502 -0.11180195782E+03 -0.53451438953E+03  0.10423959279E+04  0.11767736375E+04  0.12699999809E+01 0. -1.
</event>
<event>
 5   0  0.1648000E-07  0.3836165E+04  0.7818609E-02  0.8038438E-01
       -1   -1    0    0    0  501  0.00000000000E+00  0.00000000000E+00  0.15331062048E+04  0.15331062048E+04  0.50400001928E-02 0. -1.
        1   -1    0    0  501    0  0.00000000000E+00  0.00000000000E+00 -0.23997300113E+04  0.23997300113E+04  0.50400001928E-02 0.  1.
    10030    2    1    2    0    0  0.00000000000E+00  0.00000000000E+00 -0.86662380652E+03  0.39328362161E+04  0.38361652572E+04 0.  0.
        1    1    3    3  502    0  0.16782591924E+04 -0.90940401462E+03 -0.24022729100E+03  0.19238707675E+04  0.50400001928E-02 0. -1.
       -1    1    3    3    0  502 -0.16782591924E+04  0.90940401462E+03 -0.62639651551E+03  0.20089654486E+04  0.50400001928E-02 0.  1.
</event>
<event>
 5   0  0.5134434E-07  0.3834634E+04  0.7818609E-02  0.8038763E-01
       -2   -1    0    0    0  501  0.00000000000E+00  0.00000000000E+00  0.13315246118E+04  0.13315246118E+04  0.25500000920E-02 0.  1.
        2   -1    0    0  501    0  0.00000000000E+00  0.00000000000E+00 -0.27608238211E+04  0.27608238211E+04  0.25500000920E-02 0. -1.
    10030    2    1    2    0    0  0.00000000000E+00  0.00000000000E+00 -0.14292992092E+04  0.40923484329E+04  0.38346342025E+04 0.  0.
        5    1    3    3  502    0 -0.40225319447E+03 -0.18165334098E+04 -0.22040311145E+03  0.18735530105E+04  0.46999998093E+01 0. -1.
       -5    1    3    3    0  502  0.40225319447E+03  0.18165334098E+04 -0.12088960978E+04  0.22187954225E+04  0.46999998093E+01 0.  1.
</event>
<event>
 5   0  0.1648000E-07  0.3786275E+04  0.7818609E-02  0.8049107E-01
        1   -1    0    0  501    0  0.00000000000E+00  0.00000000000E+00  0.25184812925E+04  0.25184812925E+04  0.50400001928E-02 0. -1.
       -1   -1    0    0    0  501  0.00000000000E+00  0.00000000000E+00 -0.14230674969E+04  0.14230674969E+04  0.50400001928E-02 0.  1.
    10030    2    1    2    0    0  0.00000000000E+00  0.00000000000E+00  0.10954137956E+04  0.39415487894E+04  0.37862746170E+04 0.  0.
        3    1    3    3  502    0 -0.97574288356E+03  0.52391137379E+03  0.21460591628E+04  0.24149797604E+04  0.10100000352E+00 0. -1.
       -3    1    3    3    0  502  0.97574288356E+03 -0.52391137379E+03 -0.10506453672E+04  0.15265690290E+04  0.10100000352E+00 0.  1.
</event>
<event>
 5   0  0.5134434E-07  0.3754064E+04  0.7818609E-02  0.8056085E-01
       -2   -1    0    0    0  501  0.00000000000E+00  0.00000000000E+00  0.20437027403E+04  0.20437027403E+04  0.25500000920E-02 0.  1.
        2   -1    0    0  501    0  0.00000000000E+00  0.00000000000E+00 -0.17239536323E+04  0.17239536323E+04  0.25500000920E-02 0. -1.
    10030    2    1    2    0    0  0.00000000000E+00  0.00000000000E+00  0.31974910805E+03  0.37676563726E+04  0.37540638047E+04 0.  0.
        5    1    3    3  502    0 -0.62127653962E+03  0.12700277074E+04  0.13989588074E+04  0.19889853571E+04  0.46999998093E+01 0.  1.
       -5    1    3    3    0  502  0.62127653962E+03 -0.12700277074E+04 -0.10792096994E+04  0.17786710155E+04  0.46999998093E+01 0. -1.
</event>
<event>
 5   0  0.5202788E-07  0.3835201E+04  0.7818609E-02  0.8038643E-01
        2   -1    0    0  501    0  0.00000000000E+00  0.00000000000E+00  0.16835825046E+04  0.16835825046E+04  0.25500000920E-02 0.  1.
       -2   -1    0    0    0  501  0.00000000000E+00  0.00000000000E+00 -0.21841464787E+04  0.21841464787E+04  0.25500000920E-02 0. -1.
    10030    2    1    2    0    0  0.00000000000E+00  0.00000000000E+00 -0.50056397403E+03  0.38677289833E+04  0.38352005419E+04 0.  0.
        1    1    3    3  502    0  0.51394952420E+03 -0.17632994614E+04  0.30559327627E+03  0.18619227574E+04  0.50400001928E-02 0.  1.
       -1    1    3    3    0  502 -0.51394952420E+03  0.17632994614E+04 -0.80615725030E+03  0.20058062260E+04  0.50400001928E-02 0. -1.
</event>
<event>
 5   0  0.5325362E-07  0.3799086E+04  0.7818609E-02  0.8046351E-01
       -2   -1    0    0    0  501  0.00000000000E+00  0.00000000000E+00  0.13813540996E+04  0.13813540996E+04  0.25500000920E-02 0. -1.
        2   -1    0    0  501    0  0.00000000000E+00  0.00000000000E+00 -0.26121202734E+04  0.26121202734E+04  0.25500000920E-02 0.  1.
    10030    2    1    2    0    0  0.00000000000E+00  0.00000000000E+00 -0.12307661738E+04  0.39934743730E+04  0.37990857049E+04 0.  0.
        4    1    3    3  502    0  0.85166305614E+03  0.71104164866E+03 -0.22361422552E+04  0.24962459786E+04  0.12699999809E+01 0.  1.
       -4    1    3    3    0  502 -0.85166305614E+03 -0.71104164866E+03  0.10053760813E+04  0.14972283944E+04  0.12699999809E+01 0. -1.
</event>
<event>
 5   0  0.5134434E-07  0.3815146E+04  0.7818609E-02  0.8042912E-01
        2   -1    0    0  501    0  0.00000000000E+00  0.00000000000E+00  0.23841277175E+04  0.23841277175E+04  0.25500000920E-02 0. -1.
       -2   -1    0    0    0  501  0.00000000000E+00  0.00000000000E+00 -0.15262754167E+04  0.15262754167E+04  0.25500000920E-02 0.  1.
    10030    2    1    2    0    0  0.00000000000E+00  0.00000000000E+00  0.85785230077E+03  0.39104031342E+04  0.38151464063E+04 0.  0.
        5    1    3    3  502    0 -0.50919404857E+03 -0.17723467937E+04 -0.71444833127E+02  0.18454317084E+04  0.46999998093E+01 0.  1.
       -5    1    3    3    0  502  0.50919404857E+03  0.17723467937E+04  0.92929713390E+03  0.20649714258E+04  0.46999998093E+01 0. -1.
</event>
<event>
 5   0  0.1648000E-07  0.3566718E+04  0.7818609E-02  0.8098158E-01
       -1   -1    0    0    0  501  0.00000000000E+00  0.00000000000E+00  0.25810112518E+04  0.25810112518E+04  0.50400001928E-02 0. -1.
        1   -1    0    0  501    0  0.00000000000E+00  0.00000000000E+00 -0.12322183204E+04  0.12322183204E+04  0.50400001928E-02 0.  1.
    10030    2    1    2    0    0  0.00000000000E+00  0.00000000000E+00  0.13487929314E+04  0.38132295721E+04  0.35667180149E+04 0.  0.
        4    1    3    3  502    0 -0.14282846789E+04 -0.10344283251E+04  0.95792079149E+03  0.20069013278E+04  0.12699999809E+01 0. -1.
       -4    1    3    3    0  502  0.14282846789E+04  0.10344283251E+04  0.39087213990E+03  0.18063282444E+04  0.12699999809E+01 0.  1.
</event>
<event>
 5   0  0.5202788E-07  0.3864486E+04  0.7818609E-02  0.8032456E-01
       -2   -1    0    0    0  501  0.00000000000E+00  0.00000000000E+00  0.16239060444E+04  0.16239060444E+04  0.25500000920E-02 0.  1.
        2   -1    0    0  501    0  0.00000000000E+00  0.00000000000E+00 -0.22991253465E+04  0.22991253465E+04  0.25500000920E-02 0. -1.
    10030    2    1    2    0    0  0.00000000000E+00  0.00000000000E+00 -0.67521930210E+03  0.39230313909E+04  0.38644862774E+04 0.  0.
        1    1    3    3  502    0 -0.11907368978E+04  0.14096302324E+04 -0.91957619436E+03  0.20616818690E+04  0.50400001928E-02 0. -1.
       -1    1    3    3    0  502  0.11907368978E+04 -0.14096302324E+04  0.24435689226E+03  0.18613495219E+04  0.50400001928E-02 0.  1.
</event>
<event>
 5   0  0.1648000E-07  0.3733751E+04  0.7818609E-02  0.8060523E-01
       -1   -1    0    0    0  501  0.00000000000E+00  0.00000000000E+00  0.12408506562E+04  0.12408506563E+04  0.50400001928E-02 0. -1.
        1   -1    0    0  501    0  0.00000000000E+00  0.00000000000E+00 -0.28087377222E+04  0.28087377222E+04  0.50400001928E-02 0.  1.
    10030    2    1    2    0    0  0.00000000000E+00  0.00000000000E+00 -0.15678870660E+04  0.40495883785E+04  0.37337509536E+04 0.  0.
        4    1    3    3  502    0  0.79101086937E+03  0.22220276976E+03 -0.26020959974E+04  0.27287318408E+04  0.12699999809E+01 0.  1.
       -4    1    3    3    0  502 -0.79101086937E+03 -0.22220276976E+03  0.10342089314E+04  0.13208565377E+04  0.12699999809E+01 0. -1.
</event>
<event>
 5   0  0.1648000E-07  0.3331837E+04  0.7818609E-02  0.8154842E-01
        1   -1    0    0  501    0  0.00000000000E+00  0.00000000000E+00  0.13566761851E+04  0.13566761851E+04  0.50400001928E-02 0. -1.
       -1   -1    0    0    0  501  0.00000000000E+00  0.00000000000E+00 -0.20456492530E+04  0.20456492530E+04  0.50400001928E-02 0.  1.
    10030    2    1    2    0    0  0.00000000000E+00  0.00000000000E+00 -0.68897306792E+03  0.34023254381E+04  0.33318365053E+04 0.  0.
        2    1    3    3  502    0  0.11361580237E+04  0.77858487171E+02 -0.15860909395E+04  0.19525884018E+04  0.25500000920E-02 0.  1.
       -2    1    3    3    0  502 -0.11361580237E+04 -0.77858487171E+02  0.89711787154E+03  0.14497370362E+04  0.25500000920E-02 0. -1.
</event>
<event>
 5   0  0.1648000E-07  0.3737758E+04  0.7818609E-02  0.8059645E-01
        1   -1    0    0  501    0  0.00000000000E+00  0.00000000000E+00  0.23248315325E+04  0.23248315325E+04  0.50400001928E-02 0. -1.
       -1   -1    0    0    0  501  0.00000000000E+00  0.00000000000E+00 -0.15023495299E+04  0.15023495299E+04  0.50400001928E-02 0.  1.
    10030    2    1    2    0    0  0.00000000000E+00  0.00000000000E+00  0.82248200260E+03  0.38271810624E+04  0.37377584513E+04 0.  0.
        2    1    3    3  502    0 -0.15288124565E+03 -0.10685676845E+02  0.23183866732E+04  0.23234464972E+04  0.25500000920E-02 0. -1.
       -2    1    3    3    0  502  0.15288124565E+03  0.10685676845E+02 -0.14959046706E+04  0.15037345652E+04  0.25500000920E-02 0.  1.
</event>
<event>
 5   0  0.1648000E-07  0.3807608E+04  0.7818609E-02  0.8044524E-01
        1   -1    0    0  501    0  0.00000000000E+00  0.00000000000E+00  0.23734810874E+04  0.23734810875E+04  0.50400001928E-02 0. -1.
       -1   -1    0    0    0  501  0.00000000000E+00  0.00000000000E+00 -0.15270694295E+04  0.15270694295E+04  0.50400001928E-02 0.  1.
    10030    2    1    2    0    0  0.00000000000E+00  0.00000000000E+00  0.84641165791E+03  0.39005505170E+04  0.38076083886E+04 0.  0.
        1    1    3    3  502    0  0.12703402134E+04  0.13055344642E+04 -0.14373423071E+03  0.18272503999E+04  0.50400001928E-02 0.  1.
       -1    1    3    3    0  502 -0.12703402134E+04 -0.13055344642E+04  0.99014588863E+03  0.20733001171E+04  0.50400001928E-02 0. -1.
</event>
<event>
 5   0  0.1648000E-07  0.3311600E+04  0.7818609E-02  0.8159950E-01
        1   -1    0    0  501    0  0.00000000000E+00  0.00000000000E+00  0.19752137476E+04  0.19752137476E+04  0.50400001928E-02 0. -1.
       -1   -1    0    0    0  501  0.00000000000E+00  0.00000000000E+00 -0.13880393359E+04  0.13880393359E+04  0.50400001928E-02 0.  1.
    10030    2    1    2    0    0  0.00000000000E+00  0.00000000000E+00  0.58717441171E+03  0.33632530835E+04  0.33116004460E+04 0.  0.
        4    1    3    3  502    0 -0.10653973437E+04 -0.10383441022E+04 -0.44469194747E+03  0.15527338843E+04  0.12699999809E+01 0. -1.
       -4    1    3    3    0  502  0.10653973437E+04  0.10383441022E+04  0.10318663592E+04  0.18105191992E+04  0.12699999809E+01 0.  1.
</event>
<event>
 5   0  0.5325362E-07  0.3944058E+04  0.7818609E-02  0.8015928E-01
       -2   -1    0    0    0  501  0.00000000000E+00  0.00000000000E+00  0.11351089053E+04  0.11351089053E+04  0.25500000920E-02 0.  1.
        2   -1    0    0  501    0  0.00000000000E+00  0.00000000000E+00 -0.34260137854E+04  0.34260137854E+04  0.25500000920E-02 0. -1.
    10030    2    1    2    0    0  0.00000000000E+00  0.00000000000E+00 -0.22909048801E+04  0.45611226907E+04  0.39440581931E+04 0.  0.
        4    1    3    3  502    0 -0.89668915354E+03 -0.10071779637E+04 -0.28094764265E+04  0.31163469468E+04  0.12699999809E+01 0. -1.
       -4    1    3    3    0  502  0.89668915354E+03  0.10071779637E+04  0.51857154647E+03  0.14447757439E+04  0.12699999809E+01 0.  1.
</event>
<event>
 5   0  0.5325362E-07  0.3795572E+04  0.7818609E-02  0.8047106E-01
       -2   -1    0    0    0  501  0.00000000000E+00  0.00000000000E+00  0.22667463386E+04  0.22667463386E+04  0.25500000920E-02 0.  1.
        2   -1    0    0  501    0  0.00000000000E+00  0.00000000000E+00 -0.15888814983E+04  0.15888814983E+04  0.25500000920E-02 0. -1.
    10030    2    1    2    0    0  0.00000000000E+00  0.00000000000E+00  0.67786484024E+03  0.38556278369E+04  0.37955717981E+04 0.  0.
        4    1    3    3  502    0 -0.40917770770E+03  0.11717583053E+04  0.17973176295E+04  0.21842152359E+04  0.12699999809E+01 0.  1.
       -4    1    3    3    0  502  0.40917770770E+03 -0.11717583053E+04 -0.11194527893E+04  0.16714126010E+04  0.12699999809E+01 0. -1.
</event>
<event>
 5   0  0.1656617E-07  0.3606345E+04  0.7818609E-02  0.8089040E-01
       -1   -1    0    0    0  501  0.00000000000E+00  0.00000000000E+00  0.25209901110E+04  0.25209901110E+04  0.50400001928E-02 0. -1.
        1   -1    0    0  501    0  0.00000000000E+00  0.00000000000E+00 -0.12897437906E+04  0.12897437906E+04  0.50400001928E-02 0.  1.
    10030    2    1    2    0    0  0.00000000000E+00  0.00000000000E+00  0.12312463204E+04  0.38107339016E+04  0.36063451537E+04 0.  0.
        5    1    3    3  502    0 -0.16929511407E+04  0.58654517780E+03  0.40090632488E+03  0.18359920429E+04  0.46999998093E+01 0. -1.
       -5    1    3    3    0  502  0.16929511407E+04 -0.58654517780E+03  0.83033999552E+03  0.19747418587E+04  0.46999998093E+01 0.  1.
</event>
<event>
 5   0  0.5158266E-07  0.2831050E+04  0.7818609E-02  0.8293693E-01
       -2   -1    0    0    0  501  0.00000000000E+00  0.00000000000E+00  0.14525226484E+04  0.14525226484E+04  0.25500000920E-02 0. -1.
        2   -1    0    0  501    0  0.00000000000E+00  0.00000000000E+00 -0.13794698231E+04  0.13794698231E+04  0.25500000920E-02 0.  1.
    10030    2    1    2    0    0  0.00000000000E+00  0.00000000000E+00  0.73052825346E+02  0.28319924715E+04  0.28310500955E+04 0.  0.
        2    1    3    3  502    0 -0.11260755018E+04 -0.51696153527E+03  0.72116339133E+03  0.14336568284E+04  0.25500000920E-02 0. -1.
       -2    1    3    3    0  502  0.11260755018E+04  0.51696153527E+03 -0.64811056599E+03  0.13983356430E+04  0.25500000920E-02 0.  1.
</event>
<event>
 5   0  0.1656617E-07  0.3777224E+04  0.7818609E-02  0.8051060E-01
       -1   -1    0    0    0  501  0.00000000000E+00  0.00000000000E+00  0.20369676118E+04  0.20369676118E+04  0.50400001928E-02 0.  1.
        1   -1    0    0  501    0  0.00000000000E+00  0.00000000000E+00 -0.17510617221E+04  0.17510617221E+04  0.50400001928E-02 0. -1.
    10030    2    1    2    0    0  0.00000000000E+00  0.00000000000E+00  0.28590588967E+03  0.37880293339E+04  0.37772243853E+04 0.  0.
        5    1    3    3  502    0  0.12543255423E+03 -0.18839807885E+04  0.10139786974E+03  0.18908782497E+04  0.46999998093E+01 0. -1.
       -5    1    3    3    0  502 -0.12543255423E+03  0.18839807885E+04  0.18450801994E+03  0.18971510843E+04  0.46999998093E+01 0.  1.
</event>
<event>
 5   0  0.5202788E-07  0.3737108E+04  0.7818609E-02  0.8059788E-01
        2   -1    0    0  501    0  0.00000000000E+00  0.00000000000E+00  0.17316309479E+04  0.17316309479E+04  0.25500000920E-02 0. -1.
       -2   -1    0    0    0  501  0.00000000000E+00  0.00000000000E+00 -0.20163037332E+04  0.20163037332E+04  0.25500000920E-02 0.  1.
    10030    2    1    2    0    0  0.00000000000E+00  0.00000000000E+00 -0.28467278529E+03  0.37479346811E+04  0.37371079432E+04 0.  0.
        1    1    3    3  502    0 -0.64801151733E+03  0.17425891420E+04 -0.32984891871E+03  0.18882097748E+04  0.50400001928E-02 0.  1.
       -1    1    3    3    0  502  0.64801151733E+03 -0.17425891420E+04  0.45176133417E+02  0.18597249064E+04  0.50400001928E-02 0. -1.
</event>
<event>
 5   0  0.5325362E-07  0.3812086E+04  0.7818609E-02  0.8043566E-01
       -2   -1    0    0    0  501  0.00000000000E+00  0.00000000000E+00  0.14591696864E+04  0.14591696864E+04  0.25500000920E-02 0.  1.
        2   -1    0    0  501    0  0.00000000000E+00  0.00000000000E+00 -0.24897720401E+04  0.24897720401E+04  0.25500000920E-02 0. -1.
    10030    2    1    2    0    0  0.00000000000E+00  0.00000000000E+00 -0.10306023537E+04  0.39489417265E+04  0.38120859838E+04 0.  0.
        4    1    3    3  502    0 -0.44443115268E+03  0.89100885928E+03  0.11683422589E+04  0.15350703839E+04  0.12699999809E+01 0.  1.
       -4    1    3    3    0  502  0.44443115268E+03 -0.89100885928E+03 -0.21989446125E+04  0.24138713426E+04  0.12699999809E+01 0. -1.
</event>
<event>
 5   0  0.1656617E-07  0.3776993E+04  0.7818609E-02  0.8051110E-01
        1   -1    0    0  501    0  0.00000000000E+00  0.00000000000E+00  0.12376104078E+04  0.12376104078E+04  0.50400001928E-02 0. -1.
       -1   -1    0    0    0  501  0.00000000000E+00  0.00000000000E+00 -0.28816974217E+04  0.28816974217E+04  0.50400001928E-02 0.  1.
    10030    2    1    2    0    0  0.00000000000E+00  0.00000000000E+00 -0.16440870139E+04  0.41193078295E+04  0.37769928363E+04 0.  0.
        5    1    3    3  502    0 -0.10243968510E+04  0.15568757639E+04 -0.48918534631E+03  0.19268044648E+04  0.46999998093E+01 0. -1.
       -5    1    3    3    0  502  0.10243968510E+04 -0.15568757639E+04 -0.11549016676E+04  0.21925033647E+04  0.46999998093E+01 0.  1.
</event>
<event>
 5   0  0.5325362E-07  0.3448289E+04  0.7818609E-02  0.8126155E-01
        2   -1    0    0  501    0  0.00000000000E+00  0.00000000000E+00  0.18015892975E+04  0.18015892975E+04  0.25500000920E-02 0. -1.
       -2   -1    0    0    0  501  0.00000000000E+00  0.00000000000E+00 -0.16500290976E+04  0.16500290976E+04  0.25500000920E-02 0.  1.
    10030    2    1    2    0    0  0.00000000000E+00  0.00000000000E+00  0.15156019989E+03  0.34516183951E+04  0.34482892934E+04 0.  0.
        4    1    3    3  502    0  0.15358806153E+04  0.33678631064E+01  0.85994727185E+03  0.17602418954E+04  0.12699999809E+01 0. -1.
       -4    1    3    3    0  502 -0.15358806153E+04 -0.33678631064E+01 -0.70838707196E+03  0.16913764997E+04  0.12699999809E+01 0.  1.
</event>
<event>
 5   0  0.5134434E-07  0.3762176E+04  0.7818609E-02  0.8054321E-01
       -2   -1    0    0    0  501  0.00000000000E+00  0.00000000000E+00  0.19219231918E+04  0.19219231918E+04  0.25500000920E-02 0. -1.
        2   -1    0    0  501    0  0.00000000000E+00  0.00000000000E+00 -0.18411201415E+04  0.18411201415E+04  0.25500000920E-02 0.  1.
    10030    2    1    2    0    0  0.00000000000E+00  0.00000000000E+00  0.80803050228E+02  0.37630433333E+04  0.37621756997E+04 0.  0.
        5    1    3    3  502    0  0.78540657602E+03  0.58339634804E+03 -0.15665973350E+04  0.18470149129E+04  0.46999998093E+01 0.  1.
       -5    1    3    3    0  502 -0.78540657602E+03 -0.58339634804E+03  0.16474003852E+04  0.19160284204E+04  0.46999998093E+01 0. -1.
</event>
<event>
 5   0  0.5202788E-07  0.3834604E+04  0.7818609E-02  0.8038769E-01
       -2   -1    0    0    0  501  0.00000000000E+00  0.00000000000E+00  0.28491634757E+04  0.28491634757E+04  0.25500000920E-02 0. -1.
        2   -1    0    0  501    0  0.00000000000E+00  0.00000000000E+00 -0.12902199280E+04  0.12902199280E+04  0.25500000920E-02 0.  1.
    10030    2    1    2    0    0  0.00000000000E+00  0.00000000000E+00  0.15589435477E+04  0.41393834036E+04  0.38346042791E+04 0.  0.
        1    1    3    3  502    0 -0.13373340563E+04  0.77472547440E+03 -0.44534018341E+03  0.16084122039E+04  0.50400001928E-02 0.  1.
       -1    1    3    3    0  502  0.13373340563E+04 -0.77472547440E+03  0.20042837311E+04  0.25309711997E+04  0.50400001928E-02 0. -1.
</event>
<event>
 5   0  0.1648000E-07  0.2907265E+04  0.7818609E-02  0.8270719E-01
        1   -1    0    0  501    0  0.00000000000E+00  0.00000000000E+00  0.10907132629E+04  0.10907132629E+04  0.50400001928E-02 0.  1.
       -1   -1    0    0    0  501  0.00000000000E+00  0.00000000000E+00 -0.19373081458E+04  0.19373081458E+04  0.50400001928E-02 0. -1.
    10030    2    1    2    0    0  0.00000000000E+00  0.00000000000E+00 -0.84659488290E+03  0.30280214088E+04  0.29072651679E+04 0.  0.
        4    1    3    3  502    0  0.19642424455E+03  0.13434005302E+04 -0.96423340025E+03  0.16652492701E+04  0.12699999809E+01 0. -1.
       -4    1    3    3    0  502 -0.19642424455E+03 -0.13434005302E+04  0.11763851736E+03  0.13627721387E+04  0.12699999809E+01 0.  1.
</event>
<event>
 5   0  0.5202788E-07  0.3811445E+04  0.7818609E-02  0.8043703E-01
        2   -1    0    0  501    0  0.00000000000E+00  0.00000000000E+00  0.33345186020E+04  0.33345186020E+04  0.25500000920E-02 0. -1.
       -2   -1    0    0    0  501  0.00000000000E+00  0.00000000000E+00 -0.10891461032E+04  0.10891461032E+04  0.25500000920E-02 0.  1.
    10030    2    1    2    0    0  0.00000000000E+00  0.00000000000E+00  0.22453724988E+04  0.44236647051E+04  0.38114448396E+04 0.  0.
        1    1    3    3  502    0  0.83042912312E+03 -0.12654786214E+04  0.24665743503E+04  0.28939657384E+04  0.50400001928E-02 0. -1.
       -1    1    3    3    0  502 -0.83042912312E+03  0.12654786214E+04 -0.22120185146E+03  0.15296989667E+04  0.50400001928E-02 0.  1.
</event>
<event>
 5   0  0.1648000E-07  0.3438213E+04  0.7818609E-02  0.8128591E-01
       -1   -1    0    0    0  501  0.00000000000E+00  0.00000000000E+00  0.11757107475E+04  0.11757107476E+04  0.50400001928E-02 0. -1.
        1   -1    0    0  501    0  0.00000000000E+00  0.00000000000E+00 -0.25136510015E+04  0.25136510015E+04  0.50400001928E-02 0.  1.
    10030    2    1    2    0    0  0.00000000000E+00  0.00000000000E+00 -0.13379402540E+04  0.36893617491E+04  0.34382126159E+04 0.  0.
        2    1    3    3  502    0  0.14098817500E+04 -0.65983626618E+03  0.11382150492E+03  0.15608029287E+04  0.25500000920E-02 0. -1.
       -2    1    3    3    0  502 -0.14098817500E+04  0.65983626618E+03 -0.14517617589E+04  0.21285588204E+04  0.25500000920E-02 0.  1.
</event>
<event>
 5   0  0.5132561E-07  0.2827455E+04  0.7818609E-02  0.8294795E-01
        2   -1    0    0  501    0  0.00000000000E+00  0.00000000000E+00  0.18600525167E+04  0.18600525167E+04  0.25500000920E-02 0.  1.
       -2   -1    0    0    0  501  0.00000000000E+00  0.00000000000E+00 -0.10744996574E+04  0.10744996574E+04  0.25500000920E-02 0. -1.
    10030    2    1    2    0    0  0.00000000000E+00  0.00000000000E+00  0.78555285937E+03  0.29345521741E+04  0.28274552459E+04 0.  0.
        3    1    3    3  502    0  0.88720385076E+03 -0.88316444452E+03 -0.28900376791E+03  0.12847697447E+04  0.10100000352E+00 0. -1.
       -3    1    3    3    0  502 -0.88720385076E+03  0.88316444452E+03  0.10745566273E+04  0.16497824294E+04  0.10100000352E+00 0.  1.
</event>
<event>
 5   0  0.1648000E-07  0.3775645E+04  0.7818609E-02  0.8051402E-01
        1   -1    0    0  501    0  0.00000000000E+00  0.00000000000E+00  0.18128002821E+04  0.18128002821E+04  0.50400001928E-02 0. -1.
       -1   -1    0    0    0  501  0.00000000000E+00  0.00000000000E+00 -0.19659491200E+04  0.19659491200E+04  0.50400001928E-02 0.  1.
    10030    2    1    2    0    0  0.00000000000E+00  0.00000000000E+00 -0.15314883790E+03  0.37787494021E+04  0.37756446440E+04 0.  0.
        4    1    3    3  502    0  0.33707307182E+03  0.12284767475E+04  0.13178042316E+04  0.18328619644E+04  0.12699999809E+01 0. -1.
       -4    1    3    3    0  502 -0.33707307182E+03 -0.12284767475E+04 -0.14709530695E+04  0.19458874377E+04  0.12699999809E+01 0.  1.
</event>
<event>
 5   0  0.1648000E-07  0.3965109E+04  0.7818609E-02  0.8011622E-01
        1   -1    0    0  501    0  0.00000000000E+00  0.00000000000E+00  0.19505327878E+04  0.19505327878E+04  0.50400001928E-02 0. -1.
       -1   -1    0    0    0  501  0.00000000000E+00  0.00000000000E+00 -0.20151019814E+04  0.20151019814E+04  0.50400001928E-02 0.  1.
    10030    2    1    2    0    0  0.00000000000E+00  0.00000000000E+00 -0.64569193525E+02  0.39656347692E+04  0.39651090706E+04 0.  0.
        1    1    3    3  502    0  0.35559655780E+03 -0.54478059111E+02  0.19176163472E+04  0.19510687394E+04  0.50400001928E-02 0. -1.
       -1    1    3    3    0  502 -0.35559655780E+03  0.54478059111E+02 -0.19821855407E+04  0.20145660298E+04  0.50400001928E-02 0.  1.
</event>
<event>
 5   0  0.5202788E-07  0.3849925E+04  0.7818609E-02  0.8035525E-01
        2   -1    0    0  501    0  0.00000000000E+00  0.00000000000E+00  0.20469956690E+04  0.20469956690E+04  0.25500000920E-02 0.  1.
       -2   -1    0    0    0  501  0.00000000000E+00  0.00000000000E+00 -0.18102041818E+04  0.18102041818E+04  0.25500000920E-02 0. -1.
    10030    2    1    2    0    0  0.00000000000E+00  0.00000000000E+00  0.23679148714E+03  0.38571998508E+04  0.38499247370E+04 0.  0.
        1    1    3    3  502    0 -0.10568775053E+04 -0.27039222832E+03  0.17073871179E+04  0.20261472772E+04  0.50400001928E-02 0.  1.
       -1    1    3    3    0  502  0.10568775053E+04  0.27039222832E+03 -0.14705956308E+04  0.18310525737E+04  0.50400001928E-02 0. -1.
</event>
<event>
 5   0  0.5325362E-07  0.3848934E+04  0.7818609E-02  0.8035735E-01
       -2   -1    0    0    0  501  0.00000000000E+00  0.00000000000E+00  0.22870666629E+04  0.22870666629E+04  0.25500000920E-02 0.  1.
        2   -1    0    0  501    0  0.00000000000E+00  0.00000000000E+00 -0.16193550324E+04  0.16193550324E+04  0.25500000920E-02 0. -1.
    10030    2    1    2    0    0  0.00000000000E+00  0.00000000000E+00  0.66771163047E+03  0.39064216952E+04  0.38489338315E+04 0.  0.
        4    1    3    3  502    0  0.88833634436E+03  0.82458953705E+03 -0.11832892256E+04  0.16938903062E+04  0.12699999809E+01 0. -1.
       -4    1    3    3    0  502 -0.88833634436E+03 -0.82458953705E+03  0.18510008560E+04  0.22125313890E+04  0.12699999809E+01 0.  1.
</event>
<event>
 5   0  0.1648000E-07  0.3810597E+04  0.7818609E-02  0.8043885E-01
        3   -1    0    0  501    0  0.00000000000E+00  0.00000000000E+00  0.15601620304E+04  0.15601620337E+04  0.10100000352E+00 0. -1.
       -3   -1    0    0    0  501  0.00000000000E+00  0.00000000000E+00 -0.23267855657E+04  0.23267855679E+04  0.10100000352E+00 0.  1.
    10030    2    1    2    0    0  0.00000000000E+00  0.00000000000E+00 -0.76662353529E+03  0.38869476016E+04  0.38105970678E+04 0.  0.
        2    1    3    3  502    0  0.76976621725E+03 -0.13458827585E+04 -0.15128481450E+04  0.21662525104E+04  0.25500000920E-02 0.  1.
       -2    1    3    3    0  502 -0.76976621725E+03  0.13458827585E+04  0.74622460969E+03  0.17206950913E+04  0.25500000920E-02 0. -1.
</event>
<event>
 5   0  0.5202788E-07  0.3701818E+04  0.7818609E-02  0.8067559E-01
       -2   -1    0    0    0  501  0.00000000000E+00  0.00000000000E+00  0.13687459025E+04  0.13687459025E+04  0.25500000920E-02 0.  1.
        2   -1    0    0  501    0  0.00000000000E+00  0.00000000000E+00 -0.25029224835E+04  0.25029224835E+04  0.25500000920E-02 0. -1.
    10030    2    1    2    0    0  0.00000000000E+00  0.00000000000E+00 -0.11341765810E+04  0.38716683860E+04  0.37018184146E+04 0.  0.
        1    1    3    3  502    0  0.12203242927E+02 -0.72764258777E+03 -0.23470113604E+04  0.24572494747E+04  0.50400001928E-02 0. -1.
       -1    1    3    3    0  502 -0.12203242927E+02  0.72764258777E+03  0.12128347794E+04  0.14144189114E+04  0.50400001928E-02 0.  1.
</event>
<event>
 5   0  0.5132561E-07  0.3842490E+04  0.7818609E-02  0.8037098E-01
        2   -1    0    0  501    0  0.00000000000E+00  0.00000000000E+00  0.21831487655E+04  0.21831487655E+04  0.25500000920E-02 0. -1.
       -2   -1    0    0    0  501  0.00000000000E+00  0.00000000000E+00 -0.16907605525E+04  0.16907605525E+04  0.25500000920E-02 0.  1.
    10030    2    1    2    0    0  0.00000000000E+00  0.00000000000E+00  0.49238821296E+03  0.38739093180E+04  0.38424897205E+04 0.  0.
        3    1    3    3  502    0 -0.17289630862E+04  0.59704820975E+03  0.83870874916E+03  0.20122654632E+04  0.10100000352E+00 0.  1.
       -3    1    3    3    0  502  0.17289630862E+04 -0.59704820975E+03 -0.34632053620E+03  0.18616438548E+04  0.10100000352E+00 0. -1.
</event>
<event>
 5   0  0.1648000E-07  0.3925717E+04  0.7818609E-02  0.8019702E-01
        1   -1    0    0  501    0  0.00000000000E+00  0.00000000000E+00  0.19041776471E+04  0.19041776471E+04  0.50400001928E-02 0.  1.
       -1   -1    0    0    0  501  0.00000000000E+00  0.00000000000E+00 -0.20233475632E+04  0.20233475632E+04  0.50400001928E-02 0. -1.
    10030    2    1    2    0    0  0.00000000000E+00  0.00000000000E+00 -0.11916991612E+03  0.39275252103E+04  0.39257168528E+04 0.  0.
        1    1    3    3  502    0  0.30727083504E+03  0.10642041637E+04 -0.16807842273E+04  0.20129534239E+04  0.50400001928E-02 0. -1.
       -1    1    3    3    0  502 -0.30727083504E+03 -0.10642041637E+04  0.15616143112E+04  0.19145717863E+04  0.50400001928E-02 0.  1.
</event>
<event>
 5   0  0.1648000E-07  0.3733462E+04  0.7818609E-02  0.8060586E-01
       -1   -1    0    0    0  501  0.00000000000E+00  0.00000000000E+00  0.14237424923E+04  0.14237424923E+04  0.50400001928E-02 0.  1.
        1   -1    0    0  501    0  0.00000000000E+00  0.00000000000E+00 -0.24475532383E+04  0.24475532383E+04  0.50400001928E-02 0. -1.
    10030    2    1    2    0    0  0.00000000000E+00  0.00000000000E+00 -0.10238107460E+04  0.38712957306E+04  0.37334624935E+04 0.  0.
        1    1    3    3  502    0 -0.16871114264E+04 -0.74817528912E+03 -0.22124564046E+03  0.18587794010E+04  0.50400001928E-02 0. -1.
       -1    1    3    3    0  502  0.16871114264E+04  0.74817528912E+03 -0.80256510555E+03  0.20125163296E+04  0.50400001928E-02 0.  1.
</event>
<event>
 5   0  0.1648000E-07  0.3807949E+04  0.7818609E-02  0.8044451E-01
       -1   -1    0    0    0  501  0.00000000000E+00  0.00000000000E+00  0.27772877667E+04  0.27772877667E+04  0.50400001928E-02 0.  1.
        1   -1    0    0  501    0  0.00000000000E+00  0.00000000000E+00 -0.13052729707E+04  0.13052729708E+04  0.50400001928E-02 0. -1.
    10030    2    1    2    0    0  0.00000000000E+00  0.00000000000E+00  0.14720147959E+04  0.40825607374E+04  0.38079488725E+04 0.  0.
        3    1    3    3  502    0  0.85826959468E+03  0.16984932841E+04  0.67156879793E+03  0.20180462814E+04  0.10100000352E+00 0. -1.
       -3    1    3    3    0  502 -0.85826959468E+03 -0.16984932841E+04  0.80044599799E+03  0.20645144560E+04  0.10100000352E+00 0.  1.
</event>
<event>
 5   0  0.1656617E-07  0.3797875E+04  0.7818609E-02  0.8046611E-01
       -1   -1    0    0    0  501  0.00000000000E+00  0.00000000000E+00  0.13179811778E+04  0.13179811778E+04  0.50400001928E-02 0.  1.
        1   -1    0    0  501    0  0.00000000000E+00  0.00000000000E+00 -0.27359753110E+04  0.27359753110E+04  0.50400001928E-02 0. -1.
    10030    2    1    2    0    0  0.00000000000E+00  0.00000000000E+00 -0.14179941332E+04  0.40539564888E+04  0.37978751759E+04 0.  0.
        5    1    3    3  502    0  0.61298360415E+02  0.15770902203E+04  0.41812291058E+03  0.16327338761E+04  0.46999998093E+01 0.  1.
       -5    1    3    3    0  502 -0.61298360415E+02 -0.15770902203E+04 -0.18361170438E+04  0.24212226127E+04  0.46999998093E+01 0. -1.
</event>
<event>
 5   0  0.1656617E-07  0.3775028E+04  0.7818609E-02  0.8051535E-01
        1   -1    0    0  501    0  0.00000000000E+00  0.00000000000E+00  0.18789135203E+04  0.18789135203E+04  0.50400001928E-02 0.  1.
       -1   -1    0    0    0  501  0.00000000000E+00  0.00000000000E+00 -0.18961541244E+04  0.18961541244E+04  0.50400001928E-02 0. -1.
    10030    2    1    2    0    0  0.00000000000E+00  0.00000000000E+00 -0.17240604091E+02  0.37750676446E+04  0.37750282758E+04 0.  0.
        5    1    3    3  502    0 -0.67115100193E+03  0.96857802277E+03  0.14658781970E+04  0.18807998384E+04  0.46999998093E+01 0.  1.
       -5    1    3    3    0  502  0.67115100193E+03 -0.96857802277E+03 -0.14831188011E+04  0.18942678062E+04  0.46999998093E+01 0. -1.
</event>
<event>
 5   0  0.5325362E-07  0.3659213E+04  0.7818609E-02  0.8077061E-01
       -2   -1    0    0    0  501  0.00000000000E+00  0.00000000000E+00  0.13097262537E+04  0.13097262537E+04  0.25500000920E-02 0. -1.
        2   -1    0    0  501    0  0.00000000000E+00  0.00000000000E+00 -0.25558465975E+04  0.25558465975E+04  0.25500000920E-02 0.  1.
    10030    2    1    2    0    0  0.00000000000E+00  0.00000000000E+00 -0.12461203438E+04  0.38655728513E+04  0.36592126964E+04 0.  0.
        4    1    3    3  502    0 -0.25716239665E+03  0.15671307533E+04  0.33670593004E+03  0.16233926796E+04  0.12699999809E+01 0. -1.
       -4    1    3    3    0  502  0.25716239665E+03 -0.15671307533E+04 -0.15828262738E+04  0.22421801716E+04  0.12699999809E+01 0.  1.
</event>
<event>
 5   0  0.5202788E-07  0.3532969E+04  0.7818609E-02  0.8106021E-01
       -2   -1    0    0    0  501  0.00000000000E+00  0.00000000000E+00  0.17014707386E+04  0.17014707386E+04  0.25500000920E-02 0. -1.
        2   -1    0    0  501    0  0.00000000000E+00  0.00000000000E+00 -0.18339828074E+04  0.18339828074E+04  0.25500000920E-02 0.  1.
    10030    2    1    2    0    0  0.00000000000E+00  0.00000000000E+00 -0.13251206879E+03  0.35354535460E+04  0.35329693358E+04 0.  0.
        1    1    3    3  502    0  0.30255046625E+03  0.33895844392E+03 -0.17745118490E+04  0.18317537809E+04  0.50400001928E-02 0.  1.
       -1    1    3    3    0  502 -0.30255046625E+03 -0.33895844392E+03  0.16419997802E+04  0.17036997651E+04  0.50400001928E-02 0. -1.
</event>
<event>
 5   0  0.1648000E-07  0.4058654E+04  0.7818609E-02  0.7992818E-01
        1   -1    0    0  501    0  0.00000000000E+00  0.00000000000E+00  0.19426503436E+04  0.19426503436E+04  0.50400001928E-02 0. -1.
       -1   -1    0    0    0  501  0.00000000000E+00  0.00000000000E+00 -0.21198706721E+04  0.21198706721E+04  0.50400001928E-02 0.  1.
    10030    2    1    2    0    0  0.00000000000E+00  0.00000000000E+00 -0.17722032856E+03  0.40625210157E+04  0.40586537125E+04 0.  0.
        2    1    3    3  502    0 -0.12673982468E+04 -0.10793713976E+04 -0.12502445472E+04  0.20819347631E+04  0.25500000920E-02 0.  1.
       -2    1    3    3    0  502  0.12673982468E+04  0.10793713976E+04  0.10730242187E+04  0.19805862526E+04  0.25500000920E-02 0. -1.
</event>
<event>
 5   0  0.5134434E-07  0.3828490E+04  0.7818609E-02  0.8040068E-01
        2   -1    0    0  501    0  0.00000000000E+00  0.00000000000E+00  0.15594150344E+04  0.15594150344E+04  0.25500000920E-02 0.  1.
       -2   -1    0    0    0  501  0.00000000000E+00  0.00000000000E+00 -0.23498135147E+04  0.23498135147E+04  0.25500000920E-02 0. -1.
    10030    2    1    2    0    0  0.00000000000E+00  0.00000000000E+00 -0.79039848023E+03  0.39092285491E+04  0.38284903149E+04 0.  0.
        5    1    3    3  502    0  0.12654721357E+04 -0.28404921083E+03  0.10424012220E+04  0.16639489409E+04  0.46999998093E+01 0.  1.
       -5    1    3    3    0  502 -0.12654721357E+04  0.28404921083E+03 -0.18327997022E+04  0.22452796082E+04  0.46999998093E+01 0. -1.
</event>
<event>
 5   0  0.1648000E-07  0.3932392E+04  0.7818609E-02  0.8018326E-01
        1   -1    0    0  501    0  0.00000000000E+00  0.00000000000E+00  0.26912201550E+04  0.26912201550E+04  0.50400001928E-02 0. -1.
       -1   -1    0    0    0  501  0.00000000000E+00  0.00000000000E+00 -0.14364960848E+04  0.14364960848E+04  0.50400001928E-02 0.  1.
    10030    2    1    2    0    0  0.00000000000E+00  0.00000000000E+00  0.12547240702E+04  0.41277162398E+04  0.39323922571E+04 0.  0.
        2    1    3    3  502    0  0.36042469610E+03 -0.17419470554E+04  0.15066086421E+04  0.23311274324E+04  0.25500000920E-02 0. -1.
       -2    1    3    3    0  502 -0.36042469610E+03  0.17419470554E+04 -0.25188457185E+03  0.17965888074E+04  0.25500000920E-02 0.  1.
</event>
<event>
 5   0  0.5158266E-07  0.3822288E+04  0.7818609E-02  0.8041389E-01
       -2   -1    0    0    0  501  0.00000000000E+00  0.00000000000E+00  0.11495619876E+04  0.11495619876E+04  0.25500000920E-02 0. -1.
        2   -1    0    0  501    0  0.00000000000E+00  0.00000000000E+00 -0.31772726887E+04  0.31772726887E+04  0.25500000920E-02 0.  1.
    10030    2    1    2    0    0  0.00000000000E+00  0.00000000000E+00 -0.20277107011E+04  0.43268346762E+04  0.38222882712E+04 0.  0.
        2    1    3    3  502    0 -0.51677220884E+03 -0.16697696746E+04 -0.18887154751E+04  0.25734083291E+04  0.25500000920E-02 0.  1.
       -2    1    3    3    0  502  0.51677220884E+03  0.16697696746E+04 -0.13899522601E+03  0.17534263472E+04  0.25500000920E-02 0. -1.
</event>
<event>
 5   0  0.5132561E-07  0.3766451E+04  0.7818609E-02  0.8053393E-01
       -2   -1    0    0    0  501  0.00000000000E+00  0.00000000000E+00  0.16363258918E+04  0.16363258918E+04  0.25500000920E-02 0. -1.
        2   -1    0    0  501    0  0.00000000000E+00  0.00000000000E+00 -0.21673792743E+04  0.21673792743E+04  0.25500000920E-02 0.  1.
    10030    2    1    2    0    0  0.00000000000E+00  0.00000000000E+00 -0.53105338250E+03  0.38037051662E+04  0.37664512868E+04 0.  0.
        3    1    3    3  502    0  0.15580838540E+04 -0.15450478919E+03  0.79126608950E+03  0.17543087130E+04  0.10100000352E+00 0. -1.
       -3    1    3    3    0  502 -0.15580838540E+04  0.15450478919E+03 -0.13223194720E+04  0.20493964532E+04  0.10100000352E+00 0.  1.
</event>
<event>
 5   0  0.5202788E-07  0.3856073E+04  0.7818609E-02  0.8034228E-01
        2   -1    0    0  501    0  0.00000000000E+00  0.00000000000E+00  0.23043482632E+04  0.23043482632E+04  0.25500000920E-02 0.  1.
       -2   -1    0    0    0  501  0.00000000000E+00  0.00000000000E+00 -0.16131787058E+04  0.16131787058E+04  0.25500000920E-02 0. -1.
    10030    2    1    2    0    0  0.00000000000E+00  0.00000000000E+00  0.69116955736E+03  0.39175269691E+04  0.38560734169E+04 0.  0.
        1    1    3    3  502    0  0.16312811623E+04 -0.18171015314E+03  0.13732533281E+04  0.21400751186E+04  0.50400001928E-02 0.  1.
       -1    1    3    3    0  502 -0.16312811623E+04  0.18171015314E+03 -0.68208377072E+03  0.17774518504E+04  0.50400001928E-02 0. -1.
</event>
<event>
 5   0  0.5325362E-07  0.3773463E+04  0.7818609E-02  0.8051874E-01
        2   -1    0    0  501    0  0.00000000000E+00  0.00000000000E+00  0.21840400230E+04  0.21840400230E+04  0.25500000920E-02 0.  1.
       -2   -1    0    0    0  501  0.00000000000E+00  0.00000000000E+00 -0.16298952887E+04  0.16298952887E+04  0.25500000920E-02 0. -1.
    10030    2    1    2    0    0  0.00000000000E+00  0.00000000000E+00  0.55414473432E+03  0.38139353116E+04  0.37734634190E+04 0.  0.
        4    1    3    3  502    0 -0.53564332941E+03 -0.13689402779E+04 -0.91834006869E+03  0.17332805184E+04  0.12699999809E+01 0. -1.
       -4    1    3    3    0  502  0.53564332941E+03  0.13689402779E+04  0.14724848030E+04  0.20806547933E+04  0.12699999809E+01 0.  1.
</event>
<event>
 5   0  0.1656617E-07  0.3846205E+04  0.7818609E-02  0.8036311E-01
        1   -1    0    0  501    0  0.00000000000E+00  0.00000000000E+00  0.14810515874E+04  0.14810515874E+04  0.50400001928E-02 0. -1.
       -1   -1    0    0    0  501  0.00000000000E+00  0.00000000000E+00 -0.24970933695E+04  0.24970933695E+04  0.50400001928E-02 0.  1.
    10030    2    1    2    0    0  0.00000000000E+00  0.00000000000E+00 -0.10160417821E+04  0.39781449569E+04  0.38462054541E+04 0.  0.
        5    1    3    3  502    0 -0.52075901948E+03  0.87634068020E+03 -0.21946463430E+04  0.24198466077E+04  0.46999998093E+01 0.  1.
       -5    1    3    3    0  502  0.52075901948E+03 -0.87634068020E+03  0.11786045609E+04  0.15582983492E+04  0.46999998093E+01 0. -1.
</event>
<event>
 5   0  0.1648000E-07  0.3889858E+04  0.7818609E-02  0.8027142E-01
       -1   -1    0    0    0  501  0.00000000000E+00  0.00000000000E+00  0.21209444928E+04  0.21209444928E+04  0.50400001928E-02 0. -1.
        1   -1    0    0  501    0  0.00000000000E+00  0.00000000000E+00 -0.17835209209E+04  0.17835209209E+04  0.50400001928E-02 0.  1.
    10030    2    1    2    0    0  0.00000000000E+00  0.00000000000E+00  0.33742357186E+03  0.39044654137E+04  0.38898580309E+04 0.  0.
        4    1    3    3  502    0  0.12221553972E+04 -0.89530463121E+03 -0.10555046995E+04  0.18464360214E+04  0.12699999809E+01 0. -1.
       -4    1    3    3    0  502 -0.12221553972E+04  0.89530463121E+03  0.13929282714E+04  0.20580293923E+04  0.12699999809E+01 0.  1.
</event>
<event>
 5   0  0.1648000E-07  0.3801264E+04  0.7818609E-02  0.8045884E-01
        3   -1    0    0  501    0  0.00000000000E+00  0.00000000000E+00  0.32657880469E+04  0.32657880485E+04  0.10100000352E+00 0.  1.
       -3   -1    0    0    0  501  0.00000000000E+00  0.00000000000E+00 -0.11061345729E+04  0.11061345776E+04  0.10100000352E+00 0. -1.
    10030    2    1    2    0    0  0.00000000000E+00  0.00000000000E+00  0.21596534740E+04  0.43719226261E+04  0.38012635163E+04 0.  0.
        4    1    3    3  502    0  0.92593230963E+02 -0.17802397088E+04  0.18380125087E+04  0.25604918516E+04  0.12699999809E+01 0.  1.
       -4    1    3    3    0  502 -0.92593230963E+02  0.17802397088E+04  0.32164096533E+03  0.18114307745E+04  0.12699999809E+01 0. -1.
</event>
<event>
 5   0  0.5132561E-07  0.3797478E+04  0.7818609E-02  0.8046696E-01
       -2   -1    0    0    0  501  0.00000000000E+00  0.00000000000E+00  0.20330629514E+04  0.20330629514E+04  0.25500000920E-02 0.  1.
        2   -1    0    0  501    0  0.00000000000E+00  0.00000000000E+00 -0.17732893473E+04  0.17732893473E+04  0.25500000920E-02 0. -1.
    10030    2    1    2    0    0  0.00000000000E+00  0.00000000000E+00  0.25977360410E+03  0.38063522988E+04  0.37974775176E+04 0.  0.
        3    1    3    3  502    0  0.41323834924E+03 -0.10054156366E+04 -0.14305373346E+04  0.17966812771E+04  0.10100000352E+00 0. -1.
       -3    1    3    3    0  502 -0.41323834924E+03  0.10054156366E+04  0.16903109387E+04  0.20096710217E+04  0.10100000352E+00 0.  1.
</event>
<event>
 5   0  0.5158266E-07  0.3814161E+04  0.7818609E-02  0.8043123E-01
       -2   -1    0    0    0  501  0.00000000000E+00  0.00000000000E+00  0.16806662682E+04  0.16806662682E+04  0.25500000920E-02 0.  1.
        2   -1    0    0  501    0  0.00000000000E+00  0.00000000000E+00 -0.21639965814E+04  0.21639965814E+04  0.25500000920E-02 0. -1.
    10030    2    1    2    0    0  0.00000000000E+00  0.00000000000E+00 -0.48333031325E+03  0.38446628496E+04  0.38141610133E+04 0.  0.
        2    1    3    3  502    0  0.17035070408E+04  0.81515683775E+03  0.26050858155E+02  0.18886756088E+04  0.25500000920E-02 0.  1.
       -2    1    3    3    0  502 -0.17035070408E+04 -0.81515683775E+03 -0.50938117140E+03  0.19559872407E+04  0.25500000920E-02 0. -1.
</event>
<event>
 5   0  0.5134434E-07  0.3827476E+04  0.7818609E-02  0.8040284E-01
        2   -1    0    0  501    0  0.00000000000E+00  0.00000000000E+00  0.20076017413E+04  0.20076017413E+04  0.25500000920E-02 0. -1.
       -2   -1    0    0    0  501  0.00000000000E+00  0.00000000000E+00 -0.18242627375E+04  0.18242627375E+04  0.25500000920E-02 0.  1.
    10030    2    1    2    0    0  0.00000000000E+00  0.00000000000E+00  0.18333900378E+03  0.38318644788E+04  0.38274759560E+04 0.  0.
        5    1    3    3  502    0 -0.34693006896E+03 -0.14016716977E+04  0.13490262878E+04  0.19760916062E+04  0.46999998093E+01 0. -1.
       -5    1    3    3    0  502  0.34693006896E+03  0.14016716977E+04 -0.11656872840E+04  0.18557728727E+04  0.46999998093E+01 0.  1.
</event>
<event>
 5   0  0.1648000E-07  0.3691306E+04  0.7818609E-02  0.8069891E-01
       -1   -1    0    0    0  501  0.00000000000E+00  0.00000000000E+00  0.15702726903E+04  0.15702726903E+04  0.50400001928E-02 0. -1.
        1   -1    0    0  501    0  0.00000000000E+00  0.00000000000E+00 -0.21693269766E+04  0.21693269766E+04  0.50400001928E-02 0.  1.
    10030    2    1    2    0    0  0.00000000000E+00  0.00000000000E+00 -0.59905428621E+03  0.37395996669E+04  0.36913059520E+04 0.  0.
        4    1    3    3  502    0 -0.13020341928E+04  0.40847248574E+03  0.95942600195E+03  0.16681254980E+04  0.12699999809E+01 0. -1.
       -4    1    3    3    0  502  0.13020341928E+04 -0.40847248574E+03 -0.15584802882E+04  0.20714741689E+04  0.12699999809E+01 0.  1.
</event>
<event>
 5   0  0.1648000E-07  0.3791076E+04  0.7818609E-02  0.8048073E-01
        1   -1    0    0  501    0  0.00000000000E+00  0.00000000000E+00  0.17875851548E+04  0.17875851548E+04  0.50400001928E-02 0.  1.
       -1   -1    0    0    0  501  0.00000000000E+00  0.00000000000E+00 -0.20100097883E+04  0.20100097883E+04  0.50400001928E-02 0. -1.
    10030    2    1    2    0    0  0.00000000000E+00  0.00000000000E+00 -0.22242463350E+03  0.37975949430E+04  0.37910756566E+04 0.  0.
        1    1    3    3  502    0 -0.15078928420E+04 -0.15891361029E+03  0.10283155653E+04  0.18320554742E+04  0.50400001928E-02 0.  1.
       -1    1    3    3    0  502  0.15078928420E+04  0.15891361029E+03 -0.12507401988E+04  0.19655394688E+04  0.50400001928E-02 0. -1.
</event>
<event>
 5   0  0.5158266E-07  0.3805408E+04  0.7818609E-02  0.8044995E-01
        2   -1    0    0  501    0  0.00000000000E+00  0.00000000000E+00  0.20556967172E+04  0.20556967172E+04  0.25500000920E-02 0. -1.
       -2   -1    0    0    0  501  0.00000000000E+00  0.00000000000E+00 -0.17610977190E+04  0.17610977190E+04  0.25500000920E-02 0.  1.
    10030    2    1    2    0    0  0.00000000000E+00  0.00000000000E+00  0.29459899822E+03  0.38167944361E+04  0.38054081513E+04 0.  0.
        2    1    3    3  502    0  0.96519115342E+03  0.96071081520E+03  0.14800807760E+04  0.20112678430E+04  0.25500000920E-02 0. -1.
       -2    1    3    3    0  502 -0.96519115342E+03 -0.96071081520E+03 -0.11854817777E+04  0.18055265931E+04  0.25500000920E-02 0.  1.
</event>
<event>
 5   0  0.1648000E-07  0.3765465E+04  0.7818609E-02  0.8053607E-01
       -1   -1    0    0    0  501  0.00000000000E+00  0.00000000000E+00  0.20725766983E+04  0.20725766983E+04  0.50400001928E-02 0. -1.
        1   -1    0    0  501    0  0.00000000000E+00  0.00000000000E+00 -0.17102776655E+04  0.17102776655E+04  0.50400001928E-02 0.  1.
    10030    2    1    2    0    0  0.00000000000E+00  0.00000000000E+00  0.36229903279E+03  0.37828543638E+04  0.37654649843E+04 0.  0.
        4    1    3    3  502    0  0.16063035622E+04 -0.97426990655E+03  0.30527999209E+03  0.19033156521E+04  0.12699999809E+01 0. -1.
       -4    1    3    3    0  502 -0.16063035622E+04  0.97426990655E+03  0.57019040707E+02  0.18795387117E+04  0.12699999809E+01 0.  1.
</event>
<event>
 5   0  0.5325362E-07  0.3748520E+04  0.7818609E-02  0.8057293E-01
        2   -1    0    0  501    0  0.00000000000E+00  0.00000000000E+00  0.16218109791E+04  0.16218109791E+04  0.25500000920E-02 0. -1.
       -2   -1    0    0    0  501  0.00000000000E+00  0.00000000000E+00 -0.21660049420E+04  0.21660049420E+04  0.25500000920E-02 0.  1.
    10030    2    1    2    0    0  0.00000000000E+00  0.00000000000E+00 -0.54419396294E+03  0.37878159210E+04  0.37485200256E+04 0.  0.
        4    1    3    3  502    0 -0.17180659304E+04  0.73583161116E+03 -0.41374595113E+03  0.19142586100E+04  0.12699999809E+01 0. -1.
       -4    1    3    3    0  502  0.17180659304E+04 -0.73583161116E+03 -0.13044801181E+03  0.18735573110E+04  0.12699999809E+01 0.  1.
</event>
<event>
 5   0  0.1656617E-07  0.3791091E+04  0.7818609E-02  0.8048069E-01
        1   -1    0    0  501    0  0.00000000000E+00  0.00000000000E+00  0.30878271084E+04  0.30878271084E+04  0.50400001928E-02 0. -1.
       -1   -1    0    0    0  501  0.00000000000E+00  0.00000000000E+00 -0.11636315145E+04  0.11636315145E+04  0.50400001928E-02 0.  1.
    10030    2    1    2    0    0  0.00000000000E+00  0.00000000000E+00  0.19241955939E+04  0.42514586228E+04  0.37910911013E+04 0.  0.
        5    1    3    3  502    0  0.20030665732E+02  0.17988994057E+04  0.29239362482E+03  0.18226234996E+04  0.46999998093E+01 0.  1.
       -5    1    3    3    0  502 -0.20030665732E+02 -0.17988994057E+04  0.16318019691E+04  0.24288351232E+04  0.46999998093E+01 0. -1.
</event>
<event>
 5   0  0.5132561E-07  0.3773222E+04  0.7818609E-02  0.8051926E-01
        2   -1    0    0  501    0  0.00000000000E+00  0.00000000000E+00  0.13213432703E+04  0.13213432703E+04  0.25500000920E-02 0.  1.
       -2   -1    0    0    0  501  0.00000000000E+00  0.00000000000E+00 -0.26936989150E+04  0.26936989150E+04  0.25500000920E-02 0. -1.
    10030    2    1    2    0    0  0.00000000000E+00  0.00000000000E+00 -0.13723556447E+04  0.40150421854E+04  0.37732219302E+04 0.  0.
        3    1    3    3  502    0  0.11356301459E+04  0.13227453313E+04  0.81139866449E+02  0.17452491880E+04  0.10100000352E+00 0.  1.
       -3    1    3    3    0  502 -0.11356301459E+04 -0.13227453313E+04 -0.14534955111E+04  0.22697929974E+04  0.10100000352E+00 0. -1.
</event>
<event>
 5   0  0.5202788E-07  0.3796602E+04  0.7818609E-02  0.8046884E-01
        2   -1    0    0  501    0  0.00000000000E+00  0.00000000000E+00  0.24392350217E+04  0.24392350217E+04  0.25500000920E-02 0. -1.
       -2   -1    0    0    0  501  0.00000000000E+00  0.00000000000E+00 -0.14773265317E+04  0.14773265317E+04  0.25500000920E-02 0.  1.
    10030    2    1    2    0    0  0.00000000000E+00  0.00000000000E+00  0.96190848994E+03  0.39165615534E+04  0.37966019621E+04 0.  0.
        1    1    3    3  502    0 -0.40044126728E+03 -0.66025795216E+03  0.22698904790E+04  0.23976439600E+04  0.50400001928E-02 0. -1.
       -1    1    3    3    0  502  0.40044126728E+03  0.66025795216E+03 -0.13079819891E+04  0.15189175935E+04  0.50400001928E-02 0.  1.
</event>
<event>
 5   0  0.1648000E-07  0.3811390E+04  0.7818609E-02  0.8043715E-01
       -1   -1    0    0    0  501  0.00000000000E+00  0.00000000000E+00  0.27504807098E+04  0.27504807098E+04  0.50400001928E-02 0. -1.
        1   -1    0    0  501    0  0.00000000000E+00  0.00000000000E+00 -0.13203775847E+04  0.13203775847E+04  0.50400001928E-02 0.  1.
    10030    2    1    2    0    0  0.00000000000E+00  0.00000000000E+00  0.14301031251E+04  0.40708582945E+04  0.38113898128E+04 0.  0.
        3    1    3    3  502    0 -0.39276283387E+03 -0.14514980065E+04  0.19654610777E+04  0.24747012677E+04  0.10100000352E+00 0. -1.
       -3    1    3    3    0  502  0.39276283387E+03  0.14514980065E+04 -0.53535795257E+03  0.15961570268E+04  0.10100000352E+00 0.  1.
</event>
<event>
 5   0  0.1648000E-07  0.3854381E+04  0.7818609E-02  0.8034585E-01
        1   -1    0    0  501    0  0.00000000000E+00  0.00000000000E+00  0.21025973311E+04  0.21025973312E+04  0.50400001928E-02 0.  1.
       -1   -1    0    0    0  501  0.00000000000E+00  0.00000000000E+00 -0.17664166299E+04  0.17664166299E+04  0.50400001928E-02 0. -1.
    10030    2    1    2    0    0  0.00000000000E+00  0.00000000000E+00  0.33618070126E+03  0.38690139610E+04  0.38543808280E+04 0.  0.
        4    1    3    3  502    0  0.23704105618E+03 -0.15894039996E+04 -0.89974708684E+03  0.18417220120E+04  0.12699999809E+01 0. -1.
       -4    1    3    3    0  502 -0.23704105618E+03  0.15894039996E+04  0.12359277881E+04  0.20272919490E+04  0.12699999809E+01 0.  1.
</event>
<event>
 5   0  0.1648000E-07  0.4300552E+04  0.7818609E-02  0.7946516E-01
       -1   -1    0    0    0  501  0.00000000000E+00  0.00000000000E+00  0.18034147654E+04  0.18034147654E+04  0.50400001928E-02 0. -1.
        1   -1    0    0  501    0  0.00000000000E+00  0.00000000000E+00 -0.25638508318E+04  0.25638508318E+04  0.50400001928E-02 0.  1.
    10030    2    1    2    0    0  0.00000000000E+00  0.00000000000E+00 -0.76043606640E+03  0.43672655972E+04  0.43005518001E+04 0.  0.
        4    1    3    3  502    0 -0.40413068981E+03 -0.12243354942E+04 -0.21277754392E+04  0.24879206075E+04  0.12699999809E+01 0.  1.
       -4    1    3    3    0  502  0.40413068981E+03  0.12243354942E+04  0.13673393728E+04  0.18793449897E+04  0.12699999809E+01 0. -1.
</event>
<event>
 5   0  0.1648000E-07  0.3768267E+04  0.7818609E-02  0.8052999E-01
       -1   -1    0    0    0  501  0.00000000000E+00  0.00000000000E+00  0.14383306511E+04  0.14383306511E+04  0.50400001928E-02 0.  1.
        1   -1    0    0  501    0  0.00000000000E+00  0.00000000000E+00 -0.24681105611E+04  0.24681105611E+04  0.50400001928E-02 0. -1.
    10030    2    1    2    0    0  0.00000000000E+00  0.00000000000E+00 -0.10297799100E+04  0.39064412122E+04  0.37682670130E+04 0.  0.
        4    1    3    3  502    0  0.89594277353E+03  0.15332330897E+04  0.13783245043E+03  0.17811559612E+04  0.12699999809E+01 0.  1.
       -4    1    3    3    0  502 -0.89594277353E+03 -0.15332330897E+04 -0.11676123605E+04  0.21252852510E+04  0.12699999809E+01 0. -1.
</event>
<event>
 5   0  0.1648000E-07  0.3945199E+04  0.7818609E-02  0.8015694E-01
       -1   -1    0    0    0  501  0.00000000000E+00  0.00000000000E+00  0.18627892779E+04  0.18627892779E+04  0.50400001928E-02 0.  1.
        1   -1    0    0  501    0  0.00000000000E+00  0.00000000000E+00 -0.20888826688E+04  0.20888826688E+04  0.50400001928E-02 0. -1.
    10030    2    1    2    0    0  0.00000000000E+00  0.00000000000E+00 -0.22609339096E+03  0.39516719467E+04  0.39451987216E+04 0.  0.
        3    1    3    3  502    0  0.69991853872E+03 -0.15342913372E+04 -0.11380597105E+04  0.20344816989E+04  0.10100000352E+00 0. -1.
       -3    1    3    3    0  502 -0.69991853872E+03  0.15342913372E+04  0.91196631957E+03  0.19171902478E+04  0.10100000352E+00 0.  1.
</event>
<event>
 5   0  0.5134434E-07  0.3800772E+04  0.7818609E-02  0.8045989E-01
       -2   -1    0    0    0  501  0.00000000000E+00  0.00000000000E+00  0.17490750086E+04  0.17490750086E+04  0.25500000920E-02 0.  1.
        2   -1    0    0  501    0  0.00000000000E+00  0.00000000000E+00 -0.20647865756E+04  0.20647865756E+04  0.25500000920E-02 0. -1.
    10030    2    1    2    0    0  0.00000000000E+00  0.00000000000E+00 -0.31571156697E+03  0.38138615843E+04  0.38007718151E+04 0.  0.
        5    1    3    3  502    0 -0.73690918235E+03  0.48998909938E+03 -0.18454087248E+04  0.20466264711E+04  0.46999998093E+01 0. -1.
       -5    1    3    3    0  502  0.73690918235E+03 -0.48998909938E+03  0.15296971578E+04  0.17672351132E+04  0.46999998093E+01 0.  1.
</event>
<event>
 5   0  0.5158266E-07  0.3808830E+04  0.7818609E-02  0.8044263E-01
        2   -1    0    0  501    0  0.00000000000E+00  0.00000000000E+00  0.20922571520E+04  0.20922571520E+04  0.25500000920E-02 0.  1.
       -2   -1    0    0    0  501  0.00000000000E+00  0.00000000000E+00 -0.17334376003E+04  0.17334376003E+04  0.25500000920E-02 0. -1.
    10030    2    1    2    0    0  0.00000000000E+00  0.00000000000E+00  0.35881955170E+03  0.38256947524E+04  0.38088303805E+04 0.  0.
        2    1    3    3  502    0  0.22187471945E+03 -0.17870122817E+04  0.80195721907E+03  0.19712373443E+04  0.25500000920E-02 0.  1.
       -2    1    3    3    0  502 -0.22187471945E+03  0.17870122817E+04 -0.44313766737E+03  0.18544574081E+04  0.25500000920E-02 0. -1.
</event>
<event>
 5   0  0.1648000E-07  0.3584837E+04  0.7818609E-02  0.8093974E-01
        1   -1    0    0  501    0  0.00000000000E+00  0.00000000000E+00  0.24832819195E+04  0.24832819195E+04  0.50400001928E-02 0.  1.
       -1   -1    0    0    0  501  0.00000000000E+00  0.00000000000E+00 -0.12937571443E+04  0.12937571443E+04  0.50400001928E-02 0. -1.
    10030    2    1    2    0    0  0.00000000000E+00  0.00000000000E+00  0.11895247752E+04  0.37770390638E+04  0.35848368022E+04 0.  0.
        2    1    3    3  502    0 -0.13895781374E+04  0.28649841694E+02 -0.59774006614E+03  0.15129578315E+04  0.25500000920E-02 0. -1.
       -2    1    3    3    0  502  0.13895781374E+04 -0.28649841694E+02  0.17872648414E+04  0.22640812323E+04  0.25500000920E-02 0.  1.
</event>
<event>
 5   0  0.1648000E-07  0.3487678E+04  0.7818609E-02  0.8116716E-01
       -1   -1    0    0    0  501  0.00000000000E+00  0.00000000000E+00  0.14807105881E+04  0.14807105881E+04  0.50400001928E-02 0.  1.
        1   -1    0    0  501    0  0.00000000000E+00  0.00000000000E+00 -0.20537269814E+04  0.20537269814E+04  0.50400001928E-02 0. -1.
    10030    2    1    2    0    0  0.00000000000E+00  0.00000000000E+00 -0.57301639328E+03  0.35344375695E+04  0.34876784751E+04 0.  0.
        1    1    3    3  502    0  0.15592966576E+04 -0.33793647155E+03  0.42675188473E+03  0.16515823613E+04  0.50400001928E-02 0.  1.
       -1    1    3    3    0  502 -0.15592966576E+04  0.33793647155E+03 -0.99976827801E+03  0.18828552081E+04  0.50400001928E-02 0. -1.
</event>
<event>
 5   0  0.1648000E-07  0.3731525E+04  0.7818609E-02  0.8061011E-01
        1   -1    0    0  501    0  0.00000000000E+00  0.00000000000E+00  0.16954351578E+04  0.16954351578E+04  0.50400001928E-02 0. -1.
       -1   -1    0    0    0  501  0.00000000000E+00  0.00000000000E+00 -0.20532013020E+04  0.20532013020E+04  0.50400001928E-02 0.  1.
    10030    2    1    2    0    0  0.00000000000E+00  0.00000000000E+00 -0.35776614423E+03  0.37486364598E+04  0.37315249823E+04 0.  0.
        3    1    3    3  502    0 -0.68542065548E+03  0.12130335477E+04  0.10677011887E+04  0.17553454649E+04  0.10100000352E+00 0. -1.
       -3    1    3    3    0  502  0.68542065548E+03 -0.12130335477E+04 -0.14254673329E+04  0.19932909948E+04  0.10100000352E+00 0.  1.
</event>
<event>
 5   0  0.1648000E-07  0.3823167E+04  0.7818609E-02  0.8041201E-01
       -1   -1    0    0    0  501  0.00000000000E+00  0.00000000000E+00  0.24248111317E+04  0.24248111317E+04  0.50400001928E-02 0.  1.
        1   -1    0    0  501    0  0.00000000000E+00  0.00000000000E+00 -0.15069842107E+04  0.15069842107E+04  0.50400001928E-02 0. -1.
    10030    2    1    2    0    0  0.00000000000E+00  0.00000000000E+00  0.91782692103E+03  0.39317953424E+04  0.38231673201E+04 0.  0.
        1    1    3    3  502    0 -0.15040047915E+04  0.10182566981E+03 -0.74996555702E+03  0.16837004534E+04  0.50400001928E-02 0. -1.
       -1    1    3    3    0  502  0.15040047915E+04 -0.10182566981E+03  0.16677924781E+04  0.22480948890E+04  0.50400001928E-02 0.  1.
</event>
<event>
 5   0  0.1648000E-07  0.3839142E+04  0.7818609E-02  0.8037807E-01
       -1   -1    0    0    0  501  0.00000000000E+00  0.00000000000E+00  0.26660263932E+04  0.26660263932E+04  0.50400001928E-02 0. -1.
        1   -1    0    0  501    0  0.00000000000E+00  0.00000000000E+00 -0.13821141663E+04  0.13821141663E+04  0.50400001928E-02 0.  1.
    10030    2    1    2    0    0  0.00000000000E+00  0.00000000000E+00  0.12839122269E+04  0.40481405596E+04  0.38391420114E+04 0.  0.
        4    1    3    3  502    0  0.62506316566E+03  0.15391171258E+04  0.16561737974E+04  0.23457405543E+04  0.12699999809E+01 0. -1.
       -4    1    3    3    0  502 -0.62506316566E+03 -0.15391171258E+04 -0.37226157049E+03  0.17024000053E+04  0.12699999809E+01 0.  1.
</event>
<event>
 5   0  0.1648000E-07  0.3829307E+04  0.7818609E-02  0.8039895E-01
        1   -1    0    0  501    0  0.00000000000E+00  0.00000000000E+00  0.23901003782E+04  0.23901003782E+04  0.50400001928E-02 0.  1.
       -1   -1    0    0    0  501  0.00000000000E+00  0.00000000000E+00 -0.15337844335E+04  0.15337844336E+04  0.50400001928E-02 0. -1.
    10030    2    1    2    0    0  0.00000000000E+00  0.00000000000E+00  0.85631594467E+03  0.39238848118E+04  0.38293073811E+04 0.  0.
        4    1    3    3  502    0 -0.18224809570E+03  0.11658117819E+04 -0.11169177616E+04  0.16247579445E+04  0.12699999809E+01 0. -1.
       -4    1    3    3    0  502  0.18224809570E+03 -0.11658117819E+04  0.19732337063E+04  0.22991268673E+04  0.12699999809E+01 0.  1.
</event>
<event>
 5   0  0.1648000E-07  0.3830400E+04  0.7818609E-02  0.8039662E-01
       -1   -1    0    0    0  501  0.00000000000E+00  0.00000000000E+00  0.14102094342E+04  0.14102094342E+04  0.50400001928E-02 0. -1.
        1   -1    0    0  501    0  0.00000000000E+00  0.00000000000E+00 -0.26010261540E+04  0.26010261540E+04  0.50400001928E-02 0.  1.
    10030    2    1    2    0    0  0.00000000000E+00  0.00000000000E+00 -0.11908167198E+04  0.40112355882E+04  0.38304003033E+04 0.  0.
        3    1    3    3  502    0 -0.80144757445E+01 -0.37607255599E+03  0.13711450881E+04  0.14218064784E+04  0.10100000352E+00 0. -1.
       -3    1    3    3    0  502  0.80144757445E+01  0.37607255599E+03 -0.25619618079E+04  0.25894291098E+04  0.10100000352E+00 0.  1.
</event>
<event>
 5   0  0.5158266E-07  0.3729861E+04  0.7818609E-02  0.8061376E-01
        2   -1    0    0  501    0  0.00000000000E+00  0.00000000000E+00  0.24622680240E+04  0.24622680240E+04  0.25500000920E-02 0.  1.
       -2   -1    0    0    0  501  0.00000000000E+00  0.00000000000E+00 -0.14125051996E+04  0.14125051996E+04  0.25500000920E-02 0. -1.
    10030    2    1    2    0    0  0.00000000000E+00  0.00000000000E+00  0.10497628244E+04  0.38747732236E+04  0.37298613308E+04 0.  0.
        2    1    3    3  502    0 -0.35980308755E+03 -0.73308925359E+03 -0.12168887465E+04  0.14655020767E+04  0.25500000920E-02 0. -1.
       -2    1    3    3    0  502  0.35980308755E+03  0.73308925359E+03  0.22666515709E+04  0.24092711469E+04  0.25500000920E-02 0.  1.
</event>
<event>
 5   0  0.1648000E-07  0.3803109E+04  0.7818609E-02  0.8045488E-01
        3   -1    0    0  501    0  0.00000000000E+00  0.00000000000E+00  0.15090389537E+04  0.15090389571E+04  0.10100000352E+00 0.  1.
       -3   -1    0    0    0  501  0.00000000000E+00  0.00000000000E+00 -0.23961665625E+04  0.23961665646E+04  0.10100000352E+00 0. -1.
    10030    2    1    2    0    0  0.00000000000E+00  0.00000000000E+00 -0.88712760879E+03  0.39052055218E+04  0.38031085671E+04 0.  0.
        4    1    3    3  502    0 -0.75891713014E+03  0.17347816590E+04 -0.62284901459E+03  0.19933301589E+04  0.12699999809E+01 0. -1.
       -4    1    3    3    0  502  0.75891713014E+03 -0.17347816590E+04 -0.26427859421E+03  0.19118753628E+04  0.12699999809E+01 0.  1.
</event>
<event>
 5   0  0.5202788E-07  0.3473656E+04  0.7818609E-02  0.8120062E-01
       -2   -1    0    0    0  501  0.00000000000E+00  0.00000000000E+00  0.17015172770E+04  0.17015172770E+04  0.25500000920E-02 0.  1.
        2   -1    0    0  501    0  0.00000000000E+00  0.00000000000E+00 -0.17728714613E+04  0.17728714613E+04  0.25500000920E-02 0. -1.
    10030    2    1    2    0    0  0.00000000000E+00  0.00000000000E+00 -0.71354184276E+02  0.34743887383E+04  0.34736559537E+04 0.  0.
        1    1    3    3  502    0 -0.14943097647E+04 -0.76169906491E+03  0.41544386561E+03  0.17279296120E+04  0.50400001928E-02 0.  1.
       -1    1    3    3    0  502  0.14943097647E+04  0.76169906491E+03 -0.48679804989E+03  0.17464591263E+04  0.50400001928E-02 0. -1.
</event>
<event>
 5   0  0.1648000E-07  0.3810215E+04  0.7818609E-02  0.8043966E-01
       -1   -1    0    0    0  501  0.00000000000E+00  0.00000000000E+00  0.32271358059E+04  0.32271358059E+04  0.50400001928E-02 0.  1.
        1   -1    0    0  501    0  0.00000000000E+00  0.00000000000E+00 -0.11246611146E+04  0.11246611146E+04  0.50400001928E-02 0. -1.
    10030    2    1    2    0    0  0.00000000000E+00  0.00000000000E+00  0.21024746912E+04  0.43517969205E+04  0.38102147722E+04 0.  0.
        3    1    3    3  502    0 -0.16147613386E+04 -0.93090850408E+03  0.60101220215E+03  0.19583821131E+04  0.10100000352E+00 0. -1.
       -3    1    3    3    0  502  0.16147613386E+04  0.93090850408E+03  0.15014624891E+04  0.23934148074E+04  0.10100000352E+00 0.  1.
</event>
<event>
 5   0  0.5202788E-07  0.3821216E+04  0.7818609E-02  0.8041617E-01
       -2   -1    0    0    0  501  0.00000000000E+00  0.00000000000E+00  0.12135407410E+04  0.12135407410E+04  0.25500000920E-02 0. -1.
        2   -1    0    0  501    0  0.00000000000E+00  0.00000000000E+00 -0.30080758231E+04  0.30080758232E+04  0.25500000920E-02 0.  1.
    10030    2    1    2    0    0  0.00000000000E+00  0.00000000000E+00 -0.17945350822E+04  0.42216165641E+04  0.38212158082E+04 0.  0.
        1    1    3    3  502    0 -0.35778219563E+03 -0.22326947234E+03 -0.29560119096E+04  0.29859443676E+04  0.50400001928E-02 0.  1.
       -1    1    3    3    0  502  0.35778219563E+03  0.22326947234E+03  0.11614768274E+04  0.12356721965E+04  0.50400001928E-02 0. -1.
</event>
<event>
 5   0  0.1648000E-07  0.3441616E+04  0.7818609E-02  0.8127767E-01
        1   -1    0    0  501    0  0.00000000000E+00  0.00000000000E+00  0.16991343489E+04  0.16991343489E+04  0.50400001928E-02 0.  1.
       -1   -1    0    0    0  501  0.00000000000E+00  0.00000000000E+00 -0.17427581370E+04  0.17427581370E+04  0.50400001928E-02 0. -1.
    10030    2    1    2    0    0  0.00000000000E+00  0.00000000000E+00 -0.43623788117E+02  0.34418924860E+04  0.34416160230E+04 0.  0.
        1    1    3    3  502    0 -0.13510913286E+04  0.53381210759E+03 -0.94426176167E+03  0.17326377057E+04  0.50400001928E-02 0.  1.
       -1    1    3    3    0  502  0.13510913286E+04 -0.53381210759E+03  0.90063797355E+03  0.17092547803E+04  0.50400001928E-02 0. -1.
</event>
<event>
 5   0  0.5134434E-07  0.3787986E+04  0.7818609E-02  0.8048738E-01
        2   -1    0    0  501    0  0.00000000000E+00  0.00000000000E+00  0.22421431026E+04  0.22421431027E+04  0.25500000920E-02 0.  1.
       -2   -1    0    0    0  501  0.00000000000E+00  0.00000000000E+00 -0.15999023816E+04  0.15999023816E+04  0.25500000920E-02 0. -1.
    10030    2    1    2    0    0  0.00000000000E+00  0.00000000000E+00  0.64224072101E+03  0.38420454843E+04  0.37879863199E+04 0.  0.
        5    1    3    3  502    0 -0.61950831881E+03 -0.87142471277E+03  0.19067660786E+04  0.21860810954E+04  0.46999998093E+01 0.  1.
       -5    1    3    3    0  502  0.61950831881E+03  0.87142471277E+03 -0.12645253576E+04  0.16559643889E+04  0.46999998093E+01 0. -1.
</event>
<event>
 5   0  0.1648000E-07  0.3744613E+04  0.7818609E-02  0.8058146E-01
       -1   -1    0    0    0  501  0.00000000000E+00  0.00000000000E+00  0.22115556702E+04  0.22115556702E+04  0.50400001928E-02 0. -1.
        1   -1    0    0  501    0  0.00000000000E+00  0.00000000000E+00 -0.15850976600E+04  0.15850976600E+04  0.50400001928E-02 0.  1.
    10030    2    1    2    0    0  0.00000000000E+00  0.00000000000E+00  0.62645801021E+03  0.37966533301E+04  0.37446130468E+04 0.  0.
        2    1    3    3  502    0 -0.12902828890E+04  0.36742855998E+03 -0.10109450444E+04  0.16798343857E+04  0.25500000920E-02 0.  1.
       -2    1    3    3    0  502  0.12902828890E+04 -0.36742855998E+03  0.16374030546E+04  0.21168189445E+04  0.25500000920E-02 0. -1.
</event>
<event>
 5   0  0.5132561E-07  0.3774558E+04  0.7818609E-02  0.8051637E-01
        2   -1    0    0  501    0  0.00000000000E+00  0.00000000000E+00  0.17564269226E+04  0.17564269226E+04  0.25500000920E-02 0.  1.
       -2   -1    0    0    0  501  0.00000000000E+00  0.00000000000E+00 -0.20278793376E+04  0.20278793376E+04  0.25500000920E-02 0. -1.
    10030    2    1    2    0    0  0.00000000000E+00  0.00000000000E+00 -0.27145241495E+03  0.37843062602E+04  0.37745579155E+04 0.  0.
        3    1    3    3  502    0 -0.14621166069E+03 -0.10748914892E+04  0.14126237814E+04  0.17810882969E+04  0.10100000352E+00 0.  1.
       -3    1    3    3    0  502  0.14621166069E+03  0.10748914892E+04 -0.16840761963E+04  0.20032179633E+04  0.10100000352E+00 0. -1.
</event>
<event>
 5   0  0.5158266E-07  0.2826079E+04  0.7818609E-02  0.8295217E-01
       -2   -1    0    0    0  501  0.00000000000E+00  0.00000000000E+00  0.17569327109E+04  0.17569327109E+04  0.25500000920E-02 0. -1.
        2   -1    0    0  501    0  0.00000000000E+00  0.00000000000E+00 -0.11364585304E+04  0.11364585304E+04  0.25500000920E-02 0.  1.
    10030    2    1    2    0    0  0.00000000000E+00  0.00000000000E+00  0.62047418051E+03  0.28933912413E+04  0.28260793807E+04 0.  0.
        2    1    3    3  502    0 -0.48613721019E+03 -0.69158577350E+03 -0.84901298632E+03  0.11980998791E+04  0.25500000920E-02 0.  1.
       -2    1    3    3    0  502  0.48613721019E+03  0.69158577350E+03  0.14694871668E+04  0.16952913622E+04  0.25500000920E-02 0. -1.
</event>
<event>
 5   0  0.1648000E-07  0.3781126E+04  0.7818609E-02  0.8050217E-01
        1   -1    0    0  501    0  0.00000000000E+00  0.00000000000E+00  0.22706567220E+04  0.22706567221E+04  0.50400001928E-02 0. -1.
       -1   -1    0    0    0  501  0.00000000000E+00  0.00000000000E+00 -0.15740946396E+04  0.15740946396E+04  0.50400001928E-02 0.  1.
    10030    2    1    2    0    0  0.00000000000E+00  0.00000000000E+00  0.69656208248E+03  0.38447513616E+04  0.37811260622E+04 0.  0.
        2    1    3    3  502    0  0.68017929143E+03 -0.11302926085E+04 -0.10287683890E+04  0.16728925989E+04  0.25500000920E-02 0.  1.
       -2    1    3    3    0  502 -0.68017929143E+03  0.11302926085E+04  0.17253304715E+04  0.21718587627E+04  0.25500000920E-02 0. -1.
</event>
<event>
 5   0  0.5134434E-07  0.3782190E+04  0.7818609E-02  0.8049988E-01
        2   -1    0    0  501    0  0.00000000000E+00  0.00000000000E+00  0.18898306814E+04  0.18898306814E+04  0.25500000920E-02 0. -1.
       -2   -1    0    0    0  501  0.00000000000E+00  0.00000000000E+00 -0.18923598869E+04  0.18923598869E+04  0.25500000920E-02 0.  1.
    10030    2    1    2    0    0  0.00000000000E+00  0.00000000000E+00 -0.25292055063E+01  0.37821905683E+04  0.37821897226E+04 0.  0.
        5    1    3    3  502    0 -0.63477922086E+03 -0.12377729628E+04 -0.12823547056E+04  0.18919519676E+04  0.46999998093E+01 0.  1.
       -5    1    3    3    0  502  0.63477922086E+03  0.12377729628E+04  0.12798255001E+04  0.18902386007E+04  0.46999998093E+01 0. -1.
</event>
<event>
 5   0  0.5134434E-07  0.3758413E+04  0.7818609E-02  0.8055139E-01
       -2   -1    0    0    0  501  0.00000000000E+00  0.00000000000E+00  0.12918965898E+04  0.12918965898E+04  0.25500000920E-02 0.  1.
        2   -1    0    0  501    0  0.00000000000E+00  0.00000000000E+00 -0.27335141560E+04  0.27335141560E+04  0.25500000920E-02 0. -1.
    10030    2    1    2    0    0  0.00000000000E+00  0.00000000000E+00 -0.14416175662E+04  0.40254107457E+04  0.37584132908E+04 0.  0.
        5    1    3    3  502    0 -0.27546794085E+03  0.18505760722E+04 -0.53259460531E+03  0.19453003595E+04  0.46999998093E+01 0. -1.
       -5    1    3    3    0  502  0.27546794085E+03 -0.18505760722E+04 -0.90902296091E+03  0.20801103862E+04  0.46999998093E+01 0.  1.
</event>
<event>
 5   0  0.5132561E-07  0.3860195E+04  0.7818609E-02  0.8033359E-01
        2   -1    0    0  501    0  0.00000000000E+00  0.00000000000E+00  0.16218038315E+04  0.16218038315E+04  0.25500000920E-02 0.  1.
       -2   -1    0    0    0  501  0.00000000000E+00  0.00000000000E+00 -0.22969955186E+04  0.22969955186E+04  0.25500000920E-02 0. -1.
    10030    2    1    2    0    0  0.00000000000E+00  0.00000000000E+00 -0.67519168704E+03  0.39187993501E+04  0.38601948826E+04 0.  0.
        3    1    3    3  502    0  0.71019971188E+03 -0.34895587192E+03  0.14495629963E+04  0.16514801609E+04  0.10100000352E+00 0.  1.
       -3    1    3    3    0  502 -0.71019971188E+03  0.34895587192E+03 -0.21247546833E+04  0.22673191892E+04  0.10100000352E+00 0. -1.
</event>
<event>
 5   0  0.5202788E-07  0.3807554E+04  0.7818609E-02  0.8044536E-01
        2   -1    0    0  501    0  0.00000000000E+00  0.00000000000E+00  0.23758464080E+04  0.23758464080E+04  0.25500000920E-02 0.  1.
       -2   -1    0    0    0  501  0.00000000000E+00  0.00000000000E+00 -0.15255057279E+04  0.15255057279E+04  0.25500000920E-02 0. -1.
    10030    2    1    2    0    0  0.00000000000E+00  0.00000000000E+00  0.85034068010E+03  0.39013521359E+04  0.38075542302E+04 0.  0.
        1    1    3    3  502    0 -0.17696855480E+04  0.68110614298E+03  0.25166247918E+03  0.19128582071E+04  0.50400001928E-02 0. -1.
       -1    1    3    3    0  502  0.17696855480E+04 -0.68110614298E+03  0.59867820092E+03  0.19884939289E+04  0.50400001928E-02 0.  1.
</event>
<event>
 5   0  0.1656617E-07  0.3775409E+04  0.7818609E-02  0.8051453E-01
       -1   -1    0    0    0  501  0.00000000000E+00  0.00000000000E+00  0.15937164902E+04  0.15937164902E+04  0.50400001928E-02 0. -1.
        1   -1    0    0  501    0  0.00000000000E+00  0.00000000000E+00 -0.22359231749E+04  0.22359231749E+04  0.50400001928E-02 0.  1.
    10030    2    1    2    0    0  0.00000000000E+00  0.00000000000E+00 -0.64220668474E+03  0.38296396651E+04  0.37754086585E+04 0.  0.
        5    1    3    3  502    0 -0.33664012888E+03 -0.10105297187E+04  0.12597789556E+04  0.16497157318E+04  0.46999998093E+01 0. -1.
       -5    1    3    3    0  502  0.33664012888E+03  0.10105297187E+04 -0.19019856403E+04  0.21799239333E+04  0.46999998093E+01 0.  1.
</event>
<event>
 5   0  0.1648000E-07  0.3842327E+04  0.7818609E-02  0.8037132E-01
        1   -1    0    0  501    0  0.00000000000E+00  0.00000000000E+00  0.21292681027E+04  0.21292681027E+04  0.50400001928E-02 0. -1.
       -1   -1    0    0    0  501  0.00000000000E+00  0.00000000000E+00 -0.17333984708E+04  0.17333984708E+04  0.50400001928E-02 0.  1.
    10030    2    1    2    0    0  0.00000000000E+00  0.00000000000E+00  0.39586963185E+03  0.38626665735E+04  0.38423274578E+04 0.  0.
        1    1    3    3  502    0 -0.32130383249E+03 -0.57028927888E+03 -0.16178388840E+04  0.17452417222E+04  0.50400001928E-02 0.  1.
       -1    1    3    3    0  502  0.32130383249E+03  0.57028927888E+03  0.20137085158E+04  0.21174248513E+04  0.50400001928E-02 0. -1.
</event>
<event>
 5   0  0.5158266E-07  0.2885179E+04  0.7818609E-02  0.8277301E-01
       -2   -1    0    0    0  501  0.00000000000E+00  0.00000000000E+00  0.14816236390E+04  0.14816236390E+04  0.25500000920E-02 0. -1.
        2   -1    0    0  501    0  0.00000000000E+00  0.00000000000E+00 -0.14045834617E+04  0.14045834617E+04  0.25500000920E-02 0.  1.
    10030    2    1    2    0    0  0.00000000000E+00  0.00000000000E+00  0.77040177294E+02  0.28862071008E+04  0.28851787188E+04 0.  0.
        2    1    3    3  502    0 -0.45376826028E+03  0.49469920450E+03 -0.12388184018E+04  0.14090081510E+04  0.25500000920E-02 0.  1.
       -2    1    3    3    0  502  0.45376826028E+03 -0.49469920450E+03  0.13158585791E+04  0.14771989497E+04  0.25500000920E-02 0. -1.
</event>
<event>
 5   0  0.1648000E-07  0.3785237E+04  0.7818609E-02  0.8049330E-01
        1   -1    0    0  501    0  0.00000000000E+00  0.00000000000E+00  0.25939017210E+04  0.25939017210E+04  0.50400001928E-02 0. -1.
       -1   -1    0    0    0  501  0.00000000000E+00  0.00000000000E+00 -0.13809329715E+04  0.13809329715E+04  0.50400001928E-02 0.  1.
    10030    2    1    2    0    0  0.00000000000E+00  0.00000000000E+00  0.12129687496E+04  0.39748346925E+04  0.37852368018E+04 0.  0.
        2    1    3    3  502    0 -0.13493098835E+04 -0.28597820713E+03  0.19673863530E+04  0.24027129997E+04  0.25500000920E-02 0. -1.
       -2    1    3    3    0  502  0.13493098835E+04  0.28597820713E+03 -0.75441760346E+03  0.15721216928E+04  0.25500000920E-02 0.  1.
</event>
<event>
 5   0  0.5202788E-07  0.3776722E+04  0.7818609E-02  0.8051169E-01
       -2   -1    0    0    0  501  0.00000000000E+00  0.00000000000E+00  0.10740267220E+04  0.10740267220E+04  0.25500000920E-02 0. -1.
        2   -1    0    0  501    0  0.00000000000E+00  0.00000000000E+00 -0.33201285168E+04  0.33201285168E+04  0.25500000920E-02 0.  1.
    10030    2    1    2    0    0  0.00000000000E+00  0.00000000000E+00 -0.22461017949E+04  0.43941552388E+04  0.37767217252E+04 0.  0.
        1    1    3    3  502    0  0.78556125736E+03 -0.17166024906E+04 -0.10700370273E+04  0.21699792257E+04  0.50400001928E-02 0. -1.
       -1    1    3    3    0  502 -0.78556125736E+03  0.17166024906E+04 -0.11760647675E+04  0.22241760131E+04  0.50400001928E-02 0.  1.
</event>
<event>
 5   0  0.5134434E-07  0.3816127E+04  0.7818609E-02  0.8042703E-01
        2   -1    0    0  501    0  0.00000000000E+00  0.00000000000E+00  0.18454227674E+04  0.18454227674E+04  0.25500000920E-02 0. -1.
       -2   -1    0    0    0  501  0.00000000000E+00  0.00000000000E+00 -0.19728302450E+04  0.19728302450E+04  0.25500000920E-02 0.  1.
    10030    2    1    2    0    0  0.00000000000E+00  0.00000000000E+00 -0.12740747756E+03  0.38182530124E+04  0.38161267538E+04 0.  0.
        5    1    3    3  502    0 -0.10475308532E+04  0.14237746030E+04  0.65518719435E+03  0.18851385515E+04  0.46999998093E+01 0.  1.
       -5    1    3    3    0  502  0.10475308532E+04 -0.14237746030E+04 -0.78259467191E+03  0.19331144609E+04  0.46999998093E+01 0. -1.
</event>
<event>
 5   0  0.1656617E-07  0.3794802E+04  0.7818609E-02  0.8047271E-01
        1   -1    0    0  501    0  0.00000000000E+00  0.00000000000E+00  0.21609272442E+04  0.21609272442E+04  0.50400001928E-02 0.  1.
       -1   -1    0    0    0  501  0.00000000000E+00  0.00000000000E+00 -0.16660118222E+04  0.16660118222E+04  0.50400001928E-02 0. -1.
    10030    2    1    2    0    0  0.00000000000E+00  0.00000000000E+00  0.49491542195E+03  0.38269390664E+04  0.37948018846E+04 0.  0.
        5    1    3    3  502    0 -0.18074223482E+04  0.23133392338E+02  0.82922928614E+03  0.19887066142E+04  0.46999998093E+01 0.  1.
       -5    1    3    3    0  502  0.18074223482E+04 -0.23133392338E+02 -0.33431386419E+03  0.18382324522E+04  0.46999998093E+01 0. -1.
</event>
<event>
 5   0  0.1656617E-07  0.3885873E+04  0.7818609E-02  0.8027974E-01
        1   -1    0    0  501    0  0.00000000000E+00  0.00000000000E+00  0.12853915019E+04  0.12853915019E+04  0.50400001928E-02 0.  1.
       -1   -1    0    0    0  501  0.00000000000E+00  0.00000000000E+00 -0.29368502825E+04  0.29368502825E+04  0.50400001928E-02 0. -1.
    10030    2    1    2    0    0  0.00000000000E+00  0.00000000000E+00 -0.16514587805E+04  0.42222417844E+04  0.38858730785E+04 0.  0.
        5    1    3    3  502    0 -0.15820769563E+04 -0.63936351077E+03 -0.18352542631E+04  0.25059795480E+04  0.46999998093E+01 0. -1.
       -5    1    3    3    0  502  0.15820769563E+04  0.63936351077E+03  0.18379548259E+03  0.17162622364E+04  0.46999998093E+01 0.  1.
</event>
<event>
 5   0  0.5202788E-07  0.3776877E+04  0.7818609E-02  0.8051135E-01
        2   -1    0    0  501    0  0.00000000000E+00  0.00000000000E+00  0.20429818327E+04  0.20429818327E+04  0.25500000920E-02 0.  1.
       -2   -1    0    0    0  501  0.00000000000E+00  0.00000000000E+00 -0.17455857940E+04  0.17455857940E+04  0.25500000920E-02 0. -1.
    10030    2    1    2    0    0  0.00000000000E+00  0.00000000000E+00  0.29739603873E+03  0.37885676267E+04  0.37768770509E+04 0.  0.
        1    1    3    3  502    0  0.45468827300E+03  0.18317768961E+04  0.21255070275E+03  0.18992961391E+04  0.50400001928E-02 0. -1.
       -1    1    3    3    0  502 -0.45468827300E+03 -0.18317768961E+04  0.84845335974E+02  0.18892714876E+04  0.50400001928E-02 0.  1.
</event>
<event>
 5   0  0.5325362E-07  0.3081620E+04  0.7818609E-02  0.8220800E-01
        2   -1    0    0  501    0  0.00000000000E+00  0.00000000000E+00  0.19534388908E+04  0.19534388908E+04  0.25500000920E-02 0. -1.
       -2   -1    0    0    0  501  0.00000000000E+00  0.00000000000E+00 -0.12153411626E+04  0.12153411626E+04  0.25500000920E-02 0.  1.
    10030    2    1    2    0    0  0.00000000000E+00  0.00000000000E+00  0.73809772822E+03  0.31687800535E+04  0.30816195046E+04 0.  0.
        4    1    3    3  502    0  0.17145365874E+03 -0.15268825537E+04  0.48775395386E+03  0.16120397707E+04  0.12699999809E+01 0.  1.
       -4    1    3    3    0  502 -0.17145365874E+03  0.15268825537E+04  0.25034377436E+03  0.15567402828E+04  0.12699999809E+01 0. -1.
</event>
<event>
 5   0  0.1648000E-07  0.3740043E+04  0.7818609E-02  0.8059145E-01
        1   -1    0    0  501    0  0.00000000000E+00  0.00000000000E+00  0.15857254570E+04  0.15857254570E+04  0.50400001928E-02 0. -1.
       -1   -1    0    0    0  501  0.00000000000E+00  0.00000000000E+00 -0.22052868615E+04  0.22052868615E+04  0.50400001928E-02 0.  1.
    10030    2    1    2    0    0  0.00000000000E+00  0.00000000000E+00 -0.61956140451E+03  0.37910123185E+04  0.37400425218E+04 0.  0.
        2    1    3    3  502    0  0.74931048783E+02  0.71838119174E+03  0.14386303743E+04  0.16097650613E+04  0.25500000920E-02 0. -1.
       -2    1    3    3    0  502 -0.74931048783E+02 -0.71838119174E+03 -0.20581917788E+04  0.21812472572E+04  0.25500000920E-02 0.  1.
</event>
<event>
 5   0  0.1648000E-07  0.3825133E+04  0.7818609E-02  0.8040783E-01
        1   -1    0    0  501    0  0.00000000000E+00  0.00000000000E+00  0.25912342639E+04  0.25912342639E+04  0.50400001928E-02 0. -1.
       -1   -1    0    0    0  501  0.00000000000E+00  0.00000000000E+00 -0.14116479274E+04  0.14116479274E+04  0.50400001928E-02 0.  1.
    10030    2    1    2    0    0  0.00000000000E+00  0.00000000000E+00  0.11795863365E+04  0.40028821912E+04  0.38251329273E+04 0.  0.
        4    1    3    3  502    0  0.77768923381E+03  0.94809804135E+03 -0.94613584670E+03  0.15488270057E+04  0.12699999809E+01 0.  1.
       -4    1    3    3    0  502 -0.77768923381E+03 -0.94809804135E+03  0.21257221832E+04  0.24540551855E+04  0.12699999809E+01 0. -1.
</event>
<event>
 5   0  0.5132561E-07  0.3804882E+04  0.7818609E-02  0.8045108E-01
       -2   -1    0    0    0  501  0.00000000000E+00  0.00000000000E+00  0.11617778508E+04  0.11617778508E+04  0.25500000920E-02 0.  1.
        2   -1    0    0  501    0  0.00000000000E+00  0.00000000000E+00 -0.31152959469E+04  0.31152959469E+04  0.25500000920E-02 0. -1.
    10030    2    1    2    0    0  0.00000000000E+00  0.00000000000E+00 -0.19535180961E+04  0.42770737977E+04  0.38048820375E+04 0.  0.
        3    1    3    3  502    0 -0.11557409265E+04 -0.14310202005E+04 -0.15225284866E+04  0.23878125777E+04  0.10100000352E+00 0. -1.
       -3    1    3    3    0  502  0.11557409265E+04  0.14310202005E+04 -0.43098960944E+03  0.18892612199E+04  0.10100000352E+00 0.  1.
</event>
<event>
 5   0  0.1648000E-07  0.3804625E+04  0.7818609E-02  0.8045163E-01
       -1   -1    0    0    0  501  0.00000000000E+00  0.00000000000E+00  0.20794264943E+04  0.20794264943E+04  0.50400001928E-02 0. -1.
        1   -1    0    0  501    0  0.00000000000E+00  0.00000000000E+00 -0.17402840303E+04  0.17402840303E+04  0.50400001928E-02 0.  1.
    10030    2    1    2    0    0  0.00000000000E+00  0.00000000000E+00  0.33914246391E+03  0.38197105246E+04  0.38046249330E+04 0.  0.
        1    1    3    3  502    0  0.13974931319E+04 -0.12049633506E+04  0.63386463292E+03  0.19510787024E+04  0.50400001928E-02 0.  1.
       -1    1    3    3    0  502 -0.13974931319E+04  0.12049633506E+04 -0.29472216901E+03  0.18686318222E+04  0.50400001928E-02 0. -1.
</event>
<event>
 5   0  0.5134434E-07  0.3793499E+04  0.7818609E-02  0.8047551E-01
        2   -1    0    0  501    0  0.00000000000E+00  0.00000000000E+00  0.14713917999E+04  0.14713917999E+04  0.25500000920E-02 0. -1.
       -2   -1    0    0    0  501  0.00000000000E+00  0.00000000000E+00 -0.24450717855E+04  0.24450717855E+04  0.25500000920E-02 0.  1.
    10030    2    1    2    0    0  0.00000000000E+00  0.00000000000E+00 -0.97367998562E+03  0.39164635854E+04  0.37934989523E+04 0.  0.
        5    1    3    3  502    0  0.39873361003E+03 -0.63850119724E+03 -0.22842391300E+04  0.24050868516E+04  0.46999998093E+01 0.  1.
       -5    1    3    3    0  502 -0.39873361003E+03  0.63850119724E+03  0.13105591444E+04  0.15113767338E+04  0.46999998093E+01 0. -1.
</event>
<event>
 5   0  0.1648000E-07  0.3786760E+04  0.7818609E-02  0.8049002E-01
       -1   -1    0    0    0  501  0.00000000000E+00  0.00000000000E+00  0.19947851886E+04  0.19947851886E+04  0.50400001928E-02 0.  1.
        1   -1    0    0  501    0  0.00000000000E+00  0.00000000000E+00 -0.17971294600E+04  0.17971294600E+04  0.50400001928E-02 0. -1.
    10030    2    1    2    0    0  0.00000000000E+00  0.00000000000E+00  0.19765572863E+03  0.37919146487E+04  0.37867596855E+04 0.  0.
        2    1    3    3  502    0  0.15056442279E+03  0.45097115901E+03 -0.17363815762E+04  0.18002959784E+04  0.25500000920E-02 0. -1.
       -2    1    3    3    0  502 -0.15056442279E+03 -0.45097115901E+03  0.19340373048E+04  0.19916186703E+04  0.25500000920E-02 0.  1.
</event>
<event>
 5   0  0.5202788E-07  0.3797542E+04  0.7818609E-02  0.8046683E-01
        2   -1    0    0  501    0  0.00000000000E+00  0.00000000000E+00  0.17568093573E+04  0.17568093573E+04  0.25500000920E-02 0. -1.
       -2   -1    0    0    0  501  0.00000000000E+00  0.00000000000E+00 -0.20522035433E+04  0.20522035433E+04  0.25500000920E-02 0.  1.
    10030    2    1    2    0    0  0.00000000000E+00  0.00000000000E+00 -0.29539418608E+03  0.38090129006E+04  0.37975415141E+04 0.  0.
        1    1    3    3  502    0  0.14983948349E+04 -0.50510231251E+03 -0.12020694040E+04  0.19862744723E+04  0.50400001928E-02 0. -1.
       -1    1    3    3    0  502 -0.14983948349E+04  0.50510231251E+03  0.90667521788E+03  0.18227384283E+04  0.50400001928E-02 0.  1.
</event>
<event>
 5   0  0.5158266E-07  0.3802450E+04  0.7818609E-02  0.8045629E-01
       -2   -1    0    0    0  501  0.00000000000E+00  0.00000000000E+00  0.13207201179E+04  0.13207201179E+04  0.25500000920E-02 0. -1.
        2   -1    0    0  501    0  0.00000000000E+00  0.00000000000E+00 -0.27368833632E+04  0.27368833632E+04  0.25500000920E-02 0.  1.
    10030    2    1    2    0    0  0.00000000000E+00  0.00000000000E+00 -0.14161632452E+04  0.40576034811E+04  0.38024502196E+04 0.  0.
        2    1    3    3  502    0 -0.15640913113E+04 -0.80101042703E+03 -0.14824903497E+04  0.22990817670E+04  0.25500000920E-02 0.  1.
       -2    1    3    3    0  502  0.15640913113E+04  0.80101042703E+03  0.66327104498E+02  0.17585217141E+04  0.25500000920E-02 0. -1.
</event>
<event>
 5   0  0.1648000E-07  0.3807399E+04  0.7818609E-02  0.8044569E-01
        1   -1    0    0  501    0  0.00000000000E+00  0.00000000000E+00  0.23080929459E+04  0.23080929459E+04  0.50400001928E-02 0. -1.
       -1   -1    0    0    0  501  0.00000000000E+00  0.00000000000E+00 -0.15701582214E+04  0.15701582214E+04  0.50400001928E-02 0.  1.
    10030    2    1    2    0    0  0.00000000000E+00  0.00000000000E+00  0.73793472447E+03  0.38782511673E+04  0.38073986472E+04 0.  0.
        4    1    3    3  502    0  0.13903600439E+04 -0.10177098573E+04 -0.45556205788E+03  0.17822381454E+04  0.12699999809E+01 0. -1.
       -4    1    3    3    0  502 -0.13903600439E+04  0.10177098573E+04  0.11934967824E+04  0.20960130219E+04  0.12699999809E+01 0.  1.
</event>
<event>
 5   0  0.5325362E-07  0.3872510E+04  0.7818609E-02  0.8030771E-01
       -2   -1    0    0    0  501  0.00000000000E+00  0.00000000000E+00  0.22433542173E+04  0.22433542173E+04  0.25500000920E-02 0.  1.
        2   -1    0    0  501    0  0.00000000000E+00  0.00000000000E+00 -0.16711952111E+04  0.16711952111E+04  0.25500000920E-02 0. -1.
    10030    2    1    2    0    0  0.00000000000E+00  0.00000000000E+00  0.57215900625E+03  0.39145494284E+04  0.38725096900E+04 0.  0.
        4    1    3    3  502    0  0.13820466484E+04 -0.13491978220E+04  0.14787101961E+03  0.19370738635E+04  0.12699999809E+01 0. -1.
       -4    1    3    3    0  502 -0.13820466484E+04  0.13491978220E+04  0.42428798664E+03  0.19774755649E+04  0.12699999809E+01 0.  1.
</event>
<event>
 5   0  0.5134434E-07  0.3801463E+04  0.7818609E-02  0.8045841E-01
        2   -1    0    0  501    0  0.00000000000E+00  0.00000000000E+00  0.25431520961E+04  0.25431520961E+04  0.25500000920E-02 0.  1.
       -2   -1    0    0    0  501  0.00000000000E+00  0.00000000000E+00 -0.14205917470E+04  0.14205917470E+04  0.25500000920E-02 0. -1.
    10030    2    1    2    0    0  0.00000000000E+00  0.00000000000E+00  0.11225603491E+04  0.39637438430E+04  0.38014633387E+04 0.  0.
        5    1    3    3  502    0 -0.16904538245E+04  0.54212771194E+03  0.12694050902E+04  0.21824179164E+04  0.46999998093E+01 0.  1.
       -5    1    3    3    0  502  0.16904538245E+04 -0.54212771194E+03 -0.14684474110E+03  0.17813259266E+04  0.46999998093E+01 0. -1.
</event>
<event>
 5   0  0.1648000E-07  0.3795574E+04  0.7818609E-02  0.8047105E-01
        1   -1    0    0  501    0  0.00000000000E+00  0.00000000000E+00  0.15556585396E+04  0.15556585396E+04  0.50400001928E-02 0. -1.
       -1   -1    0    0    0  501  0.00000000000E+00  0.00000000000E+00 -0.23151580645E+04  0.23151580645E+04  0.50400001928E-02 0.  1.
    10030    2    1    2    0    0  0.00000000000E+00  0.00000000000E+00 -0.75949952483E+03  0.38708166041E+04  0.37955739559E+04 0.  0.
        1    1    3    3  502    0  0.11167722836E+04 -0.15131169046E+04 -0.11996016006E+03  0.18844345413E+04  0.50400001928E-02 0.  1.
       -1    1    3    3    0  502 -0.11167722836E+04  0.15131169046E+04 -0.63953936478E+03  0.19863820628E+04  0.50400001928E-02 0. -1.
</event>
<event>
 5   0  0.5325362E-07  0.3542021E+04  0.7818609E-02  0.8103903E-01
       -2   -1    0    0    0  501  0.00000000000E+00  0.00000000000E+00  0.16813001799E+04  0.16813001799E+04  0.25500000920E-02 0.  1.
        2   -1    0    0  501    0  0.00000000000E+00  0.00000000000E+00 -0.18655078565E+04  0.18655078565E+04  0.25500000920E-02 0. -1.
    10030    2    1    2    0    0  0.00000000000E+00  0.00000000000E+00 -0.18420767660E+03  0.35468080364E+04  0.35420212844E+04 0.  0.
        4    1    3    3  502    0 -0.37241146595E+03  0.72574540102E+03  0.14819875929E+04  0.16916517152E+04  0.12699999809E+01 0.  1.
       -4    1    3    3    0  502  0.37241146595E+03 -0.72574540102E+03 -0.16661952695E+04  0.18551563212E+04  0.12699999809E+01 0. -1.
</event>
<event>
 5   0  0.1648000E-07  0.3680541E+04  0.7818609E-02  0.8072288E-01
       -1   -1    0    0    0  501  0.00000000000E+00  0.00000000000E+00  0.11706765482E+04  0.11706765482E+04  0.50400001928E-02 0.  1.
        1   -1    0    0  501    0  0.00000000000E+00  0.00000000000E+00 -0.28928528237E+04  0.28928528237E+04  0.50400001928E-02 0. -1.
    10030    2    1    2    0    0  0.00000000000E+00  0.00000000000E+00 -0.17221762755E+04  0.40635293720E+04  0.36805406984E+04 0.  0.
        3    1    3    3  502    0 -0.50708414906E+03 -0.33701550028E+03  0.10562507971E+04  0.12191716607E+04  0.10100000352E+00 0.  1.
       -3    1    3    3    0  502  0.50708414906E+03  0.33701550028E+03 -0.27784270726E+04  0.28443577113E+04  0.10100000352E+00 0. -1.
</event>
<event>
 5   0  0.1648000E-07  0.3759969E+04  0.7818609E-02  0.8054800E-01
       -1   -1    0    0    0  501  0.00000000000E+00  0.00000000000E+00  0.20119143094E+04  0.20119143094E+04  0.50400001928E-02 0.  1.
        1   -1    0    0  501    0  0.00000000000E+00  0.00000000000E+00 -0.17567055400E+04  0.17567055400E+04  0.50400001928E-02 0. -1.
    10030    2    1    2    0    0  0.00000000000E+00  0.00000000000E+00  0.25520876935E+03  0.37686198494E+04  0.37599686240E+04 0.  0.
        2    1    3    3  502    0  0.72086603958E+03 -0.17359864869E+04  0.15999101089E+03  0.18865031284E+04  0.25500000920E-02 0. -1.
       -2    1    3    3    0  502 -0.72086603958E+03  0.17359864869E+04  0.95217758454E+02  0.18821167210E+04  0.25500000920E-02 0.  1.
</event>
<event>
 5   0  0.1648000E-07  0.3752861E+04  0.7818609E-02  0.8056347E-01
       -1   -1    0    0    0  501  0.00000000000E+00  0.00000000000E+00  0.31212157469E+04  0.31212157469E+04  0.50400001928E-02 0. -1.
        1   -1    0    0  501    0  0.00000000000E+00  0.00000000000E+00 -0.11280835217E+04  0.11280835217E+04  0.50400001928E-02 0.  1.
    10030    2    1    2    0    0  0.00000000000E+00  0.00000000000E+00  0.19931322252E+04  0.42492992686E+04  0.37528613360E+04 0.  0.
        2    1    3    3  502    0 -0.12791781410E+04 -0.12979881959E+04  0.49029275742E+03  0.18871823073E+04  0.25500000920E-02 0. -1.
       -2    1    3    3    0  502  0.12791781410E+04  0.12979881959E+04  0.15028394678E+04  0.23621169613E+04  0.25500000920E-02 0.  1.
</event>
<event>
 5   0  0.1648000E-07  0.3858082E+04  0.7818609E-02  0.8033804E-01
       -1   -1    0    0    0  501  0.00000000000E+00  0.00000000000E+00  0.22379713750E+04  0.22379713750E+04  0.50400001928E-02 0. -1.
        1   -1    0    0  501    0  0.00000000000E+00  0.00000000000E+00 -0.16627552449E+04  0.16627552449E+04  0.50400001928E-02 0.  1.
    10030    2    1    2    0    0  0.00000000000E+00  0.00000000000E+00  0.57521613004E+03  0.39007266199E+04  0.38580817211E+04 0.  0.
        1    1    3    3  502    0  0.10750442866E+04 -0.15744196904E+04 -0.10062713707E+02  0.19064676336E+04  0.50400001928E-02 0.  1.
       -1    1    3    3    0  502 -0.10750442866E+04  0.15744196904E+04  0.58527884375E+03  0.19942589863E+04  0.50400001928E-02 0. -1.
</event>
<event>
 5   0  0.1656617E-07  0.3831359E+04  0.7818609E-02  0.8039459E-01
       -1   -1    0    0    0  501  0.00000000000E+00  0.00000000000E+00  0.13268159997E+04  0.13268159997E+04  0.50400001928E-02 0. -1.
        1   -1    0    0  501    0  0.00000000000E+00  0.00000000000E+00 -0.27658901193E+04  0.27658901193E+04  0.50400001928E-02 0.  1.
    10030    2    1    2    0    0  0.00000000000E+00  0.00000000000E+00 -0.14390741196E+04  0.40927061190E+04  0.38313586434E+04 0.  0.
        5    1    3    3  502    0 -0.16838369619E+04 -0.69717861176E+03 -0.13500905117E+04  0.22680677703E+04  0.46999998093E+01 0. -1.
       -5    1    3    3    0  502  0.16838369619E+04  0.69717861176E+03 -0.88983607879E+02  0.18246383487E+04  0.46999998093E+01 0.  1.
</event>
<event>
 5   0  0.1648000E-07  0.3774276E+04  0.7818609E-02  0.8051698E-01
        1   -1    0    0  501    0  0.00000000000E+00  0.00000000000E+00  0.23652901465E+04  0.23652901465E+04  0.50400001928E-02 0.  1.
       -1   -1    0    0    0  501  0.00000000000E+00  0.00000000000E+00 -0.15056458438E+04  0.15056458438E+04  0.50400001928E-02 0. -1.
    10030    2    1    2    0    0  0.00000000000E+00  0.00000000000E+00  0.85964430269E+03  0.38709359903E+04  0.37742757072E+04 0.  0.
        2    1    3    3  502    0 -0.26149930109E+03 -0.38045218224E+03  0.23064825904E+04  0.23522303644E+04  0.25500000920E-02 0.  1.
       -2    1    3    3    0  502  0.26149930109E+03  0.38045218224E+03 -0.14468382877E+04  0.15187056259E+04  0.25500000920E-02 0. -1.
</event>
<event>
 5   0  0.5325362E-07  0.3809730E+04  0.7818609E-02  0.8044070E-01
        2   -1    0    0  501    0  0.00000000000E+00  0.00000000000E+00  0.19475694499E+04  0.19475694499E+04  0.25500000920E-02 0.  1.
       -2   -1    0    0    0  501  0.00000000000E+00  0.00000000000E+00 -0.18630973469E+04  0.18630973469E+04  0.25500000920E-02 0. -1.
    10030    2    1    2    0    0  0.00000000000E+00  0.00000000000E+00  0.84472103062E+02  0.38106667968E+04  0.38097304235E+04 0.  0.
        4    1    3    3  502    0 -0.23552735030E+02  0.15098687748E+04  0.12036637308E+04  0.19310790864E+04  0.12699999809E+01 0. -1.
       -4    1    3    3    0  502  0.23552735030E+02 -0.15098687748E+04 -0.11191916277E+04  0.18795877103E+04  0.12699999809E+01 0.  1.
</event>
<event>
 5   0  0.5325362E-07  0.3786018E+04  0.7818609E-02  0.8049162E-01
        2   -1    0    0  501    0  0.00000000000E+00  0.00000000000E+00  0.16524617860E+04  0.16524617860E+04  0.25500000920E-02 0.  1.
       -2   -1    0    0    0  501  0.00000000000E+00  0.00000000000E+00 -0.21685723329E+04  0.21685723329E+04  0.25500000920E-02 0. -1.
    10030    2    1    2    0    0  0.00000000000E+00  0.00000000000E+00 -0.51611054684E+03  0.38210341189E+04  0.37860179135E+04 0.  0.
        4    1    3    3  502    0  0.12738575688E+04  0.30211887895E+03 -0.16379949448E+04  0.20969067634E+04  0.12699999809E+01 0. -1.
       -4    1    3    3    0  502 -0.12738575688E+04 -0.30211887895E+03  0.11218843979E+04  0.17241273554E+04  0.12699999809E+01 0.  1.
</event>
<event>
 5   0  0.5202788E-07  0.3768112E+04  0.7818609E-02  0.8053033E-01
       -2   -1    0    0    0  501  0.00000000000E+00  0.00000000000E+00  0.29519786449E+04  0.29519786449E+04  0.25500000920E-02 0.  1.
        2   -1    0    0  501    0  0.00000000000E+00  0.00000000000E+00 -0.12024701515E+04  0.12024701515E+04  0.25500000920E-02 0. -1.
    10030    2    1    2    0    0  0.00000000000E+00  0.00000000000E+00  0.17495084934E+04  0.41544487964E+04  0.37681115739E+04 0.  0.
        1    1    3    3  502    0 -0.54598778594E+02 -0.15320261563E+04  0.20823023857E+04  0.25857432966E+04  0.50400001928E-02 0. -1.
       -1    1    3    3    0  502  0.54598778594E+02  0.15320261563E+04 -0.33279389228E+03  0.15687054998E+04  0.50400001928E-02 0.  1.
</event>
<event>
 5   0  0.1648000E-07  0.3851662E+04  0.7818609E-02  0.8035158E-01
        1   -1    0    0  501    0  0.00000000000E+00  0.00000000000E+00  0.11600662912E+04  0.11600662912E+04  0.50400001928E-02 0.  1.
       -1   -1    0    0    0  501  0.00000000000E+00  0.00000000000E+00 -0.31970806914E+04  0.31970806914E+04  0.50400001928E-02 0. -1.
    10030    2    1    2    0    0  0.00000000000E+00  0.00000000000E+00 -0.20370144002E+04  0.43571469827E+04  0.38516622596E+04 0.  0.
        4    1    3    3  502    0  0.36809114965E+03  0.14499552359E+03 -0.31506161268E+04  0.31753579936E+04  0.12699999809E+01 0. -1.
       -4    1    3    3    0  502 -0.36809114965E+03 -0.14499552359E+03  0.11136017266E+04  0.11817889891E+04  0.12699999809E+01 0.  1.
</event>
<event>
 5   0  0.1648000E-07  0.3877686E+04  0.7818609E-02  0.8029686E-01
        1   -1    0    0  501    0  0.00000000000E+00  0.00000000000E+00  0.19370486487E+04  0.19370486488E+04  0.50400001928E-02 0. -1.
       -1   -1    0    0    0  501  0.00000000000E+00  0.00000000000E+00 -0.19406394539E+04  0.19406394539E+04  0.50400001928E-02 0.  1.
    10030    2    1    2    0    0  0.00000000000E+00  0.00000000000E+00 -0.35908051489E+01  0.38776881027E+04  0.38776864401E+04 0.  0.
        4    1    3    3  502    0  0.18551142031E+04  0.56356561368E+03 -0.93128083839E+01  0.19388510126E+04  0.12699999809E+01 0.  1.
       -4    1    3    3    0  502 -0.18551142031E+04 -0.56356561368E+03  0.57220032351E+01  0.19388370901E+04  0.12699999809E+01 0. -1.
</event>
<event>
 5   0  0.5134434E-07  0.3762884E+04  0.7818609E-02  0.8054167E-01
        2   -1    0    0  501    0  0.00000000000E+00  0.00000000000E+00  0.21436872962E+04  0.21436872962E+04  0.25500000920E-02 0. -1.
       -2   -1    0    0    0  501  0.00000000000E+00  0.00000000000E+00 -0.16512781109E+04  0.16512781109E+04  0.25500000920E-02 0.  1.
    10030    2    1    2    0    0  0.00000000000E+00  0.00000000000E+00  0.49240918528E+03  0.37949654070E+04  0.37628839518E+04 0.  0.
        5    1    3    3  502    0 -0.14019540177E+04 -0.74888301055E+03  0.12615155771E+04  0.20292226276E+04  0.46999998093E+01 0.  1.
       -5    1    3    3    0  502  0.14019540177E+04  0.74888301055E+03 -0.76910639177E+03  0.17657427794E+04  0.46999998093E+01 0. -1.
</event>
<event>
 5   0  0.1656617E-07  0.3781005E+04  0.7818609E-02  0.8050244E-01
        1   -1    0    0  501    0  0.00000000000E+00  0.00000000000E+00  0.22010951601E+04  0.22010951601E+04  0.50400001928E-02 0. -1.
       -1   -1    0    0    0  501  0.00000000000E+00  0.00000000000E+00 -0.16237367141E+04  0.16237367141E+04  0.50400001928E-02 0.  1.
    10030    2    1    2    0    0  0.00000000000E+00  0.00000000000E+00  0.57735844596E+03  0.38248318743E+04  0.37810046405E+04 0.  0.
        5    1    3    3  502    0  0.11278573788E+04  0.59173395804E+03 -0.11245706917E+04  0.16990858350E+04  0.46999998093E+01 0.  1.
       -5    1    3    3    0  502 -0.11278573788E+04 -0.59173395804E+03  0.17019291376E+04  0.21257460393E+04  0.46999998093E+01 0. -1.
</event>
<event>
 5   0  0.1648000E-07  0.3816427E+04  0.7818609E-02  0.8042639E-01
       -3   -1    0    0    0  501  0.00000000000E+00  0.00000000000E+00  0.13565143145E+04  0.13565143183E+04  0.10100000352E+00 0. -1.
        3   -1    0    0  501    0  0.00000000000E+00  0.00000000000E+00 -0.26842911736E+04  0.26842911755E+04  0.10100000352E+00 0.  1.
    10030    2    1    2    0    0  0.00000000000E+00  0.00000000000E+00 -0.13277768590E+04  0.40408054938E+04  0.38164273413E+04 0.  0.
        4    1    3    3  502    0 -0.67249419577E+03  0.15103446424E+04  0.34496293388E+03  0.16889021348E+04  0.12699999809E+01 0. -1.
       -4    1    3    3    0  502  0.67249419577E+03 -0.15103446424E+04 -0.16727397929E+04  0.23519033590E+04  0.12699999809E+01 0.  1.
</event>
<event>
 5   0  0.5158266E-07  0.3328300E+04  0.7818609E-02  0.8155732E-01
        2   -1    0    0  501    0  0.00000000000E+00  0.00000000000E+00  0.19926805374E+04  0.19926805374E+04  0.25500000920E-02 0.  1.
       -2   -1    0    0    0  501  0.00000000000E+00  0.00000000000E+00 -0.13897834697E+04  0.13897834697E+04  0.25500000920E-02 0. -1.
    10030    2    1    2    0    0  0.00000000000E+00  0.00000000000E+00  0.60289706773E+03  0.33824640071E+04  0.33282995486E+04 0.  0.
        2    1    3    3  502    0 -0.58641177968E+03 -0.13175684322E+04  0.11453409511E+04  0.18416490554E+04  0.25500000920E-02 0.  1.
       -2    1    3    3    0  502  0.58641177968E+03  0.13175684322E+04 -0.54244388339E+03  0.15408149517E+04  0.25500000920E-02 0. -1.
</event>
<event>
 5   0  0.1648000E-07  0.2794728E+04  0.7818609E-02  0.8304907E-01
       -1   -1    0    0    0  501  0.00000000000E+00  0.00000000000E+00  0.65978914979E+03  0.65978914981E+03  0.50400001928E-02 0.  1.
        1   -1    0    0  501    0  0.00000000000E+00  0.00000000000E+00 -0.29594699789E+04  0.29594699789E+04  0.50400001928E-02 0. -1.
    10030    2    1    2    0    0  0.00000000000E+00  0.00000000000E+00 -0.22996808291E+04  0.36192591287E+04  0.27947280234E+04 0.  0.
        3    1    3    3  502    0  0.63648218184E+02 -0.10766409576E+04 -0.23004659429E+04  0.25407381628E+04  0.10100000352E+00 0. -1.
       -3    1    3    3    0  502 -0.63648218184E+02  0.10766409576E+04  0.78511383937E+00  0.10785209659E+04  0.10100000352E+00 0.  1.
</event>
<event>
 5   0  0.5132561E-07  0.3840688E+04  0.7818609E-02  0.8037479E-01
       -2   -1    0    0    0  501  0.00000000000E+00  0.00000000000E+00  0.26820725144E+04  0.26820725144E+04  0.25500000920E-02 0. -1.
        2   -1    0    0  501    0  0.00000000000E+00  0.00000000000E+00 -0.13749523322E+04  0.13749523322E+04  0.25500000920E-02 0.  1.
    10030    2    1    2    0    0  0.00000000000E+00  0.00000000000E+00  0.13071201822E+04  0.40570248466E+04  0.38406884064E+04 0.  0.
        3    1    3    3  502    0 -0.56318698117E+03  0.80300480205E+03 -0.10904125053E+04  0.14666273316E+04  0.10100000352E+00 0.  1.
       -3    1    3    3    0  502  0.56318698117E+03 -0.80300480205E+03  0.23975326875E+04  0.25903975150E+04  0.10100000352E+00 0. -1.
</event>
<event>
 5   0  0.5325362E-07  0.3805845E+04  0.7818609E-02  0.8044902E-01
        2   -1    0    0  501    0  0.00000000000E+00  0.00000000000E+00  0.22494116218E+04  0.22494116218E+04  0.25500000920E-02 0. -1.
       -2   -1    0    0    0  501  0.00000000000E+00  0.00000000000E+00 -0.16098048136E+04  0.16098048136E+04  0.25500000920E-02 0.  1.
    10030    2    1    2    0    0  0.00000000000E+00  0.00000000000E+00  0.63960680820E+03  0.38592164353E+04  0.38058447979E+04 0.  0.
        4    1    3    3  502    0 -0.40408774865E+03 -0.12104687517E+04  0.17511904862E+04  0.21668389971E+04  0.12699999809E+01 0. -1.
       -4    1    3    3    0  502  0.40408774865E+03  0.12104687517E+04 -0.11115836780E+04  0.16923774383E+04  0.12699999809E+01 0.  1.
</event>
<event>
 5   0  0.5325362E-07  0.2969059E+04  0.7818609E-02  0.8252622E-01
        2   -1    0    0  501    0  0.00000000000E+00  0.00000000000E+00  0.18827811409E+04  0.18827811409E+04  0.25500000920E-02 0.  1.
       -2   -1    0    0    0  501  0.00000000000E+00  0.00000000000E+00 -0.11705172410E+04  0.11705172410E+04  0.25500000920E-02 0. -1.
    10030    2    1    2    0    0  0.00000000000E+00  0.00000000000E+00  0.71226389991E+03  0.30532983820E+04  0.29690589664E+04 0.  0.
        4    1    3    3  502    0  0.45311729569E+03  0.46422759883E+03  0.17293090047E+04  0.18469796408E+04  0.12699999809E+01 0.  1.
       -4    1    3    3    0  502 -0.45311729569E+03 -0.46422759883E+03 -0.10170451048E+04  0.12063187411E+04  0.12699999809E+01 0. -1.
</event>
<event>
 5   0  0.1648000E-07  0.3756409E+04  0.7818609E-02  0.8055575E-01
       -1   -1    0    0    0  501  0.00000000000E+00  0.00000000000E+00  0.19310630193E+04  0.19310630193E+04  0.50400001928E-02 0. -1.
        1   -1    0    0  501    0  0.00000000000E+00  0.00000000000E+00 -0.18267930800E+04  0.18267930800E+04  0.50400001928E-02 0.  1.
    10030    2    1    2    0    0  0.00000000000E+00  0.00000000000E+00  0.10426993936E+03  0.37578560993E+04  0.37564092219E+04 0.  0.
        2    1    3    3  502    0  0.11617411697E+04 -0.89751951097E+03 -0.11198403839E+04  0.18464090293E+04  0.25500000920E-02 0.  1.
       -2    1    3    3    0  502 -0.11617411697E+04  0.89751951097E+03  0.12241103233E+04  0.19114470700E+04  0.25500000920E-02 0. -1.
</event>
<event>
 5   0  0.5202788E-07  0.3720418E+04  0.7818609E-02  0.8063452E-01
        2   -1    0    0  501    0  0.00000000000E+00  0.00000000000E+00  0.11695529065E+04  0.11695529065E+04  0.25500000920E-02 0.  1.
       -2   -1    0    0    0  501  0.00000000000E+00  0.00000000000E+00 -0.29587181147E+04  0.29587181147E+04  0.25500000920E-02 0. -1.
    10030    2    1    2    0    0  0.00000000000E+00  0.00000000000E+00 -0.17891652082E+04  0.41282710212E+04  0.37204179177E+04 0.  0.
        1    1    3    3  502    0 -0.11991610968E+04 -0.13749788912E+03  0.67603135320E+03  0.13834418659E+04  0.50400001928E-02 0.  1.
       -1    1    3    3    0  502  0.11991610968E+04  0.13749788912E+03 -0.24651965614E+04  0.27448291553E+04  0.50400001928E-02 0. -1.
</event>
<event>
 5   0  0.1648000E-07  0.3796449E+04  0.7818609E-02  0.8046917E-01
        1   -1    0    0  501    0  0.00000000000E+00  0.00000000000E+00  0.18974083483E+04  0.18974083483E+04  0.50400001928E-02 0.  1.
       -1   -1    0    0    0  501  0.00000000000E+00  0.00000000000E+00 -0.18990411259E+04  0.18990411259E+04  0.50400001928E-02 0. -1.
    10030    2    1    2    0    0  0.00000000000E+00  0.00000000000E+00 -0.16327776106E+01  0.37964494743E+04  0.37964491231E+04 0.  0.
        1    1    3    3  502    0 -0.11653578439E+04 -0.28955828693E+03  0.14693380181E+04  0.18975924529E+04  0.50400001928E-02 0.  1.
       -1    1    3    3    0  502  0.11653578439E+04  0.28955828693E+03 -0.14709707957E+04  0.18988570214E+04  0.50400001928E-02 0. -1.
</event>
<event>
 5   0  0.1656617E-07  0.3730348E+04  0.7818609E-02  0.8061269E-01
        1   -1    0    0  501    0  0.00000000000E+00  0.00000000000E+00  0.11006262872E+04  0.11006262872E+04  0.50400001928E-02 0. -1.
       -1   -1    0    0    0  501  0.00000000000E+00  0.00000000000E+00 -0.31608129591E+04  0.31608129591E+04  0.50400001928E-02 0.  1.
    10030    2    1    2    0    0  0.00000000000E+00  0.00000000000E+00 -0.20601866719E+04  0.42614392463E+04  0.37303478828E+04 0.  0.
        5    1    3    3  502    0 -0.22248339995E+03 -0.85114732820E+03  0.84871579398E+03  0.12224120527E+04  0.46999998093E+01 0. -1.
       -5    1    3    3    0  502  0.22248339995E+03  0.85114732820E+03 -0.29089024659E+04  0.30390271936E+04  0.46999998093E+01 0.  1.
</event>
<event>
 5   0  0.5202788E-07  0.3762746E+04  0.7818609E-02  0.8054197E-01
        2   -1    0    0  501    0  0.00000000000E+00  0.00000000000E+00  0.19781186730E+04  0.19781186730E+04  0.25500000920E-02 0.  1.
       -2   -1    0    0    0  501  0.00000000000E+00  0.00000000000E+00 -0.17893590327E+04  0.17893590328E+04  0.25500000920E-02 0. -1.
    10030    2    1    2    0    0  0.00000000000E+00  0.00000000000E+00  0.18875964021E+03  0.37674777057E+04  0.37627460798E+04 0.  0.
        1    1    3    3  502    0  0.10551815072E+04  0.20023506065E+03  0.16410107095E+04  0.19612287580E+04  0.50400001928E-02 0.  1.
       -1    1    3    3    0  502 -0.10551815072E+04 -0.20023506065E+03 -0.14522510693E+04  0.18062489477E+04  0.50400001928E-02 0. -1.
</event>
<event>
 5   0  0.1656617E-07  0.2820723E+04  0.7818609E-02  0.8296863E-01
       -1   -1    0    0    0  501  0.00000000000E+00  0.00000000000E+00  0.13986961695E+04  0.13986961695E+04  0.50400001928E-02 0.  1.
        1   -1    0    0  501    0  0.00000000000E+00  0.00000000000E+00 -0.14221242023E+04  0.14221242023E+04  0.50400001928E-02 0. -1.
    10030    2    1    2    0    0  0.00000000000E+00  0.00000000000E+00 -0.23428032828E+02  0.28208203718E+04  0.28207230806E+04 0.  0.
        5    1    3    3  502    0  0.70926788099E+03  0.10681152383E+04 -0.59924299966E+03  0.14152898473E+04  0.46999998093E+01 0. -1.
       -5    1    3    3    0  502 -0.70926788099E+03 -0.10681152383E+04  0.57581496683E+03  0.14055305245E+04  0.46999998093E+01 0.  1.
</event>
<event>
 5   0  0.1648000E-07  0.3804186E+04  0.7818609E-02  0.8045257E-01
        1   -1    0    0  501    0  0.00000000000E+00  0.00000000000E+00  0.14975665492E+04  0.14975665492E+04  0.50400001928E-02 0. -1.
       -1   -1    0    0    0  501  0.00000000000E+00  0.00000000000E+00 -0.24158908279E+04  0.24158908279E+04  0.50400001928E-02 0.  1.
    10030    2    1    2    0    0  0.00000000000E+00  0.00000000000E+00 -0.91832427867E+03  0.39134573771E+04  0.38041857423E+04 0.  0.
        3    1    3    3  502    0  0.77604143978E+02  0.55889792948E+03 -0.23278098575E+04  0.23952219191E+04  0.10100000352E+00 0.  1.
       -3    1    3    3    0  502 -0.77604143978E+02 -0.55889792948E+03  0.14094855789E+04  0.15182354580E+04  0.10100000352E+00 0. -1.
</event>
<event>
 5   0  0.1648000E-07  0.3378920E+04  0.7818609E-02  0.8143099E-01
       -1   -1    0    0    0  501  0.00000000000E+00  0.00000000000E+00  0.28400841564E+04  0.28400841564E+04  0.50400001928E-02 0. -1.
        1   -1    0    0  501    0  0.00000000000E+00  0.00000000000E+00 -0.10049966423E+04  0.10049966423E+04  0.50400001928E-02 0.  1.
    10030    2    1    2    0    0  0.00000000000E+00  0.00000000000E+00  0.18350875142E+04  0.38450807987E+04  0.33789199701E+04 0.  0.
        4    1    3    3  502    0 -0.96784447352E+03  0.12427852063E+04  0.22251526548E+03  0.15908339480E+04  0.12699999809E+01 0.  1.
       -4    1    3    3    0  502  0.96784447352E+03 -0.12427852063E+04  0.16125722487E+04  0.22542468507E+04  0.12699999809E+01 0. -1.
</event>
<event>
 5   0  0.5134434E-07  0.2922720E+04  0.7818609E-02  0.8266150E-01
       -2   -1    0    0    0  501  0.00000000000E+00  0.00000000000E+00  0.14774035346E+04  0.14774035346E+04  0.25500000920E-02 0.  1.
        2   -1    0    0  501    0  0.00000000000E+00  0.00000000000E+00 -0.14454902491E+04  0.14454902491E+04  0.25500000920E-02 0. -1.
    10030    2    1    2    0    0  0.00000000000E+00  0.00000000000E+00  0.31913285499E+02  0.29228937837E+04  0.29227195577E+04 0.  0.
        5    1    3    3  502    0 -0.71252037585E+03 -0.17366881213E+03 -0.12481219378E+04  0.14476451927E+04  0.46999998093E+01 0. -1.
       -5    1    3    3    0  502  0.71252037585E+03  0.17366881213E+03  0.12800352233E+04  0.14752485910E+04  0.46999998093E+01 0.  1.
</event>
<event>
 5   0  0.5202788E-07  0.3765669E+04  0.7818609E-02  0.8053563E-01
       -2   -1    0    0    0  501  0.00000000000E+00  0.00000000000E+00  0.15436461221E+04  0.15436461221E+04  0.25500000920E-02 0. -1.
        2   -1    0    0  501    0  0.00000000000E+00  0.00000000000E+00 -0.22965532926E+04  0.22965532926E+04  0.25500000920E-02 0.  1.
    10030    2    1    2    0    0  0.00000000000E+00  0.00000000000E+00 -0.75290717056E+03  0.38401994147E+04  0.37656689097E+04 0.  0.
        1    1    3    3  502    0 -0.11937714349E+04  0.56206636665E+03  0.99328200793E+03  0.16515501768E+04  0.50400001928E-02 0. -1.
       -1    1    3    3    0  502  0.11937714349E+04 -0.56206636665E+03 -0.17461891785E+04  0.21886492379E+04  0.50400001928E-02 0.  1.
</event>
<event>
 5   0  0.1648000E-07  0.3754767E+04  0.7818609E-02  0.8055932E-01
        1   -1    0    0  501    0  0.00000000000E+00  0.00000000000E+00  0.23769105944E+04  0.23769105944E+04  0.50400001928E-02 0.  1.
       -1   -1    0    0    0  501  0.00000000000E+00  0.00000000000E+00 -0.14828362470E+04  0.14828362470E+04  0.50400001928E-02 0. -1.
    10030    2    1    2    0    0  0.00000000000E+00  0.00000000000E+00  0.89407434738E+03  0.38597468415E+04  0.37547672020E+04 0.  0.
        2    1    3    3  502    0  0.65646317246E+03 -0.11177874004E+04  0.18430103080E+04  0.22532375739E+04  0.25500000920E-02 0.  1.
       -2    1    3    3    0  502 -0.65646317246E+03  0.11177874004E+04 -0.94893596062E+03  0.16065092675E+04  0.25500000920E-02 0. -1.
</event>
<event>
 5   0  0.1656617E-07  0.3638190E+04  0.7818609E-02  0.8081799E-01
        1   -1    0    0  501    0  0.00000000000E+00  0.00000000000E+00  0.19631565639E+04  0.19631565639E+04  0.50400001928E-02 0. -1.
       -1   -1    0    0    0  501  0.00000000000E+00  0.00000000000E+00 -0.16856053711E+04  0.16856053711E+04  0.50400001928E-02 0.  1.
    10030    2    1    2    0    0  0.00000000000E+00  0.00000000000E+00  0.27755119274E+03  0.36487619350E+04  0.36381903460E+04 0.  0.
        5    1    3    3  502    0 -0.10030775413E+04  0.12820770724E+04  0.95304548768E+03  0.18863202180E+04  0.46999998093E+01 0. -1.
       -5    1    3    3    0  502  0.10030775413E+04 -0.12820770724E+04 -0.67549429493E+03  0.17624417170E+04  0.46999998093E+01 0.  1.
</event>
<event>
 5   0  0.5132561E-07  0.3814016E+04  0.7818609E-02  0.8043154E-01
       -2   -1    0    0    0  501  0.00000000000E+00  0.00000000000E+00  0.26101539679E+04  0.26101539679E+04  0.25500000920E-02 0.  1.
        2   -1    0    0  501    0  0.00000000000E+00  0.00000000000E+00 -0.13932816204E+04  0.13932816204E+04  0.25500000920E-02 0. -1.
    10030    2    1    2    0    0  0.00000000000E+00  0.00000000000E+00  0.12168723475E+04  0.40034355884E+04  0.38140160199E+04 0.  0.
        3    1    3    3  502    0  0.64482500005E+03  0.16904308748E+04 -0.24262911753E+02  0.18094044662E+04  0.10100000352E+00 0. -1.
       -3    1    3    3    0  502 -0.64482500005E+03 -0.16904308748E+04  0.12411352592E+04  0.21940311222E+04  0.10100000352E+00 0.  1.
</event>
<event>
 5   0  0.5202788E-07  0.3790417E+04  0.7818609E-02  0.8048214E-01
       -2   -1    0    0    0  501  0.00000000000E+00  0.00000000000E+00  0.25490806052E+04  0.25490806052E+04  0.25500000920E-02 0. -1.
        2   -1    0    0  501    0  0.00000000000E+00  0.00000000000E+00 -0.14090630855E+04  0.14090630855E+04  0.25500000920E-02 0.  1.
    10030    2    1    2    0    0  0.00000000000E+00  0.00000000000E+00  0.11400175197E+04  0.39581436907E+04  0.37904170656E+04 0.  0.
        1    1    3    3  502    0  0.15426119390E+04 -0.78472169447E+03 -0.23641721727E+03  0.17468064669E+04  0.50400001928E-02 0.  1.
       -1    1    3    3    0  502 -0.15426119390E+04  0.78472169447E+03  0.13764347370E+04  0.22113372238E+04  0.50400001928E-02 0. -1.
</event>
<event>
 5   0  0.1648000E-07  0.3769351E+04  0.7818609E-02  0.8052764E-01
        3   -1    0    0  501    0  0.00000000000E+00  0.00000000000E+00  0.27177115302E+04  0.27177115321E+04  0.10100000352E+00 0.  1.
       -3   -1    0    0    0  501  0.00000000000E+00  0.00000000000E+00 -0.13069824667E+04  0.13069824706E+04  0.10100000352E+00 0. -1.
    10030    2    1    2    0    0  0.00000000000E+00  0.00000000000E+00  0.14107290635E+04  0.40246940026E+04  0.37693507829E+04 0.  0.
        3    1    3    3  502    0  0.11555854341E+04  0.76915315866E+03 -0.65575606996E+03  0.15352492666E+04  0.10100000352E+00 0. -1.
       -3    1    3    3    0  502 -0.11555854341E+04 -0.76915315866E+03  0.20664851335E+04  0.24894447361E+04  0.10100000352E+00 0.  1.
</event>
<event>
 5   0  0.1648000E-07  0.3760933E+04  0.7818609E-02  0.8054591E-01
        1   -1    0    0  501    0  0.00000000000E+00  0.00000000000E+00  0.19375375896E+04  0.19375375896E+04  0.50400001928E-02 0. -1.
       -1   -1    0    0    0  501  0.00000000000E+00  0.00000000000E+00 -0.18250765698E+04  0.18250765698E+04  0.50400001928E-02 0.  1.
    10030    2    1    2    0    0  0.00000000000E+00  0.00000000000E+00  0.11246101986E+03  0.37626141594E+04  0.37609331065E+04 0.  0.
        2    1    3    3  502    0  0.71979227112E+03 -0.63281567565E+03 -0.15623918683E+04  0.18329279699E+04  0.25500000920E-02 0.  1.
       -2    1    3    3    0  502 -0.71979227112E+03  0.63281567565E+03  0.16748528881E+04  0.19296861895E+04  0.25500000920E-02 0. -1.
</event>
<event>
 5   0  0.1656617E-07  0.3819259E+04  0.7818609E-02  0.8042035E-01
        1   -1    0    0  501    0  0.00000000000E+00  0.00000000000E+00  0.22819365699E+04  0.22819365699E+04  0.50400001928E-02 0.  1.
       -1   -1    0    0    0  501  0.00000000000E+00  0.00000000000E+00 -0.15980659245E+04  0.15980659245E+04  0.50400001928E-02 0. -1.
    10030    2    1    2    0    0  0.00000000000E+00  0.00000000000E+00  0.68387064544E+03  0.38800024944E+04  0.38192591293E+04 0.  0.
        5    1    3    3  502    0 -0.90310595952E+03 -0.14621554694E+04 -0.50387090173E+03  0.17909234954E+04  0.46999998093E+01 0. -1.
       -5    1    3    3    0  502  0.90310595952E+03  0.14621554694E+04  0.11877415472E+04  0.20890789989E+04  0.46999998093E+01 0.  1.
</event>
<event>
 5   0  0.1648000E-07  0.3735385E+04  0.7818609E-02  0.8060165E-01
       -1   -1    0    0    0  501  0.00000000000E+00  0.00000000000E+00  0.11361081174E+04  0.11361081174E+04  0.50400001928E-02 0. -1.
        1   -1    0    0  501    0  0.00000000000E+00  0.00000000000E+00 -0.30703725821E+04  0.30703725821E+04  0.50400001928E-02 0.  1.
    10030    2    1    2    0    0  0.00000000000E+00  0.00000000000E+00 -0.19342644647E+04  0.42064806995E+04  0.37353849675E+04 0.  0.
        2    1    3    3  502    0  0.77222396122E+03 -0.13943312303E+04 -0.20634554964E+04  0.26073622709E+04  0.25500000920E-02 0.  1.
       -2    1    3    3    0  502 -0.77222396122E+03  0.13943312303E+04  0.12919103170E+03  0.15991184286E+04  0.25500000920E-02 0. -1.
</event>
<event>
 5   0  0.1656617E-07  0.3859629E+04  0.7818609E-02  0.8033478E-01
       -1   -1    0    0    0  501  0.00000000000E+00  0.00000000000E+00  0.17501304865E+04  0.17501304865E+04  0.50400001928E-02 0. -1.
        1   -1    0    0  501    0  0.00000000000E+00  0.00000000000E+00 -0.21279464419E+04  0.21279464419E+04  0.50400001928E-02 0.  1.
    10030    2    1    2    0    0  0.00000000000E+00  0.00000000000E+00 -0.37781595533E+03  0.38780769284E+04  0.38596289675E+04 0.  0.
        5    1    3    3  502    0 -0.16960919605E+04  0.81164981102E+03  0.24751644709E+03  0.18965204549E+04  0.46999998093E+01 0. -1.
       -5    1    3    3    0  502  0.16960919605E+04 -0.81164981102E+03 -0.62533240242E+03  0.19815564735E+04  0.46999998093E+01 0.  1.
</event>
<event>
 5   0  0.1648000E-07  0.3949902E+04  0.7818609E-02  0.8014730E-01
        1   -1    0    0  501    0  0.00000000000E+00  0.00000000000E+00  0.23922961244E+04  0.23922961244E+04  0.50400001928E-02 0.  1.
       -1   -1    0    0    0  501  0.00000000000E+00  0.00000000000E+00 -0.16304135034E+04  0.16304135034E+04  0.50400001928E-02 0. -1.
    10030    2    1    2    0    0  0.00000000000E+00  0.00000000000E+00  0.76188262102E+03  0.40227096279E+04  0.39499022294E+04 0.  0.
        2    1    3    3  502    0 -0.65226854543E+03  0.17610905951E+04  0.10033841589E+04  0.21292426141E+04  0.25500000920E-02 0.  1.
       -2    1    3    3    0  502  0.65226854543E+03 -0.17610905951E+04 -0.24150153788E+03  0.18934670138E+04  0.25500000920E-02 0. -1.
</event>
<event>
 5   0  0.5132561E-07  0.3798091E+04  0.7818609E-02  0.8046565E-01
        2   -1    0    0  501    0  0.00000000000E+00  0.00000000000E+00  0.27938465372E+04  0.27938465372E+04  0.25500000920E-02 0. -1.
       -2   -1    0    0    0  501  0.00000000000E+00  0.00000000000E+00 -0.12908272585E+04  0.12908272585E+04  0.25500000920E-02 0.  1.
    10030    2    1    2    0    0  0.00000000000E+00  0.00000000000E+00  0.15030192787E+04  0.40846737956E+04  0.37980907131E+04 0.  0.
        3    1    3    3  502    0 -0.13336537060E+03 -0.64845878213E+03  0.26657244585E+04  0.27467020248E+04  0.10100000352E+00 0. -1.
       -3    1    3    3    0  502  0.13336537060E+03  0.64845878213E+03 -0.11627051798E+04  0.13379717708E+04  0.10100000352E+00 0.  1.
</event>
<event>
 5   0  0.5158266E-07  0.3835255E+04  0.7818609E-02  0.8038631E-01
        2   -1    0    0  501    0  0.00000000000E+00  0.00000000000E+00  0.18802364619E+04  0.18802364619E+04  0.25500000920E-02 0. -1.
       -2   -1    0    0    0  501  0.00000000000E+00  0.00000000000E+00 -0.19557623575E+04  0.19557623575E+04  0.25500000920E-02 0.  1.
    10030    2    1    2    0    0  0.00000000000E+00  0.00000000000E+00 -0.75525895658E+02  0.38359988194E+04  0.38352552433E+04 0.  0.
        2    1    3    3  502    0  0.72171775751E+02 -0.19162338950E+04 -0.49366474886E+02  0.19182278683E+04  0.25500000920E-02 0. -1.
       -2    1    3    3    0  502 -0.72171775751E+02  0.19162338950E+04 -0.26159420772E+02  0.19177709511E+04  0.25500000920E-02 0.  1.
</event>
<event>
 5   0  0.5202788E-07  0.3845924E+04  0.7818609E-02  0.8036371E-01
        2   -1    0    0  501    0  0.00000000000E+00  0.00000000000E+00  0.28651593914E+04  0.28651593914E+04  0.25500000920E-02 0.  1.
       -2   -1    0    0    0  501  0.00000000000E+00  0.00000000000E+00 -0.12906025742E+04  0.12906025742E+04  0.25500000920E-02 0. -1.
    10030    2    1    2    0    0  0.00000000000E+00  0.00000000000E+00  0.15745568171E+04  0.41557619656E+04  0.38459236010E+04 0.  0.
        1    1    3    3  502    0 -0.15465927413E+04  0.10958555262E+04  0.43724669875E+03  0.19452591389E+04  0.50400001928E-02 0. -1.
       -1    1    3    3    0  502  0.15465927413E+04 -0.10958555262E+04  0.11373101184E+04  0.22105028268E+04  0.50400001928E-02 0.  1.
</event>
<event>
 5   0  0.1648000E-07  0.3381801E+04  0.7818609E-02  0.8142387E-01
        1   -1    0    0  501    0  0.00000000000E+00  0.00000000000E+00  0.22100267425E+04  0.22100267425E+04  0.50400001928E-02 0.  1.
       -1   -1    0    0    0  501  0.00000000000E+00  0.00000000000E+00 -0.12937149626E+04  0.12937149626E+04  0.50400001928E-02 0. -1.
    10030    2    1    2    0    0  0.00000000000E+00  0.00000000000E+00  0.91631177990E+03  0.35037417051E+04  0.33818010968E+04 0.  0.
        2    1    3    3  502    0 -0.56381218636E+02  0.90252933056E+03  0.19384526290E+04  0.21390036534E+04  0.25500000920E-02 0.  1.
       -2    1    3    3    0  502  0.56381218636E+02 -0.90252933056E+03 -0.10221408491E+04  0.13647380517E+04  0.25500000920E-02 0. -1.
</event>
<event>
 5   0  0.5325362E-07  0.3750163E+04  0.7818609E-02  0.8056935E-01
       -2   -1    0    0    0  501  0.00000000000E+00  0.00000000000E+00  0.16898517446E+04  0.16898517446E+04  0.25500000920E-02 0. -1.
        2   -1    0    0  501    0  0.00000000000E+00  0.00000000000E+00 -0.20806149318E+04  0.20806149318E+04  0.25500000920E-02 0.  1.
    10030    2    1    2    0    0  0.00000000000E+00  0.00000000000E+00 -0.39076318720E+03  0.37704666764E+04  0.37501630750E+04 0.  0.
        4    1    3    3  502    0 -0.15910539542E+04 -0.76536436054E+03 -0.83022225074E+03  0.19510268804E+04  0.12699999809E+01 0.  1.
       -4    1    3    3    0  502  0.15910539542E+04  0.76536436054E+03  0.43945906353E+03  0.18194397959E+04  0.12699999809E+01 0. -1.
</event>
<event>
 5   0  0.1648000E-07  0.3718262E+04  0.7818609E-02  0.8063927E-01
       -1   -1    0    0    0  501  0.00000000000E+00  0.00000000000E+00  0.13309331210E+04  0.13309331210E+04  0.50400001928E-02 0. -1.
        1   -1    0    0  501    0  0.00000000000E+00  0.00000000000E+00 -0.25969503496E+04  0.25969503496E+04  0.50400001928E-02 0.  1.
    10030    2    1    2    0    0  0.00000000000E+00  0.00000000000E+00 -0.12660172285E+04  0.39278834706E+04  0.37182615475E+04 0.  0.
        1    1    3    3  502    0 -0.18002729390E+04  0.31242792493E+03 -0.99553716284E+03  0.20807902599E+04  0.50400001928E-02 0. -1.
       -1    1    3    3    0  502  0.18002729390E+04 -0.31242792493E+03 -0.27048006569E+03  0.18470932107E+04  0.50400001928E-02 0.  1.
</event>
<event>
 5   0  0.1648000E-07  0.3327914E+04  0.7818609E-02  0.8155829E-01
        1   -1    0    0  501    0  0.00000000000E+00  0.00000000000E+00  0.18800788528E+04  0.18800788528E+04  0.50400001928E-02 0. -1.
       -1   -1    0    0    0  501  0.00000000000E+00  0.00000000000E+00 -0.14726795332E+04  0.14726795333E+04  0.50400001928E-02 0.  1.
    10030    2    1    2    0    0  0.00000000000E+00  0.00000000000E+00  0.40739931952E+03  0.33527583860E+04  0.33279144505E+04 0.  0.
        4    1    3    3  502    0 -0.13694007396E+04 -0.94460391967E+03  0.23884682687E+03  0.16806499845E+04  0.12699999809E+01 0. -1.
       -4    1    3    3    0  502  0.13694007396E+04  0.94460391967E+03  0.16855249265E+03  0.16721084015E+04  0.12699999809E+01 0.  1.
</event>
<event>
 5   0  0.5132561E-07  0.2740095E+04  0.7818609E-02  0.8322112E-01
       -2   -1    0    0    0  501  0.00000000000E+00  0.00000000000E+00  0.14057902655E+04  0.14057902655E+04  0.25500000920E-02 0. -1.
        2   -1    0    0  501    0  0.00000000000E+00  0.00000000000E+00 -0.13352130728E+04  0.13352130728E+04  0.25500000920E-02 0.  1.
    10030    2    1    2    0    0  0.00000000000E+00  0.00000000000E+00  0.70577192700E+02  0.27410033383E+04  0.27400945532E+04 0.  0.
        3    1    3    3  502    0  0.13186161661E+04  0.35684599182E+02  0.40555666296E+03  0.13800355797E+04  0.10100000352E+00 0. -1.
       -3    1    3    3    0  502 -0.13186161661E+04 -0.35684599182E+02 -0.33497947026E+03  0.13609677586E+04  0.10100000352E+00 0.  1.
</event>
<event>
 5   0  0.1656617E-07  0.3873822E+04  0.7818609E-02  0.8030496E-01
        1   -1    0    0  501    0  0.00000000000E+00  0.00000000000E+00  0.27566533243E+04  0.27566533243E+04  0.50400001928E-02 0. -1.
       -1   -1    0    0    0  501  0.00000000000E+00  0.00000000000E+00 -0.13609343356E+04  0.13609343356E+04  0.50400001928E-02 0.  1.
    10030    2    1    2    0    0  0.00000000000E+00  0.00000000000E+00  0.13957189888E+04  0.41175876599E+04  0.38738219683E+04 0.  0.
        5    1    3    3  502    0  0.82102407140E+03  0.14739613416E+04 -0.31329558938E+03  0.17160474290E+04  0.46999998093E+01 0.  1.
       -5    1    3    3    0  502 -0.82102407140E+03 -0.14739613416E+04  0.17090145781E+04  0.24015402309E+04  0.46999998093E+01 0. -1.
</event>
<event>
 5   0  0.5132561E-07  0.3824522E+04  0.7818609E-02  0.8040913E-01
        2   -1    0    0  501    0  0.00000000000E+00  0.00000000000E+00  0.14294167969E+04  0.14294167969E+04  0.25500000920E-02 0. -1.
       -2   -1    0    0    0  501  0.00000000000E+00  0.00000000000E+00 -0.25582050392E+04  0.25582050392E+04  0.25500000920E-02 0.  1.
    10030    2    1    2    0    0  0.00000000000E+00  0.00000000000E+00 -0.11287882423E+04  0.39876218360E+04  0.38245215401E+04 0.  0.
        3    1    3    3  502    0 -0.48168670937E+02  0.55067758035E+03 -0.24730842282E+04  0.25341096323E+04  0.10100000352E+00 0.  1.
       -3    1    3    3    0  502  0.48168670937E+02 -0.55067758035E+03  0.13442959859E+04  0.14535122037E+04  0.10100000352E+00 0. -1.
</event>
<event>
 5   0  0.1648000E-07  0.3824579E+04  0.7818609E-02  0.8040901E-01
       -1   -1    0    0    0  501  0.00000000000E+00  0.00000000000E+00  0.16259498863E+04  0.16259498863E+04  0.50400001928E-02 0.  1.
        1   -1    0    0  501    0  0.00000000000E+00  0.00000000000E+00 -0.22490557339E+04  0.22490557339E+04  0.50400001928E-02 0. -1.
    10030    2    1    2    0    0  0.00000000000E+00  0.00000000000E+00 -0.62310584763E+03  0.38750056202E+04  0.38245794094E+04 0.  0.
        4    1    3    3  502    0  0.58501340460E+03 -0.95206549838E+02  0.15305343950E+04  0.16412928190E+04  0.12699999809E+01 0.  1.
       -4    1    3    3    0  502 -0.58501340460E+03  0.95206549838E+02 -0.21536402426E+04  0.22337128012E+04  0.12699999809E+01 0. -1.
</event>
<event>
 5   0  0.1656617E-07  0.3783379E+04  0.7818609E-02  0.8049731E-01
        1   -1    0    0  501    0  0.00000000000E+00  0.00000000000E+00  0.27198551866E+04  0.27198551866E+04  0.50400001928E-02 0.  1.
       -1   -1    0    0    0  501  0.00000000000E+00  0.00000000000E+00 -0.13156913822E+04  0.13156913822E+04  0.50400001928E-02 0. -1.
    10030    2    1    2    0    0  0.00000000000E+00  0.00000000000E+00  0.14041638043E+04  0.40355465688E+04  0.37833794575E+04 0.  0.
        5    1    3    3  502    0  0.10508191868E+04  0.55268685863E+03  0.22729171343E+04  0.25643436034E+04  0.46999998093E+01 0.  1.
       -5    1    3    3    0  502 -0.10508191868E+04 -0.55268685863E+03 -0.86875332992E+03  0.14712029654E+04  0.46999998093E+01 0. -1.
</event>
<event>
 5   0  0.5134434E-07  0.3324264E+04  0.7818609E-02  0.8156749E-01
       -2   -1    0    0    0  501  0.00000000000E+00  0.00000000000E+00  0.16034981791E+04  0.16034981791E+04  0.25500000920E-02 0.  1.
        2   -1    0    0  501    0  0.00000000000E+00  0.00000000000E+00 -0.17229093407E+04  0.17229093407E+04  0.25500000920E-02 0. -1.
    10030    2    1    2    0    0  0.00000000000E+00  0.00000000000E+00 -0.11941116159E+03  0.33264075198E+04  0.33242635218E+04 0.  0.
        5    1    3    3  502    0 -0.90784413017E+02  0.65775018440E+02  0.15997040277E+04  0.16036343813E+04  0.46999998093E+01 0.  1.
       -5    1    3    3    0  502  0.90784413017E+02 -0.65775018440E+02 -0.17191151893E+04  0.17227731385E+04  0.46999998093E+01 0. -1.
</event>
<event>
 5   0  0.1648000E-07  0.2879839E+04  0.7818609E-02  0.8278901E-01
        1   -1    0    0  501    0  0.00000000000E+00  0.00000000000E+00  0.14760294081E+04  0.14760294081E+04  0.50400001928E-02 0.  1.
       -1   -1    0    0    0  501  0.00000000000E+00  0.00000000000E+00 -0.14046934736E+04  0.14046934736E+04  0.50400001928E-02 0. -1.
    10030    2    1    2    0    0  0.00000000000E+00  0.00000000000E+00  0.71335934435E+02  0.28807228817E+04  0.28798394931E+04 0.  0.
        1    1    3    3  502    0  0.54933514904E+03 -0.10088887706E+03 -0.12919245908E+04  0.14074859927E+04  0.50400001928E-02 0. -1.
       -1    1    3    3    0  502 -0.54933514904E+03  0.10088887706E+03  0.13632605252E+04  0.14732368890E+04  0.50400001928E-02 0.  1.
</event>
<event>
 5   0  0.5134434E-07  0.3734558E+04  0.7818609E-02  0.8060346E-01
        2   -1    0    0  501    0  0.00000000000E+00  0.00000000000E+00  0.11674319907E+04  0.11674319907E+04  0.25500000920E-02 0. -1.
       -2   -1    0    0    0  501  0.00000000000E+00  0.00000000000E+00 -0.29866664389E+04  0.29866664389E+04  0.25500000920E-02 0.  1.
    10030    2    1    2    0    0  0.00000000000E+00  0.00000000000E+00 -0.18192344483E+04  0.41540984296E+04  0.37345575086E+04 0.  0.
        5    1    3    3  502    0  0.15560604201E+04 -0.10213301688E+04 -0.10756077216E+04  0.21497426370E+04  0.46999998093E+01 0. -1.
       -5    1    3    3    0  502 -0.15560604201E+04  0.10213301688E+04 -0.74362672667E+03  0.20043557926E+04  0.46999998093E+01 0.  1.
</event>
<event>
 5   0  0.1648000E-07  0.3832215E+04  0.7818609E-02  0.8039277E-01
        1   -1    0    0  501    0  0.00000000000E+00  0.00000000000E+00  0.26415440264E+04  0.26415440264E+04  0.50400001928E-02 0. -1.
       -1   -1    0    0    0  501  0.00000000000E+00  0.00000000000E+00 -0.13898946909E+04  0.13898946909E+04  0.50400001928E-02 0.  1.
    10030    2    1    2    0    0  0.00000000000E+00  0.00000000000E+00  0.12516493355E+04  0.40314387173E+04  0.38322150347E+04 0.  0.
        2    1    3    3  502    0 -0.60763537952E+03 -0.16477100256E+04  0.14320191077E+04  0.22660202576E+04  0.25500000920E-02 0. -1.
       -2    1    3    3    0  502  0.60763537952E+03  0.16477100256E+04 -0.18036977224E+03  0.17654184597E+04  0.25500000920E-02 0.  1.
</event>
<event>
 5   0  0.1648000E-07  0.3795775E+04  0.7818609E-02  0.8047062E-01
        1   -1    0    0  501    0  0.00000000000E+00  0.00000000000E+00  0.20420420952E+04  0.20420420952E+04  0.50400001928E-02 0.  1.
       -1   -1    0    0    0  501  0.00000000000E+00  0.00000000000E+00 -0.17639095367E+04  0.17639095368E+04  0.50400001928E-02 0. -1.
    10030    2    1    2    0    0  0.00000000000E+00  0.00000000000E+00  0.27813255841E+03  0.38059516319E+04  0.37957752969E+04 0.  0.
        3    1    3    3  502    0  0.51759859000E+03 -0.39347075882E+03 -0.16487591415E+04  0.17723245344E+04  0.10100000352E+00 0. -1.
       -3    1    3    3    0  502 -0.51759859000E+03  0.39347075882E+03  0.19268916999E+04  0.20336270975E+04  0.10100000352E+00 0.  1.
</event>
<event>
 5   0  0.1656617E-07  0.3817463E+04  0.7818609E-02  0.8042418E-01
        1   -1    0    0  501    0  0.00000000000E+00  0.00000000000E+00  0.16382979496E+04  0.16382979496E+04  0.50400001928E-02 0. -1.
       -1   -1    0    0    0  501  0.00000000000E+00  0.00000000000E+00 -0.22238049877E+04  0.22238049877E+04  0.50400001928E-02 0.  1.
    10030    2    1    2    0    0  0.00000000000E+00  0.00000000000E+00 -0.58550703815E+03  0.38621029373E+04  0.38174625875E+04 0.  0.
        5    1    3    3  502    0  0.11493382145E+04 -0.10853483930E+04  0.78946258905E+03  0.17669840789E+04  0.46999998093E+01 0. -1.
       -5    1    3    3    0  502 -0.11493382145E+04  0.10853483930E+04 -0.13749696272E+04  0.20951188585E+04  0.46999998093E+01 0.  1.
</event>
<event>
 5   0  0.5158266E-07  0.3063507E+04  0.7818609E-02  0.8225825E-01
       -2   -1    0    0    0  501  0.00000000000E+00  0.00000000000E+00  0.12540312319E+04  0.12540312319E+04  0.25500000920E-02 0. -1.
        2   -1    0    0  501    0  0.00000000000E+00  0.00000000000E+00 -0.18709815950E+04  0.18709815950E+04  0.25500000920E-02 0.  1.
    10030    2    1    2    0    0  0.00000000000E+00  0.00000000000E+00 -0.61695036311E+03  0.31250128269E+04  0.30635073719E+04 0.  0.
        2    1    3    3  502    0  0.30921013938E+03 -0.80073936845E+01  0.12218421059E+04  0.12603861156E+04  0.25500000920E-02 0. -1.
       -2    1    3    3    0  502 -0.30921013938E+03  0.80073936845E+01 -0.18387924690E+04  0.18646267113E+04  0.25500000920E-02 0.  1.
</event>
<event>
 5   0  0.5202788E-07  0.3778880E+04  0.7818609E-02  0.8050702E-01
        2   -1    0    0  501    0  0.00000000000E+00  0.00000000000E+00  0.24141184270E+04  0.24141184270E+04  0.25500000920E-02 0.  1.
       -2   -1    0    0    0  501  0.00000000000E+00  0.00000000000E+00 -0.14787937357E+04  0.14787937357E+04  0.25500000920E-02 0. -1.
    10030    2    1    2    0    0  0.00000000000E+00  0.00000000000E+00  0.93532469133E+03  0.38929121628E+04  0.37788798378E+04 0.  0.
        1    1    3    3  502    0  0.29163805568E+03  0.15473998981E+04 -0.60811197379E+03  0.16879867810E+04  0.50400001928E-02 0. -1.
       -1    1    3    3    0  502 -0.29163805568E+03 -0.15473998981E+04  0.15434366651E+04  0.22049253818E+04  0.50400001928E-02 0.  1.
</event>
<event>
 5   0  0.1648000E-07  0.3127301E+04  0.7818609E-02  0.8208285E-01
        1   -1    0    0  501    0  0.00000000000E+00  0.00000000000E+00  0.25418349555E+04  0.25418349555E+04  0.50400001928E-02 0.  1.
       -1   -1    0    0    0  501  0.00000000000E+00  0.00000000000E+00 -0.96190455737E+03  0.96190455739E+03  0.50400001928E-02 0. -1.
    10030    2    1    2    0    0  0.00000000000E+00  0.00000000000E+00  0.15799303981E+04  0.35037395128E+04  0.31273008348E+04 0.  0.
        1    1    3    3  502    0  0.11016125278E+04 -0.40550647690E+03  0.19472701527E+04  0.22737296919E+04  0.50400001928E-02 0.  1.
       -1    1    3    3    0  502 -0.11016125278E+04  0.40550647690E+03 -0.36733975465E+03  0.12300098209E+04  0.50400001928E-02 0. -1.
</event>
<event>
 5   0  0.1648000E-07  0.3794709E+04  0.7818609E-02  0.8047291E-01
        1   -1    0    0  501    0  0.00000000000E+00  0.00000000000E+00  0.15758643068E+04  0.15758643068E+04  0.50400001928E-02 0. -1.
       -1   -1    0    0    0  501  0.00000000000E+00  0.00000000000E+00 -0.22844314400E+04  0.22844314400E+04  0.50400001928E-02 0.  1.
    10030    2    1    2    0    0  0.00000000000E+00  0.00000000000E+00 -0.70856713324E+03  0.38602957468E+04  0.37947089309E+04 0.  0.
        3    1    3    3  502    0 -0.52893325642E+03  0.17321747542E+04  0.22095795987E+03  0.18245608236E+04  0.10100000352E+00 0. -1.
       -3    1    3    3    0  502  0.52893325642E+03 -0.17321747542E+04 -0.92952509312E+03  0.20357349232E+04  0.10100000352E+00 0.  1.
</event>
<event>
 5   0  0.1648000E-07  0.3348062E+04  0.7818609E-02  0.8150773E-01
        1   -1    0    0  501    0  0.00000000000E+00  0.00000000000E+00  0.30787298455E+04  0.30787298455E+04  0.50400001928E-02 0.  1.
       -1   -1    0    0    0  501  0.00000000000E+00  0.00000000000E+00 -0.91023867326E+03  0.91023867328E+03  0.50400001928E-02 0. -1.
    10030    2    1    2    0    0  0.00000000000E+00  0.00000000000E+00  0.21684911723E+04  0.39889685188E+04  0.33480615108E+04 0.  0.
        3    1    3    3  502    0  0.23144593319E+03 -0.16414894702E+04  0.80655363829E+03  0.18435247984E+04  0.10100000352E+00 0. -1.
       -3    1    3    3    0  502 -0.23144593319E+03  0.16414894702E+04  0.13619375340E+04  0.21454437204E+04  0.10100000352E+00 0.  1.
</event>
<event>
 5   0  0.1648000E-07  0.3002337E+04  0.7818609E-02  0.8243064E-01
       -1   -1    0    0    0  501  0.00000000000E+00  0.00000000000E+00  0.12949174434E+04  0.12949174434E+04  0.50400001928E-02 0.  1.
        1   -1    0    0  501    0  0.00000000000E+00  0.00000000000E+00 -0.17402710618E+04  0.17402710619E+04  0.50400001928E-02 0. -1.
    10030    2    1    2    0    0  0.00000000000E+00  0.00000000000E+00 -0.44535361846E+03  0.30351885053E+04  0.30023373256E+04 0.  0.
        4    1    3    3  502    0  0.75768801387E+03 -0.78384573197E+03 -0.12659572989E+04  0.16706749395E+04  0.12699999809E+01 0. -1.
       -4    1    3    3    0  502 -0.75768801387E+03  0.78384573197E+03  0.82060368045E+03  0.13645135658E+04  0.12699999809E+01 0.  1.
</event>
<event>
 5   0  0.5202788E-07  0.3770819E+04  0.7818609E-02  0.8052446E-01
       -2   -1    0    0    0  501  0.00000000000E+00  0.00000000000E+00  0.16881182386E+04  0.16881182386E+04  0.25500000920E-02 0. -1.
        2   -1    0    0  501    0  0.00000000000E+00  0.00000000000E+00 -0.21057586523E+04  0.21057586523E+04  0.25500000920E-02 0.  1.
    10030    2    1    2    0    0  0.00000000000E+00  0.00000000000E+00 -0.41764041368E+03  0.37938768909E+04  0.37708193205E+04 0.  0.
        1    1    3    3  502    0 -0.17791918678E+04  0.42196300319E+02  0.41745316958E+03  0.18279965479E+04  0.50400001928E-02 0. -1.
       -1    1    3    3    0  502  0.17791918678E+04 -0.42196300319E+02 -0.83509358326E+03  0.19658803430E+04  0.50400001928E-02 0.  1.
</event>
<event>
 5   0  0.5132561E-07  0.3575380E+04  0.7818609E-02  0.8096155E-01
       -2   -1    0    0    0  501  0.00000000000E+00  0.00000000000E+00  0.15960956401E+04  0.15960956401E+04  0.25500000920E-02 0. -1.
        2   -1    0    0  501    0  0.00000000000E+00  0.00000000000E+00 -0.20022832410E+04  0.20022832410E+04  0.25500000920E-02 0.  1.
    10030    2    1    2    0    0  0.00000000000E+00  0.00000000000E+00 -0.40618760085E+03  0.35983788811E+04  0.35753800085E+04 0.  0.
        3    1    3    3  502    0 -0.16056086576E+04  0.59643504756E+03 -0.71836527210E+03  0.18573536556E+04  0.10100000352E+00 0. -1.
       -3    1    3    3    0  502  0.16056086576E+04 -0.59643504756E+03  0.31217767125E+03  0.17410252256E+04  0.10100000352E+00 0.  1.
</event>
<event>
 5   0  0.1648000E-07  0.3863037E+04  0.7818609E-02  0.8032761E-01
       -1   -1    0    0    0  501  0.00000000000E+00  0.00000000000E+00  0.23936604864E+04  0.23936604864E+04  0.50400001928E-02 0. -1.
        1   -1    0    0  501    0  0.00000000000E+00  0.00000000000E+00 -0.15586021633E+04  0.15586021634E+04  0.50400001928E-02 0.  1.
    10030    2    1    2    0    0  0.00000000000E+00  0.00000000000E+00  0.83505832309E+03  0.39522626498E+04  0.38630373607E+04 0.  0.
        3    1    3    3  502    0  0.18296338630E+04  0.11169071748E+03  0.10404680883E+04  0.21077496867E+04  0.10100000352E+00 0. -1.
       -3    1    3    3    0  502 -0.18296338630E+04 -0.11169071748E+03 -0.20540976520E+03  0.18445129631E+04  0.10100000352E+00 0.  1.
</event>
<event>
 5   0  0.5325362E-07  0.2962087E+04  0.7818609E-02  0.8254641E-01
        2   -1    0    0  501    0  0.00000000000E+00  0.00000000000E+00  0.13445306502E+04  0.13445306502E+04  0.25500000920E-02 0.  1.
       -2   -1    0    0    0  501  0.00000000000E+00  0.00000000000E+00 -0.16314171762E+04  0.16314171762E+04  0.25500000920E-02 0. -1.
    10030    2    1    2    0    0  0.00000000000E+00  0.00000000000E+00 -0.28688652599E+03  0.29759478265E+04  0.29620873699E+04 0.  0.
        4    1    3    3  502    0  0.65552918644E+03 -0.11496476424E+04  0.52455935009E+03  0.14235773041E+04  0.12699999809E+01 0.  1.
       -4    1    3    3    0  502 -0.65552918644E+03  0.11496476424E+04 -0.81144587608E+03  0.15523705224E+04  0.12699999809E+01 0. -1.
</event>
<event>
 5   0  0.1648000E-07  0.3830823E+04  0.7818609E-02  0.8039573E-01
       -1   -1    0    0    0  501  0.00000000000E+00  0.00000000000E+00  0.14608169918E+04  0.14608169918E+04  0.50400001928E-02 0.  1.
        1   -1    0    0  501    0  0.00000000000E+00  0.00000000000E+00 -0.25114719334E+04  0.25114719334E+04  0.50400001928E-02 0. -1.
    10030    2    1    2    0    0  0.00000000000E+00  0.00000000000E+00 -0.10506549416E+04  0.39722889252E+04  0.38308228227E+04 0.  0.
        3    1    3    3  502    0 -0.94507930425E+03 -0.60697089037E+01 -0.22528604720E+04  0.24430702096E+04  0.10100000352E+00 0. -1.
       -3    1    3    3    0  502  0.94507930425E+03  0.60697089037E+01  0.12022055303E+04  0.15292187156E+04  0.10100000352E+00 0.  1.
</event>
<event>
 5   0  0.1648000E-07  0.3778097E+04  0.7818609E-02  0.8050872E-01
        1   -1    0    0  501    0  0.00000000000E+00  0.00000000000E+00  0.20940409685E+04  0.20940409685E+04  0.50400001928E-02 0. -1.
       -1   -1    0    0    0  501  0.00000000000E+00  0.00000000000E+00 -0.17041234909E+04  0.17041234909E+04  0.50400001928E-02 0.  1.
    10030    2    1    2    0    0  0.00000000000E+00  0.00000000000E+00  0.38991747764E+03  0.37981644594E+04  0.37780970899E+04 0.  0.
        3    1    3    3  502    0  0.13813948440E+04 -0.59184190426E+03  0.13455797344E+04  0.20172043492E+04  0.10100000352E+00 0. -1.
       -3    1    3    3    0  502 -0.13813948440E+04  0.59184190426E+03 -0.95566225675E+03  0.17809601101E+04  0.10100000352E+00 0.  1.
</event>
<event>
 5   0  0.5132561E-07  0.3699039E+04  0.7818609E-02  0.8068175E-01
        2   -1    0    0  501    0  0.00000000000E+00  0.00000000000E+00  0.15102988636E+04  0.15102988636E+04  0.25500000920E-02 0.  1.
       -2   -1    0    0    0  501  0.00000000000E+00  0.00000000000E+00 -0.22649309959E+04  0.22649309960E+04  0.25500000920E-02 0. -1.
    10030    2    1    2    0    0  0.00000000000E+00  0.00000000000E+00 -0.75463213235E+03  0.37752298596E+04  0.36990391776E+04 0.  0.
        3    1    3    3  502    0 -0.14791658507E+04 -0.30809154030E+03  0.71136563504E+03  0.16699979305E+04  0.10100000352E+00 0.  1.
       -3    1    3    3    0  502  0.14791658507E+04  0.30809154030E+03 -0.14659977674E+04  0.21052319291E+04  0.10100000352E+00 0. -1.
</event>
<event>
 5   0  0.1648000E-07  0.3798529E+04  0.7818609E-02  0.8046471E-01
       -1   -1    0    0    0  501  0.00000000000E+00  0.00000000000E+00  0.17904869602E+04  0.17904869602E+04  0.50400001928E-02 0.  1.
        1   -1    0    0  501    0  0.00000000000E+00  0.00000000000E+00 -0.20146502968E+04  0.20146502968E+04  0.50400001928E-02 0. -1.
    10030    2    1    2    0    0  0.00000000000E+00  0.00000000000E+00 -0.22416333659E+03  0.38051372570E+04  0.37985287077E+04 0.  0.
        4    1    3    3  502    0 -0.50024373838E+03  0.20693771820E+03 -0.19357258572E+04  0.20100008020E+04  0.12699999809E+01 0. -1.
       -4    1    3    3    0  502  0.50024373838E+03 -0.20693771820E+03  0.17115625206E+04  0.17951364550E+04  0.12699999809E+01 0.  1.
</event>
<event>
 5   0  0.1648000E-07  0.3797448E+04  0.7818609E-02  0.8046703E-01
        1   -1    0    0  501    0  0.00000000000E+00  0.00000000000E+00  0.14379079121E+04  0.14379079121E+04  0.50400001928E-02 0.  1.
       -1   -1    0    0    0  501  0.00000000000E+00  0.00000000000E+00 -0.25072207218E+04  0.25072207218E+04  0.50400001928E-02 0. -1.
    10030    2    1    2    0    0  0.00000000000E+00  0.00000000000E+00 -0.10693128098E+04  0.39451286339E+04  0.37974478341E+04 0.  0.
        3    1    3    3  502    0  0.67196370355E+02  0.98809759728E+03 -0.22176254024E+04  0.24287269607E+04  0.10100000352E+00 0. -1.
       -3    1    3    3    0  502 -0.67196370355E+02 -0.98809759728E+03  0.11483125926E+04  0.15164016732E+04  0.10100000352E+00 0.  1.
</event>
<event>
 5   0  0.5158266E-07  0.3791828E+04  0.7818609E-02  0.8047911E-01
       -2   -1    0    0    0  501  0.00000000000E+00  0.00000000000E+00  0.18501629790E+04  0.18501629790E+04  0.25500000920E-02 0.  1.
        2   -1    0    0  501    0  0.00000000000E+00  0.00000000000E+00 -0.19427963552E+04  0.19427963553E+04  0.25500000920E-02 0. -1.
    10030    2    1    2    0    0  0.00000000000E+00  0.00000000000E+00 -0.92633376214E+02  0.37929593343E+04  0.37918279984E+04 0.  0.
        2    1    3    3  502    0  0.34940811362E+03  0.13428491330E+04  0.12460285613E+04  0.18649174243E+04  0.25500000920E-02 0.  1.
       -2    1    3    3    0  502 -0.34940811362E+03 -0.13428491330E+04 -0.13386619375E+04  0.19280419100E+04  0.25500000920E-02 0. -1.
</event>
<event>
 5   0  0.1648000E-07  0.3780762E+04  0.7818609E-02  0.8050296E-01
        1   -1    0    0  501    0  0.00000000000E+00  0.00000000000E+00  0.14840408370E+04  0.14840408371E+04  0.50400001928E-02 0.  1.
       -1   -1    0    0    0  501  0.00000000000E+00  0.00000000000E+00 -0.24079797211E+04  0.24079797211E+04  0.50400001928E-02 0. -1.
    10030    2    1    2    0    0  0.00000000000E+00  0.00000000000E+00 -0.92393888406E+03  0.38920205582E+04  0.37807619554E+04 0.  0.
        4    1    3    3  502    0 -0.16429212811E+03  0.14164430273E+04 -0.17395532791E+04  0.22492998859E+04  0.12699999809E+01 0. -1.
       -4    1    3    3    0  502  0.16429212811E+03 -0.14164430273E+04  0.81561439503E+03  0.16427206723E+04  0.12699999809E+01 0.  1.
</event>
<event>
 5   0  0.5202788E-07  0.3725276E+04  0.7818609E-02  0.8062383E-01
        2   -1    0    0  501    0  0.00000000000E+00  0.00000000000E+00  0.22359987773E+04  0.22359987773E+04  0.25500000920E-02 0.  1.
       -2   -1    0    0    0  501  0.00000000000E+00  0.00000000000E+00 -0.15516200436E+04  0.15516200436E+04  0.25500000920E-02 0. -1.
    10030    2    1    2    0    0  0.00000000000E+00  0.00000000000E+00  0.68437873364E+03  0.37876188209E+04  0.37252761081E+04 0.  0.
        1    1    3    3  502    0 -0.10593221666E+04 -0.15297387890E+04  0.42820001522E+03  0.19093505357E+04  0.50400001928E-02 0.  1.
       -1    1    3    3    0  502  0.10593221666E+04  0.15297387890E+04  0.25617871842E+03  0.18782682852E+04  0.50400001928E-02 0. -1.
</event>
<event>
 5   0  0.1648000E-07  0.3891758E+04  0.7818609E-02  0.8026746E-01
        1   -1    0    0  501    0  0.00000000000E+00  0.00000000000E+00  0.27380506271E+04  0.27380506271E+04  0.50400001928E-02 0. -1.
       -1   -1    0    0    0  501  0.00000000000E+00  0.00000000000E+00 -0.13828978765E+04  0.13828978766E+04  0.50400001928E-02 0.  1.
    10030    2    1    2    0    0  0.00000000000E+00  0.00000000000E+00  0.13551527506E+04  0.41209485037E+04  0.38917576482E+04 0.  0.
        2    1    3    3  502    0  0.13370157749E+04 -0.14115562956E+04  0.59324952236E+03  0.20327437993E+04  0.25500000920E-02 0.  1.
       -2    1    3    3    0  502 -0.13370157749E+04  0.14115562956E+04  0.76190322821E+03  0.20882047043E+04  0.25500000920E-02 0. -1.
</event>
<event>
 5   0  0.1648000E-07  0.3810940E+04  0.7818609E-02  0.8043811E-01
        1   -1    0    0  501    0  0.00000000000E+00  0.00000000000E+00  0.24800083228E+04  0.24800083228E+04  0.50400001928E-02 0. -1.
       -1   -1    0    0    0  501  0.00000000000E+00  0.00000000000E+00 -0.14640338938E+04  0.14640338938E+04  0.50400001928E-02 0.  1.
    10030    2    1    2    0    0  0.00000000000E+00  0.00000000000E+00  0.10159744290E+04  0.39440422167E+04  0.38109401683E+04 0.  0.
        4    1    3    3  502    0 -0.10619384817E+04 -0.14534143826E+04  0.11548682472E+04  0.21386558834E+04  0.12699999809E+01 0. -1.
       -4    1    3    3    0  502  0.10619384817E+04  0.14534143826E+04 -0.13889381821E+03  0.18053863332E+04  0.12699999809E+01 0.  1.
</event>
<event>
 5   0  0.5132561E-07  0.3024861E+04  0.7818609E-02  0.8236667E-01
        2   -1    0    0  501    0  0.00000000000E+00  0.00000000000E+00  0.11515279898E+04  0.11515279898E+04  0.25500000920E-02 0.  1.
       -2   -1    0    0    0  501  0.00000000000E+00  0.00000000000E+00 -0.19864436230E+04  0.19864436230E+04  0.25500000920E-02 0. -1.
    10030    2    1    2    0    0  0.00000000000E+00  0.00000000000E+00 -0.83491563320E+03  0.31379716127E+04  0.30248606129E+04 0.  0.
        3    1    3    3  502    0  0.56840188950E+03 -0.65209139995E+03 -0.17044707774E+04  0.19114195099E+04  0.10100000352E+00 0. -1.
       -3    1    3    3    0  502 -0.56840188950E+03  0.65209139995E+03  0.86955514418E+03  0.12265521028E+04  0.10100000352E+00 0.  1.
</event>
<event>
 5   0  0.1648000E-07  0.2811599E+04  0.7818609E-02  0.8299676E-01
       -1   -1    0    0    0  501  0.00000000000E+00  0.00000000000E+00  0.57423105218E+03  0.57423105220E+03  0.50400001928E-02 0. -1.
        1   -1    0    0  501    0  0.00000000000E+00  0.00000000000E+00 -0.34415977404E+04  0.34415977404E+04  0.50400001928E-02 0.  1.
    10030    2    1    2    0    0  0.00000000000E+00  0.00000000000E+00 -0.28673666882E+04  0.40158287926E+04  0.28115990409E+04 0.  0.
        3    1    3    3  502    0  0.12709381151E+04 -0.58846684511E+03 -0.16068291337E+04  0.21315432896E+04  0.10100000352E+00 0.  1.
       -3    1    3    3    0  502 -0.12709381151E+04  0.58846684511E+03 -0.12605375545E+04  0.18842855030E+04  0.10100000352E+00 0. -1.
</event>
<event>
 5   0  0.5158266E-07  0.3745196E+04  0.7818609E-02  0.8058019E-01
        2   -1    0    0  501    0  0.00000000000E+00  0.00000000000E+00  0.16646385438E+04  0.16646385438E+04  0.25500000920E-02 0. -1.
       -2   -1    0    0    0  501  0.00000000000E+00  0.00000000000E+00 -0.21065369222E+04  0.21065369222E+04  0.25500000920E-02 0.  1.
    10030    2    1    2    0    0  0.00000000000E+00  0.00000000000E+00 -0.44189837832E+03  0.37711754660E+04  0.37451956182E+04 0.  0.
        2    1    3    3  502    0  0.11728773067E+04 -0.47228734309E+03  0.11699094786E+04  0.17226098511E+04  0.25500000920E-02 0. -1.
       -2    1    3    3    0  502 -0.11728773067E+04  0.47228734309E+03 -0.16118078569E+04  0.20485656149E+04  0.25500000920E-02 0.  1.
</event>
<event>
 5   0  0.5132561E-07  0.3828974E+04  0.7818609E-02  0.8039966E-01
       -2   -1    0    0    0  501  0.00000000000E+00  0.00000000000E+00  0.18031332260E+04  0.18031332260E+04  0.25500000920E-02 0. -1.
        2   -1    0    0  501    0  0.00000000000E+00  0.00000000000E+00 -0.20327174895E+04  0.20327174895E+04  0.25500000920E-02 0.  1.
    10030    2    1    2    0    0  0.00000000000E+00  0.00000000000E+00 -0.22958426349E+03  0.38358507156E+04  0.38289739851E+04 0.  0.
        3    1    3    3  502    0 -0.19464159827E+02 -0.12895854309E+04 -0.15322010324E+04  0.20027604577E+04  0.10100000352E+00 0.  1.
       -3    1    3    3    0  502  0.19464159827E+02  0.12895854309E+04  0.13026167689E+04  0.18330902579E+04  0.10100000352E+00 0. -1.
</event>
<event>
 5   0  0.5158266E-07  0.3790843E+04  0.7818609E-02  0.8048123E-01
       -2   -1    0    0    0  501  0.00000000000E+00  0.00000000000E+00  0.18525858904E+04  0.18525858904E+04  0.25500000920E-02 0.  1.
        2   -1    0    0  501    0  0.00000000000E+00  0.00000000000E+00 -0.19392480615E+04  0.19392480615E+04  0.25500000920E-02 0. -1.
    10030    2    1    2    0    0  0.00000000000E+00  0.00000000000E+00 -0.86662171103E+02  0.37918339520E+04  0.37908434929E+04 0.  0.
        2    1    3    3  502    0  0.18887884156E+03 -0.10908429441E+04 -0.15822420973E+04  0.19310887085E+04  0.25500000920E-02 0. -1.
       -2    1    3    3    0  502 -0.18887884156E+03  0.10908429441E+04  0.14955799262E+04  0.18607452435E+04  0.25500000920E-02 0.  1.
</event>
<event>
 5   0  0.5158266E-07  0.3827054E+04  0.7818609E-02  0.8040374E-01
        2   -1    0    0  501    0  0.00000000000E+00  0.00000000000E+00  0.18125963973E+04  0.18125963973E+04  0.25500000920E-02 0.  1.
       -2   -1    0    0    0  501  0.00000000000E+00  0.00000000000E+00 -0.20200772265E+04  0.20200772265E+04  0.25500000920E-02 0. -1.
    10030    2    1    2    0    0  0.00000000000E+00  0.00000000000E+00 -0.20748082920E+03  0.38326736238E+04  0.38270535418E+04 0.  0.
        2    1    3    3  502    0  0.51269325910E+03 -0.12082987760E+04 -0.14981731741E+04  0.19918240810E+04  0.25500000920E-02 0. -1.
       -2    1    3    3    0  502 -0.51269325910E+03  0.12082987760E+04  0.12906923449E+04  0.18408495428E+04  0.25500000920E-02 0.  1.
</event>
<event>
 5   0  0.1656617E-07  0.3901841E+04  0.7818609E-02  0.8024646E-01
       -1   -1    0    0    0  501  0.00000000000E+00  0.00000000000E+00  0.28271329254E+04  0.28271329254E+04  0.50400001928E-02 0.  1.
        1   -1    0    0  501    0  0.00000000000E+00  0.00000000000E+00 -0.13462726267E+04  0.13462726267E+04  0.50400001928E-02 0. -1.
    10030    2    1    2    0    0  0.00000000000E+00  0.00000000000E+00  0.14808602987E+04  0.41734055521E+04  0.39018414471E+04 0.  0.
        5    1    3    3  502    0  0.97257862809E+03  0.70719403623E+03  0.23835921254E+04  0.26697501948E+04  0.46999998093E+01 0.  1.
       -5    1    3    3    0  502 -0.97257862809E+03 -0.70719403623E+03 -0.90273182664E+03  0.15036553573E+04  0.46999998093E+01 0. -1.
</event>
<event>
 5   0  0.1648000E-07  0.2831674E+04  0.7818609E-02  0.8293502E-01
        1   -1    0    0  501    0  0.00000000000E+00  0.00000000000E+00  0.20184158809E+04  0.20184158809E+04  0.50400001928E-02 0.  1.
       -1   -1    0    0    0  501  0.00000000000E+00  0.00000000000E+00 -0.99315239118E+03  0.99315239119E+03  0.50400001928E-02 0. -1.
    10030    2    1    2    0    0  0.00000000000E+00  0.00000000000E+00  0.10252634897E+04  0.30115682721E+04  0.28316741045E+04 0.  0.
        1    1    3    3  502    0 -0.13928883829E+04 -0.13192898905E+03  0.28193841323E+03  0.14272465009E+04  0.50400001928E-02 0.  1.
       -1    1    3    3    0  502  0.13928883829E+04  0.13192898905E+03  0.74332507645E+03  0.15843217712E+04  0.50400001928E-02 0. -1.
</event>
<event>
 5   0  0.5158266E-07  0.3843877E+04  0.7818609E-02  0.8036804E-01
        2   -1    0    0  501    0  0.00000000000E+00  0.00000000000E+00  0.19811418249E+04  0.19811418249E+04  0.25500000920E-02 0. -1.
       -2   -1    0    0    0  501  0.00000000000E+00  0.00000000000E+00 -0.18645041822E+04  0.18645041822E+04  0.25500000920E-02 0.  1.
    10030    2    1    2    0    0  0.00000000000E+00  0.00000000000E+00  0.11663764266E+03  0.38456460071E+04  0.38438768024E+04 0.  0.
        2    1    3    3  502    0 -0.22817841429E+03  0.17906583765E+04 -0.60177604304E+03  0.19028024638E+04  0.25500000920E-02 0.  1.
       -2    1    3    3    0  502  0.22817841429E+03 -0.17906583765E+04  0.71841368569E+03  0.19428435433E+04  0.25500000920E-02 0. -1.
</event>
<event>
 5   0  0.5158266E-07  0.3701478E+04  0.7818609E-02  0.8067634E-01
       -2   -1    0    0    0  501  0.00000000000E+00  0.00000000000E+00  0.11115661160E+04  0.11115661160E+04  0.25500000920E-02 0. -1.
        2   -1    0    0  501    0  0.00000000000E+00  0.00000000000E+00 -0.30814492600E+04  0.30814492600E+04  0.25500000920E-02 0.  1.
    10030    2    1    2    0    0  0.00000000000E+00  0.00000000000E+00 -0.19698831440E+04  0.41930153760E+04  0.37014778592E+04 0.  0.
        2    1    3    3  502    0 -0.10670468357E+04 -0.21153878669E+03 -0.26810715293E+04  0.28933513705E+04  0.25500000920E-02 0.  1.
       -2    1    3    3    0  502  0.10670468357E+04  0.21153878669E+03  0.71118838532E+03  0.12996640055E+04  0.25500000920E-02 0. -1.
</event>
<event>
 5   0  0.5132561E-07  0.3573964E+04  0.7818609E-02  0.8096482E-01
        2   -1    0    0  501    0  0.00000000000E+00  0.00000000000E+00  0.27393412979E+04  0.27393412979E+04  0.25500000920E-02 0. -1.
       -2   -1    0    0    0  501  0.00000000000E+00  0.00000000000E+00 -0.11657199218E+04  0.11657199218E+04  0.25500000920E-02 0.  1.
    10030    2    1    2    0    0  0.00000000000E+00  0.00000000000E+00  0.15736213762E+04  0.39050612197E+04  0.35739640308E+04 0.  0.
        3    1    3    3  502    0 -0.11100849624E+04 -0.42292411689E+03 -0.67183547144E+03  0.13647403941E+04  0.10100000352E+00 0.  1.
       -3    1    3    3    0  502  0.11100849624E+04  0.42292411689E+03  0.22454568476E+04  0.25403208256E+04  0.10100000352E+00 0. -1.
</event>
<event>
 5   0  0.1648000E-07  0.3758111E+04  0.7818609E-02  0.8055204E-01
       -1   -1    0    0    0  501  0.00000000000E+00  0.00000000000E+00  0.18947777378E+04  0.18947777378E+04  0.50400001928E-02 0.  1.
        1   -1    0    0  501    0  0.00000000000E+00  0.00000000000E+00 -0.18634634287E+04  0.18634634287E+04  0.50400001928E-02 0. -1.
    10030    2    1    2    0    0  0.00000000000E+00  0.00000000000E+00  0.31314309135E+02  0.37582411666E+04  0.37581107062E+04 0.  0.
        2    1    3    3  502    0  0.45378710686E+03 -0.10736767086E+04  0.14895280508E+04  0.18914011280E+04  0.25500000920E-02 0.  1.
       -2    1    3    3    0  502 -0.45378710686E+03  0.10736767086E+04 -0.14582137417E+04  0.18668400385E+04  0.25500000920E-02 0. -1.
</event>
<event>
 5   0  0.1648000E-07  0.3539085E+04  0.7818609E-02  0.8104589E-01
        1   -1    0    0  501    0  0.00000000000E+00  0.00000000000E+00  0.28967122794E+04  0.28967122794E+04  0.50400001928E-02 0.  1.
       -1   -1    0    0    0  501  0.00000000000E+00  0.00000000000E+00 -0.10809772667E+04  0.10809772667E+04  0.50400001928E-02 0. -1.
    10030    2    1    2    0    0  0.00000000000E+00  0.00000000000E+00  0.18157350127E+04  0.39776895462E+04  0.35390846965E+04 0.  0.
        1    1    3    3  502    0 -0.10185763983E+03  0.13294423913E+04  0.22154441187E+04  0.25857271113E+04  0.50400001928E-02 0.  1.
       -1    1    3    3    0  502  0.10185763983E+03 -0.13294423913E+04 -0.39970910601E+03  0.13919624349E+04  0.50400001928E-02 0. -1.
</event>
<event>
 5   0  0.5158266E-07  0.3795052E+04  0.7818609E-02  0.8047217E-01
       -2   -1    0    0    0  501  0.00000000000E+00  0.00000000000E+00  0.21184920822E+04  0.21184920822E+04  0.25500000920E-02 0. -1.
        2   -1    0    0  501    0  0.00000000000E+00  0.00000000000E+00 -0.16996076989E+04  0.16996076989E+04  0.25500000920E-02 0.  1.
    10030    2    1    2    0    0  0.00000000000E+00  0.00000000000E+00  0.41888438330E+03  0.38180997812E+04  0.37950522806E+04 0.  0.
        2    1    3    3  502    0 -0.12827885724E+04  0.23764148799E+03 -0.11768174684E+04  0.17569631050E+04  0.25500000920E-02 0.  1.
       -2    1    3    3    0  502  0.12827885724E+04 -0.23764148799E+03  0.15957018517E+04  0.20611366762E+04  0.25500000920E-02 0. -1.
</event>
<event>
 5   0  0.5134434E-07  0.3863644E+04  0.7818609E-02  0.8032633E-01
       -2   -1    0    0    0  501  0.00000000000E+00  0.00000000000E+00  0.19716536770E+04  0.19716536770E+04  0.25500000920E-02 0. -1.
        2   -1    0    0  501    0  0.00000000000E+00  0.00000000000E+00 -0.18927948998E+04  0.18927948998E+04  0.25500000920E-02 0.  1.
    10030    2    1    2    0    0  0.00000000000E+00  0.00000000000E+00  0.78858777125E+02  0.38644485768E+04  0.38636438883E+04 0.  0.
        5    1    3    3  502    0  0.14776779415E+04 -0.86888629292E+03 -0.85149651911E+03  0.19140438608E+04  0.46999998093E+01 0.  1.
       -5    1    3    3    0  502 -0.14776779415E+04  0.86888629292E+03  0.93035529624E+03  0.19504047160E+04  0.46999998093E+01 0. -1.
</event>
<event>
 5   0  0.1648000E-07  0.3899293E+04  0.7818609E-02  0.8025176E-01
        1   -1    0    0  501    0  0.00000000000E+00  0.00000000000E+00  0.21655884033E+04  0.21655884033E+04  0.50400001928E-02 0.  1.
       -1   -1    0    0    0  501  0.00000000000E+00  0.00000000000E+00 -0.17552371558E+04  0.17552371558E+04  0.50400001928E-02 0. -1.
    10030    2    1    2    0    0  0.00000000000E+00  0.00000000000E+00  0.41035124753E+03  0.39208255591E+04  0.38992928741E+04 0.  0.
        2    1    3    3  502    0  0.12270759120E+04 -0.11200869828E+04  0.12310108762E+04  0.20677760808E+04  0.25500000920E-02 0.  1.
       -2    1    3    3    0  502 -0.12270759120E+04  0.11200869828E+04 -0.82065962866E+03  0.18530494783E+04  0.25500000920E-02 0. -1.
</event>
<event>
 5   0  0.1656617E-07  0.3017145E+04  0.7818609E-02  0.8238852E-01
        1   -1    0    0  501    0  0.00000000000E+00  0.00000000000E+00  0.19714156880E+04  0.19714156880E+04  0.50400001928E-02 0.  1.
       -1   -1    0    0    0  501  0.00000000000E+00  0.00000000000E+00 -0.11543944936E+04  0.11543944936E+04  0.50400001928E-02 0. -1.
    10030    2    1    2    0    0  0.00000000000E+00  0.00000000000E+00  0.81702119436E+03  0.31258101817E+04  0.30171452832E+04 0.  0.
        5    1    3    3  502    0 -0.11506315013E+04  0.52158795960E+03 -0.44566069517E+03  0.13396426376E+04  0.46999998093E+01 0. -1.
       -5    1    3    3    0  502  0.11506315013E+04 -0.52158795960E+03  0.12626818895E+04  0.17861675441E+04  0.46999998093E+01 0.  1.
</event>
<event>
 5   0  0.5325362E-07  0.3779593E+04  0.7818609E-02  0.8050548E-01
        2   -1    0    0  501    0  0.00000000000E+00  0.00000000000E+00  0.21970810944E+04  0.21970810944E+04  0.25500000920E-02 0. -1.
       -2   -1    0    0    0  501  0.00000000000E+00  0.00000000000E+00 -0.16254887451E+04  0.16254887451E+04  0.25500000920E-02 0.  1.
    10030    2    1    2    0    0  0.00000000000E+00  0.00000000000E+00  0.57159234929E+03  0.38225698395E+04  0.37795928833E+04 0.  0.
        4    1    3    3  502    0 -0.16438715611E+04  0.64752877932E+03  0.96403453853E+03  0.20127025199E+04  0.12699999809E+01 0.  1.
       -4    1    3    3    0  502  0.16438715611E+04 -0.64752877932E+03 -0.39244218924E+03  0.18098673195E+04  0.12699999809E+01 0. -1.
</event>
<event>
 5   0  0.1648000E-07  0.3762823E+04  0.7818609E-02  0.8054180E-01
        1   -1    0    0  501    0  0.00000000000E+00  0.00000000000E+00  0.15361210786E+04  0.15361210786E+04  0.50400001928E-02 0.  1.
       -1   -1    0    0    0  501  0.00000000000E+00  0.00000000000E+00 -0.23043159450E+04  0.23043159450E+04  0.50400001928E-02 0. -1.
    10030    2    1    2    0    0  0.00000000000E+00  0.00000000000E+00 -0.76819486643E+03  0.38404370236E+04  0.37628225017E+04 0.  0.
        3    1    3    3  502    0 -0.16705488822E+04  0.29728801999E+03  0.44543698214E+03  0.17542884170E+04  0.10100000352E+00 0.  1.
       -3    1    3    3    0  502  0.16705488822E+04 -0.29728801999E+03 -0.12136318486E+04  0.20861486066E+04  0.10100000352E+00 0. -1.
</event>
<event>
 5   0  0.1648000E-07  0.3821860E+04  0.7818609E-02  0.8041480E-01
       -1   -1    0    0    0  501  0.00000000000E+00  0.00000000000E+00  0.25868179216E+04  0.25868179216E+04  0.50400001928E-02 0.  1.
        1   -1    0    0  501    0  0.00000000000E+00  0.00000000000E+00 -0.14116388926E+04  0.14116388926E+04  0.50400001928E-02 0. -1.
    10030    2    1    2    0    0  0.00000000000E+00  0.00000000000E+00  0.11751790290E+04  0.39984568141E+04  0.38218596448E+04 0.  0.
        2    1    3    3  502    0  0.22941125609E+03  0.98670871932E+03 -0.11075983261E+04  0.15009988918E+04  0.25500000920E-02 0. -1.
       -2    1    3    3    0  502 -0.22941125609E+03 -0.98670871932E+03  0.22827773550E+04  0.24974579224E+04  0.25500000920E-02 0.  1.
</event>
<event>
 5   0  0.5158266E-07  0.3805295E+04  0.7818609E-02  0.8045020E-01
       -2   -1    0    0    0  501  0.00000000000E+00  0.00000000000E+00  0.24685115567E+04  0.24685115567E+04  0.25500000920E-02 0.  1.
        2   -1    0    0  501    0  0.00000000000E+00  0.00000000000E+00 -0.14664979586E+04  0.14664979586E+04  0.25500000920E-02 0. -1.
    10030    2    1    2    0    0  0.00000000000E+00  0.00000000000E+00  0.10020135982E+04  0.39350095153E+04  0.38052948158E+04 0.  0.
        2    1    3    3  502    0  0.10636020214E+04  0.12589958266E+04  0.14840690273E+04  0.22178324168E+04  0.25500000920E-02 0.  1.
       -2    1    3    3    0  502 -0.10636020214E+04 -0.12589958266E+04 -0.48205542912E+03  0.17171770986E+04  0.25500000920E-02 0. -1.
</event>
<event>
 5   0  0.5132561E-07  0.3823572E+04  0.7818609E-02  0.8041115E-01
        2   -1    0    0  501    0  0.00000000000E+00  0.00000000000E+00  0.13472471479E+04  0.13472471479E+04  0.25500000920E-02 0.  1.
       -2   -1    0    0    0  501  0.00000000000E+00  0.00000000000E+00 -0.27128847835E+04  0.27128847835E+04  0.25500000920E-02 0. -1.
    10030    2    1    2    0    0  0.00000000000E+00  0.00000000000E+00 -0.13656376357E+04  0.40601319314E+04  0.38235723019E+04 0.  0.
        3    1    3    3  502    0 -0.16064846787E+04 -0.90889516979E+03 -0.15396679137E+03  0.18521849896E+04  0.10100000352E+00 0.  1.
       -3    1    3    3    0  502  0.16064846787E+04  0.90889516979E+03 -0.12116708443E+04  0.22079469418E+04  0.10100000352E+00 0. -1.
</event>
<event>
 5   0  0.1648000E-07  0.3762119E+04  0.7818609E-02  0.8054333E-01
        1   -1    0    0  501    0  0.00000000000E+00  0.00000000000E+00  0.15312913876E+04  0.15312913876E+04  0.50400001928E-02 0. -1.
       -1   -1    0    0    0  501  0.00000000000E+00  0.00000000000E+00 -0.23107194485E+04  0.23107194485E+04  0.50400001928E-02 0.  1.
    10030    2    1    2    0    0  0.00000000000E+00  0.00000000000E+00 -0.77942806097E+03  0.38420108361E+04  0.37621189724E+04 0.  0.
        4    1    3    3  502    0  0.89202004344E+03  0.14285692291E+03  0.12952556202E+04  0.15791759221E+04  0.12699999809E+01 0. -1.
       -4    1    3    3    0  502 -0.89202004344E+03 -0.14285692291E+03 -0.20746836812E+04  0.22628349140E+04  0.12699999809E+01 0.  1.
</event>
<event>
 5   0  0.5134434E-07  0.3596273E+04  0.7818609E-02  0.8091346E-01
       -2   -1    0    0    0  501  0.00000000000E+00  0.00000000000E+00  0.25440556906E+04  0.25440556906E+04  0.25500000920E-02 0. -1.
        2   -1    0    0  501    0  0.00000000000E+00  0.00000000000E+00 -0.12709212650E+04  0.12709212650E+04  0.25500000920E-02 0.  1.
    10030    2    1    2    0    0  0.00000000000E+00  0.00000000000E+00  0.12731344256E+04  0.38149769556E+04  0.35962727797E+04 0.  0.
        5    1    3    3  502    0  0.17014267317E+03 -0.70746695428E+03 -0.11077590864E+04  0.13253717607E+04  0.46999998093E+01 0.  1.
       -5    1    3    3    0  502 -0.17014267317E+03  0.70746695428E+03  0.23808935120E+04  0.24896051949E+04  0.46999998093E+01 0. -1.
</event>
<event>
 5   0  0.1648000E-07  0.3800963E+04  0.7818609E-02  0.8045948E-01
       -1   -1    0    0    0  501  0.00000000000E+00  0.00000000000E+00  0.18291292069E+04  0.18291292069E+04  0.50400001928E-02 0. -1.
        1   -1    0    0  501    0  0.00000000000E+00  0.00000000000E+00 -0.19746171857E+04  0.19746171857E+04  0.50400001928E-02 0.  1.
    10030    2    1    2    0    0  0.00000000000E+00  0.00000000000E+00 -0.14548797881E+03  0.38037463926E+04  0.38009630184E+04 0.  0.
        3    1    3    3  502    0 -0.11982590140E+03 -0.55223687997E+03 -0.18885991558E+04  0.19713271164E+04  0.10100000352E+00 0.  1.
       -3    1    3    3    0  502  0.11982590140E+03  0.55223687997E+03  0.17431111770E+04  0.18324192762E+04  0.10100000352E+00 0. -1.
</event>
<event>
 5   0  0.5158266E-07  0.3744427E+04  0.7818609E-02  0.8058187E-01
        2   -1    0    0  501    0  0.00000000000E+00  0.00000000000E+00  0.14864698493E+04  0.14864698493E+04  0.25500000920E-02 0.  1.
       -2   -1    0    0    0  501  0.00000000000E+00  0.00000000000E+00 -0.23580591721E+04  0.23580591721E+04  0.25500000920E-02 0. -1.
    10030    2    1    2    0    0  0.00000000000E+00  0.00000000000E+00 -0.87158932281E+03  0.38445290214E+04  0.37444272524E+04 0.  0.
        2    1    3    3  502    0  0.77752256036E+03 -0.97654812437E+02  0.13099863234E+04  0.15264802526E+04  0.25500000920E-02 0.  1.
       -2    1    3    3    0  502 -0.77752256036E+03  0.97654812437E+02 -0.21815756462E+04  0.23180487688E+04  0.25500000920E-02 0. -1.
</event>
<event>
 5   0  0.5132561E-07  0.3723736E+04  0.7818609E-02  0.8062722E-01
        2   -1    0    0  501    0  0.00000000000E+00  0.00000000000E+00  0.12037639229E+04  0.12037639229E+04  0.25500000920E-02 0. -1.
       -2   -1    0    0    0  501  0.00000000000E+00  0.00000000000E+00 -0.28797606574E+04  0.28797606574E+04  0.25500000920E-02 0.  1.
    10030    2    1    2    0    0  0.00000000000E+00  0.00000000000E+00 -0.16759967345E+04  0.40835245804E+04  0.37237357512E+04 0.  0.
        3    1    3    3  502    0  0.12790905498E+03 -0.18062426667E+04 -0.13130751296E+04  0.22367475503E+04  0.10100000352E+00 0.  1.
       -3    1    3    3    0  502 -0.12790905498E+03  0.18062426667E+04 -0.36292160490E+03  0.18467770301E+04  0.10100000352E+00 0. -1.
</event>
<event>
 5   0  0.5202788E-07  0.3895565E+04  0.7818609E-02  0.8025952E-01
       -2   -1    0    0    0  501  0.00000000000E+00  0.00000000000E+00  0.14813390691E+04  0.14813390691E+04  0.25500000920E-02 0. -1.
        2   -1    0    0  501    0  0.00000000000E+00  0.00000000000E+00 -0.25610996217E+04  0.25610996217E+04  0.25500000920E-02 0.  1.
    10030    2    1    2    0    0  0.00000000000E+00  0.00000000000E+00 -0.10797605525E+04  0.40424386908E+04  0.38955651346E+04 0.  0.
        1    1    3    3  502    0  0.59161588919E+03 -0.17888249210E+04 -0.10524182264E+04  0.21581214242E+04  0.50400001928E-02 0.  1.
       -1    1    3    3    0  502 -0.59161588919E+03  0.17888249210E+04 -0.27342326084E+02  0.18843172666E+04  0.50400001928E-02 0. -1.
</event>
<event>
 5   0  0.1648000E-07  0.3927419E+04  0.7818609E-02  0.8019351E-01
        1   -1    0    0  501    0  0.00000000000E+00  0.00000000000E+00  0.19775389324E+04  0.19775389324E+04  0.50400001928E-02 0.  1.
       -1   -1    0    0    0  501  0.00000000000E+00  0.00000000000E+00 -0.19499771804E+04  0.19499771804E+04  0.50400001928E-02 0. -1.
    10030    2    1    2    0    0  0.00000000000E+00  0.00000000000E+00  0.27561751965E+02  0.39275161128E+04  0.39274194029E+04 0.  0.
        1    1    3    3  502    0  0.57721662904E+03 -0.18769159193E+04  0.99828832015E+00  0.19636683533E+04  0.50400001928E-02 0. -1.
       -1    1    3    3    0  502 -0.57721662904E+03  0.18769159193E+04  0.26563463645E+02  0.19638477595E+04  0.50400001928E-02 0.  1.
</event>
<event>
 5   0  0.5132561E-07  0.3830036E+04  0.7818609E-02  0.8039740E-01
        2   -1    0    0  501    0  0.00000000000E+00  0.00000000000E+00  0.12091927924E+04  0.12091927924E+04  0.25500000920E-02 0.  1.
       -2   -1    0    0    0  501  0.00000000000E+00  0.00000000000E+00 -0.30328451016E+04  0.30328451016E+04  0.25500000920E-02 0. -1.
    10030    2    1    2    0    0  0.00000000000E+00  0.00000000000E+00 -0.18236523092E+04  0.42420378940E+04  0.38300362595E+04 0.  0.
        3    1    3    3  502    0  0.17625913524E+04 -0.11502799150E+03 -0.17312302959E+04  0.24732808295E+04  0.10100000352E+00 0. -1.
       -3    1    3    3    0  502 -0.17625913524E+04  0.11502799150E+03 -0.92422013363E+02  0.17687570644E+04  0.10100000352E+00 0.  1.
</event>
<event>
 5   0  0.1648000E-07  0.3125661E+04  0.7818609E-02  0.8208731E-01
        1   -1    0    0  501    0  0.00000000000E+00  0.00000000000E+00  0.21079239299E+04  0.21079239299E+04  0.50400001928E-02 0.  1.
       -1   -1    0    0    0  501  0.00000000000E+00  0.00000000000E+00 -0.11586943118E+04  0.11586943119E+04  0.50400001928E-02 0. -1.
    10030    2    1    2    0    0  0.00000000000E+00  0.00000000000E+00  0.94922961809E+03  0.32666182418E+04  0.31256611892E+04 0.  0.
        4    1    3    3  502    0 -0.81463158510E+03 -0.12788970752E+04  0.79082625866E+02  0.15183734794E+04  0.12699999809E+01 0. -1.
       -4    1    3    3    0  502  0.81463158510E+03  0.12788970752E+04  0.87014699223E+03  0.17482447624E+04  0.12699999809E+01 0.  1.
</event>
<event>
 5   0  0.5134434E-07  0.3546718E+04  0.7818609E-02  0.8102807E-01
       -2   -1    0    0    0  501  0.00000000000E+00  0.00000000000E+00  0.11879115701E+04  0.11879115701E+04  0.25500000920E-02 0.  1.
        2   -1    0    0  501    0  0.00000000000E+00  0.00000000000E+00 -0.26473376475E+04  0.26473376475E+04  0.25500000920E-02 0. -1.
    10030    2    1    2    0    0  0.00000000000E+00  0.00000000000E+00 -0.14594260774E+04  0.38352492176E+04  0.35467184953E+04 0.  0.
        5    1    3    3  502    0 -0.13874706076E+03 -0.16177470521E+04  0.41332757441E+02  0.16242188148E+04  0.46999998093E+01 0.  1.
       -5    1    3    3    0  502  0.13874706076E+03  0.16177470521E+04 -0.15007588349E+04  0.22110304028E+04  0.46999998093E+01 0. -1.
</event>
<event>
 5   0  0.1648000E-07  0.3753705E+04  0.7818609E-02  0.8056163E-01
        1   -1    0    0  501    0  0.00000000000E+00  0.00000000000E+00  0.19636336150E+04  0.19636336150E+04  0.50400001928E-02 0.  1.
       -1   -1    0    0    0  501  0.00000000000E+00  0.00000000000E+00 -0.17939063301E+04  0.17939063301E+04  0.50400001928E-02 0. -1.
    10030    2    1    2    0    0  0.00000000000E+00  0.00000000000E+00  0.16972728486E+03  0.37575399452E+04  0.37537047151E+04 0.  0.
        4    1    3    3  502    0  0.28082043499E+03 -0.12512921597E+04  0.14566582590E+04  0.19407336454E+04  0.12699999809E+01 0.  1.
       -4    1    3    3    0  502 -0.28082043499E+03  0.12512921597E+04 -0.12869309742E+04  0.18168062998E+04  0.12699999809E+01 0. -1.
</event>
<event>
 5   0  0.1656617E-07  0.3769158E+04  0.7818609E-02  0.8052806E-01
       -1   -1    0    0    0  501  0.00000000000E+00  0.00000000000E+00  0.13148957295E+04  0.13148957295E+04  0.50400001928E-02 0. -1.
        1   -1    0    0  501    0  0.00000000000E+00  0.00000000000E+00 -0.27010792916E+04  0.27010792916E+04  0.50400001928E-02 0.  1.
    10030    2    1    2    0    0  0.00000000000E+00  0.00000000000E+00 -0.13861835621E+04  0.40159750212E+04  0.37691577975E+04 0.  0.
        5    1    3    3  502    0  0.10553107435E+04  0.71926476528E+03 -0.21696968342E+04  0.25176634029E+04  0.46999998093E+01 0.  1.
       -5    1    3    3    0  502 -0.10553107435E+04 -0.71926476528E+03  0.78351327210E+03  0.14983116183E+04  0.46999998093E+01 0. -1.
</event>
<event>
 5   0  0.5202788E-07  0.3731270E+04  0.7818609E-02  0.8061067E-01
       -2   -1    0    0    0  501  0.00000000000E+00  0.00000000000E+00  0.16871490664E+04  0.16871490664E+04  0.25500000920E-02 0.  1.
        2   -1    0    0  501    0  0.00000000000E+00  0.00000000000E+00 -0.20630033617E+04  0.20630033617E+04  0.25500000920E-02 0. -1.
    10030    2    1    2    0    0  0.00000000000E+00  0.00000000000E+00 -0.37585429532E+03  0.37501524281E+04  0.37312701300E+04 0.  0.
        1    1    3    3  502    0  0.12633343137E+04 -0.11060313794E+04 -0.10052306221E+04  0.19569894235E+04  0.50400001928E-02 0. -1.
       -1    1    3    3    0  502 -0.12633343137E+04  0.11060313794E+04  0.62937632675E+03  0.17931630046E+04  0.50400001928E-02 0.  1.
</event>
<event>
 5   0  0.5325362E-07  0.3781771E+04  0.7818609E-02  0.8050078E-01
       -2   -1    0    0    0  501  0.00000000000E+00  0.00000000000E+00  0.25306446662E+04  0.25306446662E+04  0.25500000920E-02 0. -1.
        2   -1    0    0  501    0  0.00000000000E+00  0.00000000000E+00 -0.14128604968E+04  0.14128604968E+04  0.25500000920E-02 0.  1.
    10030    2    1    2    0    0  0.00000000000E+00  0.00000000000E+00  0.11177841694E+04  0.39435051630E+04  0.37817709504E+04 0.  0.
        4    1    3    3  502    0  0.56464322023E+03  0.13187320220E+04 -0.72568917167E+03  0.16076387961E+04  0.12699999809E+01 0.  1.
       -4    1    3    3    0  502 -0.56464322023E+03 -0.13187320220E+04  0.18434733411E+04  0.23358663669E+04  0.12699999809E+01 0. -1.
</event>
<event>
 5   0  0.5132561E-07  0.3870023E+04  0.7818609E-02  0.8031293E-01
        2   -1    0    0  501    0  0.00000000000E+00  0.00000000000E+00  0.27591996574E+04  0.27591996574E+04  0.25500000920E-02 0. -1.
       -2   -1    0    0    0  501  0.00000000000E+00  0.00000000000E+00 -0.13570132260E+04  0.13570132260E+04  0.25500000920E-02 0.  1.
    10030    2    1    2    0    0  0.00000000000E+00  0.00000000000E+00  0.14021864315E+04  0.41162128834E+04  0.38700234771E+04 0.  0.
        3    1    3    3  502    0 -0.18595402402E+04  0.51414573950E+03  0.54320943431E+03  0.20043233886E+04  0.10100000352E+00 0.  1.
       -3    1    3    3    0  502  0.18595402402E+04 -0.51414573950E+03  0.85897699717E+03  0.21118894948E+04  0.10100000352E+00 0. -1.
</event>
<event>
 5   0  0.1648000E-07  0.3863898E+04  0.7818609E-02  0.8032580E-01
       -1   -1    0    0    0  501  0.00000000000E+00  0.00000000000E+00  0.23866720951E+04  0.23866720951E+04  0.50400001928E-02 0. -1.
        1   -1    0    0  501    0  0.00000000000E+00  0.00000000000E+00 -0.15638626166E+04  0.15638626166E+04  0.50400001928E-02 0.  1.
    10030    2    1    2    0    0  0.00000000000E+00  0.00000000000E+00  0.82280947851E+03  0.39505347117E+04  0.38638981703E+04 0.  0.
        4    1    3    3  502    0 -0.90249902284E+03 -0.14685185863E+04 -0.48072768690E+03  0.17894557962E+04  0.12699999809E+01 0.  1.
       -4    1    3    3    0  502  0.90249902284E+03  0.14685185863E+04  0.13035371654E+04  0.21610789155E+04  0.12699999809E+01 0. -1.
</event>
<event>
 5   0  0.1648000E-07  0.3781417E+04  0.7818609E-02  0.8050154E-01
       -1   -1    0    0    0  501  0.00000000000E+00  0.00000000000E+00  0.16234679929E+04  0.16234679929E+04  0.50400001928E-02 0.  1.
        1   -1    0    0  501    0  0.00000000000E+00  0.00000000000E+00 -0.22019400580E+04  0.22019400580E+04  0.50400001928E-02 0. -1.
    10030    2    1    2    0    0  0.00000000000E+00  0.00000000000E+00 -0.57847206510E+03  0.38254080509E+04  0.37814173038E+04 0.  0.
        2    1    3    3  502    0 -0.16620132058E+04 -0.49627735104E+03 -0.10504524241E+04  0.20278139463E+04  0.25500000920E-02 0.  1.
       -2    1    3    3    0  502  0.16620132058E+04  0.49627735104E+03  0.47198035903E+03  0.17975941046E+04  0.25500000920E-02 0. -1.
</event>
<event>
 5   0  0.5134434E-07  0.3790466E+04  0.7818609E-02  0.8048204E-01
       -2   -1    0    0    0  501  0.00000000000E+00  0.00000000000E+00  0.13774594423E+04  0.13774594423E+04  0.25500000920E-02 0.  1.
        2   -1    0    0  501    0  0.00000000000E+00  0.00000000000E+00 -0.26076319133E+04  0.26076319133E+04  0.25500000920E-02 0. -1.
    10030    2    1    2    0    0  0.00000000000E+00  0.00000000000E+00 -0.12301724710E+04  0.39850913555E+04  0.37904655128E+04 0.  0.
        5    1    3    3  502    0 -0.70981581014E+03  0.64732460258E+03  0.11025114320E+04  0.14623341523E+04  0.46999998093E+01 0.  1.
       -5    1    3    3    0  502  0.70981581014E+03 -0.64732460258E+03 -0.23326839030E+04  0.25227572032E+04  0.46999998093E+01 0. -1.
</event>
<event>
 5   0  0.1648000E-07  0.3755750E+04  0.7818609E-02  0.8055718E-01
       -1   -1    0    0    0  501  0.00000000000E+00  0.00000000000E+00  0.23280429821E+04  0.23280429821E+04  0.50400001928E-02 0.  1.
        1   -1    0    0  501    0  0.00000000000E+00  0.00000000000E+00 -0.15147549925E+04  0.15147549925E+04  0.50400001928E-02 0. -1.
    10030    2    1    2    0    0  0.00000000000E+00  0.00000000000E+00  0.81328798958E+03  0.38427979746E+04  0.37557501141E+04 0.  0.
        1    1    3    3  502    0 -0.66780167337E+03 -0.14414824197E+04  0.14311423557E+04  0.21382233475E+04  0.50400001928E-02 0.  1.
       -1    1    3    3    0  502  0.66780167337E+03  0.14414824197E+04 -0.61785436617E+03  0.17045746271E+04  0.50400001928E-02 0. -1.
</event>
<event>
 5   0  0.5132561E-07  0.3720252E+04  0.7818609E-02  0.8063488E-01
        2   -1    0    0  501    0  0.00000000000E+00  0.00000000000E+00  0.26691639222E+04  0.26691639222E+04  0.25500000920E-02 0. -1.
       -2   -1    0    0    0  501  0.00000000000E+00  0.00000000000E+00 -0.12963121508E+04  0.12963121508E+04  0.25500000920E-02 0.  1.
    10030    2    1    2    0    0  0.00000000000E+00  0.00000000000E+00  0.13728517715E+04  0.39654760730E+04  0.37202524779E+04 0.  0.
        3    1    3    3  502    0 -0.24051631967E+03 -0.59903094237E+03  0.25459476082E+04  0.26265063114E+04  0.10100000352E+00 0. -1.
       -3    1    3    3    0  502  0.24051631967E+03  0.59903094237E+03 -0.11730958368E+04  0.13389697616E+04  0.10100000352E+00 0.  1.
</event>
<event>
 5   0  0.1648000E-07  0.3601905E+04  0.7818609E-02  0.8090055E-01
        1   -1    0    0  501    0  0.00000000000E+00  0.00000000000E+00  0.16195033249E+04  0.16195033249E+04  0.50400001928E-02 0. -1.
       -1   -1    0    0    0  501  0.00000000000E+00  0.00000000000E+00 -0.20027314269E+04  0.20027314269E+04  0.50400001928E-02 0.  1.
    10030    2    1    2    0    0  0.00000000000E+00  0.00000000000E+00 -0.38322810194E+03  0.36222347518E+04  0.36019051652E+04 0.  0.
        2    1    3    3  502    0 -0.24278416143E+03 -0.16117203321E+04 -0.96199496560E+03  0.18926227547E+04  0.25500000920E-02 0. -1.
       -2    1    3    3    0  502  0.24278416143E+03  0.16117203321E+04  0.57876686365E+03  0.17296119971E+04  0.25500000920E-02 0.  1.
</event>
<event>
 5   0  0.1648000E-07  0.3744590E+04  0.7818609E-02  0.8058151E-01
        1   -1    0    0  501    0  0.00000000000E+00  0.00000000000E+00  0.24563613197E+04  0.24563613197E+04  0.50400001928E-02 0.  1.
       -1   -1    0    0    0  501  0.00000000000E+00  0.00000000000E+00 -0.14271065900E+04  0.14271065900E+04  0.50400001928E-02 0. -1.
    10030    2    1    2    0    0  0.00000000000E+00  0.00000000000E+00  0.10292547297E+04  0.38834679098E+04  0.37445904593E+04 0.  0.
        4    1    3    3  502    0  0.65474832635E+03  0.29338597697E+03 -0.12788795778E+04  0.14663919291E+04  0.12699999809E+01 0. -1.
       -4    1    3    3    0  502 -0.65474832635E+03 -0.29338597697E+03  0.23081343075E+04  0.24170759807E+04  0.12699999809E+01 0.  1.
</event>
<event>
 5   0  0.1648000E-07  0.3844544E+04  0.7818609E-02  0.8036663E-01
        3   -1    0    0  501    0  0.00000000000E+00  0.00000000000E+00  0.22995589316E+04  0.22995589338E+04  0.10100000352E+00 0.  1.
       -3   -1    0    0    0  501  0.00000000000E+00  0.00000000000E+00 -0.16068859924E+04  0.16068859956E+04  0.10100000352E+00 0. -1.
    10030    2    1    2    0    0  0.00000000000E+00  0.00000000000E+00  0.69267293919E+03  0.39064449294E+04  0.38445436902E+04 0.  0.
        5    1    3    3  502    0 -0.11148211828E+04 -0.30439071541E+03 -0.12145042343E+04  0.16764613334E+04  0.46999998093E+01 0. -1.
       -5    1    3    3    0  502  0.11148211828E+04  0.30439071541E+03  0.19071771735E+04  0.22299835960E+04  0.46999998093E+01 0.  1.
</event>
<event>
 5   0  0.5325362E-07  0.3924416E+04  0.7818609E-02  0.8019970E-01
        2   -1    0    0  501    0  0.00000000000E+00  0.00000000000E+00  0.13307835673E+04  0.13307835673E+04  0.25500000920E-02 0.  1.
       -2   -1    0    0    0  501  0.00000000000E+00  0.00000000000E+00 -0.28932279664E+04  0.28932279664E+04  0.25500000920E-02 0. -1.
    10030    2    1    2    0    0  0.00000000000E+00  0.00000000000E+00 -0.15624443990E+04  0.42240115337E+04  0.39244159994E+04 0.  0.
        4    1    3    3  502    0  0.74927859149E+02  0.19606293423E+04 -0.75536715794E+03  0.21024420939E+04  0.12699999809E+01 0. -1.
       -4    1    3    3    0  502 -0.74927859149E+02 -0.19606293423E+04 -0.80707724110E+03  0.21215694398E+04  0.12699999809E+01 0.  1.
</event>
<event>
 5   0  0.1656617E-07  0.3776105E+04  0.7818609E-02  0.8051302E-01
        1   -1    0    0  501    0  0.00000000000E+00  0.00000000000E+00  0.22714894952E+04  0.22714894952E+04  0.50400001928E-02 0. -1.
       -1   -1    0    0    0  501  0.00000000000E+00  0.00000000000E+00 -0.15693415831E+04  0.15693415831E+04  0.50400001928E-02 0.  1.
    10030    2    1    2    0    0  0.00000000000E+00  0.00000000000E+00  0.70214791214E+03  0.38408310783E+04  0.37761053589E+04 0.  0.
        5    1    3    3  502    0 -0.12814422899E+04  0.12511652974E+04  0.95899062916E+03  0.20315496698E+04  0.46999998093E+01 0. -1.
       -5    1    3    3    0  502  0.12814422899E+04 -0.12511652974E+04 -0.25684271702E+03  0.18092814085E+04  0.46999998093E+01 0.  1.
</event>
<event>
 5   0  0.5158266E-07  0.3775334E+04  0.7818609E-02  0.8051469E-01
       -2   -1    0    0    0  501  0.00000000000E+00  0.00000000000E+00  0.28412415940E+04  0.28412415940E+04  0.25500000920E-02 0.  1.
        2   -1    0    0  501    0  0.00000000000E+00  0.00000000000E+00 -0.12541302320E+04  0.12541302320E+04  0.25500000920E-02 0. -1.
    10030    2    1    2    0    0  0.00000000000E+00  0.00000000000E+00  0.15871113620E+04  0.40953718260E+04  0.37753341465E+04 0.  0.
        2    1    3    3  502    0 -0.41643626603E+02  0.18504153041E+04  0.39128855557E+03  0.18917921987E+04  0.25500000920E-02 0. -1.
       -2    1    3    3    0  502  0.41643626603E+02 -0.18504153041E+04  0.11958228064E+04  0.22035796273E+04  0.25500000920E-02 0.  1.
</event>
<event>
 5   0  0.1648000E-07  0.3889170E+04  0.7818609E-02  0.8027285E-01
       -1   -1    0    0    0  501  0.00000000000E+00  0.00000000000E+00  0.20323929482E+04  0.20323929482E+04  0.50400001928E-02 0.  1.
        1   -1    0    0  501    0  0.00000000000E+00  0.00000000000E+00 -0.18605704199E+04  0.18605704199E+04  0.50400001928E-02 0. -1.
    10030    2    1    2    0    0  0.00000000000E+00  0.00000000000E+00  0.17182252832E+03  0.38929633681E+04  0.38891696805E+04 0.  0.
        4    1    3    3  502    0  0.13122601997E+04 -0.12861667537E+04 -0.55122894280E+03  0.19183604224E+04  0.12699999809E+01 0.  1.
       -4    1    3    3    0  502 -0.13122601997E+04  0.12861667537E+04  0.72305147112E+03  0.19746029456E+04  0.12699999809E+01 0. -1.
</event>
<event>
 5   0  0.1648000E-07  0.3792032E+04  0.7818609E-02  0.8047867E-01
        1   -1    0    0  501    0  0.00000000000E+00  0.00000000000E+00  0.16885587004E+04  0.16885587004E+04  0.50400001928E-02 0. -1.
       -1   -1    0    0    0  501  0.00000000000E+00  0.00000000000E+00 -0.21289612730E+04  0.21289612730E+04  0.50400001928E-02 0.  1.
    10030    2    1    2    0    0  0.00000000000E+00  0.00000000000E+00 -0.44040257256E+03  0.38175199734E+04  0.37920316878E+04 0.  0.
        1    1    3    3  502    0  0.10424883014E+04 -0.12754309497E+04 -0.11653246958E+04  0.20177927577E+04  0.50400001928E-02 0.  1.
       -1    1    3    3    0  502 -0.10424883014E+04  0.12754309497E+04  0.72492212328E+03  0.17997272157E+04  0.50400001928E-02 0. -1.
</event>
<event>
 5   0  0.5158266E-07  0.3779665E+04  0.7818609E-02  0.8050533E-01
       -2   -1    0    0    0  501  0.00000000000E+00  0.00000000000E+00  0.18426692654E+04  0.18426692654E+04  0.25500000920E-02 0. -1.
        2   -1    0    0  501    0  0.00000000000E+00  0.00000000000E+00 -0.19382033120E+04  0.19382033120E+04  0.25500000920E-02 0.  1.
    10030    2    1    2    0    0  0.00000000000E+00  0.00000000000E+00 -0.95534046632E+02  0.37808725774E+04  0.37796654207E+04 0.  0.
        2    1    3    3  502    0 -0.14527912720E+04 -0.80242182857E+01 -0.12567889672E+04  0.19209855221E+04  0.25500000920E-02 0.  1.
       -2    1    3    3    0  502  0.14527912720E+04  0.80242182857E+01  0.11612549205E+04  0.18598870553E+04  0.25500000920E-02 0. -1.
</event>
<event>
 5   0  0.5202788E-07  0.3853973E+04  0.7818609E-02  0.8034671E-01
       -2   -1    0    0    0  501  0.00000000000E+00  0.00000000000E+00  0.12488852114E+04  0.12488852114E+04  0.25500000920E-02 0.  1.
        2   -1    0    0  501    0  0.00000000000E+00  0.00000000000E+00 -0.29732734134E+04  0.29732734134E+04  0.25500000920E-02 0. -1.
    10030    2    1    2    0    0  0.00000000000E+00  0.00000000000E+00 -0.17243882019E+04  0.42221586248E+04  0.38539731164E+04 0.  0.
        1    1    3    3  502    0  0.17169523721E+04 -0.68232623265E+03 -0.26236280835E+03  0.18660998846E+04  0.50400001928E-02 0. -1.
       -1    1    3    3    0  502 -0.17169523721E+04  0.68232623265E+03 -0.14620253936E+04  0.23560587402E+04  0.50400001928E-02 0.  1.
</event>
<event>
 5   0  0.1648000E-07  0.3435326E+04  0.7818609E-02  0.8129290E-01
       -1   -1    0    0    0  501  0.00000000000E+00  0.00000000000E+00  0.18959074249E+04  0.18959074249E+04  0.50400001928E-02 0. -1.
        1   -1    0    0  501    0  0.00000000000E+00  0.00000000000E+00 -0.15561761656E+04  0.15561761656E+04  0.50400001928E-02 0.  1.
    10030    2    1    2    0    0  0.00000000000E+00  0.00000000000E+00  0.33973125933E+03  0.34520835905E+04  0.34353258634E+04 0.  0.
        2    1    3    3  502    0 -0.39154086735E+03 -0.18407673534E+03  0.18402551339E+04  0.18904304941E+04  0.25500000920E-02 0. -1.
       -2    1    3    3    0  502  0.39154086735E+03  0.18407673534E+03 -0.15005238746E+04  0.15616530964E+04  0.25500000920E-02 0.  1.
</event>
<event>
 5   0  0.1648000E-07  0.3389575E+04  0.7818609E-02  0.8140470E-01
        1   -1    0    0  501    0  0.00000000000E+00  0.00000000000E+00  0.28112217421E+04  0.28112217421E+04  0.50400001928E-02 0.  1.
       -1   -1    0    0    0  501  0.00000000000E+00  0.00000000000E+00 -0.10217283985E+04  0.10217283985E+04  0.50400001928E-02 0. -1.
    10030    2    1    2    0    0  0.00000000000E+00  0.00000000000E+00  0.17894933436E+04  0.38329501406E+04  0.33895752468E+04 0.  0.
        1    1    3    3  502    0 -0.16316122009E+04 -0.44845702083E+03  0.10022208794E+04  0.19666516633E+04  0.50400001928E-02 0.  1.
       -1    1    3    3    0  502  0.16316122009E+04  0.44845702083E+03  0.78727246424E+03  0.18662984774E+04  0.50400001928E-02 0. -1.
</event>
<event>
 5   0  0.1648000E-07  0.3762053E+04  0.7818609E-02  0.8054348E-01
       -1   -1    0    0    0  501  0.00000000000E+00  0.00000000000E+00  0.25142751878E+04  0.25142751878E+04  0.50400001928E-02 0. -1.
        1   -1    0    0  501    0  0.00000000000E+00  0.00000000000E+00 -0.14072684238E+04  0.14072684238E+04  0.50400001928E-02 0.  1.
    10030    2    1    2    0    0  0.00000000000E+00  0.00000000000E+00  0.11070067640E+04  0.39215436116E+04  0.37620526740E+04 0.  0.
        1    1    3    3  502    0 -0.13090289230E+04 -0.61348224646E+03  0.18079953164E+04  0.23149004843E+04  0.50400001928E-02 0. -1.
       -1    1    3    3    0  502  0.13090289230E+04  0.61348224646E+03 -0.70098855237E+03  0.16066431273E+04  0.50400001928E-02 0.  1.
</event>
<event>
 5   0  0.5325362E-07  0.3750758E+04  0.7818609E-02  0.8056805E-01
        2   -1    0    0  501    0  0.00000000000E+00  0.00000000000E+00  0.22108662312E+04  0.22108662312E+04  0.25500000920E-02 0. -1.
       -2   -1    0    0    0  501  0.00000000000E+00  0.00000000000E+00 -0.15908000460E+04  0.15908000460E+04  0.25500000920E-02 0.  1.
    10030    2    1    2    0    0  0.00000000000E+00  0.00000000000E+00  0.62006618523E+03  0.38016662772E+04  0.37507578446E+04 0.  0.
        4    1    3    3  502    0  0.10546291906E+02 -0.28536830880E+03  0.21887001775E+04  0.22072508638E+04  0.12699999809E+01 0. -1.
       -4    1    3    3    0  502 -0.10546291906E+02  0.28536830880E+03 -0.15686339923E+04  0.15944154134E+04  0.12699999809E+01 0.  1.
</event>
<event>
 5   0  0.1648000E-07  0.3776727E+04  0.7818609E-02  0.8051168E-01
       -1   -1    0    0    0  501  0.00000000000E+00  0.00000000000E+00  0.24961153990E+04  0.24961153990E+04  0.50400001928E-02 0. -1.
        1   -1    0    0  501    0  0.00000000000E+00  0.00000000000E+00 -0.14285864264E+04  0.14285864264E+04  0.50400001928E-02 0.  1.
    10030    2    1    2    0    0  0.00000000000E+00  0.00000000000E+00  0.10675289726E+04  0.39247018255E+04  0.37767269310E+04 0.  0.
        3    1    3    3  502    0  0.10851393607E+04  0.14184771750E+04 -0.10371308304E+03  0.17889553772E+04  0.10100000352E+00 0.  1.
       -3    1    3    3    0  502 -0.10851393607E+04 -0.14184771750E+04  0.11712420557E+04  0.21357464482E+04  0.10100000352E+00 0. -1.
</event>
<event>
 5   0  0.1648000E-07  0.3805562E+04  0.7818609E-02  0.8044962E-01
        1   -1    0    0  501    0  0.00000000000E+00  0.00000000000E+00  0.11113612813E+04  0.11113612814E+04  0.50400001928E-02 0.  1.
       -1   -1    0    0    0  501  0.00000000000E+00  0.00000000000E+00 -0.32577840110E+04  0.32577840110E+04  0.50400001928E-02 0. -1.
    10030    2    1    2    0    0  0.00000000000E+00  0.00000000000E+00 -0.21464227296E+04  0.43691452923E+04  0.38055617261E+04 0.  0.
        1    1    3    3  502    0 -0.87025128964E+03  0.14404725405E+03  0.86243957894E+03  0.12336486314E+04  0.50400001928E-02 0.  1.
       -1    1    3    3    0  502  0.87025128964E+03 -0.14404725405E+03 -0.30088623086E+04  0.31354966609E+04  0.50400001928E-02 0. -1.
</event>
<event>
 5   0  0.1648000E-07  0.3850287E+04  0.7818609E-02  0.8035449E-01
       -1   -1    0    0    0  501  0.00000000000E+00  0.00000000000E+00  0.13031784695E+04  0.13031784695E+04  0.50400001928E-02 0. -1.
        1   -1    0    0  501    0  0.00000000000E+00  0.00000000000E+00 -0.28439524854E+04  0.28439524854E+04  0.50400001928E-02 0.  1.
    10030    2    1    2    0    0  0.00000000000E+00  0.00000000000E+00 -0.15407740158E+04  0.41471309549E+04  0.38502870788E+04 0.  0.
        1    1    3    3  502    0  0.10040771244E+04  0.28097591285E+03 -0.25135070821E+04  0.27211828655E+04  0.50400001928E-02 0.  1.
       -1    1    3    3    0  502 -0.10040771244E+04 -0.28097591285E+03  0.97273306634E+03  0.14259480894E+04  0.50400001928E-02 0. -1.
</event>
<event>
 5   0  0.5325362E-07  0.3816132E+04  0.7818609E-02  0.8042702E-01
        2   -1    0    0  501    0  0.00000000000E+00  0.00000000000E+00  0.23456739973E+04  0.23456739973E+04  0.25500000920E-02 0. -1.
       -2   -1    0    0    0  501  0.00000000000E+00  0.00000000000E+00 -0.15520981432E+04  0.15520981433E+04  0.25500000920E-02 0.  1.
    10030    2    1    2    0    0  0.00000000000E+00  0.00000000000E+00  0.79357585406E+03  0.38977721406E+04  0.38161322073E+04 0.  0.
        4    1    3    3  502    0 -0.12172394768E+04 -0.13959843075E+04 -0.71574687319E+02  0.18535287102E+04  0.12699999809E+01 0.  1.
       -4    1    3    3    0  502  0.12172394768E+04  0.13959843075E+04  0.86515054138E+03  0.20442434304E+04  0.12699999809E+01 0. -1.
</event>
<event>
 5   0  0.5132561E-07  0.3834656E+04  0.7818609E-02  0.8038758E-01
       -2   -1    0    0    0  501  0.00000000000E+00  0.00000000000E+00  0.18524279008E+04  0.18524279008E+04  0.25500000920E-02 0.  1.
        2   -1    0    0  501    0  0.00000000000E+00  0.00000000000E+00 -0.19845021892E+04  0.19845021892E+04  0.25500000920E-02 0. -1.
    10030    2    1    2    0    0  0.00000000000E+00  0.00000000000E+00 -0.13207428839E+03  0.38369300900E+04  0.38346562946E+04 0.  0.
        3    1    3    3  502    0 -0.37275023313E+03 -0.18608825888E+04 -0.33881660256E+03  0.19278546226E+04  0.10100000352E+00 0.  1.
       -3    1    3    3    0  502  0.37275023313E+03  0.18608825888E+04  0.20674231417E+03  0.19090754674E+04  0.10100000352E+00 0. -1.
</event>
<event>
 5   0  0.5134434E-07  0.3867779E+04  0.7818609E-02  0.8031764E-01
        2   -1    0    0  501    0  0.00000000000E+00  0.00000000000E+00  0.24645754102E+04  0.24645754102E+04  0.25500000920E-02 0. -1.
       -2   -1    0    0    0  501  0.00000000000E+00  0.00000000000E+00 -0.15174738120E+04  0.15174738120E+04  0.25500000920E-02 0.  1.
    10030    2    1    2    0    0  0.00000000000E+00  0.00000000000E+00  0.94710159819E+03  0.39820492222E+04  0.38677790230E+04 0.  0.
        5    1    3    3  502    0  0.20143805510E+03 -0.13726151652E+04  0.18606707398E+04  0.23209410535E+04  0.46999998093E+01 0. -1.
       -5    1    3    3    0  502 -0.20143805510E+03  0.13726151652E+04 -0.91356914163E+03  0.16611081687E+04  0.46999998093E+01 0.  1.
</event>
<event>
 5   0  0.5132561E-07  0.3761605E+04  0.7818609E-02  0.8054445E-01
        2   -1    0    0  501    0  0.00000000000E+00  0.00000000000E+00  0.11855992049E+04  0.11855992049E+04  0.25500000920E-02 0.  1.
       -2   -1    0    0    0  501  0.00000000000E+00  0.00000000000E+00 -0.29836543816E+04  0.29836543816E+04  0.25500000920E-02 0. -1.
    10030    2    1    2    0    0  0.00000000000E+00  0.00000000000E+00 -0.17980551767E+04  0.41692535865E+04  0.37616051162E+04 0.  0.
        3    1    3    3  502    0  0.38704359417E+03 -0.88475279210E+03 -0.26878805107E+04  0.28560973192E+04  0.10100000352E+00 0. -1.
       -3    1    3    3    0  502 -0.38704359417E+03  0.88475279210E+03  0.88982533403E+03  0.13131562672E+04  0.10100000352E+00 0.  1.
</event>
<event>
 5   0  0.1656617E-07  0.3718232E+04  0.7818609E-02  0.8063933E-01
        1   -1    0    0  501    0  0.00000000000E+00  0.00000000000E+00  0.26724822017E+04  0.26724822017E+04  0.50400001928E-02 0.  1.
       -1   -1    0    0    0  501  0.00000000000E+00  0.00000000000E+00 -0.12932965735E+04  0.12932965735E+04  0.50400001928E-02 0. -1.
    10030    2    1    2    0    0  0.00000000000E+00  0.00000000000E+00  0.13791856282E+04  0.39657787753E+04  0.37182318778E+04 0.  0.
        5    1    3    3  502    0 -0.11961132361E+04 -0.22531166104E+03  0.21884412745E+04  0.25041464654E+04  0.46999998093E+01 0.  1.
       -5    1    3    3    0  502  0.11961132361E+04  0.22531166104E+03 -0.80925564628E+03  0.14616323099E+04  0.46999998093E+01 0. -1.
</event>
<event>
 5   0  0.5134434E-07  0.3560118E+04  0.7818609E-02  0.8099689E-01
        2   -1    0    0  501    0  0.00000000000E+00  0.00000000000E+00  0.26459000004E+04  0.26459000004E+04  0.25500000920E-02 0. -1.
       -2   -1    0    0    0  501  0.00000000000E+00  0.00000000000E+00 -0.11975544413E+04  0.11975544413E+04  0.25500000920E-02 0.  1.
    10030    2    1    2    0    0  0.00000000000E+00  0.00000000000E+00  0.14483455590E+04  0.38434544417E+04  0.35601175805E+04 0.  0.
        5    1    3    3  502    0 -0.35956365560E+03  0.89318605696E+03  0.23404977806E+04  0.25308139611E+04  0.46999998093E+01 0. -1.
       -5    1    3    3    0  502  0.35956365560E+03 -0.89318605696E+03 -0.89215222159E+03  0.13126404806E+04  0.46999998093E+01 0.  1.
</event>
<event>
 5   0  0.5158266E-07  0.3802899E+04  0.7818609E-02  0.8045533E-01
       -2   -1    0    0    0  501  0.00000000000E+00  0.00000000000E+00  0.17597411463E+04  0.17597411463E+04  0.25500000920E-02 0. -1.
        2   -1    0    0  501    0  0.00000000000E+00  0.00000000000E+00 -0.20545692756E+04  0.20545692756E+04  0.25500000920E-02 0.  1.
    10030    2    1    2    0    0  0.00000000000E+00  0.00000000000E+00 -0.29482812926E+03  0.38143104219E+04  0.38028989428E+04 0.  0.
        2    1    3    3  502    0 -0.63582710377E+03 -0.42176660905E+03  0.15994627906E+04  0.17721299041E+04  0.25500000920E-02 0. -1.
       -2    1    3    3    0  502  0.63582710377E+03  0.42176660905E+03 -0.18942909199E+04  0.20421805179E+04  0.25500000920E-02 0.  1.
</event>
<event>
 5   0  0.5134434E-07  0.3797232E+04  0.7818609E-02  0.8046749E-01
        2   -1    0    0  501    0  0.00000000000E+00  0.00000000000E+00  0.18767869397E+04  0.18767869397E+04  0.25500000920E-02 0. -1.
       -2   -1    0    0    0  501  0.00000000000E+00  0.00000000000E+00 -0.19206989840E+04  0.19206989840E+04  0.25500000920E-02 0.  1.
    10030    2    1    2    0    0  0.00000000000E+00  0.00000000000E+00 -0.43912044355E+02  0.37974859237E+04  0.37972320278E+04 0.  0.
        5    1    3    3  502    0  0.12424362907E+04  0.44176369382E+03 -0.13880332938E+04  0.19145395301E+04  0.46999998093E+01 0.  1.
       -5    1    3    3    0  502 -0.12424362907E+04 -0.44176369382E+03  0.13441212495E+04  0.18829463935E+04  0.46999998093E+01 0. -1.
</event>
<event>
 5   0  0.1648000E-07  0.3733916E+04  0.7818609E-02  0.8060487E-01
        1   -1    0    0  501    0  0.00000000000E+00  0.00000000000E+00  0.20131394209E+04  0.20131394209E+04  0.50400001928E-02 0. -1.
       -1   -1    0    0    0  501  0.00000000000E+00  0.00000000000E+00 -0.17313917436E+04  0.17313917436E+04  0.50400001928E-02 0.  1.
    10030    2    1    2    0    0  0.00000000000E+00  0.00000000000E+00  0.28174767724E+03  0.37445311645E+04  0.37339164276E+04 0.  0.
        1    1    3    3  502    0  0.15351626716E+04 -0.28567476173E+03 -0.88536242359E+03  0.17950490576E+04  0.50400001928E-02 0.  1.
       -1    1    3    3    0  502 -0.15351626716E+04  0.28567476173E+03  0.11671101008E+04  0.19494821070E+04  0.50400001928E-02 0. -1.
</event>
<event>
 5   0  0.5158266E-07  0.3798510E+04  0.7818609E-02  0.8046475E-01
        2   -1    0    0  501    0  0.00000000000E+00  0.00000000000E+00  0.27040161572E+04  0.27040161572E+04  0.25500000920E-02 0. -1.
       -2   -1    0    0    0  501  0.00000000000E+00  0.00000000000E+00 -0.13340042889E+04  0.13340042889E+04  0.25500000920E-02 0.  1.
    10030    2    1    2    0    0  0.00000000000E+00  0.00000000000E+00  0.13700118683E+04  0.40380204461E+04  0.37985097873E+04 0.  0.
        2    1    3    3  502    0  0.59534529174E+03  0.43440679576E+03 -0.11758010870E+04  0.13876791693E+04  0.25500000920E-02 0.  1.
       -2    1    3    3    0  502 -0.59534529174E+03 -0.43440679576E+03  0.25458129553E+04  0.26503412769E+04  0.25500000920E-02 0. -1.
</event>
<event>
 5   0  0.1656617E-07  0.3738047E+04  0.7818609E-02  0.8059582E-01
       -1   -1    0    0    0  501  0.00000000000E+00  0.00000000000E+00  0.13313525612E+04  0.13313525612E+04  0.50400001928E-02 0.  1.
        1   -1    0    0  501    0  0.00000000000E+00  0.00000000000E+00 -0.26238350210E+04  0.26238350210E+04  0.50400001928E-02 0. -1.
    10030    2    1    2    0    0  0.00000000000E+00  0.00000000000E+00 -0.12924824598E+04  0.39551875823E+04  0.37380473381E+04 0.  0.
        5    1    3    3  502    0 -0.83980592836E+03 -0.14552701001E+04 -0.15124165642E+04  0.22606439382E+04  0.46999998093E+01 0. -1.
       -5    1    3    3    0  502  0.83980592836E+03  0.14552701001E+04  0.21993410444E+03  0.16945436441E+04  0.46999998093E+01 0.  1.
</event>
<event>
 5   0  0.1648000E-07  0.3811778E+04  0.7818609E-02  0.8043632E-01
       -1   -1    0    0    0  501  0.00000000000E+00  0.00000000000E+00  0.15153971593E+04  0.15153971593E+04  0.50400001928E-02 0.  1.
        1   -1    0    0  501    0  0.00000000000E+00  0.00000000000E+00 -0.23970040925E+04  0.23970040925E+04  0.50400001928E-02 0. -1.
    10030    2    1    2    0    0  0.00000000000E+00  0.00000000000E+00 -0.88160693322E+03  0.39124012519E+04  0.38117781639E+04 0.  0.
        3    1    3    3  502    0  0.31222590559E+03 -0.17359885844E+04  0.30024717437E+03  0.17892148438E+04  0.10100000352E+00 0.  1.
       -3    1    3    3    0  502 -0.31222590559E+03  0.17359885844E+04 -0.11818541076E+04  0.21231864080E+04  0.10100000352E+00 0. -1.
</event>
<event>
 5   0  0.5325362E-07  0.3784552E+04  0.7818609E-02  0.8049478E-01
        2   -1    0    0  501    0  0.00000000000E+00  0.00000000000E+00  0.21217014169E+04  0.21217014169E+04  0.25500000920E-02 0.  1.
       -2   -1    0    0    0  501  0.00000000000E+00  0.00000000000E+00 -0.16876586197E+04  0.16876586197E+04  0.25500000920E-02 0. -1.
    10030    2    1    2    0    0  0.00000000000E+00  0.00000000000E+00  0.43404279725E+03  0.38093600366E+04  0.37845515901E+04 0.  0.
        4    1    3    3  502    0  0.18234354552E+04  0.84381992523E+01 -0.29197914830E+03  0.18466839195E+04  0.12699999809E+01 0.  1.
       -4    1    3    3    0  502 -0.18234354552E+04 -0.84381992523E+01  0.72602194555E+03  0.19626761171E+04  0.12699999809E+01 0. -1.
</event>
<event>
 5   0  0.1656617E-07  0.3819578E+04  0.7818609E-02  0.8041966E-01
        1   -1    0    0  501    0  0.00000000000E+00  0.00000000000E+00  0.14973983218E+04  0.14973983219E+04  0.50400001928E-02 0. -1.
       -1   -1    0    0    0  501  0.00000000000E+00  0.00000000000E+00 -0.24357545591E+04  0.24357545591E+04  0.50400001928E-02 0.  1.
    10030    2    1    2    0    0  0.00000000000E+00  0.00000000000E+00 -0.93835623721E+03  0.39331528809E+04  0.38195784004E+04 0.  0.
        5    1    3    3  502    0  0.82366149705E+03 -0.82290468403E+03  0.10896657026E+04  0.15946735761E+04  0.46999998093E+01 0. -1.
       -5    1    3    3    0  502 -0.82366149705E+03  0.82290468403E+03 -0.20280219398E+04  0.23384793048E+04  0.46999998093E+01 0.  1.
</event>
<event>
 5   0  0.1648000E-07  0.2958552E+04  0.7818609E-02  0.8255667E-01
       -1   -1    0    0    0  501  0.00000000000E+00  0.00000000000E+00  0.99200930351E+03  0.99200930352E+03  0.50400001928E-02 0. -1.
        1   -1    0    0  501    0  0.00000000000E+00  0.00000000000E+00 -0.22058834143E+04  0.22058834143E+04  0.50400001928E-02 0.  1.
    10030    2    1    2    0    0  0.00000000000E+00  0.00000000000E+00 -0.12138741108E+04  0.31978927178E+04  0.29585515845E+04 0.  0.
        1    1    3    3  502    0 -0.14043049646E+04 -0.76171334690E+02 -0.11027175190E+04  0.17871374968E+04  0.50400001928E-02 0.  1.
       -1    1    3    3    0  502  0.14043049646E+04  0.76171334690E+02 -0.11115659178E+03  0.14107552210E+04  0.50400001928E-02 0. -1.
</event>
<event>
 5   0  0.1656617E-07  0.3746914E+04  0.7818609E-02  0.8057644E-01
       -1   -1    0    0    0  501  0.00000000000E+00  0.00000000000E+00  0.24263448776E+04  0.24263448776E+04  0.50400001928E-02 0.  1.
        1   -1    0    0  501    0  0.00000000000E+00  0.00000000000E+00 -0.14465552852E+04  0.14465552852E+04  0.50400001928E-02 0. -1.
    10030    2    1    2    0    0  0.00000000000E+00  0.00000000000E+00  0.97978959233E+03  0.38729001628E+04  0.37469144674E+04 0.  0.
        5    1    3    3  502    0 -0.12769384493E+04 -0.51030895462E+03 -0.82521959812E+03  0.16037445269E+04  0.46999998093E+01 0. -1.
       -5    1    3    3    0  502  0.12769384493E+04  0.51030895462E+03  0.18050091904E+04  0.22691556359E+04  0.46999998093E+01 0.  1.
</event>
<event>
 5   0  0.5134434E-07  0.2972600E+04  0.7818609E-02  0.8251599E-01
        2   -1    0    0  501    0  0.00000000000E+00  0.00000000000E+00  0.20497019085E+04  0.20497019085E+04  0.25500000920E-02 0. -1.
       -2   -1    0    0    0  501  0.00000000000E+00  0.00000000000E+00 -0.10777605312E+04  0.10777605312E+04  0.25500000920E-02 0.  1.
    10030    2    1    2    0    0  0.00000000000E+00  0.00000000000E+00  0.97194137730E+03  0.31274624397E+04  0.29726000859E+04 0.  0.
        5    1    3    3  502    0  0.83509605148E+03  0.10821967899E+04 -0.12798011744E+03  0.13729298262E+04  0.46999998093E+01 0.  1.
       -5    1    3    3    0  502 -0.83509605148E+03 -0.10821967899E+04  0.10999214947E+04  0.17545326135E+04  0.46999998093E+01 0. -1.
</event>
<event>
 5   0  0.1648000E-07  0.3793278E+04  0.7818609E-02  0.8047599E-01
        1   -1    0    0  501    0  0.00000000000E+00  0.00000000000E+00  0.14821326863E+04  0.14821326863E+04  0.50400001928E-02 0.  1.
       -1   -1    0    0    0  501  0.00000000000E+00  0.00000000000E+00 -0.24270699659E+04  0.24270699659E+04  0.50400001928E-02 0. -1.
    10030    2    1    2    0    0  0.00000000000E+00  0.00000000000E+00 -0.94493727958E+03  0.39092026521E+04  0.37932781223E+04 0.  0.
        4    1    3    3  502    0  0.35288985730E+02  0.14305942324E+04 -0.17552548586E+04  0.22646779907E+04  0.12699999809E+01 0. -1.
       -4    1    3    3    0  502 -0.35288985730E+02 -0.14305942324E+04  0.81031757902E+03  0.16445246614E+04  0.12699999809E+01 0.  1.
</event>
<event>
 5   0  0.1648000E-07  0.3857580E+04  0.7818609E-02  0.8033910E-01
       -3   -1    0    0    0  501  0.00000000000E+00  0.00000000000E+00  0.17069013853E+04  0.17069013883E+04  0.10100000352E+00 0. -1.
        3   -1    0    0  501    0  0.00000000000E+00  0.00000000000E+00 -0.21795230011E+04  0.21795230035E+04  0.10100000352E+00 0.  1.
    10030    2    1    2    0    0  0.00000000000E+00  0.00000000000E+00 -0.47262161586E+03  0.38864243917E+04  0.38575799876E+04 0.  0.
        1    1    3    3  502    0  0.88605397428E+03 -0.11725658289E+04  0.10221201585E+04  0.17901764960E+04  0.50400001928E-02 0. -1.
       -1    1    3    3    0  502 -0.88605397428E+03  0.11725658289E+04 -0.14947417744E+04  0.20962478957E+04  0.50400001928E-02 0.  1.
</event>
<event>
 5   0  0.5134434E-07  0.3864626E+04  0.7818609E-02  0.8032427E-01
       -2   -1    0    0    0  501  0.00000000000E+00  0.00000000000E+00  0.17159845099E+04  0.17159845099E+04  0.25500000920E-02 0. -1.
        2   -1    0    0  501    0  0.00000000000E+00  0.00000000000E+00 -0.21759129743E+04  0.21759129743E+04  0.25500000920E-02 0.  1.
    10030    2    1    2    0    0  0.00000000000E+00  0.00000000000E+00 -0.45992846438E+03  0.38918974843E+04  0.38646257045E+04 0.  0.
        5    1    3    3  502    0  0.17138807470E+04 -0.70718019135E+03  0.31822981166E+03  0.18811654209E+04  0.46999998093E+01 0.  1.
       -5    1    3    3    0  502 -0.17138807470E+04  0.70718019135E+03 -0.77815827604E+03  0.20107320633E+04  0.46999998093E+01 0. -1.
</event>
<event>
 5   0  0.1656617E-07  0.3802092E+04  0.7818609E-02  0.8045706E-01
       -1   -1    0    0    0  501  0.00000000000E+00  0.00000000000E+00  0.21788299411E+04  0.21788299411E+04  0.50400001928E-02 0. -1.
        1   -1    0    0  501    0  0.00000000000E+00  0.00000000000E+00 -0.16586770240E+04  0.16586770240E+04  0.50400001928E-02 0.  1.
    10030    2    1    2    0    0  0.00000000000E+00  0.00000000000E+00  0.52015291708E+03  0.38375069652E+04  0.38020916152E+04 0.  0.
        5    1    3    3  502    0  0.76814945576E+03  0.63165391242E+03 -0.13751731032E+04  0.16971044179E+04  0.46999998093E+01 0.  1.
       -5    1    3    3    0  502 -0.76814945576E+03 -0.63165391242E+03  0.18953260202E+04  0.21404025473E+04  0.46999998093E+01 0. -1.
</event>
<event>
 5   0  0.5325362E-07  0.4038646E+04  0.7818609E-02  0.7996795E-01
        2   -1    0    0  501    0  0.00000000000E+00  0.00000000000E+00  0.28544670351E+04  0.28544670351E+04  0.25500000920E-02 0.  1.
       -2   -1    0    0    0  501  0.00000000000E+00  0.00000000000E+00 -0.14285208525E+04  0.14285208525E+04  0.25500000920E-02 0. -1.
    10030    2    1    2    0    0  0.00000000000E+00  0.00000000000E+00  0.14259461827E+04  0.42829878876E+04  0.40386461506E+04 0.  0.
        4    1    3    3  502    0  0.10870385103E+04  0.16631153111E+04  0.10954286066E+04  0.22688258430E+04  0.12699999809E+01 0. -1.
       -4    1    3    3    0  502 -0.10870385103E+04 -0.16631153111E+04  0.33051757609E+03  0.20141620446E+04  0.12699999809E+01 0.  1.
</event>
<event>
 5   0  0.1648000E-07  0.3785940E+04  0.7818609E-02  0.8049179E-01
       -1   -1    0    0    0  501  0.00000000000E+00  0.00000000000E+00  0.30057107758E+04  0.30057107758E+04  0.50400001928E-02 0. -1.
        1   -1    0    0  501    0  0.00000000000E+00  0.00000000000E+00 -0.11921757691E+04  0.11921757691E+04  0.50400001928E-02 0.  1.
    10030    2    1    2    0    0  0.00000000000E+00  0.00000000000E+00  0.18135350067E+04  0.41978865449E+04  0.37859400713E+04 0.  0.
        4    1    3    3  502    0 -0.12587449233E+04  0.12017191555E+04  0.80896970029E+02  0.17421577550E+04  0.12699999809E+01 0.  1.
       -4    1    3    3    0  502  0.12587449233E+04 -0.12017191555E+04  0.17326380367E+04  0.24557287899E+04  0.12699999809E+01 0. -1.
</event>
<event>
 5   0  0.1648000E-07  0.3740846E+04  0.7818609E-02  0.8058970E-01
        1   -1    0    0  501    0  0.00000000000E+00  0.00000000000E+00  0.15082047890E+04  0.15082047890E+04  0.50400001928E-02 0. -1.
       -1   -1    0    0    0  501  0.00000000000E+00  0.00000000000E+00 -0.23196329518E+04  0.23196329518E+04  0.50400001928E-02 0.  1.
    10030    2    1    2    0    0  0.00000000000E+00  0.00000000000E+00 -0.81142816279E+03  0.38278377408E+04  0.37408456406E+04 0.  0.
        2    1    3    3  502    0  0.12334865693E+04 -0.73284597163E+03 -0.16335894857E+04  0.21742048989E+04  0.25500000920E-02 0.  1.
       -2    1    3    3    0  502 -0.12334865693E+04  0.73284597163E+03  0.82216132295E+03  0.16536328419E+04  0.25500000920E-02 0. -1.
</event>
<event>
 5   0  0.1648000E-07  0.3779251E+04  0.7818609E-02  0.8050622E-01
       -1   -1    0    0    0  501  0.00000000000E+00  0.00000000000E+00  0.29429129675E+04  0.29429129675E+04  0.50400001928E-02 0.  1.
        1   -1    0    0  501    0  0.00000000000E+00  0.00000000000E+00 -0.12133165400E+04  0.12133165401E+04  0.50400001928E-02 0. -1.
    10030    2    1    2    0    0  0.00000000000E+00  0.00000000000E+00  0.17295964274E+04  0.41562295075E+04  0.37792512377E+04 0.  0.
        3    1    3    3  502    0  0.29758522415E+03  0.45717170161E+03 -0.11248434038E+04  0.12501342423E+04  0.10100000352E+00 0. -1.
       -3    1    3    3    0  502 -0.29758522415E+03 -0.45717170161E+03  0.28544398313E+04  0.29060952653E+04  0.10100000352E+00 0.  1.
</event>
<event>
 5   0  0.5132561E-07  0.3774959E+04  0.7818609E-02  0.8051550E-01
        2   -1    0    0  501    0  0.00000000000E+00  0.00000000000E+00  0.22150436274E+04  0.22150436274E+04  0.25500000920E-02 0.  1.
       -2   -1    0    0    0  501  0.00000000000E+00  0.00000000000E+00 -0.16083558682E+04  0.16083558682E+04  0.25500000920E-02 0. -1.
    10030    2    1    2    0    0  0.00000000000E+00  0.00000000000E+00  0.60668775915E+03  0.38233994956E+04  0.37749587634E+04 0.  0.
        3    1    3    3  502    0  0.13950112381E+04  0.53237472077E+03  0.14727589919E+04  0.20972597017E+04  0.10100000352E+00 0.  1.
       -3    1    3    3    0  502 -0.13950112381E+04 -0.53237472077E+03 -0.86607123277E+03  0.17261397939E+04  0.10100000352E+00 0. -1.
</event>
<event>
 5   0  0.1648000E-07  0.3779398E+04  0.7818609E-02  0.8050591E-01
        1   -1    0    0  501    0  0.00000000000E+00  0.00000000000E+00  0.20468193805E+04  0.20468193805E+04  0.50400001928E-02 0. -1.
       -1   -1    0    0    0  501  0.00000000000E+00  0.00000000000E+00 -0.17446394427E+04  0.17446394427E+04  0.50400001928E-02 0.  1.
    10030    2    1    2    0    0  0.00000000000E+00  0.00000000000E+00  0.30217993782E+03  0.37914588233E+04  0.37793977422E+04 0.  0.
        2    1    3    3  502    0 -0.71438348504E+02 -0.13693883748E+04  0.14554831699E+04  0.19996897801E+04  0.25500000920E-02 0. -1.
       -2    1    3    3    0  502  0.71438348504E+02  0.13693883748E+04 -0.11533032321E+04  0.17917690431E+04  0.25500000920E-02 0.  1.
</event>
<event>
 5   0  0.1648000E-07  0.3813431E+04  0.7818609E-02  0.8043279E-01
        1   -1    0    0  501    0  0.00000000000E+00  0.00000000000E+00  0.29514156746E+04  0.29514156746E+04  0.50400001928E-02 0.  1.
       -1   -1    0    0    0  501  0.00000000000E+00  0.00000000000E+00 -0.12318034266E+04  0.12318034266E+04  0.50400001928E-02 0. -1.
    10030    2    1    2    0    0  0.00000000000E+00  0.00000000000E+00  0.17196122480E+04  0.41832191013E+04  0.38134309704E+04 0.  0.
        2    1    3    3  502    0 -0.14273513841E+04 -0.96270635327E+03 -0.39059125432E+02  0.17221094946E+04  0.25500000920E-02 0. -1.
       -2    1    3    3    0  502  0.14273513841E+04  0.96270635327E+03  0.17586713734E+04  0.24611096067E+04  0.25500000920E-02 0.  1.
</event>
<event>
 5   0  0.5134434E-07  0.3801685E+04  0.7818609E-02  0.8045793E-01
       -2   -1    0    0    0  501  0.00000000000E+00  0.00000000000E+00  0.21316367431E+04  0.21316367431E+04  0.25500000920E-02 0. -1.
        2   -1    0    0  501    0  0.00000000000E+00  0.00000000000E+00 -0.16950365123E+04  0.16950365123E+04  0.25500000920E-02 0.  1.
    10030    2    1    2    0    0  0.00000000000E+00  0.00000000000E+00  0.43660023083E+03  0.38266732554E+04  0.38016849477E+04 0.  0.
        5    1    3    3  502    0 -0.89593705596E+03  0.13506107943E+04 -0.78136786907E+03  0.17992805681E+04  0.46999998093E+01 0. -1.
       -5    1    3    3    0  502  0.89593705596E+03 -0.13506107943E+04  0.12179680999E+04  0.20273926873E+04  0.46999998093E+01 0.  1.
</event>
<event>
 5   0  0.5325362E-07  0.3771206E+04  0.7818609E-02  0.8052362E-01
        2   -1    0    0  501    0  0.00000000000E+00  0.00000000000E+00  0.20634653411E+04  0.20634653411E+04  0.25500000920E-02 0. -1.
       -2   -1    0    0    0  501  0.00000000000E+00  0.00000000000E+00 -0.17230719709E+04  0.17230719709E+04  0.25500000920E-02 0.  1.
    10030    2    1    2    0    0  0.00000000000E+00  0.00000000000E+00  0.34039337020E+03  0.37865373119E+04  0.37712063280E+04 0.  0.
        4    1    3    3  502    0 -0.71002167736E+03  0.17123383445E+04 -0.17655386759E+03  0.18620972771E+04  0.12699999809E+01 0.  1.
       -4    1    3    3    0  502  0.71002167736E+03 -0.17123383445E+04  0.51694723779E+03  0.19244400349E+04  0.12699999809E+01 0. -1.
</event>
<event>
 5   0  0.1648000E-07  0.3829725E+04  0.7818609E-02  0.8039806E-01
        1   -1    0    0  501    0  0.00000000000E+00  0.00000000000E+00  0.19128891929E+04  0.19128891929E+04  0.50400001928E-02 0. -1.
       -1   -1    0    0    0  501  0.00000000000E+00  0.00000000000E+00 -0.19168375758E+04  0.19168375758E+04  0.50400001928E-02 0.  1.
    10030    2    1    2    0    0  0.00000000000E+00  0.00000000000E+00 -0.39483829150E+01  0.38297267688E+04  0.38297247334E+04 0.  0.
        2    1    3    3  502    0 -0.15817582277E+04  0.74139191146E+03  0.78229456337E+03  0.19140548167E+04  0.25500000920E-02 0. -1.
       -2    1    3    3    0  502  0.15817582277E+04 -0.74139191146E+03 -0.78624294629E+03  0.19156719521E+04  0.25500000920E-02 0.  1.
</event>
<event>
 5   0  0.1648000E-07  0.3871524E+04  0.7818609E-02  0.8030978E-01
       -1   -1    0    0    0  501  0.00000000000E+00  0.00000000000E+00  0.22514690425E+04  0.22514690425E+04  0.50400001928E-02 0. -1.
        1   -1    0    0  501    0  0.00000000000E+00  0.00000000000E+00 -0.16643241066E+04  0.16643241066E+04  0.50400001928E-02 0.  1.
    10030    2    1    2    0    0  0.00000000000E+00  0.00000000000E+00  0.58714493595E+03  0.39157931491E+04  0.38715238357E+04 0.  0.
        3    1    3    3  502    0 -0.15347412482E+04  0.24694675682E+03 -0.87320438113E+03  0.17829468026E+04  0.10100000352E+00 0.  1.
       -3    1    3    3    0  502  0.15347412482E+04 -0.24694675682E+03  0.14603493171E+04  0.21328463465E+04  0.10100000352E+00 0. -1.
</event>
<event>
 5   0  0.1648000E-07  0.3332385E+04  0.7818609E-02  0.8154704E-01
       -1   -1    0    0    0  501  0.00000000000E+00  0.00000000000E+00  0.12181001272E+04  0.12181001272E+04  0.50400001928E-02 0. -1.
        1   -1    0    0  501    0  0.00000000000E+00  0.00000000000E+00 -0.22791205590E+04  0.22791205590E+04  0.50400001928E-02 0.  1.
    10030    2    1    2    0    0  0.00000000000E+00  0.00000000000E+00 -0.10610204318E+04  0.34972206862E+04  0.33323847574E+04 0.  0.
        3    1    3    3  502    0 -0.50721479942E+03  0.12982069949E+03 -0.21905489220E+04  0.22522488443E+04  0.10100000352E+00 0.  1.
       -3    1    3    3    0  502  0.50721479942E+03 -0.12982069949E+03  0.11295284902E+04  0.12449718419E+04  0.10100000352E+00 0. -1.
</event>
<event>
 5   0  0.5158266E-07  0.3760750E+04  0.7818609E-02  0.8054631E-01
        2   -1    0    0  501    0  0.00000000000E+00  0.00000000000E+00  0.23761023980E+04  0.23761023980E+04  0.25500000920E-02 0. -1.
       -2   -1    0    0    0  501  0.00000000000E+00  0.00000000000E+00 -0.14880717850E+04  0.14880717850E+04  0.25500000920E-02 0.  1.
    10030    2    1    2    0    0  0.00000000000E+00  0.00000000000E+00  0.88803061303E+03  0.38641741830E+04  0.37607504233E+04 0.  0.
        2    1    3    3  502    0 -0.12957467696E+04 -0.13363828808E+04  0.17036029114E+03  0.18691980964E+04  0.25500000920E-02 0. -1.
       -2    1    3    3    0  502  0.12957467696E+04  0.13363828808E+04  0.71767032189E+03  0.19949760865E+04  0.25500000920E-02 0.  1.
</event>
<event>
 5   0  0.1648000E-07  0.3789325E+04  0.7818609E-02  0.8048450E-01
       -1   -1    0    0    0  501  0.00000000000E+00  0.00000000000E+00  0.14665325142E+04  0.14665325142E+04  0.50400001928E-02 0.  1.
        1   -1    0    0  501    0  0.00000000000E+00  0.00000000000E+00 -0.24477784321E+04  0.24477784321E+04  0.50400001928E-02 0. -1.
    10030    2    1    2    0    0  0.00000000000E+00  0.00000000000E+00 -0.98124591793E+03  0.39143109463E+04  0.37893253532E+04 0.  0.
        1    1    3    3  502    0 -0.16276506322E+04 -0.89463886777E+03 -0.87729753698E+03  0.20540876935E+04  0.50400001928E-02 0. -1.
       -1    1    3    3    0  502  0.16276506322E+04  0.89463886777E+03 -0.10394838096E+03  0.18602232528E+04  0.50400001928E-02 0.  1.
</event>
<event>
 5   0  0.5134434E-07  0.3596427E+04  0.7818609E-02  0.8091311E-01
       -2   -1    0    0    0  501  0.00000000000E+00  0.00000000000E+00  0.15412036607E+04  0.15412036607E+04  0.25500000920E-02 0.  1.
        2   -1    0    0  501    0  0.00000000000E+00  0.00000000000E+00 -0.20980820197E+04  0.20980820197E+04  0.25500000920E-02 0. -1.
    10030    2    1    2    0    0  0.00000000000E+00  0.00000000000E+00 -0.55687835903E+03  0.36392856803E+04  0.35964269430E+04 0.  0.
        5    1    3    3  502    0 -0.66617389480E+03 -0.15860308912E+04  0.25150782150E+03  0.17385510979E+04  0.46999998093E+01 0. -1.
       -5    1    3    3    0  502  0.66617389480E+03  0.15860308912E+04 -0.80838618053E+03  0.19007345824E+04  0.46999998093E+01 0.  1.
</event>
<event>
 5   0  0.1648000E-07  0.3751731E+04  0.7818609E-02  0.8056593E-01
       -1   -1    0    0    0  501  0.00000000000E+00  0.00000000000E+00  0.18005674159E+04  0.18005674160E+04  0.50400001928E-02 0. -1.
        1   -1    0    0  501    0  0.00000000000E+00  0.00000000000E+00 -0.19543125657E+04  0.19543125657E+04  0.50400001928E-02 0.  1.
    10030    2    1    2    0    0  0.00000000000E+00  0.00000000000E+00 -0.15374514973E+03  0.37548799816E+04  0.37517310812E+04 0.  0.
        3    1    3    3  502    0 -0.13479149686E+04  0.22337755783E+03  0.12095463545E+04  0.18247670234E+04  0.10100000352E+00 0. -1.
       -3    1    3    3    0  502  0.13479149686E+04 -0.22337755783E+03 -0.13632915042E+04  0.19301129582E+04  0.10100000352E+00 0.  1.
</event>
<event>
 5   0  0.5158266E-07  0.3777305E+04  0.7818609E-02  0.8051043E-01
        2   -1    0    0  501    0  0.00000000000E+00  0.00000000000E+00  0.31662090524E+04  0.31662090524E+04  0.25500000920E-02 0. -1.
       -2   -1    0    0    0  501  0.00000000000E+00  0.00000000000E+00 -0.11265865175E+04  0.11265865175E+04  0.25500000920E-02 0.  1.
    10030    2    1    2    0    0  0.00000000000E+00  0.00000000000E+00  0.20396225349E+04  0.42927955699E+04  0.37773050870E+04 0.  0.
        2    1    3    3  502    0 -0.16686292035E+03 -0.74281896183E+03  0.29840928974E+04  0.30796807732E+04  0.25500000920E-02 0. -1.
       -2    1    3    3    0  502  0.16686292035E+03  0.74281896183E+03 -0.94447036253E+03  0.12131147967E+04  0.25500000920E-02 0.  1.
</event>
<event>
 5   0  0.5134434E-07  0.3590699E+04  0.7818609E-02  0.8092625E-01
       -2   -1    0    0    0  501  0.00000000000E+00  0.00000000000E+00  0.14278471156E+04  0.14278471156E+04  0.25500000920E-02 0.  1.
        2   -1    0    0  501    0  0.00000000000E+00  0.00000000000E+00 -0.22574406561E+04  0.22574406561E+04  0.25500000920E-02 0. -1.
    10030    2    1    2    0    0  0.00000000000E+00  0.00000000000E+00 -0.82959354059E+03  0.36852877717E+04  0.35906991684E+04 0.  0.
        5    1    3    3  502    0  0.52814204385E+03  0.17011041237E+04 -0.18399792631E+03  0.17906888576E+04  0.46999998093E+01 0. -1.
       -5    1    3    3    0  502 -0.52814204385E+03 -0.17011041237E+04 -0.64559561428E+03  0.18945989141E+04  0.46999998093E+01 0.  1.
</event>
<event>
 5   0  0.1648000E-07  0.3835692E+04  0.7818609E-02  0.8038539E-01
        1   -1    0    0  501    0  0.00000000000E+00  0.00000000000E+00  0.22756678123E+04  0.22756678123E+04  0.50400001928E-02 0.  1.
       -1   -1    0    0    0  501  0.00000000000E+00  0.00000000000E+00 -0.16162874936E+04  0.16162874936E+04  0.50400001928E-02 0. -1.
    10030    2    1    2    0    0  0.00000000000E+00  0.00000000000E+00  0.65938031867E+03  0.38919553059E+04  0.38356920755E+04 0.  0.
        1    1    3    3  502    0  0.62184117858E+03  0.15533030891E+03  0.21637770608E+04  0.22567111302E+04  0.50400001928E-02 0.  1.
       -1    1    3    3    0  502 -0.62184117858E+03 -0.15533030891E+03 -0.15043967422E+04  0.16352441757E+04  0.50400001928E-02 0. -1.
</event>
<event>
 5   0  0.1648000E-07  0.3786794E+04  0.7818609E-02  0.8048995E-01
        1   -1    0    0  501    0  0.00000000000E+00  0.00000000000E+00  0.17600574681E+04  0.17600574681E+04  0.50400001928E-02 0. -1.
       -1   -1    0    0    0  501  0.00000000000E+00  0.00000000000E+00 -0.20368385582E+04  0.20368385582E+04  0.50400001928E-02 0.  1.
    10030    2    1    2    0    0  0.00000000000E+00  0.00000000000E+00 -0.27678109005E+03  0.37968960263E+04  0.37867943782E+04 0.  0.
        4    1    3    3  502    0  0.88826409746E+03  0.16872775028E+03  0.15296183969E+04  0.17768557099E+04  0.12699999809E+01 0. -1.
       -4    1    3    3    0  502 -0.88826409746E+03 -0.16872775028E+03 -0.18063994870E+04  0.20200403164E+04  0.12699999809E+01 0.  1.
</event>
<event>
 5   0  0.5132561E-07  0.3978607E+04  0.7818609E-02  0.8008876E-01
        2   -1    0    0  501    0  0.00000000000E+00  0.00000000000E+00  0.22530633593E+04  0.22530633593E+04  0.25500000920E-02 0. -1.
       -2   -1    0    0    0  501  0.00000000000E+00  0.00000000000E+00 -0.17564216556E+04  0.17564216556E+04  0.25500000920E-02 0.  1.
    10030    2    1    2    0    0  0.00000000000E+00  0.00000000000E+00  0.49664170376E+03  0.40094850149E+04  0.39786074326E+04 0.  0.
        3    1    3    3  502    0  0.98987397672E+03  0.15908079331E+04 -0.42530448002E+03  0.19213027561E+04  0.10100000352E+00 0.  1.
       -3    1    3    3    0  502 -0.98987397672E+03 -0.15908079331E+04  0.92194618378E+03  0.20881822588E+04  0.10100000352E+00 0. -1.
</event>
<event>
 5   0  0.1656617E-07  0.3831418E+04  0.7818609E-02  0.8039446E-01
        1   -1    0    0  501    0  0.00000000000E+00  0.00000000000E+00  0.16697649357E+04  0.16697649357E+04  0.50400001928E-02 0.  1.
       -1   -1    0    0    0  501  0.00000000000E+00  0.00000000000E+00 -0.21978787205E+04  0.21978787205E+04  0.50400001928E-02 0. -1.
    10030    2    1    2    0    0  0.00000000000E+00  0.00000000000E+00 -0.52811378483E+03  0.38676436562E+04  0.38314179205E+04 0.  0.
        5    1    3    3  502    0 -0.20834662302E+03  0.17327831172E+04 -0.10614451859E+04  0.20427025284E+04  0.46999998093E+01 0. -1.
       -5    1    3    3    0  502  0.20834662302E+03 -0.17327831172E+04  0.53333140108E+03  0.18249411278E+04  0.46999998093E+01 0.  1.
</event>
<event>
 5   0  0.5202788E-07  0.3902312E+04  0.7818609E-02  0.8024549E-01
        2   -1    0    0  501    0  0.00000000000E+00  0.00000000000E+00  0.19916927542E+04  0.19916927542E+04  0.25500000920E-02 0. -1.
       -2   -1    0    0    0  501  0.00000000000E+00  0.00000000000E+00 -0.19114442641E+04  0.19114442641E+04  0.25500000920E-02 0.  1.
    10030    2    1    2    0    0  0.00000000000E+00  0.00000000000E+00  0.80248490105E+02  0.39031370183E+04  0.39023119767E+04 0.  0.
        1    1    3    3  502    0 -0.10222029301E+04  0.45486048941E+03 -0.15587170152E+04  0.19186963357E+04  0.50400001928E-02 0.  1.
       -1    1    3    3    0  502  0.10222029301E+04 -0.45486048941E+03  0.16389655053E+04  0.19844406826E+04  0.50400001928E-02 0. -1.
</event>
<event>
 5   0  0.1648000E-07  0.3807577E+04  0.7818609E-02  0.8044531E-01
       -1   -1    0    0    0  501  0.00000000000E+00  0.00000000000E+00  0.16340356789E+04  0.16340356789E+04  0.50400001928E-02 0.  1.
        1   -1    0    0  501    0  0.00000000000E+00  0.00000000000E+00 -0.22180728806E+04  0.22180728806E+04  0.50400001928E-02 0. -1.
    10030    2    1    2    0    0  0.00000000000E+00  0.00000000000E+00 -0.58403720168E+03  0.38521085595E+04  0.38075767754E+04 0.  0.
        1    1    3    3  502    0  0.14582560222E+02 -0.14919443896E+04  0.90430852959E+03  0.17446732156E+04  0.50400001928E-02 0.  1.
       -1    1    3    3    0  502 -0.14582560222E+02  0.14919443896E+04 -0.14883457313E+04  0.21074353438E+04  0.50400001928E-02 0. -1.
</event>
<event>
 5   0  0.5158266E-07  0.3746820E+04  0.7818609E-02  0.8057665E-01
       -2   -1    0    0    0  501  0.00000000000E+00  0.00000000000E+00  0.33611151862E+04  0.33611151862E+04  0.25500000920E-02 0. -1.
        2   -1    0    0  501    0  0.00000000000E+00  0.00000000000E+00 -0.10441963583E+04  0.10441963583E+04  0.25500000920E-02 0.  1.
    10030    2    1    2    0    0  0.00000000000E+00  0.00000000000E+00  0.23169188279E+04  0.44053115445E+04  0.37468195778E+04 0.  0.
        2    1    3    3  502    0 -0.48858619488E+03 -0.35557085168E+03  0.32433862977E+04  0.32991971412E+04  0.25500000920E-02 0. -1.
       -2    1    3    3    0  502  0.48858619488E+03  0.35557085168E+03 -0.92646746984E+03  0.11061144033E+04  0.25500000920E-02 0.  1.
</event>
<event>
 5   0  0.1648000E-07  0.3796327E+04  0.7818609E-02  0.8046944E-01
        1   -1    0    0  501    0  0.00000000000E+00  0.00000000000E+00  0.14136885139E+04  0.14136885139E+04  0.50400001928E-02 0. -1.
       -1   -1    0    0    0  501  0.00000000000E+00  0.00000000000E+00 -0.25486690962E+04  0.25486690962E+04  0.50400001928E-02 0.  1.
    10030    2    1    2    0    0  0.00000000000E+00  0.00000000000E+00 -0.11349805823E+04  0.39623576101E+04  0.37963267652E+04 0.  0.
        3    1    3    3  502    0  0.48886573419E+03 -0.80633817028E+03 -0.22869153948E+04  0.24736921765E+04  0.10100000352E+00 0.  1.
       -3    1    3    3    0  502 -0.48886573419E+03  0.80633817028E+03  0.11519348125E+04  0.14886654336E+04  0.10100000352E+00 0. -1.
</event>
<event>
 5   0  0.5325362E-07  0.3079024E+04  0.7818609E-02  0.8221518E-01
        2   -1    0    0  501    0  0.00000000000E+00  0.00000000000E+00  0.19056668477E+04  0.19056668477E+04  0.25500000920E-02 0. -1.
       -2   -1    0    0    0  501  0.00000000000E+00  0.00000000000E+00 -0.12437098998E+04  0.12437098998E+04  0.25500000920E-02 0.  1.
    10030    2    1    2    0    0  0.00000000000E+00  0.00000000000E+00  0.66195694785E+03  0.31493767475E+04  0.30790236922E+04 0.  0.
        4    1    3    3  502    0 -0.13595897610E+04 -0.58625592317E+03 -0.10045874395E+03  0.14840060303E+04  0.12699999809E+01 0.  1.
       -4    1    3    3    0  502  0.13595897610E+04  0.58625592317E+03  0.76241569180E+03  0.16653707172E+04  0.12699999809E+01 0. -1.
</event>
<event>
 5   0  0.5202788E-07  0.3755620E+04  0.7818609E-02  0.8055746E-01
       -2   -1    0    0    0  501  0.00000000000E+00  0.00000000000E+00  0.14424205697E+04  0.14424205697E+04  0.25500000920E-02 0. -1.
        2   -1    0    0  501    0  0.00000000000E+00  0.00000000000E+00 -0.24446199633E+04  0.24446199633E+04  0.25500000920E-02 0.  1.
    10030    2    1    2    0    0  0.00000000000E+00  0.00000000000E+00 -0.10021993936E+04  0.38870405330E+04  0.37556198530E+04 0.  0.
        1    1    3    3  502    0 -0.60702971260E+02  0.10273188110E+04 -0.21267642524E+04  0.23626669201E+04  0.50400001928E-02 0.  1.
       -1    1    3    3    0  502  0.60702971260E+02 -0.10273188110E+04  0.11245648587E+04  0.15243736129E+04  0.50400001928E-02 0. -1.
</event>
<event>
 5   0  0.1648000E-07  0.3719698E+04  0.7818609E-02  0.8063611E-01
       -1   -1    0    0    0  501  0.00000000000E+00  0.00000000000E+00  0.12230992331E+04  0.12230992331E+04  0.50400001928E-02 0.  1.
        1   -1    0    0  501    0  0.00000000000E+00  0.00000000000E+00 -0.28280926359E+04  0.28280926359E+04  0.50400001928E-02 0. -1.
    10030    2    1    2    0    0  0.00000000000E+00  0.00000000000E+00 -0.16049934028E+04  0.40511918690E+04  0.37196978017E+04 0.  0.
        3    1    3    3  502    0 -0.98355402555E+03 -0.11635824771E+04  0.35920802373E+03  0.15653539908E+04  0.10100000352E+00 0.  1.
       -3    1    3    3    0  502  0.98355402555E+03  0.11635824771E+04 -0.19642014265E+04  0.24858378781E+04  0.10100000352E+00 0. -1.
</event>
<event>
 5   0  0.1656617E-07  0.3766713E+04  0.7818609E-02  0.8053336E-01
        1   -1    0    0  501    0  0.00000000000E+00  0.00000000000E+00  0.18703555669E+04  0.18703555669E+04  0.50400001928E-02 0. -1.
       -1   -1    0    0    0  501  0.00000000000E+00  0.00000000000E+00 -0.18964482043E+04  0.18964482043E+04  0.50400001928E-02 0.  1.
    10030    2    1    2    0    0  0.00000000000E+00  0.00000000000E+00 -0.26092637324E+02  0.37668037712E+04  0.37667133983E+04 0.  0.
        5    1    3    3  502    0  0.17218660485E+04 -0.24912232955E+03 -0.73426105832E+03  0.18883977377E+04  0.46999998093E+01 0.  1.
       -5    1    3    3    0  502 -0.17218660485E+04  0.24912232955E+03  0.70816842099E+03  0.18784060335E+04  0.46999998093E+01 0. -1.
</event>
<event>
 5   0  0.1648000E-07  0.3561607E+04  0.7818609E-02  0.8099343E-01
       -1   -1    0    0    0  501  0.00000000000E+00  0.00000000000E+00  0.14353860753E+04  0.14353860753E+04  0.50400001928E-02 0. -1.
        1   -1    0    0  501    0  0.00000000000E+00  0.00000000000E+00 -0.22093434937E+04  0.22093434937E+04  0.50400001928E-02 0.  1.
    10030    2    1    2    0    0  0.00000000000E+00  0.00000000000E+00 -0.77395741841E+03  0.36447295689E+04  0.35616068768E+04 0.  0.
        3    1    3    3  502    0 -0.30636041326E+03 -0.12708860555E+03 -0.21774564105E+04  0.22025722795E+04  0.10100000352E+00 0.  1.
       -3    1    3    3    0  502  0.30636041326E+03  0.12708860555E+03  0.14034989921E+04  0.14421572894E+04  0.10100000352E+00 0. -1.
</event>
<event>
 5   0  0.1648000E-07  0.3655974E+04  0.7818609E-02  0.8077789E-01
        3   -1    0    0  501    0  0.00000000000E+00  0.00000000000E+00  0.23087000553E+04  0.23087000575E+04  0.10100000352E+00 0. -1.
       -3   -1    0    0    0  501  0.00000000000E+00  0.00000000000E+00 -0.14473669679E+04  0.14473669714E+04  0.10100000352E+00 0.  1.
    10030    2    1    2    0    0  0.00000000000E+00  0.00000000000E+00  0.86133308742E+03  0.37560670289E+04  0.36559738563E+04 0.  0.
        4    1    3    3  502    0 -0.90177745809E+03  0.15820618938E+04  0.59444289332E+03  0.19155903492E+04  0.12699999809E+01 0.  1.
       -4    1    3    3    0  502  0.90177745809E+03 -0.15820618938E+04  0.26689019410E+03  0.18404766796E+04  0.12699999809E+01 0. -1.
</event>
<event>
 5   0  0.5158266E-07  0.3480822E+04  0.7818609E-02  0.8118350E-01
        2   -1    0    0  501    0  0.00000000000E+00  0.00000000000E+00  0.22126218895E+04  0.22126218895E+04  0.25500000920E-02 0. -1.
       -2   -1    0    0    0  501  0.00000000000E+00  0.00000000000E+00 -0.13689778930E+04  0.13689778930E+04  0.25500000920E-02 0.  1.
    10030    2    1    2    0    0  0.00000000000E+00  0.00000000000E+00  0.84364399644E+03  0.35815997825E+04  0.34808220019E+04 0.  0.
        2    1    3    3  502    0 -0.11583067783E+04 -0.71696874819E+03 -0.69273410761E+03  0.15282667707E+04  0.25500000920E-02 0. -1.
       -2    1    3    3    0  502  0.11583067783E+04  0.71696874819E+03  0.15363781041E+04  0.20533330118E+04  0.25500000920E-02 0.  1.
</event>
<event>
 5   0  0.1648000E-07  0.3832832E+04  0.7818609E-02  0.8039146E-01
        1   -1    0    0  501    0  0.00000000000E+00  0.00000000000E+00  0.23112726152E+04  0.23112726152E+04  0.50400001928E-02 0. -1.
       -1   -1    0    0    0  501  0.00000000000E+00  0.00000000000E+00 -0.15890165952E+04  0.15890165952E+04  0.50400001928E-02 0.  1.
    10030    2    1    2    0    0  0.00000000000E+00  0.00000000000E+00  0.72225602001E+03  0.39002892104E+04  0.38328321339E+04 0.  0.
        3    1    3    3  502    0  0.91294156927E+03 -0.75468787227E+03 -0.11719172227E+04  0.16662551066E+04  0.10100000352E+00 0.  1.
       -3    1    3    3    0  502 -0.91294156927E+03  0.75468787227E+03  0.18941732427E+04  0.22340341038E+04  0.10100000352E+00 0. -1.
</event>
<event>
 5   0  0.5202788E-07  0.2879354E+04  0.7818609E-02  0.8279047E-01
       -2   -1    0    0    0  501  0.00000000000E+00  0.00000000000E+00  0.11344674901E+04  0.11344674901E+04  0.25500000920E-02 0. -1.
        2   -1    0    0  501    0  0.00000000000E+00  0.00000000000E+00 -0.18269980155E+04  0.18269980155E+04  0.25500000920E-02 0.  1.
    10030    2    1    2    0    0  0.00000000000E+00  0.00000000000E+00 -0.69253052547E+03  0.29614655056E+04  0.28793539921E+04 0.  0.
        1    1    3    3  502    0  0.49993067199E+03  0.11379150878E+04  0.40101358401E+03  0.13059836593E+04  0.50400001928E-02 0. -1.
       -1    1    3    3    0  502 -0.49993067199E+03 -0.11379150878E+04 -0.10935441095E+04  0.16554818463E+04  0.50400001928E-02 0.  1.
</event>
<event>
 5   0  0.5325362E-07  0.3722502E+04  0.7818609E-02  0.8062993E-01
       -2   -1    0    0    0  501  0.00000000000E+00  0.00000000000E+00  0.21666926433E+04  0.21666926433E+04  0.25500000920E-02 0. -1.
        2   -1    0    0  501    0  0.00000000000E+00  0.00000000000E+00 -0.15988675716E+04  0.15988675716E+04  0.25500000920E-02 0.  1.
    10030    2    1    2    0    0  0.00000000000E+00  0.00000000000E+00  0.56782507167E+03  0.37655602149E+04  0.37225016347E+04 0.  0.
        4    1    3    3  502    0  0.17346931152E+04  0.58977276135E+03 -0.47382839967E+02  0.18328226483E+04  0.12699999809E+01 0.  1.
       -4    1    3    3    0  502 -0.17346931152E+04 -0.58977276135E+03  0.61520791164E+03  0.19327375666E+04  0.12699999809E+01 0. -1.
</event>
<event>
 5   0  0.1656617E-07  0.3777423E+04  0.7818609E-02  0.8051017E-01
        1   -1    0    0  501    0  0.00000000000E+00  0.00000000000E+00  0.24554070379E+04  0.24554070379E+04  0.50400001928E-02 0. -1.
       -1   -1    0    0    0  501  0.00000000000E+00  0.00000000000E+00 -0.14528065179E+04  0.14528065179E+04  0.50400001928E-02 0.  1.
    10030    2    1    2    0    0  0.00000000000E+00  0.00000000000E+00  0.10026005201E+04  0.39082135558E+04  0.37774231157E+04 0.  0.
        5    1    3    3  502    0  0.59666759353E+03 -0.37317419999E+03  0.23146805056E+04  0.24193055065E+04  0.46999998093E+01 0. -1.
       -5    1    3    3    0  502 -0.59666759353E+03  0.37317419999E+03 -0.13120799856E+04  0.14889080493E+04  0.46999998093E+01 0.  1.
</event>
<event>
 5   0  0.5132561E-07  0.3316573E+04  0.7818609E-02  0.8158691E-01
        2   -1    0    0  501    0  0.00000000000E+00  0.00000000000E+00  0.13206201707E+04  0.13206201707E+04  0.25500000920E-02 0. -1.
       -2   -1    0    0    0  501  0.00000000000E+00  0.00000000000E+00 -0.20822893435E+04  0.20822893435E+04  0.25500000920E-02 0.  1.
    10030    2    1    2    0    0  0.00000000000E+00  0.00000000000E+00 -0.76166917285E+03  0.34029095142E+04  0.33165725128E+04 0.  0.
        3    1    3    3  502    0 -0.44025356176E+03 -0.15275515556E+03  0.12520578491E+04  0.13359663932E+04  0.10100000352E+00 0. -1.
       -3    1    3    3    0  502  0.44025356176E+03  0.15275515556E+03 -0.20137270219E+04  0.20669431209E+04  0.10100000352E+00 0.  1.
</event>
<event>
 5   0  0.5132561E-07  0.3819279E+04  0.7818609E-02  0.8042030E-01
       -2   -1    0    0    0  501  0.00000000000E+00  0.00000000000E+00  0.13685959237E+04  0.13685959237E+04  0.25500000920E-02 0.  1.
        2   -1    0    0  501    0  0.00000000000E+00  0.00000000000E+00 -0.26645730320E+04  0.26645730320E+04  0.25500000920E-02 0. -1.
    10030    2    1    2    0    0  0.00000000000E+00  0.00000000000E+00 -0.12959771082E+04  0.40331689557E+04  0.38192794032E+04 0.  0.
        3    1    3    3  502    0  0.37903234505E+03 -0.15650752293E+04 -0.17319214829E+04  0.23648843577E+04  0.10100000352E+00 0. -1.
       -3    1    3    3    0  502 -0.37903234505E+03  0.15650752293E+04  0.43594437470E+03  0.16682845980E+04  0.10100000352E+00 0.  1.
</event>
<event>
 5   0  0.1648000E-07  0.3800870E+04  0.7818609E-02  0.8045968E-01
       -1   -1    0    0    0  501  0.00000000000E+00  0.00000000000E+00  0.21016520494E+04  0.21016520494E+04  0.50400001928E-02 0. -1.
        1   -1    0    0  501    0  0.00000000000E+00  0.00000000000E+00 -0.17184832919E+04  0.17184832919E+04  0.50400001928E-02 0.  1.
    10030    2    1    2    0    0  0.00000000000E+00  0.00000000000E+00  0.38316875751E+03  0.38201353412E+04  0.38008703909E+04 0.  0.
        2    1    3    3  502    0  0.12660809607E+04 -0.20097766920E+03  0.16016568555E+04  0.20515013295E+04  0.25500000920E-02 0. -1.
       -2    1    3    3    0  502 -0.12660809607E+04  0.20097766920E+03 -0.12184880980E+04  0.17686340117E+04  0.25500000920E-02 0.  1.
</event>
<event>
 5   0  0.1656617E-07  0.3806108E+04  0.7818609E-02  0.8044845E-01
       -1   -1    0    0    0  501  0.00000000000E+00  0.00000000000E+00  0.31889485672E+04  0.31889485672E+04  0.50400001928E-02 0. -1.
        1   -1    0    0  501    0  0.00000000000E+00  0.00000000000E+00 -0.11356769528E+04  0.11356769528E+04  0.50400001928E-02 0.  1.
    10030    2    1    2    0    0  0.00000000000E+00  0.00000000000E+00  0.20532716144E+04  0.43246255200E+04  0.38061084543E+04 0.  0.
        5    1    3    3  502    0  0.26843948125E+03  0.13352832037E+04  0.25368223600E+04  0.28793281795E+04  0.46999998093E+01 0. -1.
       -5    1    3    3    0  502 -0.26843948125E+03 -0.13352832037E+04 -0.48355074557E+03  0.14452973406E+04  0.46999998093E+01 0.  1.
</event>
<event>
 5   0  0.1648000E-07  0.3568121E+04  0.7818609E-02  0.8097833E-01
       -1   -1    0    0    0  501  0.00000000000E+00  0.00000000000E+00  0.15737643242E+04  0.15737643242E+04  0.50400001928E-02 0. -1.
        1   -1    0    0  501    0  0.00000000000E+00  0.00000000000E+00 -0.20224578843E+04  0.20224578843E+04  0.50400001928E-02 0.  1.
    10030    2    1    2    0    0  0.00000000000E+00  0.00000000000E+00 -0.44869356018E+03  0.35962222085E+04  0.35681211109E+04 0.  0.
        1    1    3    3  502    0 -0.66923346231E+03  0.90601443656E+03  0.11700725088E+04  0.16241321567E+04  0.50400001928E-02 0. -1.
       -1    1    3    3    0  502  0.66923346231E+03 -0.90601443656E+03 -0.16187660690E+04  0.19720900518E+04  0.50400001928E-02 0.  1.
</event>
<event>
 5   0  0.5134434E-07  0.3764358E+04  0.7818609E-02  0.8053847E-01
       -2   -1    0    0    0  501  0.00000000000E+00  0.00000000000E+00  0.19202357803E+04  0.19202357803E+04  0.25500000920E-02 0. -1.
        2   -1    0    0  501    0  0.00000000000E+00  0.00000000000E+00 -0.18448762195E+04  0.18448762195E+04  0.25500000920E-02 0.  1.
    10030    2    1    2    0    0  0.00000000000E+00  0.00000000000E+00  0.75359560837E+02  0.37651119998E+04  0.37643577550E+04 0.  0.
        5    1    3    3  502    0  0.31548566540E+02 -0.99190861332E+03  0.16372804416E+04  0.19145723658E+04  0.46999998093E+01 0. -1.
       -5    1    3    3    0  502 -0.31548566540E+02  0.99190861332E+03 -0.15619208808E+04  0.18505396340E+04  0.46999998093E+01 0.  1.
</event>
<event>
 5   0  0.5132561E-07  0.3789413E+04  0.7818609E-02  0.8048431E-01
        2   -1    0    0  501    0  0.00000000000E+00  0.00000000000E+00  0.18562744004E+04  0.18562744004E+04  0.25500000920E-02 0. -1.
       -2   -1    0    0    0  501  0.00000000000E+00  0.00000000000E+00 -0.19339339930E+04  0.19339339930E+04  0.25500000920E-02 0.  1.
    10030    2    1    2    0    0  0.00000000000E+00  0.00000000000E+00 -0.77659592537E+02  0.37902083934E+04  0.37894127056E+04 0.  0.
        3    1    3    3  502    0 -0.58551785028E+03 -0.50903913657E+03 -0.17677644661E+04  0.19305292573E+04  0.10100000352E+00 0.  1.
       -3    1    3    3    0  502  0.58551785028E+03  0.50903913657E+03  0.16901048735E+04  0.18596791361E+04  0.10100000352E+00 0. -1.
</event>
<event>
 5   0  0.5325362E-07  0.3838562E+04  0.7818609E-02  0.8037930E-01
        2   -1    0    0  501    0  0.00000000000E+00  0.00000000000E+00  0.14579908186E+04  0.14579908186E+04  0.25500000920E-02 0.  1.
       -2   -1    0    0    0  501  0.00000000000E+00  0.00000000000E+00 -0.25265176626E+04  0.25265176626E+04  0.25500000920E-02 0. -1.
    10030    2    1    2    0    0  0.00000000000E+00  0.00000000000E+00 -0.10685268439E+04  0.39845084812E+04  0.38385619991E+04 0.  0.
        4    1    3    3  502    0 -0.82276345064E+03  0.15164733778E+04 -0.14070699248E+04  0.22263150243E+04  0.12699999809E+01 0. -1.
       -4    1    3    3    0  502  0.82276345064E+03 -0.15164733778E+04  0.33854308090E+03  0.17581934569E+04  0.12699999809E+01 0.  1.
</event>
<event>
 5   0  0.5132561E-07  0.3642681E+04  0.7818609E-02  0.8080784E-01
       -2   -1    0    0    0  501  0.00000000000E+00  0.00000000000E+00  0.20001919809E+04  0.20001919809E+04  0.25500000920E-02 0.  1.
        2   -1    0    0  501    0  0.00000000000E+00  0.00000000000E+00 -0.16584818415E+04  0.16584818415E+04  0.25500000920E-02 0. -1.
    10030    2    1    2    0    0  0.00000000000E+00  0.00000000000E+00  0.34171013943E+03  0.36586738224E+04  0.36426814738E+04 0.  0.
        3    1    3    3  502    0 -0.10442424837E+04 -0.14913801637E+04  0.22231389723E+03  0.18341430251E+04  0.10100000352E+00 0. -1.
       -3    1    3    3    0  502  0.10442424837E+04  0.14913801637E+04  0.11939624220E+03  0.18245307973E+04  0.10100000352E+00 0.  1.
</event>
<event>
 5   0  0.1656617E-07  0.3831682E+04  0.7818609E-02  0.8039390E-01
        1   -1    0    0  501    0  0.00000000000E+00  0.00000000000E+00  0.13459601092E+04  0.13459601092E+04  0.50400001928E-02 0. -1.
       -1   -1    0    0    0  501  0.00000000000E+00  0.00000000000E+00 -0.27270099531E+04  0.27270099531E+04  0.50400001928E-02 0.  1.
    10030    2    1    2    0    0  0.00000000000E+00  0.00000000000E+00 -0.13810498439E+04  0.40729700622E+04  0.38316819357E+04 0.  0.
        5    1    3    3  502    0 -0.52496367588E+03  0.17779592909E+04 -0.17665918950E+03  0.18622450591E+04  0.46999998093E+01 0. -1.
       -5    1    3    3    0  502  0.52496367588E+03 -0.17779592909E+04 -0.12043906544E+04  0.22107250031E+04  0.46999998093E+01 0.  1.
</event>
<event>
 5   0  0.1648000E-07  0.3800967E+04  0.7818609E-02  0.8045947E-01
       -1   -1    0    0    0  501  0.00000000000E+00  0.00000000000E+00  0.18868321943E+04  0.18868321943E+04  0.50400001928E-02 0. -1.
        1   -1    0    0  501    0  0.00000000000E+00  0.00000000000E+00 -0.19142337954E+04  0.19142337954E+04  0.50400001928E-02 0.  1.
    10030    2    1    2    0    0  0.00000000000E+00  0.00000000000E+00 -0.27401601111E+02  0.38010659896E+04  0.38009672203E+04 0.  0.
        4    1    3    3  502    0 -0.24294352234E+03 -0.25554046692E+03  0.18538363758E+04  0.18870700587E+04  0.12699999809E+01 0. -1.
       -4    1    3    3    0  502  0.24294352234E+03  0.25554046692E+03 -0.18812379769E+04  0.19139959310E+04  0.12699999809E+01 0.  1.
</event>
<event>
 5   0  0.1656617E-07  0.4054692E+04  0.7818609E-02  0.7993603E-01
       -1   -1    0    0    0  501  0.00000000000E+00  0.00000000000E+00  0.22674891246E+04  0.22674891246E+04  0.50400001928E-02 0. -1.
        1   -1    0    0  501    0  0.00000000000E+00  0.00000000000E+00 -0.18126358427E+04  0.18126358427E+04  0.50400001928E-02 0.  1.
    10030    2    1    2    0    0  0.00000000000E+00  0.00000000000E+00  0.45485328189E+03  0.40801249673E+04  0.40546921265E+04 0.  0.
        5    1    3    3  502    0 -0.14129283217E+04 -0.91560778041E+03  0.13638490672E+04  0.21667511205E+04  0.46999998093E+01 0. -1.
       -5    1    3    3    0  502  0.14129283217E+04  0.91560778041E+03 -0.90899578534E+03  0.19133738468E+04  0.46999998093E+01 0.  1.
</event>
<event>
 5   0  0.1648000E-07  0.3823900E+04  0.7818609E-02  0.8041045E-01
        1   -1    0    0  501    0  0.00000000000E+00  0.00000000000E+00  0.17542504738E+04  0.17542504739E+04  0.50400001928E-02 0. -1.
       -1   -1    0    0    0  501  0.00000000000E+00  0.00000000000E+00 -0.20838263368E+04  0.20838263368E+04  0.50400001928E-02 0.  1.
    10030    2    1    2    0    0  0.00000000000E+00  0.00000000000E+00 -0.32957586294E+03  0.38380768106E+04  0.38239002805E+04 0.  0.
        4    1    3    3  502    0  0.10723495113E+04  0.52269206093E+03  0.13348768965E+04  0.17902621056E+04  0.12699999809E+01 0. -1.
       -4    1    3    3    0  502 -0.10723495113E+04 -0.52269206093E+03 -0.16644527595E+04  0.20478147051E+04  0.12699999809E+01 0.  1.
</event>
<event>
 5   0  0.5132561E-07  0.3769070E+04  0.7818609E-02  0.8052825E-01
       -2   -1    0    0    0  501  0.00000000000E+00  0.00000000000E+00  0.21363521498E+04  0.21363521498E+04  0.25500000920E-02 0. -1.
        2   -1    0    0  501    0  0.00000000000E+00  0.00000000000E+00 -0.16624002687E+04  0.16624002687E+04  0.25500000920E-02 0.  1.
    10030    2    1    2    0    0  0.00000000000E+00  0.00000000000E+00  0.47395188112E+03  0.37987524184E+04  0.37690701176E+04 0.  0.
        3    1    3    3  502    0 -0.14829077981E+04 -0.77689616304E+03 -0.63522299857E+03  0.17905561856E+04  0.10100000352E+00 0.  1.
       -3    1    3    3    0  502  0.14829077981E+04  0.77689616304E+03  0.11091748797E+04  0.20081962328E+04  0.10100000352E+00 0. -1.
</event>
<event>
 5   0  0.1648000E-07  0.3953330E+04  0.7818609E-02  0.8014028E-01
       -1   -1    0    0    0  501  0.00000000000E+00  0.00000000000E+00  0.21230035098E+04  0.21230035098E+04  0.50400001928E-02 0.  1.
        1   -1    0    0  501    0  0.00000000000E+00  0.00000000000E+00 -0.18404140507E+04  0.18404140507E+04  0.50400001928E-02 0. -1.
    10030    2    1    2    0    0  0.00000000000E+00  0.00000000000E+00  0.28258945911E+03  0.39634175605E+04  0.39533304892E+04 0.  0.
        3    1    3    3  502    0  0.10839261495E+04 -0.79522899071E+03 -0.13115129510E+04  0.18781244038E+04  0.10100000352E+00 0. -1.
       -3    1    3    3    0  502 -0.10839261495E+04  0.79522899071E+03  0.15941024101E+04  0.20852931567E+04  0.10100000352E+00 0.  1.
</event>
<event>
 5   0  0.5134434E-07  0.3837578E+04  0.7818609E-02  0.8038138E-01
        2   -1    0    0  501    0  0.00000000000E+00  0.00000000000E+00  0.22967857975E+04  0.22967857975E+04  0.25500000920E-02 0. -1.
       -2   -1    0    0    0  501  0.00000000000E+00  0.00000000000E+00 -0.16030015769E+04  0.16030015769E+04  0.25500000920E-02 0.  1.
    10030    2    1    2    0    0  0.00000000000E+00  0.00000000000E+00  0.69378422059E+03  0.38997873743E+04  0.38375780149E+04 0.  0.
        5    1    3    3  502    0 -0.94066156575E+03  0.17825757193E+03 -0.13429255973E+04  0.16492698970E+04  0.46999998093E+01 0.  1.
       -5    1    3    3    0  502  0.94066156575E+03 -0.17825757193E+03  0.20367098179E+04  0.22505174773E+04  0.46999998093E+01 0. -1.
</event>
<event>
 5   0  0.5132561E-07  0.3852668E+04  0.7818609E-02  0.8034946E-01
        2   -1    0    0  501    0  0.00000000000E+00  0.00000000000E+00  0.17554879780E+04  0.17554879780E+04  0.25500000920E-02 0. -1.
       -2   -1    0    0    0  501  0.00000000000E+00  0.00000000000E+00 -0.21138068584E+04  0.21138068584E+04  0.25500000920E-02 0.  1.
    10030    2    1    2    0    0  0.00000000000E+00  0.00000000000E+00 -0.35831888047E+03  0.38692948364E+04  0.38526679212E+04 0.  0.
        3    1    3    3  502    0  0.32758430946E+01 -0.17180980560E+04 -0.10540624430E+04  0.20156684512E+04  0.10100000352E+00 0.  1.
       -3    1    3    3    0  502 -0.32758430946E+01  0.17180980560E+04  0.69574356250E+03  0.18536263853E+04  0.10100000352E+00 0. -1.
</event>
<event>
 5   0  0.1648000E-07  0.3697088E+04  0.7818609E-02  0.8068607E-01
        1   -1    0    0  501    0  0.00000000000E+00  0.00000000000E+00  0.21086349583E+04  0.21086349583E+04  0.50400001928E-02 0. -1.
       -1   -1    0    0    0  501  0.00000000000E+00  0.00000000000E+00 -0.16205341447E+04  0.16205341447E+04  0.50400001928E-02 0.  1.
    10030    2    1    2    0    0  0.00000000000E+00  0.00000000000E+00  0.48810081355E+03  0.37291691030E+04  0.36970880155E+04 0.  0.
        3    1    3    3  502    0  0.75824283961E+03  0.66807292457E+03 -0.13172379606E+04  0.16602317583E+04  0.10100000352E+00 0.  1.
       -3    1    3    3    0  502 -0.75824283961E+03 -0.66807292457E+03  0.18053387742E+04  0.20689373446E+04  0.10100000352E+00 0. -1.
</event>
<event>
 5   0  0.5325362E-07  0.3727808E+04  0.7818609E-02  0.8061827E-01
        2   -1    0    0  501    0  0.00000000000E+00  0.00000000000E+00  0.22788065748E+04  0.22788065748E+04  0.25500000920E-02 0.  1.
       -2   -1    0    0    0  501  0.00000000000E+00  0.00000000000E+00 -0.15245428945E+04  0.15245428945E+04  0.25500000920E-02 0. -1.
    10030    2    1    2    0    0  0.00000000000E+00  0.00000000000E+00  0.75426368035E+03  0.38033494693E+04  0.37278081343E+04 0.  0.
        4    1    3    3  502    0 -0.71463750590E+03  0.58912129045E+03  0.20274281828E+04  0.22289543084E+04  0.12699999809E+01 0.  1.
       -4    1    3    3    0  502  0.71463750590E+03 -0.58912129045E+03 -0.12731645024E+04  0.15743951609E+04  0.12699999809E+01 0. -1.
</event>
<event>
 5   0  0.5134434E-07  0.3699134E+04  0.7818609E-02  0.8068154E-01
        2   -1    0    0  501    0  0.00000000000E+00  0.00000000000E+00  0.11775101461E+04  0.11775101461E+04  0.25500000920E-02 0.  1.
       -2   -1    0    0    0  501  0.00000000000E+00  0.00000000000E+00 -0.29051956501E+04  0.29051956501E+04  0.25500000920E-02 0. -1.
    10030    2    1    2    0    0  0.00000000000E+00  0.00000000000E+00 -0.17276855039E+04  0.40827057962E+04  0.36991336037E+04 0.  0.
        5    1    3    3  502    0 -0.38750532102E+03  0.65281581788E+03  0.99762098065E+03  0.12536341480E+04  0.46999998093E+01 0.  1.
       -5    1    3    3    0  502  0.38750532102E+03 -0.65281581788E+03 -0.27253064846E+04  0.28290716482E+04  0.46999998093E+01 0. -1.
</event>
<event>
 5   0  0.1648000E-07  0.2997007E+04  0.7818609E-02  0.8244586E-01
        1   -1    0    0  501    0  0.00000000000E+00  0.00000000000E+00  0.81730670718E+03  0.81730670719E+03  0.50400001928E-02 0. -1.
       -1   -1    0    0    0  501  0.00000000000E+00  0.00000000000E+00 -0.27474544961E+04  0.27474544962E+04  0.50400001928E-02 0.  1.
    10030    2    1    2    0    0  0.00000000000E+00  0.00000000000E+00 -0.19301477890E+04  0.35647612033E+04  0.29970071654E+04 0.  0.
        2    1    3    3  502    0 -0.11099558294E+04  0.87532830478E+03 -0.37356029779E+03  0.14621042646E+04  0.25500000920E-02 0.  1.
       -2    1    3    3    0  502  0.11099558294E+04 -0.87532830478E+03 -0.15565874912E+04  0.21026569388E+04  0.25500000920E-02 0. -1.
</event>
<event>
 5   0  0.1648000E-07  0.3825758E+04  0.7818609E-02  0.8040650E-01
        1   -1    0    0  501    0  0.00000000000E+00  0.00000000000E+00  0.19773565607E+04  0.19773565607E+04  0.50400001928E-02 0.  1.
       -1   -1    0    0    0  501  0.00000000000E+00  0.00000000000E+00 -0.18505040225E+04  0.18505040225E+04  0.50400001928E-02 0. -1.
    10030    2    1    2    0    0  0.00000000000E+00  0.00000000000E+00  0.12685253821E+03  0.38278605833E+04  0.38257581051E+04 0.  0.
        4    1    3    3  502    0  0.19326781366E+03 -0.84625691310E+03 -0.16420929832E+04  0.18574106140E+04  0.12699999809E+01 0. -1.
       -4    1    3    3    0  502 -0.19326781366E+03  0.84625691310E+03  0.17689455214E+04  0.19704499693E+04  0.12699999809E+01 0.  1.
</event>
<event>
 5   0  0.1648000E-07  0.3789707E+04  0.7818609E-02  0.8048367E-01
        1   -1    0    0  501    0  0.00000000000E+00  0.00000000000E+00  0.22151641498E+04  0.22151641498E+04  0.50400001928E-02 0. -1.
       -1   -1    0    0    0  501  0.00000000000E+00  0.00000000000E+00 -0.16208591493E+04  0.16208591494E+04  0.50400001928E-02 0.  1.
    10030    2    1    2    0    0  0.00000000000E+00  0.00000000000E+00  0.59430500045E+03  0.38360232991E+04  0.37897066269E+04 0.  0.
        3    1    3    3  502    0 -0.12091226389E+04  0.88678256617E+03  0.14698052034E+04  0.20996876486E+04  0.10100000352E+00 0. -1.
       -3    1    3    3    0  502  0.12091226389E+04 -0.88678256617E+03 -0.87550020296E+03  0.17363356505E+04  0.10100000352E+00 0.  1.
</event>
<event>
 5   0  0.1656617E-07  0.2806449E+04  0.7818609E-02  0.8301269E-01
       -1   -1    0    0    0  501  0.00000000000E+00  0.00000000000E+00  0.11852680161E+04  0.11852680162E+04  0.50400001928E-02 0. -1.
        1   -1    0    0  501    0  0.00000000000E+00  0.00000000000E+00 -0.16612602946E+04  0.16612602946E+04  0.50400001928E-02 0.  1.
    10030    2    1    2    0    0  0.00000000000E+00  0.00000000000E+00 -0.47599227845E+03  0.28465283108E+04  0.28064487836E+04 0.  0.
        5    1    3    3  502    0 -0.67916486711E+03 -0.66131012706E+03 -0.12873829860E+04  0.15987410808E+04  0.46999998093E+01 0.  1.
       -5    1    3    3    0  502  0.67916486711E+03  0.66131012706E+03  0.81139070756E+03  0.12477872299E+04  0.46999998093E+01 0. -1.
</event>
<event>
 5   0  0.5132561E-07  0.3544345E+04  0.7818609E-02  0.8103360E-01
        2   -1    0    0  501    0  0.00000000000E+00  0.00000000000E+00  0.26980995581E+04  0.26980995581E+04  0.25500000920E-02 0.  1.
       -2   -1    0    0    0  501  0.00000000000E+00  0.00000000000E+00 -0.11640026195E+04  0.11640026195E+04  0.25500000920E-02 0. -1.
    10030    2    1    2    0    0  0.00000000000E+00  0.00000000000E+00  0.15340969387E+04  0.38621021776E+04  0.35443447650E+04 0.  0.
        3    1    3    3  502    0 -0.64037208412E+03 -0.24496360063E+03 -0.10136279820E+04  0.12237341492E+04  0.10100000352E+00 0. -1.
       -3    1    3    3    0  502  0.64037208412E+03  0.24496360063E+03  0.25477249207E+04  0.26383680284E+04  0.10100000352E+00 0.  1.
</event>
<event>
 5   0  0.1648000E-07  0.3077711E+04  0.7818609E-02  0.8221882E-01
       -1   -1    0    0    0  501  0.00000000000E+00  0.00000000000E+00  0.21380077939E+04  0.21380077939E+04  0.50400001928E-02 0.  1.
        1   -1    0    0  501    0  0.00000000000E+00  0.00000000000E+00 -0.11076089132E+04  0.11076089132E+04  0.50400001928E-02 0. -1.
    10030    2    1    2    0    0  0.00000000000E+00  0.00000000000E+00  0.10303988807E+04  0.32456167071E+04  0.30777111554E+04 0.  0.
        1    1    3    3  502    0  0.13706062005E+04  0.50329491783E+03  0.26710573413E+01  0.14600939236E+04  0.50400001928E-02 0. -1.
       -1    1    3    3    0  502 -0.13706062005E+04 -0.50329491783E+03  0.10277278234E+04  0.17855227835E+04  0.50400001928E-02 0.  1.
</event>
<event>
 5   0  0.5202788E-07  0.3752316E+04  0.7818609E-02  0.8056466E-01
       -2   -1    0    0    0  501  0.00000000000E+00  0.00000000000E+00  0.17618377321E+04  0.17618377321E+04  0.25500000920E-02 0.  1.
        2   -1    0    0  501    0  0.00000000000E+00  0.00000000000E+00 -0.19978965500E+04  0.19978965500E+04  0.25500000920E-02 0. -1.
    10030    2    1    2    0    0  0.00000000000E+00  0.00000000000E+00 -0.23605881789E+03  0.37597342821E+04  0.37523163655E+04 0.  0.
        1    1    3    3  502    0  0.10853267349E+04  0.82372387370E+03 -0.14103521457E+04  0.19610069650E+04  0.50400001928E-02 0. -1.
       -1    1    3    3    0  502 -0.10853267349E+04 -0.82372387370E+03  0.11742933279E+04  0.17987273172E+04  0.50400001928E-02 0.  1.
</event>
<event>
 5   0  0.1648000E-07  0.3576490E+04  0.7818609E-02  0.8095898E-01
       -1   -1    0    0    0  501  0.00000000000E+00  0.00000000000E+00  0.15402514217E+04  0.15402514217E+04  0.50400001928E-02 0. -1.
        1   -1    0    0  501    0  0.00000000000E+00  0.00000000000E+00 -0.20761671425E+04  0.20761671425E+04  0.50400001928E-02 0.  1.
    10030    2    1    2    0    0  0.00000000000E+00  0.00000000000E+00 -0.53591572073E+03  0.36164185642E+04  0.35764895599E+04 0.  0.
        3    1    3    3  502    0  0.50048389050E+03  0.16906340479E+04  0.33856939230E+02  0.17634834593E+04  0.10100000352E+00 0. -1.
       -3    1    3    3    0  502 -0.50048389050E+03 -0.16906340479E+04 -0.56977265996E+03  0.18529351049E+04  0.10100000352E+00 0.  1.
</event>
<event>
 5   0  0.1648000E-07  0.3843878E+04  0.7818609E-02  0.8036804E-01
        1   -1    0    0  501    0  0.00000000000E+00  0.00000000000E+00  0.27704718232E+04  0.27704718232E+04  0.50400001928E-02 0. -1.
       -1   -1    0    0    0  501  0.00000000000E+00  0.00000000000E+00 -0.13332928410E+04  0.13332928410E+04  0.50400001928E-02 0.  1.
    10030    2    1    2    0    0  0.00000000000E+00  0.00000000000E+00  0.14371789822E+04  0.41037646642E+04  0.38438783789E+04 0.  0.
        2    1    3    3  502    0 -0.19072355403E+04  0.59183066082E+02  0.96390817120E+03  0.21377953607E+04  0.25500000920E-02 0. -1.
       -2    1    3    3    0  502  0.19072355403E+04 -0.59183066082E+02  0.47327081098E+03  0.19659693035E+04  0.25500000920E-02 0.  1.
</event>
<event>
 5   0  0.1656617E-07  0.3745341E+04  0.7818609E-02  0.8057987E-01
        1   -1    0    0  501    0  0.00000000000E+00  0.00000000000E+00  0.22174055506E+04  0.22174055506E+04  0.50400001928E-02 0. -1.
       -1   -1    0    0    0  501  0.00000000000E+00  0.00000000000E+00 -0.15815306702E+04  0.15815306702E+04  0.50400001928E-02 0.  1.
    10030    2    1    2    0    0  0.00000000000E+00  0.00000000000E+00  0.63587488039E+03  0.37989362208E+04  0.37453410454E+04 0.  0.
        5    1    3    3  502    0  0.10082330937E+04 -0.96476860787E+02  0.19156061558E+04  0.21668896580E+04  0.46999998093E+01 0. -1.
       -5    1    3    3    0  502 -0.10082330937E+04  0.96476860787E+02 -0.12797312754E+04  0.16320465628E+04  0.46999998093E+01 0.  1.
</event>
<event>
 5   0  0.5134434E-07  0.3820296E+04  0.7818609E-02  0.8041813E-01
        2   -1    0    0  501    0  0.00000000000E+00  0.00000000000E+00  0.27392182474E+04  0.27392182474E+04  0.25500000920E-02 0.  1.
       -2   -1    0    0    0  501  0.00000000000E+00  0.00000000000E+00 -0.13320097912E+04  0.13320097912E+04  0.25500000920E-02 0. -1.
    10030    2    1    2    0    0  0.00000000000E+00  0.00000000000E+00  0.14072084561E+04  0.40712280386E+04  0.38202960753E+04 0.  0.
        5    1    3    3  502    0  0.18191676722E+04 -0.28802660179E+02  0.83633676623E+02  0.18213229518E+04  0.46999998093E+01 0.  1.
       -5    1    3    3    0  502 -0.18191676722E+04  0.28802660179E+02  0.13235747795E+04  0.22499050868E+04  0.46999998093E+01 0. -1.
</event>
<event>
 5   0  0.5134434E-07  0.3272179E+04  0.7818609E-02  0.8170011E-01
       -2   -1    0    0    0  501  0.00000000000E+00  0.00000000000E+00  0.11625336339E+04  0.11625336339E+04  0.25500000920E-02 0. -1.
        2   -1    0    0  501    0  0.00000000000E+00  0.00000000000E+00 -0.23025472690E+04  0.23025472690E+04  0.25500000920E-02 0.  1.
    10030    2    1    2    0    0  0.00000000000E+00  0.00000000000E+00 -0.11400136351E+04  0.34650809029E+04  0.32721788728E+04 0.  0.
        5    1    3    3  502    0 -0.86487331581E+03  0.12787414306E+04 -0.11437801457E+04  0.19213122106E+04  0.46999998093E+01 0.  1.
       -5    1    3    3    0  502  0.86487331581E+03 -0.12787414306E+04  0.37665106811E+01  0.15437686923E+04  0.46999998093E+01 0. -1.
</event>
<event>
 5   0  0.5134434E-07  0.3858745E+04  0.7818609E-02  0.8033665E-01
        2   -1    0    0  501    0  0.00000000000E+00  0.00000000000E+00  0.12612454392E+04  0.12612454392E+04  0.25500000920E-02 0. -1.
       -2   -1    0    0    0  501  0.00000000000E+00  0.00000000000E+00 -0.29514303345E+04  0.29514303345E+04  0.25500000920E-02 0.  1.
    10030    2    1    2    0    0  0.00000000000E+00  0.00000000000E+00 -0.16901848953E+04  0.42126757737E+04  0.38587448988E+04 0.  0.
        5    1    3    3  502    0 -0.54853859885E+03 -0.45165969572E+03  0.11131913176E+04  0.13206468395E+04  0.46999998093E+01 0. -1.
       -5    1    3    3    0  502  0.54853859885E+03  0.45165969572E+03 -0.28033762129E+04  0.28920289342E+04  0.46999998093E+01 0.  1.
</event>
<event>
 5   0  0.1648000E-07  0.3809915E+04  0.7818609E-02  0.8044031E-01
       -1   -1    0    0    0  501  0.00000000000E+00  0.00000000000E+00  0.29538721200E+04  0.29538721200E+04  0.50400001928E-02 0. -1.
        1   -1    0    0  501    0  0.00000000000E+00  0.00000000000E+00 -0.12285102481E+04  0.12285102481E+04  0.50400001928E-02 0.  1.
    10030    2    1    2    0    0  0.00000000000E+00  0.00000000000E+00  0.17253618720E+04  0.41823823681E+04  0.38099145245E+04 0.  0.
        4    1    3    3  502    0 -0.12037924654E+04 -0.10573040021E+04 -0.26852220068E+03  0.16245349605E+04  0.12699999809E+01 0.  1.
       -4    1    3    3    0  502  0.12037924654E+04  0.10573040021E+04  0.19938840726E+04  0.25578474076E+04  0.12699999809E+01 0. -1.
</event>
<event>
 5   0  0.5158266E-07  0.3747846E+04  0.7818609E-02  0.8057441E-01
       -2   -1    0    0    0  501  0.00000000000E+00  0.00000000000E+00  0.16183117972E+04  0.16183117972E+04  0.25500000920E-02 0. -1.
        2   -1    0    0  501    0  0.00000000000E+00  0.00000000000E+00 -0.21699074790E+04  0.21699074790E+04  0.25500000920E-02 0.  1.
    10030    2    1    2    0    0  0.00000000000E+00  0.00000000000E+00 -0.55159568186E+03  0.37882192762E+04  0.37478457130E+04 0.  0.
        2    1    3    3  502    0  0.55911016844E+02  0.46000729250E+03 -0.21110818097E+04  0.21613419809E+04  0.25500000920E-02 0.  1.
       -2    1    3    3    0  502 -0.55911016844E+02 -0.46000729250E+03  0.15594861279E+04  0.16268772953E+04  0.25500000920E-02 0. -1.
</event>
<event>
 5   0  0.5132561E-07  0.4066060E+04  0.7818609E-02  0.7991351E-01
       -2   -1    0    0    0  501  0.00000000000E+00  0.00000000000E+00  0.17393959991E+04  0.17393959991E+04  0.25500000920E-02 0. -1.
        2   -1    0    0  501    0  0.00000000000E+00  0.00000000000E+00 -0.23762335774E+04  0.23762335774E+04  0.25500000920E-02 0.  1.
    10030    2    1    2    0    0  0.00000000000E+00  0.00000000000E+00 -0.63683757829E+03  0.41156295765E+04  0.40660600967E+04 0.  0.
        3    1    3    3  502    0 -0.10012835427E+04  0.15585362801E+04  0.52941256474E+03  0.19266244427E+04  0.10100000352E+00 0. -1.
       -3    1    3    3    0  502  0.10012835427E+04 -0.15585362801E+04 -0.11662501430E+04  0.21890051338E+04  0.10100000352E+00 0.  1.
</event>
<event>
 5   0  0.1648000E-07  0.3689177E+04  0.7818609E-02  0.8070364E-01
        1   -1    0    0  501    0  0.00000000000E+00  0.00000000000E+00  0.10161960968E+04  0.10161960969E+04  0.50400001928E-02 0.  1.
       -1   -1    0    0    0  501  0.00000000000E+00  0.00000000000E+00 -0.33482786060E+04  0.33482786060E+04  0.50400001928E-02 0. -1.
    10030    2    1    2    0    0  0.00000000000E+00  0.00000000000E+00 -0.23320825091E+04  0.43644747028E+04  0.36891774967E+04 0.  0.
        3    1    3    3  502    0 -0.11317410219E+04  0.22122936999E+02  0.55698240201E+03  0.12615690910E+04  0.10100000352E+00 0.  1.
       -3    1    3    3    0  502  0.11317410219E+04 -0.22122936999E+02 -0.28890649111E+04  0.31029056118E+04  0.10100000352E+00 0. -1.
</event>
<event>
 5   0  0.5132561E-07  0.3739806E+04  0.7818609E-02  0.8059197E-01
        2   -1    0    0  501    0  0.00000000000E+00  0.00000000000E+00  0.15607319111E+04  0.15607319111E+04  0.25500000920E-02 0. -1.
       -2   -1    0    0    0  501  0.00000000000E+00  0.00000000000E+00 -0.22403184577E+04  0.22403184577E+04  0.25500000920E-02 0.  1.
    10030    2    1    2    0    0  0.00000000000E+00  0.00000000000E+00 -0.67958654659E+03  0.38010503689E+04  0.37398056142E+04 0.  0.
        3    1    3    3  502    0 -0.95432494521E+03  0.15006058912E+04  0.24758294308E+03  0.17955086928E+04  0.10100000352E+00 0. -1.
       -3    1    3    3    0  502  0.95432494521E+03 -0.15006058912E+04 -0.92716948966E+03  0.20055416761E+04  0.10100000352E+00 0.  1.
</event>
<event>
 5   0  0.1648000E-07  0.3935305E+04  0.7818609E-02  0.8017726E-01
        1   -1    0    0  501    0  0.00000000000E+00  0.00000000000E+00  0.17719403270E+04  0.17719403270E+04  0.50400001928E-02 0.  1.
       -1   -1    0    0    0  501  0.00000000000E+00  0.00000000000E+00 -0.21849817433E+04  0.21849817433E+04  0.50400001928E-02 0. -1.
    10030    2    1    2    0    0  0.00000000000E+00  0.00000000000E+00 -0.41304141631E+03  0.39569220703E+04  0.39353054594E+04 0.  0.
        4    1    3    3  502    0  0.85509571156E+03 -0.16296464005E+04  0.49352167257E+03  0.19053874463E+04  0.12699999809E+01 0.  1.
       -4    1    3    3    0  502 -0.85509571156E+03  0.16296464005E+04 -0.90656308889E+03  0.20515346240E+04  0.12699999809E+01 0. -1.
</event>
<event>
 5   0  0.5134434E-07  0.3674789E+04  0.7818609E-02  0.8073572E-01
        2   -1    0    0  501    0  0.00000000000E+00  0.00000000000E+00  0.23520435147E+04  0.23520435147E+04  0.25500000920E-02 0.  1.
       -2   -1    0    0    0  501  0.00000000000E+00  0.00000000000E+00 -0.14353553457E+04  0.14353553457E+04  0.25500000920E-02 0. -1.
    10030    2    1    2    0    0  0.00000000000E+00  0.00000000000E+00  0.91668816897E+03  0.37873988604E+04  0.36747888278E+04 0.  0.
        5    1    3    3  502    0  0.21706256801E+03 -0.85766157130E+03 -0.12013756321E+04  0.14919869399E+04  0.46999998093E+01 0. -1.
       -5    1    3    3    0  502 -0.21706256801E+03  0.85766157130E+03  0.21180638011E+04  0.22954119205E+04  0.46999998093E+01 0.  1.
</event>
<event>
 5   0  0.1648000E-07  0.3485483E+04  0.7818609E-02  0.8117239E-01
       -1   -1    0    0    0  501  0.00000000000E+00  0.00000000000E+00  0.16702651441E+04  0.16702651441E+04  0.50400001928E-02 0. -1.
        1   -1    0    0  501    0  0.00000000000E+00  0.00000000000E+00 -0.18183624989E+04  0.18183624989E+04  0.50400001928E-02 0.  1.
    10030    2    1    2    0    0  0.00000000000E+00  0.00000000000E+00 -0.14809735486E+03  0.34886276430E+04  0.34854827506E+04 0.  0.
        3    1    3    3  502    0 -0.52687001056E+03 -0.14600913844E+03  0.15822062467E+04  0.16740033733E+04  0.10100000352E+00 0. -1.
       -3    1    3    3    0  502  0.52687001056E+03  0.14600913844E+03 -0.17303036015E+04  0.18146242697E+04  0.10100000352E+00 0.  1.
</event>
<event>
 5   0  0.5158266E-07  0.3808223E+04  0.7818609E-02  0.8044393E-01
       -2   -1    0    0    0  501  0.00000000000E+00  0.00000000000E+00  0.22957209750E+04  0.22957209750E+04  0.25500000920E-02 0. -1.
        2   -1    0    0  501    0  0.00000000000E+00  0.00000000000E+00 -0.15793034452E+04  0.15793034452E+04  0.25500000920E-02 0.  1.
    10030    2    1    2    0    0  0.00000000000E+00  0.00000000000E+00  0.71641752986E+03  0.38750244202E+04  0.38082227062E+04 0.  0.
        2    1    3    3  502    0 -0.16638773936E+04 -0.64400752683E+03 -0.31859503924E+03  0.18123841962E+04  0.25500000920E-02 0.  1.
       -2    1    3    3    0  502  0.16638773936E+04  0.64400752683E+03  0.10350125691E+04  0.20626402240E+04  0.25500000920E-02 0. -1.
</event>
<event>
 5   0  0.1656617E-07  0.3796018E+04  0.7818609E-02  0.8047010E-01
       -1   -1    0    0    0  501  0.00000000000E+00  0.00000000000E+00  0.26538966141E+04  0.26538966141E+04  0.50400001928E-02 0.  1.
        1   -1    0    0  501    0  0.00000000000E+00  0.00000000000E+00 -0.13574146393E+04  0.13574146393E+04  0.50400001928E-02 0. -1.
    10030    2    1    2    0    0  0.00000000000E+00  0.00000000000E+00  0.12964819748E+04  0.40113112534E+04  0.37960179742E+04 0.  0.
        5    1    3    3  502    0  0.10379657226E+03 -0.13805679102E+04 -0.72373012038E+03  0.15622256112E+04  0.46999998093E+01 0.  1.
       -5    1    3    3    0  502 -0.10379657226E+03  0.13805679102E+04  0.20202120952E+04  0.24490856422E+04  0.46999998093E+01 0. -1.
</event>
<event>
 5   0  0.1648000E-07  0.3770036E+04  0.7818609E-02  0.8052616E-01
        1   -1    0    0  501    0  0.00000000000E+00  0.00000000000E+00  0.19173046012E+04  0.19173046012E+04  0.50400001928E-02 0. -1.
       -1   -1    0    0    0  501  0.00000000000E+00  0.00000000000E+00 -0.18532750925E+04  0.18532750925E+04  0.50400001928E-02 0.  1.
    10030    2    1    2    0    0  0.00000000000E+00  0.00000000000E+00  0.64029508748E+02  0.37705796937E+04  0.37700360010E+04 0.  0.
        2    1    3    3  502    0  0.18814048105E+04  0.11559811424E+03  0.47697490111E+02  0.18855561608E+04  0.25500000920E-02 0.  1.
       -2    1    3    3    0  502 -0.18814048105E+04 -0.11559811424E+03  0.16332018637E+02  0.18850235329E+04  0.25500000920E-02 0. -1.
</event>
<event>
 5   0  0.1656617E-07  0.3817858E+04  0.7818609E-02  0.8042333E-01
       -1   -1    0    0    0  501  0.00000000000E+00  0.00000000000E+00  0.25253447452E+04  0.25253447452E+04  0.50400001928E-02 0. -1.
        1   -1    0    0  501    0  0.00000000000E+00  0.00000000000E+00 -0.14429750703E+04  0.14429750703E+04  0.50400001928E-02 0.  1.
    10030    2    1    2    0    0  0.00000000000E+00  0.00000000000E+00  0.10823696749E+04  0.39683198155E+04  0.38178577822E+04 0.  0.
        5    1    3    3  502    0 -0.15639897517E+04 -0.72242382521E+03 -0.31342725673E+03  0.17510622096E+04  0.46999998093E+01 0.  1.
       -5    1    3    3    0  502  0.15639897517E+04  0.72242382521E+03  0.13957969317E+04  0.22172576059E+04  0.46999998093E+01 0. -1.
</event>
<event>
 5   0  0.5134434E-07  0.3804718E+04  0.7818609E-02  0.8045143E-01
       -2   -1    0    0    0  501  0.00000000000E+00  0.00000000000E+00  0.18034530814E+04  0.18034530814E+04  0.25500000920E-02 0.  1.
        2   -1    0    0  501    0  0.00000000000E+00  0.00000000000E+00 -0.20066891217E+04  0.20066891217E+04  0.25500000920E-02 0. -1.
    10030    2    1    2    0    0  0.00000000000E+00  0.00000000000E+00 -0.20323604038E+03  0.38101422031E+04  0.38047179553E+04 0.  0.
        5    1    3    3  502    0 -0.17077404397E+04 -0.74839623623E+03 -0.47961244008E+03  0.19252336270E+04  0.46999998093E+01 0. -1.
       -5    1    3    3    0  502  0.17077404397E+04  0.74839623623E+03  0.27637639969E+03  0.18849085761E+04  0.46999998093E+01 0.  1.
</event>
<event>
 5   0  0.1656617E-07  0.3796552E+04  0.7818609E-02  0.8046895E-01
        1   -1    0    0  501    0  0.00000000000E+00  0.00000000000E+00  0.23883092421E+04  0.23883092421E+04  0.50400001928E-02 0.  1.
       -1   -1    0    0    0  501  0.00000000000E+00  0.00000000000E+00 -0.15087875141E+04  0.15087875141E+04  0.50400001928E-02 0. -1.
    10030    2    1    2    0    0  0.00000000000E+00  0.00000000000E+00  0.87952172793E+03  0.38970967562E+04  0.37965516798E+04 0.  0.
        5    1    3    3  502    0 -0.54873797782E+03  0.10832219455E+04 -0.10579714074E+04  0.16105305773E+04  0.46999998093E+01 0. -1.
       -5    1    3    3    0  502  0.54873797782E+03 -0.10832219455E+04  0.19374931353E+04  0.22865661790E+04  0.46999998093E+01 0.  1.
</event>
<event>
 5   0  0.5202788E-07  0.3810433E+04  0.7818609E-02  0.8043920E-01
       -2   -1    0    0    0  501  0.00000000000E+00  0.00000000000E+00  0.23977065765E+04  0.23977065765E+04  0.25500000920E-02 0. -1.
        2   -1    0    0  501    0  0.00000000000E+00  0.00000000000E+00 -0.15138839308E+04  0.15138839308E+04  0.25500000920E-02 0.  1.
    10030    2    1    2    0    0  0.00000000000E+00  0.00000000000E+00  0.88382264566E+03  0.39115905073E+04  0.38104327613E+04 0.  0.
        1    1    3    3  502    0 -0.16084304821E+04  0.45649410952E+03 -0.49580151995E+03  0.17439193316E+04  0.50400001928E-02 0.  1.
       -1    1    3    3    0  502  0.16084304821E+04 -0.45649410952E+03  0.13796241656E+04  0.21676711758E+04  0.50400001928E-02 0. -1.
</event>
<event>
 5   0  0.5134434E-07  0.3796473E+04  0.7818609E-02  0.8046912E-01
        2   -1    0    0  501    0  0.00000000000E+00  0.00000000000E+00  0.26479295599E+04  0.26479295599E+04  0.25500000920E-02 0.  1.
       -2   -1    0    0    0  501  0.00000000000E+00  0.00000000000E+00 -0.13607995788E+04  0.13607995788E+04  0.25500000920E-02 0. -1.
    10030    2    1    2    0    0  0.00000000000E+00  0.00000000000E+00  0.12871299811E+04  0.40087291387E+04  0.37964727998E+04 0.  0.
        5    1    3    3  502    0 -0.53032788560E+03 -0.25438133281E+03  0.25492747316E+04  0.26162532897E+04  0.46999998093E+01 0.  1.
       -5    1    3    3    0  502  0.53032788560E+03  0.25438133281E+03 -0.12621447505E+04  0.13924758490E+04  0.46999998093E+01 0. -1.
</event>
<event>
 5   0  0.5134434E-07  0.3801984E+04  0.7818609E-02  0.8045729E-01
        2   -1    0    0  501    0  0.00000000000E+00  0.00000000000E+00  0.21991392505E+04  0.21991392505E+04  0.25500000920E-02 0.  1.
       -2   -1    0    0    0  501  0.00000000000E+00  0.00000000000E+00 -0.16432659827E+04  0.16432659827E+04  0.25500000920E-02 0. -1.
    10030    2    1    2    0    0  0.00000000000E+00  0.00000000000E+00  0.55587326773E+03  0.38424052332E+04  0.38019840724E+04 0.  0.
        5    1    3    3  502    0  0.17744546866E+04 -0.31682151778E+03 -0.33237384055E+03  0.18329101911E+04  0.46999998093E+01 0. -1.
       -5    1    3    3    0  502 -0.17744546866E+04  0.31682151778E+03  0.88824710828E+03  0.20094950421E+04  0.46999998093E+01 0.  1.
</event>
<event>
 5   0  0.1656617E-07  0.3624399E+04  0.7818609E-02  0.8084926E-01
        1   -1    0    0  501    0  0.00000000000E+00  0.00000000000E+00  0.14814795076E+04  0.14814795076E+04  0.50400001928E-02 0. -1.
       -1   -1    0    0    0  501  0.00000000000E+00  0.00000000000E+00 -0.22167479598E+04  0.22167479598E+04  0.50400001928E-02 0.  1.
    10030    2    1    2    0    0  0.00000000000E+00  0.00000000000E+00 -0.73526845214E+03  0.36982274674E+04  0.36243988059E+04 0.  0.
        5    1    3    3  502    0  0.75829244219E+03  0.11531510076E+04  0.83071623342E+03  0.16108619509E+04  0.46999998093E+01 0. -1.
       -5    1    3    3    0  502 -0.75829244219E+03 -0.11531510076E+04 -0.15659846856E+04  0.20873655165E+04  0.46999998093E+01 0.  1.
</event>
<event>
 5   0  0.1656617E-07  0.3878352E+04  0.7818609E-02  0.8029547E-01
       -1   -1    0    0    0  501  0.00000000000E+00  0.00000000000E+00  0.15758064433E+04  0.15758064433E+04  0.50400001928E-02 0. -1.
        1   -1    0    0  501    0  0.00000000000E+00  0.00000000000E+00 -0.23863359116E+04  0.23863359116E+04  0.50400001928E-02 0.  1.
    10030    2    1    2    0    0  0.00000000000E+00  0.00000000000E+00 -0.81052946828E+03  0.39621423548E+04  0.38783519723E+04 0.  0.
        5    1    3    3  502    0  0.16629770262E+04  0.93437994646E+03 -0.48692604173E+02  0.19081277562E+04  0.46999998093E+01 0.  1.
       -5    1    3    3    0  502 -0.16629770262E+04 -0.93437994646E+03 -0.76183686411E+03  0.20540145987E+04  0.46999998093E+01 0. -1.
</event>
<event>
 5   0  0.5134434E-07  0.3805057E+04  0.7818609E-02  0.8045070E-01
        2   -1    0    0  501    0  0.00000000000E+00  0.00000000000E+00  0.29248991133E+04  0.29248991133E+04  0.25500000920E-02 0.  1.
       -2   -1    0    0    0  501  0.00000000000E+00  0.00000000000E+00 -0.12375179271E+04  0.12375179271E+04  0.25500000920E-02 0. -1.
    10030    2    1    2    0    0  0.00000000000E+00  0.00000000000E+00  0.16873811862E+04  0.41624170404E+04  0.38050572073E+04 0.  0.
        5    1    3    3  502    0 -0.84476685900E+03 -0.15063400958E+03  0.27011834755E+04  0.28342081627E+04  0.46999998093E+01 0.  1.
       -5    1    3    3    0  502  0.84476685900E+03  0.15063400958E+03 -0.10138022894E+04  0.13282088777E+04  0.46999998093E+01 0. -1.
</event>
<event>
 5   0  0.1648000E-07  0.3426253E+04  0.7818609E-02  0.8131493E-01
       -1   -1    0    0    0  501  0.00000000000E+00  0.00000000000E+00  0.17933189759E+04  0.17933189759E+04  0.50400001928E-02 0. -1.
        1   -1    0    0  501    0  0.00000000000E+00  0.00000000000E+00 -0.16365202956E+04  0.16365202956E+04  0.50400001928E-02 0.  1.
    10030    2    1    2    0    0  0.00000000000E+00  0.00000000000E+00  0.15679868031E+03  0.34298392715E+04  0.34262532892E+04 0.  0.
        4    1    3    3  502    0  0.40019968906E+03  0.18030808198E+03 -0.15792717455E+04  0.16391374728E+04  0.12699999809E+01 0.  1.
       -4    1    3    3    0  502 -0.40019968906E+03 -0.18030808198E+03  0.17360704258E+04  0.17907017987E+04  0.12699999809E+01 0. -1.
</event>
<event>
 5   0  0.5202788E-07  0.2858606E+04  0.7818609E-02  0.8285301E-01
       -2   -1    0    0    0  501  0.00000000000E+00  0.00000000000E+00  0.12531710269E+04  0.12531710269E+04  0.25500000920E-02 0. -1.
        2   -1    0    0  501    0  0.00000000000E+00  0.00000000000E+00 -0.16301898343E+04  0.16301898343E+04  0.25500000920E-02 0.  1.
    10030    2    1    2    0    0  0.00000000000E+00  0.00000000000E+00 -0.37701880742E+03  0.28833608611E+04  0.28586057221E+04 0.  0.
        1    1    3    3  502    0  0.93385453382E+03 -0.30528889836E+03  0.85856556331E+03  0.13047683428E+04  0.50400001928E-02 0. -1.
       -1    1    3    3    0  502 -0.93385453382E+03  0.30528889836E+03 -0.12355843707E+04  0.15785925184E+04  0.50400001928E-02 0.  1.
</event>
<event>
 5   0  0.1656617E-07  0.3851890E+04  0.7818609E-02  0.8035110E-01
       -1   -1    0    0    0  501  0.00000000000E+00  0.00000000000E+00  0.24181204109E+04  0.24181204109E+04  0.50400001928E-02 0. -1.
        1   -1    0    0  501    0  0.00000000000E+00  0.00000000000E+00 -0.15339455003E+04  0.15339455003E+04  0.50400001928E-02 0.  1.
    10030    2    1    2    0    0  0.00000000000E+00  0.00000000000E+00  0.88417491061E+03  0.39520659112E+04  0.38518904052E+04 0.  0.
        5    1    3    3  502    0 -0.65828922124E+03 -0.15210589852E+04  0.14485566048E+04  0.22012050024E+04  0.46999998093E+01 0.  1.
       -5    1    3    3    0  502  0.65828922124E+03  0.15210589852E+04 -0.56438169419E+03  0.17508609088E+04  0.46999998093E+01 0. -1.
</event>
<event>
 5   0  0.1648000E-07  0.3801702E+04  0.7818609E-02  0.8045790E-01
        1   -1    0    0  501    0  0.00000000000E+00  0.00000000000E+00  0.28470040502E+04  0.28470040502E+04  0.50400001928E-02 0. -1.
       -1   -1    0    0    0  501  0.00000000000E+00  0.00000000000E+00 -0.12691356272E+04  0.12691356272E+04  0.50400001928E-02 0.  1.
    10030    2    1    2    0    0  0.00000000000E+00  0.00000000000E+00  0.15778684230E+04  0.41161396774E+04  0.38017018668E+04 0.  0.
        1    1    3    3  502    0 -0.64024842493E+03  0.91365897616E+03 -0.87736400834E+03  0.14193161640E+04  0.50400001928E-02 0.  1.
       -1    1    3    3    0  502  0.64024842493E+03 -0.91365897616E+03  0.24552324314E+04  0.26968235134E+04  0.50400001928E-02 0. -1.
</event>
<event>
 5   0  0.1648000E-07  0.3812530E+04  0.7818609E-02  0.8043471E-01
        1   -1    0    0  501    0  0.00000000000E+00  0.00000000000E+00  0.12431588788E+04  0.12431588788E+04  0.50400001928E-02 0. -1.
       -1   -1    0    0    0  501  0.00000000000E+00  0.00000000000E+00 -0.29230746918E+04  0.29230746918E+04  0.50400001928E-02 0.  1.
    10030    2    1    2    0    0  0.00000000000E+00  0.00000000000E+00 -0.16799158130E+04  0.41662335706E+04  0.38125300032E+04 0.  0.
        1    1    3    3  502    0  0.41294661983E+03 -0.71243616678E+03 -0.27186890636E+04  0.28406619698E+04  0.50400001928E-02 0.  1.
       -1    1    3    3    0  502 -0.41294661983E+03  0.71243616678E+03  0.10387732505E+04  0.13255716007E+04  0.50400001928E-02 0. -1.
</event>
<event>
 5   0  0.1648000E-07  0.3810205E+04  0.7818609E-02  0.8043969E-01
        1   -1    0    0  501    0  0.00000000000E+00  0.00000000000E+00  0.18772409952E+04  0.18772409952E+04  0.50400001928E-02 0.  1.
       -1   -1    0    0    0  501  0.00000000000E+00  0.00000000000E+00 -0.19333772812E+04  0.19333772812E+04  0.50400001928E-02 0. -1.
    10030    2    1    2    0    0  0.00000000000E+00  0.00000000000E+00 -0.56136285998E+02  0.38106182764E+04  0.38102047670E+04 0.  0.
        4    1    3    3  502    0 -0.69910575894E+03  0.16638745946E+04  0.58206851282E+03  0.18963208840E+04  0.12699999809E+01 0.  1.
       -4    1    3    3    0  502  0.69910575894E+03 -0.16638745946E+04 -0.63820479881E+03  0.19142973924E+04  0.12699999809E+01 0. -1.
</event>
<event>
 5   0  0.5325362E-07  0.3882795E+04  0.7818609E-02  0.8028617E-01
        2   -1    0    0  501    0  0.00000000000E+00  0.00000000000E+00  0.16532986867E+04  0.16532986867E+04  0.25500000920E-02 0. -1.
       -2   -1    0    0    0  501  0.00000000000E+00  0.00000000000E+00 -0.22796991476E+04  0.22796991476E+04  0.25500000920E-02 0.  1.
    10030    2    1    2    0    0  0.00000000000E+00  0.00000000000E+00 -0.62640046086E+03  0.39329978343E+04  0.38827946671E+04 0.  0.
        4    1    3    3  502    0 -0.15249607186E+04  0.21832598406E+03 -0.15099373068E+04  0.21571007653E+04  0.12699999809E+01 0.  1.
       -4    1    3    3    0  502  0.15249607186E+04 -0.21832598406E+03  0.88353684592E+03  0.17758970689E+04  0.12699999809E+01 0. -1.
</event>
<event>
 5   0  0.5132561E-07  0.3904903E+04  0.7818609E-02  0.8024010E-01
       -2   -1    0    0    0  501  0.00000000000E+00  0.00000000000E+00  0.27304515335E+04  0.27304515335E+04  0.25500000920E-02 0. -1.
        2   -1    0    0  501    0  0.00000000000E+00  0.00000000000E+00 -0.13961309164E+04  0.13961309164E+04  0.25500000920E-02 0.  1.
    10030    2    1    2    0    0  0.00000000000E+00  0.00000000000E+00  0.13343206172E+04  0.41265824499E+04  0.39049034824E+04 0.  0.
        3    1    3    3  502    0 -0.73216812641E+03 -0.22509712237E+03  0.25650336598E+04  0.26769640576E+04  0.10100000352E+00 0. -1.
       -3    1    3    3    0  502  0.73216812641E+03  0.22509712237E+03 -0.12307130426E+04  0.14496183923E+04  0.10100000352E+00 0.  1.
</event>
<event>
 5   0  0.1648000E-07  0.3726128E+04  0.7818609E-02  0.8062196E-01
        1   -1    0    0  501    0  0.00000000000E+00  0.00000000000E+00  0.23124510146E+04  0.23124510146E+04  0.50400001928E-02 0. -1.
       -1   -1    0    0    0  501  0.00000000000E+00  0.00000000000E+00 -0.15010079293E+04  0.15010079293E+04  0.50400001928E-02 0.  1.
    10030    2    1    2    0    0  0.00000000000E+00  0.00000000000E+00  0.81144308529E+03  0.38134589440E+04  0.37261279147E+04 0.  0.
        4    1    3    3  502    0  0.49558250952E+03 -0.72545904286E+03 -0.12756815299E+04  0.15489537841E+04  0.12699999809E+01 0.  1.
       -4    1    3    3    0  502 -0.49558250952E+03  0.72545904286E+03  0.20871246152E+04  0.22645051599E+04  0.12699999809E+01 0. -1.
</event>
<event>
 5   0  0.5134434E-07  0.2841858E+04  0.7818609E-02  0.8290390E-01
       -2   -1    0    0    0  501  0.00000000000E+00  0.00000000000E+00  0.92177616625E+03  0.92177616626E+03  0.25500000920E-02 0.  1.
        2   -1    0    0  501    0  0.00000000000E+00  0.00000000000E+00 -0.21903788733E+04  0.21903788733E+04  0.25500000920E-02 0. -1.
    10030    2    1    2    0    0  0.00000000000E+00  0.00000000000E+00 -0.12686027071E+04  0.31121550396E+04  0.28418578715E+04 0.  0.
        5    1    3    3  502    0  0.11853590536E+04 -0.68782516081E+03 -0.10452787054E+04  0.17236035506E+04  0.46999998093E+01 0.  1.
       -5    1    3    3    0  502 -0.11853590536E+04  0.68782516081E+03 -0.22332400165E+03  0.13885514889E+04  0.46999998093E+01 0. -1.
</event>
<event>
 5   0  0.5132561E-07  0.3782806E+04  0.7818609E-02  0.8049855E-01
       -2   -1    0    0    0  501  0.00000000000E+00  0.00000000000E+00  0.16485866013E+04  0.16485866013E+04  0.25500000920E-02 0.  1.
        2   -1    0    0  501    0  0.00000000000E+00  0.00000000000E+00 -0.21699829796E+04  0.21699829796E+04  0.25500000920E-02 0. -1.
    10030    2    1    2    0    0  0.00000000000E+00  0.00000000000E+00 -0.52139637830E+03  0.38185695810E+04  0.37828057658E+04 0.  0.
        3    1    3    3  502    0 -0.99667797463E+03  0.16043415899E+04 -0.36227724868E+03  0.19231546317E+04  0.10100000352E+00 0.  1.
       -3    1    3    3    0  502  0.99667797463E+03 -0.16043415899E+04 -0.15911912962E+03  0.18954149493E+04  0.10100000352E+00 0. -1.
</event>
<event>
 5   0  0.5325362E-07  0.3137184E+04  0.7818609E-02  0.8205607E-01
        2   -1    0    0  501    0  0.00000000000E+00  0.00000000000E+00  0.14680002589E+04  0.14680002589E+04  0.25500000920E-02 0.  1.
       -2   -1    0    0    0  501  0.00000000000E+00  0.00000000000E+00 -0.16760765916E+04  0.16760765916E+04  0.25500000920E-02 0. -1.
    10030    2    1    2    0    0  0.00000000000E+00  0.00000000000E+00 -0.20807633271E+03  0.31440768505E+04  0.31371840050E+04 0.  0.
        4    1    3    3  502    0  0.11793561497E+04  0.51147852631E+02 -0.11392560203E+04  0.16405495796E+04  0.12699999809E+01 0. -1.
       -4    1    3    3    0  502 -0.11793561497E+04 -0.51147852631E+02  0.93117968755E+03  0.15035272708E+04  0.12699999809E+01 0.  1.
</event>
<event>
 5   0  0.5158266E-07  0.3807578E+04  0.7818609E-02  0.8044531E-01
        2   -1    0    0  501    0  0.00000000000E+00  0.00000000000E+00  0.28403252108E+04  0.28403252108E+04  0.25500000920E-02 0. -1.
       -2   -1    0    0    0  501  0.00000000000E+00  0.00000000000E+00 -0.12760553529E+04  0.12760553529E+04  0.25500000920E-02 0.  1.
    10030    2    1    2    0    0  0.00000000000E+00  0.00000000000E+00  0.15642698578E+04  0.41163805637E+04  0.38075778071E+04 0.  0.
        2    1    3    3  502    0 -0.12711844453E+04 -0.13949278630E+04  0.10527962588E+04  0.21610445621E+04  0.25500000920E-02 0. -1.
       -2    1    3    3    0  502  0.12711844453E+04  0.13949278630E+04  0.51147359903E+03  0.19553360016E+04  0.25500000920E-02 0.  1.
</event>
<event>
 5   0  0.5158266E-07  0.3817767E+04  0.7818609E-02  0.8042353E-01
        2   -1    0    0  501    0  0.00000000000E+00  0.00000000000E+00  0.16176893041E+04  0.16176893041E+04  0.25500000920E-02 0.  1.
       -2   -1    0    0    0  501  0.00000000000E+00  0.00000000000E+00 -0.22524945916E+04  0.22524945916E+04  0.25500000920E-02 0. -1.
    10030    2    1    2    0    0  0.00000000000E+00  0.00000000000E+00 -0.63480528750E+03  0.38701838957E+04  0.38177671004E+04 0.  0.
        2    1    3    3  502    0 -0.11789743263E+04 -0.14740043287E+04 -0.28592519868E+02  0.18877199886E+04  0.25500000920E-02 0. -1.
       -2    1    3    3    0  502  0.11789743263E+04  0.14740043287E+04 -0.60621276763E+03  0.19824639071E+04  0.25500000920E-02 0.  1.
</event>
<event>
 5   0  0.5158266E-07  0.3901692E+04  0.7818609E-02  0.8024677E-01
       -2   -1    0    0    0  501  0.00000000000E+00  0.00000000000E+00  0.11870360755E+04  0.11870360755E+04  0.25500000920E-02 0. -1.
        2   -1    0    0  501    0  0.00000000000E+00  0.00000000000E+00 -0.32061362692E+04  0.32061362692E+04  0.25500000920E-02 0.  1.
    10030    2    1    2    0    0  0.00000000000E+00  0.00000000000E+00 -0.20191001938E+04  0.43931723447E+04  0.39016916405E+04 0.  0.
        2    1    3    3  502    0  0.68806694494E+03  0.15813887863E+04 -0.20363254510E+04  0.26684917007E+04  0.25500000920E-02 0.  1.
       -2    1    3    3    0  502 -0.68806694494E+03 -0.15813887863E+04  0.17225257255E+02  0.17246806440E+04  0.25500000920E-02 0. -1.
</event>
<event>
 5   0  0.5132561E-07  0.3783949E+04  0.7818609E-02  0.8049608E-01
       -2   -1    0    0    0  501  0.00000000000E+00  0.00000000000E+00  0.25639965310E+04  0.25639965310E+04  0.25500000920E-02 0.  1.
        2   -1    0    0  501    0  0.00000000000E+00  0.00000000000E+00 -0.13960889059E+04  0.13960889059E+04  0.25500000920E-02 0. -1.
    10030    2    1    2    0    0  0.00000000000E+00  0.00000000000E+00  0.11679076250E+04  0.39600854369E+04  0.37839487902E+04 0.  0.
        3    1    3    3  502    0 -0.18262634476E+04 -0.35884415049E+03  0.22818924579E+03  0.18751207018E+04  0.10100000352E+00 0. -1.
       -3    1    3    3    0  502  0.18262634476E+04  0.35884415049E+03  0.93971837926E+03  0.20849647351E+04  0.10100000352E+00 0.  1.
</event>
<event>
 5   0  0.5325362E-07  0.3822628E+04  0.7818609E-02  0.8041316E-01
       -2   -1    0    0    0  501  0.00000000000E+00  0.00000000000E+00  0.15339522752E+04  0.15339522752E+04  0.25500000920E-02 0. -1.
        2   -1    0    0  501    0  0.00000000000E+00  0.00000000000E+00 -0.23815084759E+04  0.23815084759E+04  0.25500000920E-02 0.  1.
    10030    2    1    2    0    0  0.00000000000E+00  0.00000000000E+00 -0.84755620073E+03  0.39154607511E+04  0.38226275492E+04 0.  0.
        4    1    3    3  502    0  0.17692477667E+04  0.57255405736E+03  0.28606959819E+02  0.18598053069E+04  0.12699999809E+01 0.  1.
       -4    1    3    3    0  502 -0.17692477667E+04 -0.57255405736E+03 -0.87616316055E+03  0.20556554442E+04  0.12699999809E+01 0. -1.
</event>
<event>
 5   0  0.5202788E-07  0.3727401E+04  0.7818609E-02  0.8061917E-01
        2   -1    0    0  501    0  0.00000000000E+00  0.00000000000E+00  0.23571525715E+04  0.23571525715E+04  0.25500000920E-02 0.  1.
       -2   -1    0    0    0  501  0.00000000000E+00  0.00000000000E+00 -0.14735485601E+04  0.14735485601E+04  0.25500000920E-02 0. -1.
    10030    2    1    2    0    0  0.00000000000E+00  0.00000000000E+00  0.88360401136E+03  0.38307011315E+04  0.37274005836E+04 0.  0.
        1    1    3    3  502    0  0.60501087650E+03  0.17080434554E+04  0.88968739398E+03  0.20186615034E+04  0.50400001928E-02 0.  1.
       -1    1    3    3    0  502 -0.60501087650E+03 -0.17080434554E+04 -0.60833826236E+01  0.18120396281E+04  0.50400001928E-02 0. -1.
</event>
<event>
 5   0  0.1648000E-07  0.3707761E+04  0.7818609E-02  0.8066244E-01
        1   -1    0    0  501    0  0.00000000000E+00  0.00000000000E+00  0.20395354568E+04  0.20395354568E+04  0.50400001928E-02 0.  1.
       -1   -1    0    0    0  501  0.00000000000E+00  0.00000000000E+00 -0.16851251204E+04  0.16851251205E+04  0.50400001928E-02 0. -1.
    10030    2    1    2    0    0  0.00000000000E+00  0.00000000000E+00  0.35441033633E+03  0.37246605772E+04  0.37077607432E+04 0.  0.
        1    1    3    3  502    0  0.40690275194E+02 -0.18450217686E+04  0.35439338101E+03  0.18791901696E+04  0.50400001928E-02 0.  1.
       -1    1    3    3    0  502 -0.40690275194E+02  0.18450217686E+04  0.16955325011E-01  0.18454704076E+04  0.50400001928E-02 0. -1.
</event>
<event>
 5   0  0.1648000E-07  0.3782766E+04  0.7818609E-02  0.8049863E-01
       -1   -1    0    0    0  501  0.00000000000E+00  0.00000000000E+00  0.15965945477E+04  0.15965945477E+04  0.50400001928E-02 0.  1.
        1   -1    0    0  501    0  0.00000000000E+00  0.00000000000E+00 -0.22405993915E+04  0.22405993915E+04  0.50400001928E-02 0. -1.
    10030    2    1    2    0    0  0.00000000000E+00  0.00000000000E+00 -0.64400484377E+03  0.38371939392E+04  0.37827655344E+04 0.  0.
        3    1    3    3  502    0  0.13615670649E+04 -0.67010906378E+02  0.10079585851E+04  0.16953866383E+04  0.10100000352E+00 0.  1.
       -3    1    3    3    0  502 -0.13615670649E+04  0.67010906378E+02 -0.16519634288E+04  0.21418073009E+04  0.10100000352E+00 0. -1.
</event>
<event>
 5   0  0.1648000E-07  0.3726574E+04  0.7818609E-02  0.8062098E-01
        1   -1    0    0  501    0  0.00000000000E+00  0.00000000000E+00  0.32204252773E+04  0.32204252773E+04  0.50400001928E-02 0. -1.
       -1   -1    0    0    0  501  0.00000000000E+00  0.00000000000E+00 -0.10780684315E+04  0.10780684315E+04  0.50400001928E-02 0.  1.
    10030    2    1    2    0    0  0.00000000000E+00  0.00000000000E+00  0.21423568458E+04  0.42984937089E+04  0.37265742057E+04 0.  0.
        1    1    3    3  502    0 -0.65439045307E+03 -0.10372653191E+04  0.26892031349E+04  0.29556656963E+04  0.50400001928E-02 0. -1.
       -1    1    3    3    0  502  0.65439045307E+03  0.10372653191E+04 -0.54684628914E+03  0.13428280126E+04  0.50400001928E-02 0.  1.
</event>
<event>
 5   0  0.5325362E-07  0.3768309E+04  0.7818609E-02  0.8052990E-01
       -2   -1    0    0    0  501  0.00000000000E+00  0.00000000000E+00  0.16529984638E+04  0.16529984638E+04  0.25500000920E-02 0. -1.
        2   -1    0    0  501    0  0.00000000000E+00  0.00000000000E+00 -0.21476351185E+04  0.21476351185E+04  0.25500000920E-02 0.  1.
    10030    2    1    2    0    0  0.00000000000E+00  0.00000000000E+00 -0.49463665471E+03  0.38006335824E+04  0.37683086667E+04 0.  0.
        4    1    3    3  502    0  0.43803634384E+03 -0.14261072371E+04 -0.14080064812E+04  0.20513755273E+04  0.12699999809E+01 0.  1.
       -4    1    3    3    0  502 -0.43803634384E+03  0.14261072371E+04  0.91336982651E+03  0.17492580550E+04  0.12699999809E+01 0. -1.
</event>
<event>
 5   0  0.5158266E-07  0.2964249E+04  0.7818609E-02  0.8254014E-01
        2   -1    0    0  501    0  0.00000000000E+00  0.00000000000E+00  0.25298276337E+04  0.25298276337E+04  0.25500000920E-02 0. -1.
       -2   -1    0    0    0  501  0.00000000000E+00  0.00000000000E+00 -0.86831745931E+03  0.86831745931E+03  0.25500000920E-02 0.  1.
    10030    2    1    2    0    0  0.00000000000E+00  0.00000000000E+00  0.16615101744E+04  0.33981450930E+04  0.29642493170E+04 0.  0.
        2    1    3    3  502    0  0.14345372687E+04  0.44154283386E+02  0.40667840096E+03  0.14917218568E+04  0.25500000920E-02 0.  1.
       -2    1    3    3    0  502 -0.14345372687E+04 -0.44154283386E+02  0.12548317734E+04  0.19064232362E+04  0.25500000920E-02 0. -1.
</event>
<event>
 5   0  0.5158266E-07  0.3805887E+04  0.7818609E-02  0.8044893E-01
       -2   -1    0    0    0  501  0.00000000000E+00  0.00000000000E+00  0.14740914230E+04  0.14740914230E+04  0.25500000920E-02 0. -1.
        2   -1    0    0  501    0  0.00000000000E+00  0.00000000000E+00 -0.24565596319E+04  0.24565596319E+04  0.25500000920E-02 0.  1.
    10030    2    1    2    0    0  0.00000000000E+00  0.00000000000E+00 -0.98246820892E+03  0.39306510549E+04  0.38058867473E+04 0.  0.
        2    1    3    3  502    0  0.17208263427E+04  0.80840458797E+03 -0.40840394000E+03  0.19446220861E+04  0.25500000920E-02 0. -1.
       -2    1    3    3    0  502 -0.17208263427E+04 -0.80840458797E+03 -0.57406426892E+03  0.19860289687E+04  0.25500000920E-02 0.  1.
</event>
<event>
 5   0  0.5202788E-07  0.4003847E+04  0.7818609E-02  0.8003771E-01
       -2   -1    0    0    0  501  0.00000000000E+00  0.00000000000E+00  0.14769178419E+04  0.14769178419E+04  0.25500000920E-02 0.  1.
        2   -1    0    0  501    0  0.00000000000E+00  0.00000000000E+00 -0.27135544447E+04  0.27135544447E+04  0.25500000920E-02 0. -1.
    10030    2    1    2    0    0  0.00000000000E+00  0.00000000000E+00 -0.12366366028E+04  0.41904722866E+04  0.40038466376E+04 0.  0.
        1    1    3    3  502    0  0.22981714961E+03  0.14158398777E+04  0.84329960371E+03  0.16639028527E+04  0.50400001928E-02 0.  1.
       -1    1    3    3    0  502 -0.22981714961E+03 -0.14158398777E+04 -0.20799362065E+04  0.25265694339E+04  0.50400001928E-02 0. -1.
</event>
<event>
 5   0  0.5134434E-07  0.3880470E+04  0.7818609E-02  0.8029103E-01
        2   -1    0    0  501    0  0.00000000000E+00  0.00000000000E+00  0.19461779055E+04  0.19461779055E+04  0.25500000920E-02 0. -1.
       -2   -1    0    0    0  501  0.00000000000E+00  0.00000000000E+00 -0.19343102523E+04  0.19343102523E+04  0.25500000920E-02 0.  1.
    10030    2    1    2    0    0  0.00000000000E+00  0.00000000000E+00  0.11867653180E+02  0.38804881578E+04  0.38804700104E+04 0.  0.
        5    1    3    3  502    0 -0.45795845798E+03 -0.21740612289E+03  0.18787742416E+04  0.19459717656E+04  0.46999998093E+01 0. -1.
       -5    1    3    3    0  502  0.45795845798E+03  0.21740612289E+03 -0.18669065885E+04  0.19345163922E+04  0.46999998093E+01 0.  1.
</event>
<event>
 5   0  0.1648000E-07  0.3694484E+04  0.7818609E-02  0.8069185E-01
       -1   -1    0    0    0  501  0.00000000000E+00  0.00000000000E+00  0.11266053719E+04  0.11266053720E+04  0.50400001928E-02 0. -1.
        1   -1    0    0  501    0  0.00000000000E+00  0.00000000000E+00 -0.30288355217E+04  0.30288355217E+04  0.50400001928E-02 0.  1.
    10030    2    1    2    0    0  0.00000000000E+00  0.00000000000E+00 -0.19022301498E+04  0.41554408937E+04  0.36944836552E+04 0.  0.
        2    1    3    3  502    0 -0.10702385567E+03 -0.87426980522E+03 -0.27774368396E+04  0.29137531117E+04  0.25500000920E-02 0.  1.
       -2    1    3    3    0  502  0.10702385567E+03  0.87426980522E+03  0.87520668982E+03  0.12416877820E+04  0.25500000920E-02 0. -1.
</event>
<event>
 5   0  0.1648000E-07  0.3765475E+04  0.7818609E-02  0.8053605E-01
        1   -1    0    0  501    0  0.00000000000E+00  0.00000000000E+00  0.19971135573E+04  0.19971135573E+04  0.50400001928E-02 0.  1.
       -1   -1    0    0    0  501  0.00000000000E+00  0.00000000000E+00 -0.17749114145E+04  0.17749114145E+04  0.50400001928E-02 0. -1.
    10030    2    1    2    0    0  0.00000000000E+00  0.00000000000E+00  0.22220214281E+03  0.37720249718E+04  0.37654745511E+04 0.  0.
        3    1    3    3  502    0  0.12211807977E+04  0.31171655056E+03 -0.12899920717E+04  0.18034770040E+04  0.10100000352E+00 0. -1.
       -3    1    3    3    0  502 -0.12211807977E+04 -0.31171655056E+03  0.15121942146E+04  0.19685479678E+04  0.10100000352E+00 0.  1.
</event>
<event>
 5   0  0.1648000E-07  0.3813579E+04  0.7818609E-02  0.8043247E-01
        1   -1    0    0  501    0  0.00000000000E+00  0.00000000000E+00  0.21198766913E+04  0.21198766913E+04  0.50400001928E-02 0. -1.
       -1   -1    0    0    0  501  0.00000000000E+00  0.00000000000E+00 -0.17151213044E+04  0.17151213044E+04  0.50400001928E-02 0.  1.
    10030    2    1    2    0    0  0.00000000000E+00  0.00000000000E+00  0.40475538694E+03  0.38349979958E+04  0.38135787266E+04 0.  0.
        1    1    3    3  502    0  0.66113505686E+03 -0.55477037273E+03  0.19122145099E+04  0.20979594996E+04  0.50400001928E-02 0. -1.
       -1    1    3    3    0  502 -0.66113505686E+03  0.55477037273E+03 -0.15074591230E+04  0.17370384962E+04  0.50400001928E-02 0.  1.
</event>
<event>
 5   0  0.1648000E-07  0.3820869E+04  0.7818609E-02  0.8041691E-01
       -1   -1    0    0    0  501  0.00000000000E+00  0.00000000000E+00  0.26971005524E+04  0.26971005524E+04  0.50400001928E-02 0.  1.
        1   -1    0    0  501    0  0.00000000000E+00  0.00000000000E+00 -0.13532162609E+04  0.13532162609E+04  0.50400001928E-02 0. -1.
    10030    2    1    2    0    0  0.00000000000E+00  0.00000000000E+00  0.13438842915E+04  0.40503168132E+04  0.38208691811E+04 0.  0.
        2    1    3    3  502    0 -0.19271573180E+03  0.12584114817E+04  0.21819185201E+04  0.25261645312E+04  0.25500000920E-02 0.  1.
       -2    1    3    3    0  502  0.19271573180E+03 -0.12584114817E+04 -0.83803422858E+03  0.15241522820E+04  0.25500000920E-02 0. -1.
</event>
<event>
 5   0  0.5132561E-07  0.3850908E+04  0.7818609E-02  0.8035318E-01
       -2   -1    0    0    0  501  0.00000000000E+00  0.00000000000E+00  0.16308098048E+04  0.16308098048E+04  0.25500000920E-02 0. -1.
        2   -1    0    0  501    0  0.00000000000E+00  0.00000000000E+00 -0.22733326304E+04  0.22733326304E+04  0.25500000920E-02 0.  1.
    10030    2    1    2    0    0  0.00000000000E+00  0.00000000000E+00 -0.64252282557E+03  0.39041424352E+04  0.38509080193E+04 0.  0.
        3    1    3    3  502    0 -0.14456786626E+04  0.12425717959E+04 -0.59593410094E+03  0.19972753757E+04  0.10100000352E+00 0.  1.
       -3    1    3    3    0  502  0.14456786626E+04 -0.12425717959E+04 -0.46588724638E+02  0.19068670596E+04  0.10100000352E+00 0. -1.
</event>
<event>
 5   0  0.1648000E-07  0.3669022E+04  0.7818609E-02  0.8074862E-01
       -1   -1    0    0    0  501  0.00000000000E+00  0.00000000000E+00  0.18088296865E+04  0.18088296865E+04  0.50400001928E-02 0. -1.
        1   -1    0    0  501    0  0.00000000000E+00  0.00000000000E+00 -0.18605570928E+04  0.18605570929E+04  0.50400001928E-02 0.  1.
    10030    2    1    2    0    0  0.00000000000E+00  0.00000000000E+00 -0.51727406323E+02  0.36693867794E+04  0.36690221602E+04 0.  0.
        2    1    3    3  502    0  0.15663824210E+04 -0.29960290405E+03  0.88093204123E+03  0.18219102750E+04  0.25500000920E-02 0.  1.
       -2    1    3    3    0  502 -0.15663824210E+04  0.29960290405E+03 -0.93265944755E+03  0.18474765043E+04  0.25500000920E-02 0. -1.
</event>
<event>
 5   0  0.5134434E-07  0.3106731E+04  0.7818609E-02  0.8213893E-01
       -2   -1    0    0    0  501  0.00000000000E+00  0.00000000000E+00  0.13250124744E+04  0.13250124744E+04  0.25500000920E-02 0.  1.
        2   -1    0    0  501    0  0.00000000000E+00  0.00000000000E+00 -0.18210731862E+04  0.18210731862E+04  0.25500000920E-02 0. -1.
    10030    2    1    2    0    0  0.00000000000E+00  0.00000000000E+00 -0.49606071181E+03  0.31460856606E+04  0.31067312008E+04 0.  0.
        5    1    3    3  502    0  0.85333097310E+03 -0.12977746937E+04 -0.22472374791E+03  0.15693679486E+04  0.46999998093E+01 0.  1.
       -5    1    3    3    0  502 -0.85333097310E+03  0.12977746937E+04 -0.27133696389E+03  0.15767177120E+04  0.46999998093E+01 0. -1.
</event>
<event>
 5   0  0.5202788E-07  0.3810311E+04  0.7818609E-02  0.8043946E-01
       -2   -1    0    0    0  501  0.00000000000E+00  0.00000000000E+00  0.13802251124E+04  0.13802251124E+04  0.25500000920E-02 0.  1.
        2   -1    0    0  501    0  0.00000000000E+00  0.00000000000E+00 -0.26297289234E+04  0.26297289234E+04  0.25500000920E-02 0. -1.
    10030    2    1    2    0    0  0.00000000000E+00  0.00000000000E+00 -0.12495038110E+04  0.40099540357E+04  0.38103112202E+04 0.  0.
        1    1    3    3  502    0 -0.16245362650E+04 -0.95863375519E+02 -0.16672663117E+04  0.23298250615E+04  0.50400001928E-02 0. -1.
       -1    1    3    3    0  502  0.16245362650E+04  0.95863375519E+02  0.41776250075E+03  0.16801289742E+04  0.50400001928E-02 0.  1.
</event>
<event>
 5   0  0.1656617E-07  0.3392820E+04  0.7818609E-02  0.8139671E-01
       -1   -1    0    0    0  501  0.00000000000E+00  0.00000000000E+00  0.22917662823E+04  0.22917662823E+04  0.50400001928E-02 0.  1.
        1   -1    0    0  501    0  0.00000000000E+00  0.00000000000E+00 -0.12557159593E+04  0.12557159593E+04  0.50400001928E-02 0. -1.
    10030    2    1    2    0    0  0.00000000000E+00  0.00000000000E+00  0.10360503230E+04  0.35474822416E+04  0.33928203581E+04 0.  0.
        5    1    3    3  502    0 -0.54345745929E+03  0.69148065333E+03 -0.99871980722E+03  0.13307722748E+04  0.46999998093E+01 0. -1.
       -5    1    3    3    0  502  0.54345745929E+03 -0.69148065333E+03  0.20347701302E+04  0.22167099668E+04  0.46999998093E+01 0.  1.
</event>
<event>
 5   0  0.1648000E-07  0.3794284E+04  0.7818609E-02  0.8047383E-01
       -1   -1    0    0    0  501  0.00000000000E+00  0.00000000000E+00  0.20584600477E+04  0.20584600477E+04  0.50400001928E-02 0.  1.
        1   -1    0    0  501    0  0.00000000000E+00  0.00000000000E+00 -0.17484659519E+04  0.17484659519E+04  0.50400001928E-02 0. -1.
    10030    2    1    2    0    0  0.00000000000E+00  0.00000000000E+00  0.30999409581E+03  0.38069259996E+04  0.37942837568E+04 0.  0.
        3    1    3    3  502    0  0.70799996896E+03  0.11318975083E+04  0.15073349026E+04  0.20135824900E+04  0.10100000352E+00 0.  1.
       -3    1    3    3    0  502 -0.70799996896E+03 -0.11318975083E+04 -0.11973408068E+04  0.17933435095E+04  0.10100000352E+00 0. -1.
</event>
<event>
 5   0  0.1648000E-07  0.3785376E+04  0.7818609E-02  0.8049300E-01
       -1   -1    0    0    0  501  0.00000000000E+00  0.00000000000E+00  0.31148909510E+04  0.31148909510E+04  0.50400001928E-02 0. -1.
        1   -1    0    0  501    0  0.00000000000E+00  0.00000000000E+00 -0.11500460141E+04  0.11500460142E+04  0.50400001928E-02 0.  1.
    10030    2    1    2    0    0  0.00000000000E+00  0.00000000000E+00  0.19648449368E+04  0.42649369651E+04  0.37853760303E+04 0.  0.
        1    1    3    3  502    0 -0.17650791557E+04  0.57372851650E+03  0.14003599906E+04  0.23250111698E+04  0.50400001928E-02 0. -1.
       -1    1    3    3    0  502  0.17650791557E+04 -0.57372851650E+03  0.56448494624E+03  0.19399257953E+04  0.50400001928E-02 0.  1.
</event>
<event>
 5   0  0.1656617E-07  0.3784391E+04  0.7818609E-02  0.8049513E-01
        1   -1    0    0  501    0  0.00000000000E+00  0.00000000000E+00  0.19450828267E+04  0.19450828267E+04  0.50400001928E-02 0.  1.
       -1   -1    0    0    0  501  0.00000000000E+00  0.00000000000E+00 -0.18407458724E+04  0.18407458724E+04  0.50400001928E-02 0. -1.
    10030    2    1    2    0    0  0.00000000000E+00  0.00000000000E+00  0.10433695431E+03  0.37858286991E+04  0.37843906694E+04 0.  0.
        5    1    3    3  502    0 -0.12614043681E+04 -0.11548445376E+04 -0.75781456378E+03  0.18705913206E+04  0.46999998093E+01 0. -1.
       -5    1    3    3    0  502  0.12614043681E+04  0.11548445376E+04  0.86215151809E+03  0.19152373785E+04  0.46999998093E+01 0.  1.
</event>
<event>
 5   0  0.5158266E-07  0.3116454E+04  0.7818609E-02  0.8211237E-01
        2   -1    0    0  501    0  0.00000000000E+00  0.00000000000E+00  0.21858687560E+04  0.21858687560E+04  0.25500000920E-02 0. -1.
       -2   -1    0    0    0  501  0.00000000000E+00  0.00000000000E+00 -0.11108037992E+04  0.11108037992E+04  0.25500000920E-02 0.  1.
    10030    2    1    2    0    0  0.00000000000E+00  0.00000000000E+00  0.10750649568E+04  0.32966725552E+04  0.31164539584E+04 0.  0.
        2    1    3    3  502    0  0.22394688509E+03  0.50857891968E+03  0.20774869942E+04  0.21505248048E+04  0.25500000920E-02 0. -1.
       -2    1    3    3    0  502 -0.22394688509E+03 -0.50857891968E+03 -0.10024220373E+04  0.11461477504E+04  0.25500000920E-02 0.  1.
</event>
<event>
 5   0  0.1648000E-07  0.3770587E+04  0.7818609E-02  0.8052496E-01
       -1   -1    0    0    0  501  0.00000000000E+00  0.00000000000E+00  0.16139167311E+04  0.16139167311E+04  0.50400001928E-02 0. -1.
        1   -1    0    0  501    0  0.00000000000E+00  0.00000000000E+00 -0.22023017467E+04  0.22023017467E+04  0.50400001928E-02 0.  1.
    10030    2    1    2    0    0  0.00000000000E+00  0.00000000000E+00 -0.58838501557E+03  0.38162184778E+04  0.37705870291E+04 0.  0.
        2    1    3    3  502    0 -0.79840975809E+03 -0.15592250141E+04 -0.99954177834E+03  0.20168600728E+04  0.25500000920E-02 0. -1.
       -2    1    3    3    0  502  0.79840975809E+03  0.15592250141E+04  0.41115676276E+03  0.17993584051E+04  0.25500000920E-02 0.  1.
</event>
<event>
 5   0  0.5134434E-07  0.3710813E+04  0.7818609E-02  0.8065570E-01
        2   -1    0    0  501    0  0.00000000000E+00  0.00000000000E+00  0.25534680535E+04  0.25534680535E+04  0.25500000920E-02 0.  1.
       -2   -1    0    0    0  501  0.00000000000E+00  0.00000000000E+00 -0.13481796016E+04  0.13481796016E+04  0.25500000920E-02 0. -1.
    10030    2    1    2    0    0  0.00000000000E+00  0.00000000000E+00  0.12052884519E+04  0.39016476552E+04  0.37108131417E+04 0.  0.
        5    1    3    3  502    0 -0.66066817165E+03  0.10480729492E+04  0.20548208568E+04  0.23994270532E+04  0.46999998093E+01 0.  1.
       -5    1    3    3    0  502  0.66066817165E+03 -0.10480729492E+04 -0.84953240493E+03  0.15022206020E+04  0.46999998093E+01 0. -1.
</event>
<event>
 5   0  0.1648000E-07  0.3481829E+04  0.7818609E-02  0.8118110E-01
        1   -1    0    0  501    0  0.00000000000E+00  0.00000000000E+00  0.31426044075E+04  0.31426044075E+04  0.50400001928E-02 0. -1.
       -1   -1    0    0    0  501  0.00000000000E+00  0.00000000000E+00 -0.96441772932E+03  0.96441772933E+03  0.50400001928E-02 0.  1.
    10030    2    1    2    0    0  0.00000000000E+00  0.00000000000E+00  0.21781866782E+04  0.41070221368E+04  0.34818290635E+04 0.  0.
        1    1    3    3  502    0 -0.14873930354E+04 -0.83066452378E+03  0.66635385500E+03  0.18293083537E+04  0.50400001928E-02 0.  1.
       -1    1    3    3    0  502  0.14873930354E+04  0.83066452378E+03  0.15118328232E+04  0.22777137832E+04  0.50400001928E-02 0. -1.
</event>
<event>
 5   0  0.5132561E-07  0.3791435E+04  0.7818609E-02  0.8047995E-01
        2   -1    0    0  501    0  0.00000000000E+00  0.00000000000E+00  0.16862642131E+04  0.16862642131E+04  0.25500000920E-02 0. -1.
       -2   -1    0    0    0  501  0.00000000000E+00  0.00000000000E+00 -0.21311876237E+04  0.21311876237E+04  0.25500000920E-02 0.  1.
    10030    2    1    2    0    0  0.00000000000E+00  0.00000000000E+00 -0.44492341060E+03  0.38174518367E+04  0.37914353067E+04 0.  0.
        3    1    3    3  502    0 -0.38675745986E+03 -0.15833061472E+04 -0.11972505502E+04  0.20223374048E+04  0.10100000352E+00 0.  1.
       -3    1    3    3    0  502  0.38675745986E+03  0.15833061472E+04  0.75232713958E+03  0.17951144320E+04  0.10100000352E+00 0. -1.
</event>
<event>
 5   0  0.5134434E-07  0.3589253E+04  0.7818609E-02  0.8092958E-01
       -2   -1    0    0    0  501  0.00000000000E+00  0.00000000000E+00  0.16803109064E+04  0.16803109064E+04  0.25500000920E-02 0.  1.
        2   -1    0    0  501    0  0.00000000000E+00  0.00000000000E+00 -0.19167190884E+04  0.19167190884E+04  0.25500000920E-02 0. -1.
    10030    2    1    2    0    0  0.00000000000E+00  0.00000000000E+00 -0.23640818207E+03  0.35970299948E+04  0.35892528408E+04 0.  0.
        5    1    3    3  502    0 -0.16040415217E+04  0.59886263156E+03  0.42061901139E+03  0.17631018398E+04  0.46999998093E+01 0.  1.
       -5    1    3    3    0  502  0.16040415217E+04 -0.59886263156E+03 -0.65702719346E+03  0.18339281550E+04  0.46999998093E+01 0. -1.
</event>
<event>
 5   0  0.5134434E-07  0.3896845E+04  0.7818609E-02  0.8025686E-01
       -2   -1    0    0    0  501  0.00000000000E+00  0.00000000000E+00  0.12732456341E+04  0.12732456341E+04  0.25500000920E-02 0. -1.
        2   -1    0    0  501    0  0.00000000000E+00  0.00000000000E+00 -0.29816316492E+04  0.29816316492E+04  0.25500000920E-02 0.  1.
    10030    2    1    2    0    0  0.00000000000E+00  0.00000000000E+00 -0.17083860151E+04  0.42548772833E+04  0.38968446106E+04 0.  0.
        5    1    3    3  502    0 -0.96591522634E+03  0.16851480154E+04 -0.68641532568E+03  0.20600738209E+04  0.46999998093E+01 0. -1.
       -5    1    3    3    0  502  0.96591522634E+03 -0.16851480154E+04 -0.10219706894E+04  0.21948034624E+04  0.46999998093E+01 0.  1.
</event>
<event>
 5   0  0.5132561E-07  0.3692516E+04  0.7818609E-02  0.8069622E-01
       -2   -1    0    0    0  501  0.00000000000E+00  0.00000000000E+00  0.14117938922E+04  0.14117938922E+04  0.25500000920E-02 0.  1.
        2   -1    0    0  501    0  0.00000000000E+00  0.00000000000E+00 -0.24144240265E+04  0.24144240265E+04  0.25500000920E-02 0. -1.
    10030    2    1    2    0    0  0.00000000000E+00  0.00000000000E+00 -0.10026301343E+04  0.38262179187E+04  0.36925162661E+04 0.  0.
        3    1    3    3  502    0 -0.87301097986E+03 -0.96422838669E+03  0.85638919027E+03  0.15573333002E+04  0.10100000352E+00 0.  1.
       -3    1    3    3    0  502  0.87301097986E+03  0.96422838669E+03 -0.18590193246E+04  0.22688846185E+04  0.10100000352E+00 0. -1.
</event>
<event>
 5   0  0.1648000E-07  0.3441861E+04  0.7818609E-02  0.8127708E-01
        1   -1    0    0  501    0  0.00000000000E+00  0.00000000000E+00  0.18583320726E+04  0.18583320726E+04  0.50400001928E-02 0.  1.
       -1   -1    0    0    0  501  0.00000000000E+00  0.00000000000E+00 -0.15936884172E+04  0.15936884172E+04  0.50400001928E-02 0. -1.
    10030    2    1    2    0    0  0.00000000000E+00  0.00000000000E+00  0.26464365541E+03  0.34520204898E+04  0.34418612984E+04 0.  0.
        1    1    3    3  502    0  0.59021784320E+03 -0.21594296190E+03 -0.14744724089E+04  0.16028279227E+04  0.50400001928E-02 0. -1.
       -1    1    3    3    0  502 -0.59021784320E+03  0.21594296190E+03  0.17391160643E+04  0.18491925671E+04  0.50400001928E-02 0.  1.
</event>
<event>
 5   0  0.1648000E-07  0.2714432E+04  0.7818609E-02  0.8330338E-01
        1   -1    0    0  501    0  0.00000000000E+00  0.00000000000E+00  0.20567767277E+04  0.20567767277E+04  0.50400001928E-02 0. -1.
       -1   -1    0    0    0  501  0.00000000000E+00  0.00000000000E+00 -0.89559299436E+03  0.89559299438E+03  0.50400001928E-02 0.  1.
    10030    2    1    2    0    0  0.00000000000E+00  0.00000000000E+00  0.11611837333E+04  0.29523697220E+04  0.27144316741E+04 0.  0.
        4    1    3    3  502    0 -0.11677988567E+04 -0.35707533988E+03  0.12247713923E+04  0.17295443170E+04  0.12699999809E+01 0. -1.
       -4    1    3    3    0  502  0.11677988567E+04  0.35707533988E+03 -0.63587658993E+02  0.12228254051E+04  0.12699999809E+01 0.  1.
</event>
<event>
 5   0  0.1656617E-07  0.3768172E+04  0.7818609E-02  0.8053020E-01
        1   -1    0    0  501    0  0.00000000000E+00  0.00000000000E+00  0.19476986058E+04  0.19476986058E+04  0.50400001928E-02 0.  1.
       -1   -1    0    0    0  501  0.00000000000E+00  0.00000000000E+00 -0.18225506840E+04  0.18225506840E+04  0.50400001928E-02 0. -1.
    10030    2    1    2    0    0  0.00000000000E+00  0.00000000000E+00  0.12514792179E+03  0.37702492897E+04  0.37681716660E+04 0.  0.
        5    1    3    3  502    0 -0.91589542962E+03  0.15658616152E+04 -0.44659786799E+03  0.18682234292E+04  0.46999998093E+01 0. -1.
       -5    1    3    3    0  502  0.91589542962E+03 -0.15658616152E+04  0.57174578979E+03  0.19020258605E+04  0.46999998093E+01 0.  1.
</event>
<event>
 5   0  0.5158266E-07  0.3201576E+04  0.7818609E-02  0.8188401E-01
        2   -1    0    0  501    0  0.00000000000E+00  0.00000000000E+00  0.21022928212E+04  0.21022928212E+04  0.25500000920E-02 0. -1.
       -2   -1    0    0    0  501  0.00000000000E+00  0.00000000000E+00 -0.12189181880E+04  0.12189181880E+04  0.25500000920E-02 0.  1.
    10030    2    1    2    0    0  0.00000000000E+00  0.00000000000E+00  0.88337463321E+03  0.33212110091E+04  0.32015764593E+04 0.  0.
        2    1    3    3  502    0 -0.90086720325E+03  0.10604651750E+04 -0.37932514123E+03  0.14422328758E+04  0.25500000920E-02 0.  1.
       -2    1    3    3    0  502  0.90086720325E+03 -0.10604651750E+04  0.12626997744E+04  0.18789781333E+04  0.25500000920E-02 0. -1.
</event>
<event>
 5   0  0.1648000E-07  0.3765843E+04  0.7818609E-02  0.8053525E-01
       -1   -1    0    0    0  501  0.00000000000E+00  0.00000000000E+00  0.19627207224E+04  0.19627207224E+04  0.50400001928E-02 0. -1.
        1   -1    0    0  501    0  0.00000000000E+00  0.00000000000E+00 -0.18063668827E+04  0.18063668827E+04  0.50400001928E-02 0.  1.
    10030    2    1    2    0    0  0.00000000000E+00  0.00000000000E+00  0.15635383971E+03  0.37690876051E+04  0.37658431793E+04 0.  0.
        3    1    3    3  502    0 -0.86964967112E+03  0.16689392769E+04  0.16929081062E+02  0.18820030458E+04  0.10100000352E+00 0.  1.
       -3    1    3    3    0  502  0.86964967112E+03 -0.16689392769E+04  0.13942475865E+03  0.18870845593E+04  0.10100000352E+00 0. -1.
</event>
<event>
 5   0  0.1648000E-07  0.3809720E+04  0.7818609E-02  0.8044072E-01
        1   -1    0    0  501    0  0.00000000000E+00  0.00000000000E+00  0.21459952317E+04  0.21459952317E+04  0.50400001928E-02 0. -1.
       -1   -1    0    0    0  501  0.00000000000E+00  0.00000000000E+00 -0.16908197145E+04  0.16908197145E+04  0.50400001928E-02 0.  1.
    10030    2    1    2    0    0  0.00000000000E+00  0.00000000000E+00  0.45517551714E+03  0.38368149462E+04  0.38097196983E+04 0.  0.
        4    1    3    3  502    0  0.13379289596E+04  0.44250205013E+03 -0.10631778041E+04  0.17652791907E+04  0.12699999809E+01 0.  1.
       -4    1    3    3    0  502 -0.13379289596E+04 -0.44250205013E+03  0.15183533212E+04  0.20715357555E+04  0.12699999809E+01 0. -1.
</event>
<event>
 5   0  0.5325362E-07  0.3734251E+04  0.7818609E-02  0.8060413E-01
        2   -1    0    0  501    0  0.00000000000E+00  0.00000000000E+00  0.19018247461E+04  0.19018247461E+04  0.25500000920E-02 0.  1.
       -2   -1    0    0    0  501  0.00000000000E+00  0.00000000000E+00 -0.18330598276E+04  0.18330598276E+04  0.25500000920E-02 0. -1.
    10030    2    1    2    0    0  0.00000000000E+00  0.00000000000E+00  0.68764918548E+02  0.37348845737E+04  0.37342514866E+04 0.  0.
        4    1    3    3  502    0  0.18563715357E+04 -0.15365486597E+02 -0.16516465263E+03  0.18637683203E+04  0.12699999809E+01 0. -1.
       -4    1    3    3    0  502 -0.18563715357E+04  0.15365486597E+02  0.23392957118E+03  0.18711162534E+04  0.12699999809E+01 0.  1.
</event>
<event>
 5   0  0.1648000E-07  0.3766886E+04  0.7818609E-02  0.8053299E-01
        1   -1    0    0  501    0  0.00000000000E+00  0.00000000000E+00  0.19667680787E+04  0.19667680787E+04  0.50400001928E-02 0.  1.
       -1   -1    0    0    0  501  0.00000000000E+00  0.00000000000E+00 -0.18036481614E+04  0.18036481614E+04  0.50400001928E-02 0. -1.
    10030    2    1    2    0    0  0.00000000000E+00  0.00000000000E+00  0.16311991729E+03  0.37704162401E+04  0.37668860503E+04 0.  0.
        4    1    3    3  502    0  0.16512316218E+03  0.15346601980E+04 -0.99876077036E+03  0.18384700899E+04  0.12699999809E+01 0. -1.
       -4    1    3    3    0  502 -0.16512316218E+03 -0.15346601980E+04  0.11618806877E+04  0.19319461502E+04  0.12699999809E+01 0.  1.
</event>
<event>
 5   0  0.1648000E-07  0.3838994E+04  0.7818609E-02  0.8037838E-01
        1   -1    0    0  501    0  0.00000000000E+00  0.00000000000E+00  0.26386092862E+04  0.26386092863E+04  0.50400001928E-02 0.  1.
       -1   -1    0    0    0  501  0.00000000000E+00  0.00000000000E+00 -0.13963676272E+04  0.13963676272E+04  0.50400001928E-02 0. -1.
    10030    2    1    2    0    0  0.00000000000E+00  0.00000000000E+00  0.12422416590E+04  0.40349769135E+04  0.38389939245E+04 0.  0.
        4    1    3    3  502    0  0.16431620661E+04  0.87096673728E+03  0.12156504001E+03  0.18636910433E+04  0.12699999809E+01 0. -1.
       -4    1    3    3    0  502 -0.16431620661E+04 -0.87096673728E+03  0.11206766190E+04  0.21712858702E+04  0.12699999809E+01 0.  1.
</event>
<event>
 5   0  0.1648000E-07  0.3765395E+04  0.7818609E-02  0.8053622E-01
       -1   -1    0    0    0  501  0.00000000000E+00  0.00000000000E+00  0.27704756181E+04  0.27704756181E+04  0.50400001928E-02 0.  1.
        1   -1    0    0  501    0  0.00000000000E+00  0.00000000000E+00 -0.12794013716E+04  0.12794013716E+04  0.50400001928E-02 0. -1.
    10030    2    1    2    0    0  0.00000000000E+00  0.00000000000E+00  0.14910742465E+04  0.40498769897E+04  0.37653952280E+04 0.  0.
        1    1    3    3  502    0  0.13460010971E+04 -0.67510012651E+03 -0.46991768218E+03  0.15774351848E+04  0.50400001928E-02 0. -1.
       -1    1    3    3    0  502 -0.13460010971E+04  0.67510012651E+03  0.19609919286E+04  0.24724418049E+04  0.50400001928E-02 0.  1.
</event>
<event>
 5   0  0.5202788E-07  0.3914684E+04  0.7818609E-02  0.8021982E-01
       -2   -1    0    0    0  501  0.00000000000E+00  0.00000000000E+00  0.15813583670E+04  0.15813583670E+04  0.25500000920E-02 0.  1.
        2   -1    0    0  501    0  0.00000000000E+00  0.00000000000E+00 -0.24227190492E+04  0.24227190492E+04  0.25500000920E-02 0. -1.
    10030    2    1    2    0    0  0.00000000000E+00  0.00000000000E+00 -0.84136068215E+03  0.40040774162E+04  0.39146836600E+04 0.  0.
        1    1    3    3  502    0 -0.12222900647E+04 -0.11374212303E+04 -0.14655091728E+04  0.22215843880E+04  0.50400001928E-02 0. -1.
       -1    1    3    3    0  502  0.12222900647E+04  0.11374212303E+04  0.62414849062E+03  0.17824930283E+04  0.50400001928E-02 0.  1.
</event>
<event>
 5   0  0.1648000E-07  0.3780312E+04  0.7818609E-02  0.8050393E-01
       -1   -1    0    0    0  501  0.00000000000E+00  0.00000000000E+00  0.14709812754E+04  0.14709812754E+04  0.50400001928E-02 0.  1.
        1   -1    0    0  501    0  0.00000000000E+00  0.00000000000E+00 -0.24287793670E+04  0.24287793670E+04  0.50400001928E-02 0. -1.
    10030    2    1    2    0    0  0.00000000000E+00  0.00000000000E+00 -0.95779809162E+03  0.38997606424E+04  0.37803116120E+04 0.  0.
        3    1    3    3  502    0  0.18322410986E+03  0.83930980885E+03 -0.22157483392E+04  0.23764580246E+04  0.10100000352E+00 0. -1.
       -3    1    3    3    0  502 -0.18322410986E+03 -0.83930980885E+03  0.12579502476E+04  0.15233026178E+04  0.10100000352E+00 0.  1.
</event>
<event>
 5   0  0.5158266E-07  0.3838954E+04  0.7818609E-02  0.8037847E-01
       -2   -1    0    0    0  501  0.00000000000E+00  0.00000000000E+00  0.19881417400E+04  0.19881417400E+04  0.25500000920E-02 0. -1.
        2   -1    0    0  501    0  0.00000000000E+00  0.00000000000E+00 -0.18531838174E+04  0.18531838174E+04  0.25500000920E-02 0.  1.
    10030    2    1    2    0    0  0.00000000000E+00  0.00000000000E+00  0.13495792257E+03  0.38413255574E+04  0.38389540759E+04 0.  0.
        2    1    3    3  502    0  0.84947675921E+03  0.64906818271E+03  0.16626694731E+04  0.19767068693E+04  0.25500000920E-02 0. -1.
       -2    1    3    3    0  502 -0.84947675921E+03 -0.64906818271E+03 -0.15277115506E+04  0.18646186881E+04  0.25500000920E-02 0.  1.
</event>
<event>
 5   0  0.5132561E-07  0.3720096E+04  0.7818609E-02  0.8063523E-01
        2   -1    0    0  501    0  0.00000000000E+00  0.00000000000E+00  0.25061521995E+04  0.25061521995E+04  0.25500000920E-02 0.  1.
       -2   -1    0    0    0  501  0.00000000000E+00  0.00000000000E+00 -0.13805139711E+04  0.13805139711E+04  0.25500000920E-02 0. -1.
    10030    2    1    2    0    0  0.00000000000E+00  0.00000000000E+00  0.11256382284E+04  0.38866661706E+04  0.37200957650E+04 0.  0.
        3    1    3    3  502    0  0.31571720534E+03  0.13943864896E+03 -0.13467663690E+04  0.13902877951E+04  0.10100000352E+00 0. -1.
       -3    1    3    3    0  502 -0.31571720534E+03 -0.13943864896E+03  0.24724045973E+04  0.24963783755E+04  0.10100000352E+00 0.  1.
</event>
<event>
 5   0  0.1656617E-07  0.3835494E+04  0.7818609E-02  0.8038581E-01
        1   -1    0    0  501    0  0.00000000000E+00  0.00000000000E+00  0.26825898228E+04  0.26825898229E+04  0.50400001928E-02 0. -1.
       -1   -1    0    0    0  501  0.00000000000E+00  0.00000000000E+00 -0.13709711359E+04  0.13709711359E+04  0.50400001928E-02 0.  1.
    10030    2    1    2    0    0  0.00000000000E+00  0.00000000000E+00  0.13116186870E+04  0.40535609588E+04  0.38354938230E+04 0.  0.
        5    1    3    3  502    0  0.12536136368E+04 -0.11914305061E+04  0.15315827921E+04  0.23101562155E+04  0.46999998093E+01 0. -1.
       -5    1    3    3    0  502 -0.12536136368E+04  0.11914305061E+04 -0.21996410515E+03  0.17434047432E+04  0.46999998093E+01 0.  1.
</event>
<event>
 5   0  0.5325362E-07  0.3806587E+04  0.7818609E-02  0.8044743E-01
        2   -1    0    0  501    0  0.00000000000E+00  0.00000000000E+00  0.17814162683E+04  0.17814162683E+04  0.25500000920E-02 0. -1.
       -2   -1    0    0    0  501  0.00000000000E+00  0.00000000000E+00 -0.20335094899E+04  0.20335094899E+04  0.25500000920E-02 0.  1.
    10030    2    1    2    0    0  0.00000000000E+00  0.00000000000E+00 -0.25209322153E+03  0.38149257582E+04  0.38065873888E+04 0.  0.
        4    1    3    3  502    0  0.61861705626E+03 -0.23177933167E+03  0.16628330064E+04  0.17892523413E+04  0.12699999809E+01 0. -1.
       -4    1    3    3    0  502 -0.61861705626E+03  0.23177933167E+03 -0.19149262279E+04  0.20256734169E+04  0.12699999809E+01 0.  1.
</event>
<event>
 5   0  0.5325362E-07  0.3243834E+04  0.7818609E-02  0.8177336E-01
       -2   -1    0    0    0  501  0.00000000000E+00  0.00000000000E+00  0.16683667147E+04  0.16683667147E+04  0.25500000920E-02 0.  1.
        2   -1    0    0  501    0  0.00000000000E+00  0.00000000000E+00 -0.15767601781E+04  0.15767601781E+04  0.25500000920E-02 0. -1.
    10030    2    1    2    0    0  0.00000000000E+00  0.00000000000E+00  0.91606536559E+02  0.32451268928E+04  0.32438336568E+04 0.  0.
        4    1    3    3  502    0  0.13554102056E+04 -0.10394417369E+03 -0.83923659316E+03  0.15975796972E+04  0.12699999809E+01 0. -1.
       -4    1    3    3    0  502 -0.13554102056E+04  0.10394417369E+03  0.93084312972E+03  0.16475471956E+04  0.12699999809E+01 0.  1.
</event>
<event>
 5   0  0.5158266E-07  0.3852003E+04  0.7818609E-02  0.8035086E-01
       -2   -1    0    0    0  501  0.00000000000E+00  0.00000000000E+00  0.25169006399E+04  0.25169006399E+04  0.25500000920E-02 0. -1.
        2   -1    0    0  501    0  0.00000000000E+00  0.00000000000E+00 -0.14738291666E+04  0.14738291666E+04  0.25500000920E-02 0.  1.
    10030    2    1    2    0    0  0.00000000000E+00  0.00000000000E+00  0.10430714733E+04  0.39907298065E+04  0.38520028933E+04 0.  0.
        2    1    3    3  502    0 -0.42170633031E+03 -0.96116516978E+03 -0.11514931200E+04  0.15580793041E+04  0.25500000920E-02 0.  1.
       -2    1    3    3    0  502  0.42170633031E+03  0.96116516978E+03  0.21945645933E+04  0.24326505024E+04  0.25500000920E-02 0. -1.
</event>
<event>
 5   0  0.1656617E-07  0.3733479E+04  0.7818609E-02  0.8060583E-01
       -1   -1    0    0    0  501  0.00000000000E+00  0.00000000000E+00  0.16601865593E+04  0.16601865593E+04  0.50400001928E-02 0. -1.
        1   -1    0    0  501    0  0.00000000000E+00  0.00000000000E+00 -0.20989911911E+04  0.20989911912E+04  0.50400001928E-02 0.  1.
    10030    2    1    2    0    0  0.00000000000E+00  0.00000000000E+00 -0.43880463188E+03  0.37591777504E+04  0.37334793229E+04 0.  0.
        5    1    3    3  502    0  0.72108679093E+03  0.10077532381E+04  0.11863315025E+04  0.17154991323E+04  0.46999998093E+01 0.  1.
       -5    1    3    3    0  502 -0.72108679093E+03 -0.10077532381E+04 -0.16251361344E+04  0.20436786182E+04  0.46999998093E+01 0. -1.
</event>
<event>
 5   0  0.5132561E-07  0.3836938E+04  0.7818609E-02  0.8038274E-01
       -2   -1    0    0    0  501  0.00000000000E+00  0.00000000000E+00  0.19649526619E+04  0.19649526619E+04  0.25500000920E-02 0. -1.
        2   -1    0    0  501    0  0.00000000000E+00  0.00000000000E+00 -0.18730848684E+04  0.18730848684E+04  0.25500000920E-02 0.  1.
    10030    2    1    2    0    0  0.00000000000E+00  0.00000000000E+00  0.91867793484E+02  0.38380375303E+04  0.38369378927E+04 0.  0.
        3    1    3    3  502    0 -0.29926372479E+03 -0.32204570490E+03  0.19138873226E+04  0.19637303549E+04  0.10100000352E+00 0. -1.
       -3    1    3    3    0  502  0.29926372479E+03  0.32204570490E+03 -0.18220195291E+04  0.18743071754E+04  0.10100000352E+00 0.  1.
</event>
<event>
 5   0  0.1648000E-07  0.3835451E+04  0.7818609E-02  0.8038590E-01
        3   -1    0    0  501    0  0.00000000000E+00  0.00000000000E+00  0.16226522713E+04  0.16226522744E+04  0.10100000352E+00 0.  1.
       -3   -1    0    0    0  501  0.00000000000E+00  0.00000000000E+00 -0.22664569147E+04  0.22664569169E+04  0.10100000352E+00 0. -1.
    10030    2    1    2    0    0  0.00000000000E+00  0.00000000000E+00 -0.64380464339E+03  0.38891091913E+04  0.38354511968E+04 0.  0.
        5    1    3    3  502    0 -0.16680336787E+04  0.94539639344E+03 -0.28212745116E+03  0.19379702482E+04  0.46999998093E+01 0.  1.
       -5    1    3    3    0  502  0.16680336787E+04 -0.94539639344E+03 -0.36167719224E+03  0.19511389432E+04  0.46999998093E+01 0. -1.
</event>
<event>
 5   0  0.1648000E-07  0.3784825E+04  0.7818609E-02  0.8049419E-01
        1   -1    0    0  501    0  0.00000000000E+00  0.00000000000E+00  0.24962277414E+04  0.24962277414E+04  0.50400001928E-02 0. -1.
       -1   -1    0    0    0  501  0.00000000000E+00  0.00000000000E+00 -0.14346544344E+04  0.14346544344E+04  0.50400001928E-02 0.  1.
    10030    2    1    2    0    0  0.00000000000E+00  0.00000000000E+00  0.10615733070E+04  0.39308821758E+04  0.37848245394E+04 0.  0.
        3    1    3    3  502    0  0.16096983265E+04  0.92891325412E+03  0.90122381719E+03  0.20654812792E+04  0.10100000352E+00 0.  1.
       -3    1    3    3    0  502 -0.16096983265E+04 -0.92891325412E+03  0.16034948979E+03  0.18654008966E+04  0.10100000352E+00 0. -1.
</event>
<event>
 5   0  0.5325362E-07  0.3915964E+04  0.7818609E-02  0.8021717E-01
        2   -1    0    0  501    0  0.00000000000E+00  0.00000000000E+00  0.13538225651E+04  0.13538225651E+04  0.25500000920E-02 0. -1.
       -2   -1    0    0    0  501  0.00000000000E+00  0.00000000000E+00 -0.28317553374E+04  0.28317553374E+04  0.25500000920E-02 0.  1.
    10030    2    1    2    0    0  0.00000000000E+00  0.00000000000E+00 -0.14779327722E+04  0.41855779025E+04  0.39159643893E+04 0.  0.
        4    1    3    3  502    0  0.16665042239E+04  0.95783652751E+03 -0.34046235473E+03  0.19520766813E+04  0.12699999809E+01 0. -1.
       -4    1    3    3    0  502 -0.16665042239E+04 -0.95783652751E+03 -0.11374704175E+04  0.22335012212E+04  0.12699999809E+01 0.  1.
</event>
<event>
 5   0  0.1648000E-07  0.3514604E+04  0.7818609E-02  0.8110338E-01
       -1   -1    0    0    0  501  0.00000000000E+00  0.00000000000E+00  0.11008701954E+04  0.11008701954E+04  0.50400001928E-02 0.  1.
        1   -1    0    0  501    0  0.00000000000E+00  0.00000000000E+00 -0.28051531338E+04  0.28051531338E+04  0.50400001928E-02 0. -1.
    10030    2    1    2    0    0  0.00000000000E+00  0.00000000000E+00 -0.17042829384E+04  0.39060233292E+04  0.35146035216E+04 0.  0.
        4    1    3    3  502    0  0.92184642875E+03  0.94509021629E+03 -0.21410961190E+04  0.25154106143E+04  0.12699999809E+01 0. -1.
       -4    1    3    3    0  502 -0.92184642875E+03 -0.94509021629E+03  0.43681318057E+03  0.13906127149E+04  0.12699999809E+01 0.  1.
</event>
<event>
 5   0  0.1648000E-07  0.3823272E+04  0.7818609E-02  0.8041179E-01
       -1   -1    0    0    0  501  0.00000000000E+00  0.00000000000E+00  0.24108837522E+04  0.24108837522E+04  0.50400001928E-02 0. -1.
        1   -1    0    0  501    0  0.00000000000E+00  0.00000000000E+00 -0.15157730978E+04  0.15157730978E+04  0.50400001928E-02 0.  1.
    10030    2    1    2    0    0  0.00000000000E+00  0.00000000000E+00  0.89511065437E+03  0.39266568499E+04  0.38232722809E+04 0.  0.
        3    1    3    3  502    0 -0.17440084943E+04  0.62305996472E+03 -0.39161682746E+02  0.18523776600E+04  0.10100000352E+00 0.  1.
       -3    1    3    3    0  502  0.17440084943E+04 -0.62305996472E+03  0.93427233712E+03  0.20742791899E+04  0.10100000352E+00 0. -1.
</event>
<event>
 5   0  0.5158266E-07  0.3744159E+04  0.7818609E-02  0.8058245E-01
        2   -1    0    0  501    0  0.00000000000E+00  0.00000000000E+00  0.14577350431E+04  0.14577350431E+04  0.25500000920E-02 0. -1.
       -2   -1    0    0    0  501  0.00000000000E+00  0.00000000000E+00 -0.24041970012E+04  0.24041970012E+04  0.25500000920E-02 0.  1.
    10030    2    1    2    0    0  0.00000000000E+00  0.00000000000E+00 -0.94646195808E+03  0.38619320444E+04  0.37441593018E+04 0.  0.
        2    1    3    3  502    0  0.91146208312E+03  0.64098753533E+03  0.10784333434E+04  0.15506923053E+04  0.25500000920E-02 0. -1.
       -2    1    3    3    0  502 -0.91146208312E+03 -0.64098753533E+03 -0.20248953015E+04  0.23112397391E+04  0.25500000920E-02 0.  1.
</event>
<event>
 5   0  0.1648000E-07  0.3532408E+04  0.7818609E-02  0.8106152E-01
        1   -1    0    0  501    0  0.00000000000E+00  0.00000000000E+00  0.26553917588E+04  0.26553917588E+04  0.50400001928E-02 0. -1.
       -1   -1    0    0    0  501  0.00000000000E+00  0.00000000000E+00 -0.11747707086E+04  0.11747707086E+04  0.50400001928E-02 0.  1.
    10030    2    1    2    0    0  0.00000000000E+00  0.00000000000E+00  0.14806210502E+04  0.38301624674E+04  0.35324079369E+04 0.  0.
        3    1    3    3  502    0 -0.11546794375E+04 -0.13331509863E+04  0.63801692269E+03  0.18755377255E+04  0.10100000352E+00 0.  1.
       -3    1    3    3    0  502  0.11546794375E+04  0.13331509863E+04  0.84260412751E+03  0.19546247419E+04  0.10100000352E+00 0. -1.
</event>
<event>
 5   0  0.5325362E-07  0.3837070E+04  0.7818609E-02  0.8038246E-01
        2   -1    0    0  501    0  0.00000000000E+00  0.00000000000E+00  0.15193564535E+04  0.15193564535E+04  0.25500000920E-02 0. -1.
       -2   -1    0    0    0  501  0.00000000000E+00  0.00000000000E+00 -0.24225885774E+04  0.24225885774E+04  0.25500000920E-02 0.  1.
    10030    2    1    2    0    0  0.00000000000E+00  0.00000000000E+00 -0.90323212391E+03  0.39419450309E+04  0.38370695011E+04 0.  0.
        4    1    3    3  502    0  0.72539628242E+03 -0.15094231168E+04 -0.14132648835E+04  0.21913185884E+04  0.12699999809E+01 0. -1.
       -4    1    3    3    0  502 -0.72539628242E+03  0.15094231168E+04  0.51003275963E+03  0.17506264424E+04  0.12699999809E+01 0.  1.
</event>
<event>
 5   0  0.5202788E-07  0.3678048E+04  0.7818609E-02  0.8072844E-01
       -2   -1    0    0    0  501  0.00000000000E+00  0.00000000000E+00  0.14986579040E+04  0.14986579040E+04  0.25500000920E-02 0. -1.
        2   -1    0    0  501    0  0.00000000000E+00  0.00000000000E+00 -0.22566925588E+04  0.22566925588E+04  0.25500000920E-02 0.  1.
    10030    2    1    2    0    0  0.00000000000E+00  0.00000000000E+00 -0.75803465481E+03  0.37553504628E+04  0.36780484717E+04 0.  0.
        1    1    3    3  502    0  0.15710988580E+04 -0.35617334146E+03 -0.12846768201E+04  0.20604867393E+04  0.50400001928E-02 0.  1.
       -1    1    3    3    0  502 -0.15710988580E+04  0.35617334146E+03  0.52664216528E+03  0.16948637234E+04  0.50400001928E-02 0. -1.
</event>
<event>
 5   0  0.5202788E-07  0.3846489E+04  0.7818609E-02  0.8036251E-01
       -2   -1    0    0    0  501  0.00000000000E+00  0.00000000000E+00  0.21549715322E+04  0.21549715322E+04  0.25500000920E-02 0.  1.
        2   -1    0    0  501    0  0.00000000000E+00  0.00000000000E+00 -0.17164357797E+04  0.17164357797E+04  0.25500000920E-02 0. -1.
    10030    2    1    2    0    0  0.00000000000E+00  0.00000000000E+00  0.43853575249E+03  0.38714073119E+04  0.38464894343E+04 0.  0.
        1    1    3    3  502    0 -0.36108121088E+03  0.14876782835E+04  0.13909847126E+04  0.20684305129E+04  0.50400001928E-02 0.  1.
       -1    1    3    3    0  502  0.36108121088E+03 -0.14876782835E+04 -0.95244896006E+03  0.18029767990E+04  0.50400001928E-02 0. -1.
</event>
<event>
 5   0  0.5132561E-07  0.4221442E+04  0.7818609E-02  0.7961306E-01
        2   -1    0    0  501    0  0.00000000000E+00  0.00000000000E+00  0.30495105981E+04  0.30495105981E+04  0.25500000920E-02 0. -1.
       -2   -1    0    0    0  501  0.00000000000E+00  0.00000000000E+00 -0.14609373699E+04  0.14609373699E+04  0.25500000920E-02 0.  1.
    10030    2    1    2    0    0  0.00000000000E+00  0.00000000000E+00  0.15885732282E+04  0.45104479681E+04  0.42214424041E+04 0.  0.
        3    1    3    3  502    0  0.84836157897E+03 -0.14018035240E+03 -0.12653166737E+04  0.15298346952E+04  0.10100000352E+00 0.  1.
       -3    1    3    3    0  502 -0.84836157897E+03  0.14018035240E+03  0.28538899019E+04  0.29806132728E+04  0.10100000352E+00 0. -1.
</event>
<event>
 5   0  0.5134434E-07  0.3791325E+04  0.7818609E-02  0.8048019E-01
        2   -1    0    0  501    0  0.00000000000E+00  0.00000000000E+00  0.21006484682E+04  0.21006484682E+04  0.25500000920E-02 0.  1.
       -2   -1    0    0    0  501  0.00000000000E+00  0.00000000000E+00 -0.17106793568E+04  0.17106793568E+04  0.25500000920E-02 0. -1.
    10030    2    1    2    0    0  0.00000000000E+00  0.00000000000E+00  0.38996911141E+03  0.38113278251E+04  0.37913248189E+04 0.  0.
        5    1    3    3  502    0  0.11522714775E+04  0.11973721246E+03  0.17033834547E+04  0.20600009324E+04  0.46999998093E+01 0.  1.
       -5    1    3    3    0  502 -0.11522714775E+04 -0.11973721246E+03 -0.13134143432E+04  0.17513268927E+04  0.46999998093E+01 0. -1.
</event>
<event>
 5   0  0.1648000E-07  0.2799791E+04  0.7818609E-02  0.8303333E-01
        1   -1    0    0  501    0  0.00000000000E+00  0.00000000000E+00  0.26114206183E+04  0.26114206184E+04  0.50400001928E-02 0. -1.
       -1   -1    0    0    0  501  0.00000000000E+00  0.00000000000E+00 -0.75043745296E+03  0.75043745298E+03  0.50400001928E-02 0.  1.
    10030    2    1    2    0    0  0.00000000000E+00  0.00000000000E+00  0.18609831654E+04  0.33618580713E+04  0.27997913047E+04 0.  0.
        3    1    3    3  502    0 -0.79410764672E+03 -0.47192776956E+03 -0.33251863585E+03  0.98177972461E+03  0.10100000352E+00 0.  1.
       -3    1    3    3    0  502  0.79410764672E+03  0.47192776956E+03  0.21935018012E+04  0.23800783467E+04  0.10100000352E+00 0. -1.
</event>
<event>
 5   0  0.1648000E-07  0.3825149E+04  0.7818609E-02  0.8040779E-01
       -1   -1    0    0    0  501  0.00000000000E+00  0.00000000000E+00  0.11480403190E+04  0.11480403190E+04  0.50400001928E-02 0.  1.
        1   -1    0    0  501    0  0.00000000000E+00  0.00000000000E+00 -0.31862479445E+04  0.31862479445E+04  0.50400001928E-02 0. -1.
    10030    2    1    2    0    0  0.00000000000E+00  0.00000000000E+00 -0.20382076255E+04  0.43342882636E+04  0.38251489418E+04 0.  0.
        4    1    3    3  502    0 -0.15011892980E+04  0.13626854614E+02 -0.23618116634E+04  0.27985551533E+04  0.12699999809E+01 0. -1.
       -4    1    3    3    0  502  0.15011892980E+04 -0.13626854614E+02  0.32360403789E+03  0.15357331102E+04  0.12699999809E+01 0.  1.
</event>
<event>
 5   0  0.5325362E-07  0.3734339E+04  0.7818609E-02  0.8060394E-01
       -2   -1    0    0    0  501  0.00000000000E+00  0.00000000000E+00  0.16348247548E+04  0.16348247548E+04  0.25500000920E-02 0.  1.
        2   -1    0    0  501    0  0.00000000000E+00  0.00000000000E+00 -0.21325352075E+04  0.21325352075E+04  0.25500000920E-02 0. -1.
    10030    2    1    2    0    0  0.00000000000E+00  0.00000000000E+00 -0.49771045268E+03  0.37673599624E+04  0.37343386819E+04 0.  0.
        4    1    3    3  502    0 -0.87372649654E+03  0.62038361925E+02  0.14146870693E+04  0.16639074091E+04  0.12699999809E+01 0.  1.
       -4    1    3    3    0  502  0.87372649654E+03 -0.62038361925E+02 -0.19123975219E+04  0.21034525533E+04  0.12699999809E+01 0. -1.
</event>
<event>
 5   0  0.1648000E-07  0.3809147E+04  0.7818609E-02  0.8044195E-01
        1   -1    0    0  501    0  0.00000000000E+00  0.00000000000E+00  0.13090371984E+04  0.13090371984E+04  0.50400001928E-02 0. -1.
       -1   -1    0    0    0  501  0.00000000000E+00  0.00000000000E+00 -0.27710441228E+04  0.27710441228E+04  0.50400001928E-02 0.  1.
    10030    2    1    2    0    0  0.00000000000E+00  0.00000000000E+00 -0.14620069245E+04  0.40800813212E+04  0.38091467996E+04 0.  0.
        3    1    3    3  502    0 -0.16869454167E+04  0.24286736012E+03 -0.16415438886E+04  0.23663126889E+04  0.10100000352E+00 0.  1.
       -3    1    3    3    0  502  0.16869454167E+04 -0.24286736012E+03  0.17953696410E+03  0.17137686323E+04  0.10100000352E+00 0. -1.
</event>
<event>
 5   0  0.1648000E-07  0.3785293E+04  0.7818609E-02  0.8049318E-01
        1   -1    0    0  501    0  0.00000000000E+00  0.00000000000E+00  0.23956789591E+04  0.23956789591E+04  0.50400001928E-02 0. -1.
       -1   -1    0    0    0  501  0.00000000000E+00  0.00000000000E+00 -0.14952381242E+04  0.14952381242E+04  0.50400001928E-02 0.  1.
    10030    2    1    2    0    0  0.00000000000E+00  0.00000000000E+00  0.90044083493E+03  0.38909170834E+04  0.37852928622E+04 0.  0.
        2    1    3    3  502    0 -0.95349362914E+03 -0.15094136270E+04 -0.19550523869E+03  0.17960239132E+04  0.25500000920E-02 0.  1.
       -2    1    3    3    0  502  0.95349362914E+03  0.15094136270E+04  0.10959460736E+04  0.20948931702E+04  0.25500000920E-02 0. -1.
</event>
<event>
 5   0  0.1656617E-07  0.3755690E+04  0.7818609E-02  0.8055731E-01
        1   -1    0    0  501    0  0.00000000000E+00  0.00000000000E+00  0.25874784004E+04  0.25874784004E+04  0.50400001928E-02 0. -1.
       -1   -1    0    0    0  501  0.00000000000E+00  0.00000000000E+00 -0.13628334837E+04  0.13628334837E+04  0.50400001928E-02 0.  1.
    10030    2    1    2    0    0  0.00000000000E+00  0.00000000000E+00  0.12246449167E+04  0.39503118840E+04  0.37556901908E+04 0.  0.
        5    1    3    3  502    0 -0.79572963420E+03  0.10514090631E+04  0.20186317977E+04  0.24111290080E+04  0.46999998093E+01 0. -1.
       -5    1    3    3    0  502  0.79572963420E+03 -0.10514090631E+04 -0.79398688098E+03  0.15391828760E+04  0.46999998093E+01 0.  1.
</event>
<event>
 5   0  0.1648000E-07  0.3842361E+04  0.7818609E-02  0.8037125E-01
       -1   -1    0    0    0  501  0.00000000000E+00  0.00000000000E+00  0.32471431019E+04  0.32471431019E+04  0.50400001928E-02 0. -1.
        1   -1    0    0  501    0  0.00000000000E+00  0.00000000000E+00 -0.11366711942E+04  0.11366711942E+04  0.50400001928E-02 0.  1.
    10030    2    1    2    0    0  0.00000000000E+00  0.00000000000E+00  0.21104719077E+04  0.43838142962E+04  0.38423607470E+04 0.  0.
        3    1    3    3  502    0  0.37764936301E+03  0.35057906429E+02  0.32040056264E+04  0.32263757007E+04  0.10100000352E+00 0. -1.
       -3    1    3    3    0  502 -0.37764936301E+03 -0.35057906429E+02 -0.10935337186E+04  0.11574385954E+04  0.10100000352E+00 0.  1.
</event>
<event>
 5   0  0.1656617E-07  0.3720796E+04  0.7818609E-02  0.8063369E-01
        1   -1    0    0  501    0  0.00000000000E+00  0.00000000000E+00  0.22921260054E+04  0.22921260054E+04  0.50400001928E-02 0. -1.
       -1   -1    0    0    0  501  0.00000000000E+00  0.00000000000E+00 -0.15099867062E+04  0.15099867062E+04  0.50400001928E-02 0.  1.
    10030    2    1    2    0    0  0.00000000000E+00  0.00000000000E+00  0.78213929918E+03  0.38021127116E+04  0.37207955048E+04 0.  0.
        5    1    3    3  502    0  0.65193380733E+03  0.14160505298E+04  0.14285622530E+04  0.21144807857E+04  0.46999998093E+01 0. -1.
       -5    1    3    3    0  502 -0.65193380733E+03 -0.14160505298E+04 -0.64642295387E+03  0.16876319259E+04  0.46999998093E+01 0.  1.
</event>
<event>
 5   0  0.1648000E-07  0.3942065E+04  0.7818609E-02  0.8016337E-01
        1   -1    0    0  501    0  0.00000000000E+00  0.00000000000E+00  0.23418340433E+04  0.23418340433E+04  0.50400001928E-02 0. -1.
       -1   -1    0    0    0  501  0.00000000000E+00  0.00000000000E+00 -0.16589428970E+04  0.16589428970E+04  0.50400001928E-02 0.  1.
    10030    2    1    2    0    0  0.00000000000E+00  0.00000000000E+00  0.68289114636E+03  0.40007769403E+04  0.39420649168E+04 0.  0.
        2    1    3    3  502    0  0.13288614348E+04  0.47827789999E+03 -0.10539305075E+04  0.17622122395E+04  0.25500000920E-02 0.  1.
       -2    1    3    3    0  502 -0.13288614348E+04 -0.47827789999E+03  0.17368216538E+04  0.22385647008E+04  0.25500000920E-02 0. -1.
</event>
<event>
 5   0  0.1648000E-07  0.3787809E+04  0.7818609E-02  0.8048776E-01
        1   -1    0    0  501    0  0.00000000000E+00  0.00000000000E+00  0.20680911163E+04  0.20680911163E+04  0.50400001928E-02 0.  1.
       -1   -1    0    0    0  501  0.00000000000E+00  0.00000000000E+00 -0.17343892749E+04  0.17343892749E+04  0.50400001928E-02 0. -1.
    10030    2    1    2    0    0  0.00000000000E+00  0.00000000000E+00  0.33370184137E+03  0.38024803912E+04  0.37878094206E+04 0.  0.
        2    1    3    3  502    0  0.23152628449E+03  0.17483250260E+04 -0.52620720123E+03  0.18404181143E+04  0.25500000920E-02 0. -1.
       -2    1    3    3    0  502 -0.23152628449E+03 -0.17483250260E+04  0.85990904260E+03  0.19620622769E+04  0.25500000920E-02 0.  1.
</event>
<event>
 5   0  0.5134434E-07  0.3703405E+04  0.7818609E-02  0.8067208E-01
        2   -1    0    0  501    0  0.00000000000E+00  0.00000000000E+00  0.18519473248E+04  0.18519473248E+04  0.25500000920E-02 0.  1.
       -2   -1    0    0    0  501  0.00000000000E+00  0.00000000000E+00 -0.18514580091E+04  0.18514580091E+04  0.25500000920E-02 0. -1.
    10030    2    1    2    0    0  0.00000000000E+00  0.00000000000E+00  0.48931572334E+00  0.37034053338E+04  0.37034053015E+04 0.  0.
        5    1    3    3  502    0  0.57176953119E+03 -0.36698518018E+03  0.17227957164E+04  0.18519302605E+04  0.46999998093E+01 0.  1.
       -5    1    3    3    0  502 -0.57176953119E+03  0.36698518018E+03 -0.17223064007E+04  0.18514750733E+04  0.46999998093E+01 0. -1.
</event>
<event>
 5   0  0.1648000E-07  0.3843337E+04  0.7818609E-02  0.8036918E-01
       -1   -1    0    0    0  501  0.00000000000E+00  0.00000000000E+00  0.14888994805E+04  0.14888994805E+04  0.50400001928E-02 0. -1.
        1   -1    0    0  501    0  0.00000000000E+00  0.00000000000E+00 -0.24802275990E+04  0.24802275990E+04  0.50400001928E-02 0.  1.
    10030    2    1    2    0    0  0.00000000000E+00  0.00000000000E+00 -0.99132811845E+03  0.39691270795E+04  0.38433368750E+04 0.  0.
        3    1    3    3  502    0 -0.21846323823E+03 -0.14535371062E+04 -0.17740451324E+04  0.23038516549E+04  0.10100000352E+00 0.  1.
       -3    1    3    3    0  502  0.21846323823E+03  0.14535371062E+04  0.78271701399E+03  0.16652754246E+04  0.10100000352E+00 0. -1.
</event>
<event>
 5   0  0.5134434E-07  0.3833172E+04  0.7818609E-02  0.8039073E-01
        2   -1    0    0  501    0  0.00000000000E+00  0.00000000000E+00  0.16778138047E+04  0.16778138047E+04  0.25500000920E-02 0. -1.
       -2   -1    0    0    0  501  0.00000000000E+00  0.00000000000E+00 -0.21893387045E+04  0.21893387045E+04  0.25500000920E-02 0.  1.
    10030    2    1    2    0    0  0.00000000000E+00  0.00000000000E+00 -0.51152489987E+03  0.38671525092E+04  0.38331724206E+04 0.  0.
        5    1    3    3  502    0  0.89355199146E+03  0.14375495573E+04 -0.11627855615E+04  0.20535521038E+04  0.46999998093E+01 0.  1.
       -5    1    3    3    0  502 -0.89355199146E+03 -0.14375495573E+04  0.65126066162E+03  0.18136004054E+04  0.46999998093E+01 0. -1.
</event>
<event>
 5   0  0.1648000E-07  0.3842130E+04  0.7818609E-02  0.8037174E-01
        1   -1    0    0  501    0  0.00000000000E+00  0.00000000000E+00  0.12322412836E+04  0.12322412836E+04  0.50400001928E-02 0.  1.
       -1   -1    0    0    0  501  0.00000000000E+00  0.00000000000E+00 -0.29949409107E+04  0.29949409107E+04  0.50400001928E-02 0. -1.
    10030    2    1    2    0    0  0.00000000000E+00  0.00000000000E+00 -0.17626996271E+04  0.42271821943E+04  0.38421295305E+04 0.  0.
        3    1    3    3  502    0  0.30116205927E+03  0.18641393633E+04 -0.12699866123E+04  0.22756493924E+04  0.10100000352E+00 0.  1.
       -3    1    3    3    0  502 -0.30116205927E+03 -0.18641393633E+04 -0.49271301482E+03  0.19515328019E+04  0.10100000352E+00 0. -1.
</event>
<event>
 5   0  0.5325362E-07  0.3856119E+04  0.7818609E-02  0.8034218E-01
        2   -1    0    0  501    0  0.00000000000E+00  0.00000000000E+00  0.21855130720E+04  0.21855130720E+04  0.25500000920E-02 0. -1.
       -2   -1    0    0    0  501  0.00000000000E+00  0.00000000000E+00 -0.17009339933E+04  0.17009339933E+04  0.25500000920E-02 0.  1.
    10030    2    1    2    0    0  0.00000000000E+00  0.00000000000E+00  0.48457907871E+03  0.38864470653E+04  0.38561190215E+04 0.  0.
        4    1    3    3  502    0  0.34827778121E+03  0.12285409811E+04 -0.12136485157E+04  0.17616908604E+04  0.12699999809E+01 0.  1.
       -4    1    3    3    0  502 -0.34827778121E+03 -0.12285409811E+04  0.16982275944E+04  0.21247562049E+04  0.12699999809E+01 0. -1.
</event>
<event>
 5   0  0.1648000E-07  0.3814837E+04  0.7818609E-02  0.8042978E-01
        1   -1    0    0  501    0  0.00000000000E+00  0.00000000000E+00  0.26122214231E+04  0.26122214231E+04  0.50400001928E-02 0. -1.
       -1   -1    0    0    0  501  0.00000000000E+00  0.00000000000E+00 -0.13927786079E+04  0.13927786079E+04  0.50400001928E-02 0.  1.
    10030    2    1    2    0    0  0.00000000000E+00  0.00000000000E+00  0.12194428152E+04  0.40050000310E+04  0.38148374105E+04 0.  0.
        4    1    3    3  502    0 -0.14196126127E+04 -0.10555280184E+04 -0.13914135266E+03  0.17744862064E+04  0.12699999809E+01 0.  1.
       -4    1    3    3    0  502  0.14196126127E+04  0.10555280184E+04  0.13585841679E+04  0.22305138246E+04  0.12699999809E+01 0. -1.
</event>
<event>
 5   0  0.5325362E-07  0.3719456E+04  0.7818609E-02  0.8063664E-01
        2   -1    0    0  501    0  0.00000000000E+00  0.00000000000E+00  0.27100622283E+04  0.27100622283E+04  0.25500000920E-02 0. -1.
       -2   -1    0    0    0  501  0.00000000000E+00  0.00000000000E+00 -0.12762025533E+04  0.12762025533E+04  0.25500000920E-02 0.  1.
    10030    2    1    2    0    0  0.00000000000E+00  0.00000000000E+00  0.14338596750E+04  0.39862647816E+04  0.37194560545E+04 0.  0.
        4    1    3    3  502    0  0.91306758425E+03 -0.56265464748E+03  0.23452288479E+04  0.25788316401E+04  0.12699999809E+01 0. -1.
       -4    1    3    3    0  502 -0.91306758425E+03  0.56265464748E+03 -0.91136917289E+03  0.14074331416E+04  0.12699999809E+01 0.  1.
</event>
<event>
 5   0  0.5158266E-07  0.3289799E+04  0.7818609E-02  0.8165496E-01
       -2   -1    0    0    0  501  0.00000000000E+00  0.00000000000E+00  0.17130741131E+04  0.17130741132E+04  0.25500000920E-02 0.  1.
        2   -1    0    0  501    0  0.00000000000E+00  0.00000000000E+00 -0.15794381500E+04  0.15794381500E+04  0.25500000920E-02 0. -1.
    10030    2    1    2    0    0  0.00000000000E+00  0.00000000000E+00  0.13363596315E+03  0.32925122632E+04  0.32897991477E+04 0.  0.
        2    1    3    3  502    0 -0.14896034396E+04 -0.68448040677E+03  0.20206926177E+03  0.16517456890E+04  0.25500000920E-02 0.  1.
       -2    1    3    3    0  502  0.14896034396E+04  0.68448040677E+03 -0.68433298616E+02  0.16407665742E+04  0.25500000920E-02 0. -1.
</event>
<event>
 5   0  0.1648000E-07  0.3784599E+04  0.7818609E-02  0.8049468E-01
       -1   -1    0    0    0  501  0.00000000000E+00  0.00000000000E+00  0.18889820229E+04  0.18889820229E+04  0.50400001928E-02 0. -1.
        1   -1    0    0  501    0  0.00000000000E+00  0.00000000000E+00 -0.18956231138E+04  0.18956231138E+04  0.50400001928E-02 0.  1.
    10030    2    1    2    0    0  0.00000000000E+00  0.00000000000E+00 -0.66410909177E+01  0.37846051368E+04  0.37845993100E+04 0.  0.
        1    1    3    3  502    0  0.72426988113E+03 -0.16203108539E+04  0.65305220441E+03  0.18911507888E+04  0.50400001928E-02 0. -1.
       -1    1    3    3    0  502 -0.72426988113E+03  0.16203108539E+04 -0.65969329533E+03  0.18934543480E+04  0.50400001928E-02 0.  1.
</event>
<event>
 5   0  0.1648000E-07  0.3926365E+04  0.7818609E-02  0.8019568E-01
       -1   -1    0    0    0  501  0.00000000000E+00  0.00000000000E+00  0.20684190931E+04  0.20684190931E+04  0.50400001928E-02 0.  1.
        1   -1    0    0  501    0  0.00000000000E+00  0.00000000000E+00 -0.18633000707E+04  0.18633000707E+04  0.50400001928E-02 0. -1.
    10030    2    1    2    0    0  0.00000000000E+00  0.00000000000E+00  0.20511902243E+03  0.39317191639E+04  0.39263649563E+04 0.  0.
        1    1    3    3  502    0 -0.78023434595E+03 -0.24042326059E+03 -0.16852368243E+04  0.18725896862E+04  0.50400001928E-02 0. -1.
       -1    1    3    3    0  502  0.78023434595E+03  0.24042326059E+03  0.18903558467E+04  0.20591294777E+04  0.50400001928E-02 0.  1.
</event>
<event>
 5   0  0.5134434E-07  0.3618879E+04  0.7818609E-02  0.8086181E-01
       -2   -1    0    0    0  501  0.00000000000E+00  0.00000000000E+00  0.19493054849E+04  0.19493054850E+04  0.25500000920E-02 0. -1.
        2   -1    0    0  501    0  0.00000000000E+00  0.00000000000E+00 -0.16796092048E+04  0.16796092048E+04  0.25500000920E-02 0.  1.
    10030    2    1    2    0    0  0.00000000000E+00  0.00000000000E+00  0.26969628019E+03  0.36289146897E+04  0.36188790725E+04 0.  0.
        5    1    3    3  502    0  0.30320059616E+03  0.17288486098E+04 -0.30591739608E+03  0.17817002162E+04  0.46999998093E+01 0.  1.
       -5    1    3    3    0  502 -0.30320059616E+03 -0.17288486098E+04  0.57561367626E+03  0.18472144736E+04  0.46999998093E+01 0. -1.
</event>
<event>
 5   0  0.5132561E-07  0.3800641E+04  0.7818609E-02  0.8046017E-01
        2   -1    0    0  501    0  0.00000000000E+00  0.00000000000E+00  0.25506276806E+04  0.25506276806E+04  0.25500000920E-02 0. -1.
       -2   -1    0    0    0  501  0.00000000000E+00  0.00000000000E+00 -0.14158157030E+04  0.14158157030E+04  0.25500000920E-02 0.  1.
    10030    2    1    2    0    0  0.00000000000E+00  0.00000000000E+00  0.11348119775E+04  0.39664433836E+04  0.38006413789E+04 0.  0.
        3    1    3    3  502    0 -0.48288277369E+03  0.72409657683E+03  0.23303989809E+04  0.24876195541E+04  0.10100000352E+00 0. -1.
       -3    1    3    3    0  502  0.48288277369E+03 -0.72409657683E+03 -0.11955870034E+04  0.14788238294E+04  0.10100000352E+00 0.  1.
</event>
<event>
 5   0  0.5134434E-07  0.3759004E+04  0.7818609E-02  0.8055010E-01
       -2   -1    0    0    0  501  0.00000000000E+00  0.00000000000E+00  0.18729977636E+04  0.18729977636E+04  0.25500000920E-02 0. -1.
        2   -1    0    0  501    0  0.00000000000E+00  0.00000000000E+00 -0.18860293045E+04  0.18860293045E+04  0.25500000920E-02 0.  1.
    10030    2    1    2    0    0  0.00000000000E+00  0.00000000000E+00 -0.13031540926E+02  0.37590270681E+04  0.37590044796E+04 0.  0.
        5    1    3    3  502    0  0.11060522255E+04 -0.14927924474E+04  0.27760873238E+03  0.18785285504E+04  0.46999998093E+01 0. -1.
       -5    1    3    3    0  502 -0.11060522255E+04  0.14927924474E+04 -0.29064027331E+03  0.18804985177E+04  0.46999998093E+01 0.  1.
</event>
<event>
 5   0  0.1648000E-07  0.3105931E+04  0.7818609E-02  0.8214112E-01
        1   -1    0    0  501    0  0.00000000000E+00  0.00000000000E+00  0.22376723238E+04  0.22376723238E+04  0.50400001928E-02 0. -1.
       -1   -1    0    0    0  501  0.00000000000E+00  0.00000000000E+00 -0.10777727027E+04  0.10777727027E+04  0.50400001928E-02 0.  1.
    10030    2    1    2    0    0  0.00000000000E+00  0.00000000000E+00  0.11598996211E+04  0.33154450265E+04  0.31059311957E+04 0.  0.
        2    1    3    3  502    0 -0.21265356450E+02 -0.10070909284E+04 -0.68173527563E+03  0.12163253428E+04  0.25500000920E-02 0.  1.
       -2    1    3    3    0  502  0.21265356450E+02  0.10070909284E+04  0.18416348967E+04  0.20991196837E+04  0.25500000920E-02 0. -1.
</event>
<event>
 5   0  0.5325362E-07  0.3786835E+04  0.7818609E-02  0.8048986E-01
        2   -1    0    0  501    0  0.00000000000E+00  0.00000000000E+00  0.20877001870E+04  0.20877001870E+04  0.25500000920E-02 0.  1.
       -2   -1    0    0    0  501  0.00000000000E+00  0.00000000000E+00 -0.17172152765E+04  0.17172152765E+04  0.25500000920E-02 0. -1.
    10030    2    1    2    0    0  0.00000000000E+00  0.00000000000E+00  0.37048491055E+03  0.38049154635E+04  0.37868354355E+04 0.  0.
        4    1    3    3  502    0 -0.17417226058E+03  0.13498699828E+03 -0.17042869968E+04  0.17184741041E+04  0.12699999809E+01 0. -1.
       -4    1    3    3    0  502  0.17417226058E+03 -0.13498699828E+03  0.20747719073E+04  0.20864413594E+04  0.12699999809E+01 0.  1.
</event>
<event>
 5   0  0.1648000E-07  0.3783649E+04  0.7818609E-02  0.8049673E-01
       -1   -1    0    0    0  501  0.00000000000E+00  0.00000000000E+00  0.12704848972E+04  0.12704848972E+04  0.50400001928E-02 0. -1.
        1   -1    0    0  501    0  0.00000000000E+00  0.00000000000E+00 -0.28170348453E+04  0.28170348453E+04  0.50400001928E-02 0.  1.
    10030    2    1    2    0    0  0.00000000000E+00  0.00000000000E+00 -0.15465499481E+04  0.40875197426E+04  0.37836491518E+04 0.  0.
        3    1    3    3  502    0  0.24866669684E+03  0.11603103068E+03  0.12488713507E+04  0.12786625775E+04  0.10100000352E+00 0. -1.
       -3    1    3    3    0  502 -0.24866669684E+03 -0.11603103068E+03 -0.27954212988E+04  0.28088571651E+04  0.10100000352E+00 0.  1.
</event>
<event>
 5   0  0.5132561E-07  0.3788617E+04  0.7818609E-02  0.8048602E-01
        2   -1    0    0  501    0  0.00000000000E+00  0.00000000000E+00  0.16055875798E+04  0.16055875798E+04  0.25500000920E-02 0.  1.
       -2   -1    0    0    0  501  0.00000000000E+00  0.00000000000E+00 -0.22349476133E+04  0.22349476133E+04  0.25500000920E-02 0. -1.
    10030    2    1    2    0    0  0.00000000000E+00  0.00000000000E+00 -0.62936003354E+03  0.38405351932E+04  0.37886167024E+04 0.  0.
        3    1    3    3  502    0 -0.10943154130E+04  0.10538986886E+04 -0.14616335587E+04  0.21082223173E+04  0.10100000352E+00 0. -1.
       -3    1    3    3    0  502  0.10943154130E+04 -0.10538986886E+04  0.83227352516E+03  0.17323128759E+04  0.10100000352E+00 0.  1.
</event>
<event>
 5   0  0.1648000E-07  0.3814124E+04  0.7818609E-02  0.8043131E-01
        1   -1    0    0  501    0  0.00000000000E+00  0.00000000000E+00  0.22118849477E+04  0.22118849477E+04  0.50400001928E-02 0. -1.
       -1   -1    0    0    0  501  0.00000000000E+00  0.00000000000E+00 -0.16442467219E+04  0.16442467219E+04  0.50400001928E-02 0.  1.
    10030    2    1    2    0    0  0.00000000000E+00  0.00000000000E+00  0.56763822578E+03  0.38561316697E+04  0.38141235295E+04 0.  0.
        1    1    3    3  502    0  0.15929093426E+04  0.99513025977E+03 -0.50336128554E+02  0.18788768277E+04  0.50400001928E-02 0.  1.
       -1    1    3    3    0  502 -0.15929093426E+04 -0.99513025977E+03  0.61797435433E+03  0.19772548420E+04  0.50400001928E-02 0. -1.
</event>
<event>
 5   0  0.5134434E-07  0.3767859E+04  0.7818609E-02  0.8053088E-01
       -2   -1    0    0    0  501  0.00000000000E+00  0.00000000000E+00  0.24829999468E+04  0.24829999468E+04  0.25500000920E-02 0. -1.
        2   -1    0    0  501    0  0.00000000000E+00  0.00000000000E+00 -0.14293957220E+04  0.14293957220E+04  0.25500000920E-02 0.  1.
    10030    2    1    2    0    0  0.00000000000E+00  0.00000000000E+00  0.10536042248E+04  0.39123956688E+04  0.37678585439E+04 0.  0.
        5    1    3    3  502    0  0.18658622387E+04  0.50197440113E+02  0.79195177362E+03  0.20276023719E+04  0.46999998093E+01 0.  1.
       -5    1    3    3    0  502 -0.18658622387E+04 -0.50197440113E+02  0.26165245121E+03  0.18847932969E+04  0.46999998093E+01 0. -1.
</event>
<event>
 5   0  0.1648000E-07  0.3781640E+04  0.7818609E-02  0.8050106E-01
        1   -1    0    0  501    0  0.00000000000E+00  0.00000000000E+00  0.14819283021E+04  0.14819283021E+04  0.50400001928E-02 0. -1.
       -1   -1    0    0    0  501  0.00000000000E+00  0.00000000000E+00 -0.24125326641E+04  0.24125326641E+04  0.50400001928E-02 0.  1.
    10030    2    1    2    0    0  0.00000000000E+00  0.00000000000E+00 -0.93060436198E+03  0.38944609662E+04  0.37816400858E+04 0.  0.
        4    1    3    3  502    0  0.14581863738E+04  0.11140159652E+04  0.42159448064E+01  0.18350363644E+04  0.12699999809E+01 0.  1.
       -4    1    3    3    0  502 -0.14581863738E+04 -0.11140159652E+04 -0.93482030679E+03  0.20594246018E+04  0.12699999809E+01 0. -1.
</event>
<event>
 5   0  0.5158266E-07  0.2779653E+04  0.7818609E-02  0.8309613E-01
       -2   -1    0    0    0  501  0.00000000000E+00  0.00000000000E+00  0.80786601055E+03  0.80786601055E+03  0.25500000920E-02 0. -1.
        2   -1    0    0  501    0  0.00000000000E+00  0.00000000000E+00 -0.23910122638E+04  0.23910122638E+04  0.25500000920E-02 0.  1.
    10030    2    1    2    0    0  0.00000000000E+00  0.00000000000E+00 -0.15831462532E+04  0.31988782743E+04  0.27796528839E+04 0.  0.
        2    1    3    3  502    0  0.45068991854E+03  0.13059564346E+04 -0.61714168592E+03  0.15131118505E+04  0.25500000920E-02 0. -1.
       -2    1    3    3    0  502 -0.45068991854E+03 -0.13059564346E+04 -0.96600456732E+03  0.16857664238E+04  0.25500000920E-02 0.  1.
</event>
<event>
 5   0  0.5132561E-07  0.3903632E+04  0.7818609E-02  0.8024274E-01
       -2   -1    0    0    0  501  0.00000000000E+00  0.00000000000E+00  0.18985386574E+04  0.18985386574E+04  0.25500000920E-02 0.  1.
        2   -1    0    0  501    0  0.00000000000E+00  0.00000000000E+00 -0.20065884243E+04  0.20065884243E+04  0.25500000920E-02 0. -1.
    10030    2    1    2    0    0  0.00000000000E+00  0.00000000000E+00 -0.10804976692E+03  0.39051270816E+04  0.39036319975E+04 0.  0.
        3    1    3    3  502    0 -0.12696933505E+04  0.32100082851E+02  0.14285798670E+04  0.19115418034E+04  0.10100000352E+00 0.  1.
       -3    1    3    3    0  502  0.12696933505E+04 -0.32100082851E+02 -0.15366296339E+04  0.19935852782E+04  0.10100000352E+00 0. -1.
</event>
<event>
 5   0  0.1656617E-07  0.3782261E+04  0.7818609E-02  0.8049972E-01
       -1   -1    0    0    0  501  0.00000000000E+00  0.00000000000E+00  0.15655597677E+04  0.15655597678E+04  0.50400001928E-02 0. -1.
        1   -1    0    0  501    0  0.00000000000E+00  0.00000000000E+00 -0.22844060088E+04  0.22844060088E+04  0.50400001928E-02 0.  1.
    10030    2    1    2    0    0  0.00000000000E+00  0.00000000000E+00 -0.71884624103E+03  0.38499657765E+04  0.37822607740E+04 0.  0.
        5    1    3    3  502    0  0.62392256651E+03 -0.85683046729E+03  0.12347907441E+04  0.16273192958E+04  0.46999998093E+01 0. -1.
       -5    1    3    3    0  502 -0.62392256651E+03  0.85683046729E+03 -0.19536369851E+04  0.22226464808E+04  0.46999998093E+01 0.  1.
</event>
<event>
 5   0  0.1648000E-07  0.3795259E+04  0.7818609E-02  0.8047173E-01
        4   -1    0    0  501    0  0.00000000000E+00  0.00000000000E+00  0.20459382647E+04  0.20459386589E+04  0.12699999809E+01 0. -1.
       -4   -1    0    0    0  501  0.00000000000E+00  0.00000000000E+00 -0.17600705888E+04  0.17600710470E+04  0.12699999809E+01 0.  1.
    10030    2    1    2    0    0  0.00000000000E+00  0.00000000000E+00  0.28586767588E+03  0.38060097059E+04  0.37952588256E+04 0.  0.
        4    1    3    3  502    0 -0.13899111142E+03  0.69496970489E+03 -0.16223634872E+04  0.17704141654E+04  0.12699999809E+01 0.  1.
       -4    1    3    3    0  502  0.13899111142E+03 -0.69496970489E+03  0.19082311630E+04  0.20355955404E+04  0.12699999809E+01 0. -1.
</event>
<event>
 5   0  0.5325362E-07  0.3536683E+04  0.7818609E-02  0.8105151E-01
       -2   -1    0    0    0  501  0.00000000000E+00  0.00000000000E+00  0.12526857439E+04  0.12526857439E+04  0.25500000920E-02 0. -1.
        2   -1    0    0  501    0  0.00000000000E+00  0.00000000000E+00 -0.24962613399E+04  0.24962613399E+04  0.25500000920E-02 0.  1.
    10030    2    1    2    0    0  0.00000000000E+00  0.00000000000E+00 -0.12435755960E+04  0.37489470838E+04  0.35366826227E+04 0.  0.
        4    1    3    3  502    0 -0.10872670051E+04  0.57478126957E+03  0.72510520943E+03  0.14276912222E+04  0.12699999809E+01 0. -1.
       -4    1    3    3    0  502  0.10872670051E+04 -0.57478126957E+03 -0.19686808054E+04  0.23212558616E+04  0.12699999809E+01 0.  1.
</event>
<event>
 5   0  0.5158266E-07  0.3673955E+04  0.7818609E-02  0.8073758E-01
       -2   -1    0    0    0  501  0.00000000000E+00  0.00000000000E+00  0.18540782941E+04  0.18540782941E+04  0.25500000920E-02 0. -1.
        2   -1    0    0  501    0  0.00000000000E+00  0.00000000000E+00 -0.18200342856E+04  0.18200342856E+04  0.25500000920E-02 0.  1.
    10030    2    1    2    0    0  0.00000000000E+00  0.00000000000E+00  0.34044008422E+02  0.36741125797E+04  0.36739548519E+04 0.  0.
        2    1    3    3  502    0 -0.83072313117E+03  0.12479151218E+04  0.10787139411E+04  0.18468938352E+04  0.25500000920E-02 0. -1.
       -2    1    3    3    0  502  0.83072313117E+03 -0.12479151218E+04 -0.10446699326E+04  0.18272187445E+04  0.25500000920E-02 0.  1.
</event>
<event>
 5   0  0.1648000E-07  0.3768480E+04  0.7818609E-02  0.8052953E-01
        1   -1    0    0  501    0  0.00000000000E+00  0.00000000000E+00  0.21491086470E+04  0.21491086470E+04  0.50400001928E-02 0.  1.
       -1   -1    0    0    0  501  0.00000000000E+00  0.00000000000E+00 -0.16520156262E+04  0.16520156262E+04  0.50400001928E-02 0. -1.
    10030    2    1    2    0    0  0.00000000000E+00  0.00000000000E+00  0.49709302076E+03  0.38011242732E+04  0.37684803660E+04 0.  0.
        2    1    3    3  502    0 -0.10846945385E+04  0.96845366997E+02  0.17995333238E+04  0.21033928427E+04  0.25500000920E-02 0.  1.
       -2    1    3    3    0  502  0.10846945385E+04 -0.96845366997E+02 -0.13024403031E+04  0.16977314305E+04  0.25500000920E-02 0. -1.
</event>
<event>
 5   0  0.5158266E-07  0.3776369E+04  0.7818609E-02  0.8051245E-01
       -2   -1    0    0    0  501  0.00000000000E+00  0.00000000000E+00  0.17177836261E+04  0.17177836261E+04  0.25500000920E-02 0. -1.
        2   -1    0    0  501    0  0.00000000000E+00  0.00000000000E+00 -0.20754888008E+04  0.20754888008E+04  0.25500000920E-02 0.  1.
    10030    2    1    2    0    0  0.00000000000E+00  0.00000000000E+00 -0.35770517475E+03  0.37932724269E+04  0.37763689852E+04 0.  0.
        2    1    3    3  502    0 -0.11153908695E+04 -0.15222514774E+04 -0.24153645150E+03  0.19025472950E+04  0.25500000920E-02 0. -1.
       -2    1    3    3    0  502  0.11153908695E+04  0.15222514774E+04 -0.11616872326E+03  0.18907251319E+04  0.25500000920E-02 0.  1.
</event>
<event>
 5   0  0.5134434E-07  0.3876028E+04  0.7818609E-02  0.8030033E-01
        2   -1    0    0  501    0  0.00000000000E+00  0.00000000000E+00  0.11661064194E+04  0.11661064194E+04  0.25500000920E-02 0.  1.
       -2   -1    0    0    0  501  0.00000000000E+00  0.00000000000E+00 -0.32208879919E+04  0.32208879919E+04  0.25500000920E-02 0. -1.
    10030    2    1    2    0    0  0.00000000000E+00  0.00000000000E+00 -0.20547815725E+04  0.43869944112E+04  0.38760279480E+04 0.  0.
        5    1    3    3  502    0  0.69924635929E+03  0.64658744045E+02  0.10170383911E+04  0.12359269408E+04  0.46999998093E+01 0.  1.
       -5    1    3    3    0  502 -0.69924635929E+03 -0.64658744045E+02 -0.30718199636E+04  0.31510674704E+04  0.46999998093E+01 0. -1.
</event>
<event>
 5   0  0.5325362E-07  0.3491930E+04  0.7818609E-02  0.8115705E-01
       -2   -1    0    0    0  501  0.00000000000E+00  0.00000000000E+00  0.15972792269E+04  0.15972792269E+04  0.25500000920E-02 0.  1.
        2   -1    0    0  501    0  0.00000000000E+00  0.00000000000E+00 -0.19084916165E+04  0.19084916165E+04  0.25500000920E-02 0. -1.
    10030    2    1    2    0    0  0.00000000000E+00  0.00000000000E+00 -0.31121238956E+03  0.35057708434E+04  0.34919301332E+04 0.  0.
        4    1    3    3  502    0  0.10282156945E+03 -0.15030885054E+04 -0.10414555200E+04  0.18315235580E+04  0.12699999809E+01 0. -1.
       -4    1    3    3    0  502 -0.10282156945E+03  0.15030885054E+04  0.73024313049E+03  0.16742472855E+04  0.12699999809E+01 0.  1.
</event>
<event>
 5   0  0.5158266E-07  0.3792858E+04  0.7818609E-02  0.8047689E-01
        2   -1    0    0  501    0  0.00000000000E+00  0.00000000000E+00  0.16169754845E+04  0.16169754845E+04  0.25500000920E-02 0.  1.
       -2   -1    0    0    0  501  0.00000000000E+00  0.00000000000E+00 -0.22241794014E+04  0.22241794014E+04  0.25500000920E-02 0. -1.
    10030    2    1    2    0    0  0.00000000000E+00  0.00000000000E+00 -0.60720391691E+03  0.38411548859E+04  0.37928583234E+04 0.  0.
        2    1    3    3  502    0  0.15251455265E+04  0.97526136501E+03 -0.87580982159E+03  0.20110311909E+04  0.25500000920E-02 0. -1.
       -2    1    3    3    0  502 -0.15251455265E+04 -0.97526136501E+03  0.26860590468E+03  0.18301236950E+04  0.25500000920E-02 0.  1.
</event>
<event>
 5   0  0.5134434E-07  0.3871862E+04  0.7818609E-02  0.8030907E-01
       -2   -1    0    0    0  501  0.00000000000E+00  0.00000000000E+00  0.15987207231E+04  0.15987207231E+04  0.25500000920E-02 0.  1.
        2   -1    0    0  501    0  0.00000000000E+00  0.00000000000E+00 -0.23442671715E+04  0.23442671715E+04  0.25500000920E-02 0. -1.
    10030    2    1    2    0    0  0.00000000000E+00  0.00000000000E+00 -0.74554644834E+03  0.39429878946E+04  0.38718618299E+04 0.  0.
        5    1    3    3  502    0 -0.74472168385E+03  0.15426460441E+04 -0.12912499279E+04  0.21451609893E+04  0.46999998093E+01 0. -1.
       -5    1    3    3    0  502  0.74472168385E+03 -0.15426460441E+04  0.54570347952E+03  0.17978269053E+04  0.46999998093E+01 0.  1.
</event>
<event>
 5   0  0.1648000E-07  0.3104857E+04  0.7818609E-02  0.8214406E-01
       -1   -1    0    0    0  501  0.00000000000E+00  0.00000000000E+00  0.15460760066E+04  0.15460760066E+04  0.50400001928E-02 0. -1.
        1   -1    0    0  501    0  0.00000000000E+00  0.00000000000E+00 -0.15588070428E+04  0.15588070428E+04  0.50400001928E-02 0.  1.
    10030    2    1    2    0    0  0.00000000000E+00  0.00000000000E+00 -0.12731036215E+02  0.31048830493E+04  0.31048569485E+04 0.  0.
        1    1    3    3  502    0  0.35133861598E+03  0.13291252566E+04 -0.72749667122E+03  0.15553983983E+04  0.50400001928E-02 0.  1.
       -1    1    3    3    0  502 -0.35133861598E+03 -0.13291252566E+04  0.71476563500E+03  0.15494846510E+04  0.50400001928E-02 0. -1.
</event>
<event>
 5   0  0.5132561E-07  0.3904580E+04  0.7818609E-02  0.8024077E-01
        2   -1    0    0  501    0  0.00000000000E+00  0.00000000000E+00  0.20481233374E+04  0.20481233374E+04  0.25500000920E-02 0.  1.
       -2   -1    0    0    0  501  0.00000000000E+00  0.00000000000E+00 -0.18609406128E+04  0.18609406128E+04  0.25500000920E-02 0. -1.
    10030    2    1    2    0    0  0.00000000000E+00  0.00000000000E+00  0.18718272462E+03  0.39090639502E+04  0.39045798230E+04 0.  0.
        3    1    3    3  502    0  0.22913903163E+03 -0.20793216269E+03  0.20234190031E+04  0.20469403881E+04  0.10100000352E+00 0.  1.
       -3    1    3    3    0  502 -0.22913903163E+03  0.20793216269E+03 -0.18362362785E+04  0.18621235621E+04  0.10100000352E+00 0. -1.
</event>
<event>
 5   0  0.1648000E-07  0.3753900E+04  0.7818609E-02  0.8056121E-01
        1   -1    0    0  501    0  0.00000000000E+00  0.00000000000E+00  0.20998210075E+04  0.20998210075E+04  0.50400001928E-02 0.  1.
       -1   -1    0    0    0  501  0.00000000000E+00  0.00000000000E+00 -0.16777337578E+04  0.16777337578E+04  0.50400001928E-02 0. -1.
    10030    2    1    2    0    0  0.00000000000E+00  0.00000000000E+00  0.42208724968E+03  0.37775547654E+04  0.37538996203E+04 0.  0.
        1    1    3    3  502    0  0.10573465404E+03  0.10220472691E+04 -0.13695802780E+04  0.17121654638E+04  0.50400001928E-02 0. -1.
       -1    1    3    3    0  502 -0.10573465404E+03 -0.10220472691E+04  0.17916675277E+04  0.20653893016E+04  0.50400001928E-02 0.  1.
</event>
<event>
 5   0  0.5158266E-07  0.3511967E+04  0.7818609E-02  0.8110960E-01
        2   -1    0    0  501    0  0.00000000000E+00  0.00000000000E+00  0.22615068963E+04  0.22615068963E+04  0.25500000920E-02 0. -1.
       -2   -1    0    0    0  501  0.00000000000E+00  0.00000000000E+00 -0.13634615777E+04  0.13634615777E+04  0.25500000920E-02 0.  1.
    10030    2    1    2    0    0  0.00000000000E+00  0.00000000000E+00  0.89804531858E+03  0.36249684741E+04  0.35119668341E+04 0.  0.
        2    1    3    3  502    0 -0.16575516385E+04  0.53228463816E+03  0.21213116601E+03  0.17537970241E+04  0.25500000920E-02 0.  1.
       -2    1    3    3    0  502  0.16575516385E+04 -0.53228463816E+03  0.68591415258E+03  0.18711714499E+04  0.25500000920E-02 0. -1.
</event>
<event>
 5   0  0.5134434E-07  0.2738723E+04  0.7818609E-02  0.8322549E-01
        2   -1    0    0  501    0  0.00000000000E+00  0.00000000000E+00  0.15255118104E+04  0.15255118104E+04  0.25500000920E-02 0. -1.
       -2   -1    0    0    0  501  0.00000000000E+00  0.00000000000E+00 -0.12291948037E+04  0.12291948037E+04  0.25500000920E-02 0.  1.
    10030    2    1    2    0    0  0.00000000000E+00  0.00000000000E+00  0.29631700671E+03  0.27547066142E+04  0.27387231992E+04 0.  0.
        5    1    3    3  502    0 -0.95046606504E+03 -0.58426334672E+03 -0.65043968601E+03  0.12914500665E+04  0.46999998093E+01 0.  1.
       -5    1    3    3    0  502  0.95046606504E+03  0.58426334672E+03  0.94675669272E+03  0.14632565477E+04  0.46999998093E+01 0. -1.
</event>
<event>
 5   0  0.1648000E-07  0.3466832E+04  0.7818609E-02  0.8121696E-01
       -1   -1    0    0    0  501  0.00000000000E+00  0.00000000000E+00  0.22839373066E+04  0.22839373066E+04  0.50400001928E-02 0.  1.
        1   -1    0    0  501    0  0.00000000000E+00  0.00000000000E+00 -0.13155925491E+04  0.13155925491E+04  0.50400001928E-02 0. -1.
    10030    2    1    2    0    0  0.00000000000E+00  0.00000000000E+00  0.96834475746E+03  0.35995298557E+04  0.34668319273E+04 0.  0.
        3    1    3    3  502    0  0.50308562829E+03  0.15940303527E+04  0.96076611446E+03  0.19279780734E+04  0.10100000352E+00 0. -1.
       -3    1    3    3    0  502 -0.50308562829E+03 -0.15940303527E+04  0.75786430050E+01  0.16715517822E+04  0.10100000352E+00 0.  1.
</event>
<event>
 5   0  0.1648000E-07  0.3361145E+04  0.7818609E-02  0.8147509E-01
       -1   -1    0    0    0  501  0.00000000000E+00  0.00000000000E+00  0.13984278282E+04  0.13984278282E+04  0.50400001928E-02 0. -1.
        1   -1    0    0  501    0  0.00000000000E+00  0.00000000000E+00 -0.20196426788E+04  0.20196426788E+04  0.50400001928E-02 0.  1.
    10030    2    1    2    0    0  0.00000000000E+00  0.00000000000E+00 -0.62121485054E+03  0.34180705070E+04  0.33611453554E+04 0.  0.
        1    1    3    3  502    0 -0.14029977797E+04 -0.88678085762E+03 -0.42434059537E+02  0.16602962714E+04  0.50400001928E-02 0.  1.
       -1    1    3    3    0  502  0.14029977797E+04  0.88678085762E+03 -0.57878079100E+03  0.17577742356E+04  0.50400001928E-02 0. -1.
</event>
<event>
 5   0  0.1656617E-07  0.3804979E+04  0.7818609E-02  0.8045087E-01
        1   -1    0    0  501    0  0.00000000000E+00  0.00000000000E+00  0.18317920097E+04  0.18317920097E+04  0.50400001928E-02 0.  1.
       -1   -1    0    0    0  501  0.00000000000E+00  0.00000000000E+00 -0.19759156649E+04  0.19759156649E+04  0.50400001928E-02 0. -1.
    10030    2    1    2    0    0  0.00000000000E+00  0.00000000000E+00 -0.14412365520E+03  0.38077076747E+04  0.38049791205E+04 0.  0.
        5    1    3    3  502    0  0.15085108988E+04 -0.11426520318E+04 -0.26761341962E+03  0.19112555637E+04  0.46999998093E+01 0.  1.
       -5    1    3    3    0  502 -0.15085108988E+04  0.11426520318E+04  0.12348976441E+03  0.18964521110E+04  0.46999998093E+01 0. -1.
</event>
<event>
 5   0  0.1648000E-07  0.3888007E+04  0.7818609E-02  0.8027528E-01
       -3   -1    0    0    0  501  0.00000000000E+00  0.00000000000E+00  0.21288060791E+04  0.21288060815E+04  0.10100000352E+00 0.  1.
        3   -1    0    0  501    0  0.00000000000E+00  0.00000000000E+00 -0.17752439902E+04  0.17752439931E+04  0.10100000352E+00 0. -1.
    10030    2    1    2    0    0  0.00000000000E+00  0.00000000000E+00  0.35356208882E+03  0.39040500746E+04  0.38880073089E+04 0.  0.
        5    1    3    3  502    0 -0.13112738449E+04 -0.51909401198E+03  0.15202968317E+04  0.20736977205E+04  0.46999998093E+01 0.  1.
       -5    1    3    3    0  502  0.13112738449E+04  0.51909401198E+03 -0.11667347429E+04  0.18303523540E+04  0.46999998093E+01 0. -1.
</event>
<event>
 5   0  0.1648000E-07  0.3465532E+04  0.7818609E-02  0.8122007E-01
       -1   -1    0    0    0  501  0.00000000000E+00  0.00000000000E+00  0.10386338889E+04  0.10386338889E+04  0.50400001928E-02 0.  1.
        1   -1    0    0  501    0  0.00000000000E+00  0.00000000000E+00 -0.28907958999E+04  0.28907958999E+04  0.50400001928E-02 0. -1.
    10030    2    1    2    0    0  0.00000000000E+00  0.00000000000E+00 -0.18521620110E+04  0.39294297888E+04  0.34655323329E+04 0.  0.
        3    1    3    3  502    0  0.14683044764E+04  0.58922734468E+03 -0.12482456759E+03  0.15870375175E+04  0.10100000352E+00 0.  1.
       -3    1    3    3    0  502 -0.14683044764E+04 -0.58922734468E+03 -0.17273374435E+04  0.23423922713E+04  0.10100000352E+00 0. -1.
</event>
<event>
 5   0  0.5134434E-07  0.2746445E+04  0.7818609E-02  0.8320091E-01
        2   -1    0    0  501    0  0.00000000000E+00  0.00000000000E+00  0.18868812053E+04  0.18868812053E+04  0.25500000920E-02 0.  1.
       -2   -1    0    0    0  501  0.00000000000E+00  0.00000000000E+00 -0.99939530219E+03  0.99939530220E+03  0.25500000920E-02 0. -1.
    10030    2    1    2    0    0  0.00000000000E+00  0.00000000000E+00  0.88748590312E+03  0.28862765075E+04  0.27464451295E+04 0.  0.
        5    1    3    3  502    0  0.78990340608E+03  0.36731999089E+03 -0.67183375370E+03  0.11001154709E+04  0.46999998093E+01 0. -1.
       -5    1    3    3    0  502 -0.78990340608E+03 -0.36731999089E+03  0.15593196568E+04  0.17861610366E+04  0.46999998093E+01 0.  1.
</event>
<event>
 5   0  0.1648000E-07  0.3731718E+04  0.7818609E-02  0.8060969E-01
       -3   -1    0    0    0  501  0.00000000000E+00  0.00000000000E+00  0.20322572916E+04  0.20322572941E+04  0.10100000352E+00 0. -1.
        3   -1    0    0  501    0  0.00000000000E+00  0.00000000000E+00 -0.17130851282E+04  0.17130851312E+04  0.10100000352E+00 0.  1.
    10030    2    1    2    0    0  0.00000000000E+00  0.00000000000E+00  0.31917216338E+03  0.37453424253E+04  0.37317179707E+04 0.  0.
        5    1    3    3  502    0 -0.22242655949E+02  0.13453771206E+04 -0.11377559231E+04  0.17621137769E+04  0.46999998093E+01 0.  1.
       -5    1    3    3    0  502  0.22242655949E+02 -0.13453771206E+04  0.14569280865E+04  0.19832286483E+04  0.46999998093E+01 0. -1.
</event>
<event>
 5   0  0.5134434E-07  0.3314365E+04  0.7818609E-02  0.8159250E-01
        2   -1    0    0  501    0  0.00000000000E+00  0.00000000000E+00  0.21329932336E+04  0.21329932336E+04  0.25500000920E-02 0.  1.
       -2   -1    0    0    0  501  0.00000000000E+00  0.00000000000E+00 -0.12875114557E+04  0.12875114557E+04  0.25500000920E-02 0. -1.
    10030    2    1    2    0    0  0.00000000000E+00  0.00000000000E+00  0.84548177798E+03  0.34205046893E+04  0.33143646288E+04 0.  0.
        5    1    3    3  502    0 -0.14914600870E+04 -0.30368780346E+03 -0.25364977668E+03  0.15430618174E+04  0.46999998093E+01 0. -1.
       -5    1    3    3    0  502  0.14914600870E+04  0.30368780346E+03  0.10991315547E+04  0.18774428720E+04  0.46999998093E+01 0.  1.
</event>
<event>
 5   0  0.1648000E-07  0.3796523E+04  0.7818609E-02  0.8046901E-01
       -1   -1    0    0    0  501  0.00000000000E+00  0.00000000000E+00  0.17849330599E+04  0.17849330600E+04  0.50400001928E-02 0. -1.
        1   -1    0    0  501    0  0.00000000000E+00  0.00000000000E+00 -0.20187851265E+04  0.20187851265E+04  0.50400001928E-02 0.  1.
    10030    2    1    2    0    0  0.00000000000E+00  0.00000000000E+00 -0.23385206653E+03  0.38037181864E+04  0.37965227844E+04 0.  0.
        1    1    3    3  502    0  0.12143447211E+04  0.13887639179E+04 -0.56509696774E+03  0.19294125801E+04  0.50400001928E-02 0.  1.
       -1    1    3    3    0  502 -0.12143447211E+04 -0.13887639179E+04  0.33124490120E+03  0.18743056063E+04  0.50400001928E-02 0. -1.
</event>
<event>
 5   0  0.1656617E-07  0.3756521E+04  0.7818609E-02  0.8055550E-01
        1   -1    0    0  501    0  0.00000000000E+00  0.00000000000E+00  0.14416996724E+04  0.14416996724E+04  0.50400001928E-02 0. -1.
       -1   -1    0    0    0  501  0.00000000000E+00  0.00000000000E+00 -0.24470156564E+04  0.24470156564E+04  0.50400001928E-02 0.  1.
    10030    2    1    2    0    0  0.00000000000E+00  0.00000000000E+00 -0.10053159841E+04  0.38887153288E+04  0.37565205551E+04 0.  0.
        5    1    3    3  502    0 -0.15746361310E+04 -0.56570640806E+03 -0.13861172733E+04  0.21727507613E+04  0.46999998093E+01 0.  1.
       -5    1    3    3    0  502  0.15746361310E+04  0.56570640806E+03  0.38080128925E+03  0.17159645676E+04  0.46999998093E+01 0. -1.
</event>
<event>
 5   0  0.5132561E-07  0.2950165E+04  0.7818609E-02  0.8258106E-01
       -2   -1    0    0    0  501  0.00000000000E+00  0.00000000000E+00  0.92095753711E+03  0.92095753712E+03  0.25500000920E-02 0.  1.
        2   -1    0    0  501    0  0.00000000000E+00  0.00000000000E+00 -0.23626156637E+04  0.23626156637E+04  0.25500000920E-02 0. -1.
    10030    2    1    2    0    0  0.00000000000E+00  0.00000000000E+00 -0.14416581266E+04  0.32835732009E+04  0.29501652176E+04 0.  0.
        3    1    3    3  502    0 -0.78180490118E+03 -0.45664221623E+03 -0.20169653031E+04  0.22108573137E+04  0.10100000352E+00 0. -1.
       -3    1    3    3    0  502  0.78180490118E+03  0.45664221623E+03  0.57530717649E+03  0.10727158872E+04  0.10100000352E+00 0.  1.
</event>
<event>
 5   0  0.5134434E-07  0.3796531E+04  0.7818609E-02  0.8046900E-01
        2   -1    0    0  501    0  0.00000000000E+00  0.00000000000E+00  0.22391164115E+04  0.22391164115E+04  0.25500000920E-02 0. -1.
       -2   -1    0    0    0  501  0.00000000000E+00  0.00000000000E+00 -0.16093007484E+04  0.16093007484E+04  0.25500000920E-02 0.  1.
    10030    2    1    2    0    0  0.00000000000E+00  0.00000000000E+00  0.62981566315E+03  0.38484171599E+04  0.37965308990E+04 0.  0.
        5    1    3    3  502    0  0.18724393950E+04  0.70544367943E+02  0.62300888824E+03  0.19746310948E+04  0.46999998093E+01 0.  1.
       -5    1    3    3    0  502 -0.18724393950E+04 -0.70544367943E+02  0.68067749164E+01  0.18737860651E+04  0.46999998093E+01 0. -1.
</event>
<event>
 5   0  0.5325362E-07  0.3459941E+04  0.7818609E-02  0.8123350E-01
        2   -1    0    0  501    0  0.00000000000E+00  0.00000000000E+00  0.15760171242E+04  0.15760171242E+04  0.25500000920E-02 0. -1.
       -2   -1    0    0    0  501  0.00000000000E+00  0.00000000000E+00 -0.18989628270E+04  0.18989628270E+04  0.25500000920E-02 0.  1.
    10030    2    1    2    0    0  0.00000000000E+00  0.00000000000E+00 -0.32294570288E+03  0.34749799512E+04  0.34599410016E+04 0.  0.
        4    1    3    3  502    0 -0.83678918265E+03 -0.12851205574E+04 -0.96560603255E+03  0.18122217321E+04  0.12699999809E+01 0.  1.
       -4    1    3    3    0  502  0.83678918265E+03  0.12851205574E+04  0.64266032967E+03  0.16627582192E+04  0.12699999809E+01 0. -1.
</event>
<event>
 5   0  0.1648000E-07  0.3823402E+04  0.7818609E-02  0.8041151E-01
        1   -1    0    0  501    0  0.00000000000E+00  0.00000000000E+00  0.21825499538E+04  0.21825499538E+04  0.50400001928E-02 0.  1.
       -1   -1    0    0    0  501  0.00000000000E+00  0.00000000000E+00 -0.16744638023E+04  0.16744638024E+04  0.50400001928E-02 0. -1.
    10030    2    1    2    0    0  0.00000000000E+00  0.00000000000E+00  0.50808615149E+03  0.38570137562E+04  0.38234020948E+04 0.  0.
        3    1    3    3  502    0  0.14411286245E+04 -0.51630809378E+03  0.14091749416E+04  0.20806729167E+04  0.10100000352E+00 0.  1.
       -3    1    3    3    0  502 -0.14411286245E+04  0.51630809378E+03 -0.90108879008E+03  0.17763408395E+04  0.10100000352E+00 0. -1.
</event>
<event>
 5   0  0.1648000E-07  0.3791331E+04  0.7818609E-02  0.8048018E-01
        1   -1    0    0  501    0  0.00000000000E+00  0.00000000000E+00  0.18021162442E+04  0.18021162442E+04  0.50400001928E-02 0. -1.
       -1   -1    0    0    0  501  0.00000000000E+00  0.00000000000E+00 -0.19940713507E+04  0.19940713507E+04  0.50400001928E-02 0.  1.
    10030    2    1    2    0    0  0.00000000000E+00  0.00000000000E+00 -0.19195510654E+03  0.37961875949E+04  0.37913313615E+04 0.  0.
        4    1    3    3  502    0  0.16251833919E+04  0.88163533282E+03 -0.51489705886E+03  0.19192765594E+04  0.12699999809E+01 0. -1.
       -4    1    3    3    0  502 -0.16251833919E+04 -0.88163533282E+03  0.32294195232E+03  0.18769110354E+04  0.12699999809E+01 0.  1.
</event>
<event>
 5   0  0.1648000E-07  0.2812490E+04  0.7818609E-02  0.8299401E-01
        1   -1    0    0  501    0  0.00000000000E+00  0.00000000000E+00  0.22753834495E+04  0.22753834495E+04  0.50400001928E-02 0. -1.
       -1   -1    0    0    0  501  0.00000000000E+00  0.00000000000E+00 -0.86909498084E+03  0.86909498085E+03  0.50400001928E-02 0.  1.
    10030    2    1    2    0    0  0.00000000000E+00  0.00000000000E+00  0.14062884686E+04  0.31444784303E+04  0.28124895274E+04 0.  0.
        4    1    3    3  502    0  0.13374959298E+04 -0.60382045900E+01  0.21761199426E+03  0.13550971977E+04  0.12699999809E+01 0. -1.
       -4    1    3    3    0  502 -0.13374959298E+04  0.60382045900E+01  0.11886764744E+04  0.17893812327E+04  0.12699999809E+01 0.  1.
</event>
<event>
 5   0  0.1648000E-07  0.3928580E+04  0.7818609E-02  0.8019111E-01
        1   -1    0    0  501    0  0.00000000000E+00  0.00000000000E+00  0.23923644238E+04  0.23923644238E+04  0.50400001928E-02 0. -1.
       -1   -1    0    0    0  501  0.00000000000E+00  0.00000000000E+00 -0.16128124627E+04  0.16128124627E+04  0.50400001928E-02 0.  1.
    10030    2    1    2    0    0  0.00000000000E+00  0.00000000000E+00  0.77955196110E+03  0.40051768865E+04  0.39285799766E+04 0.  0.
        4    1    3    3  502    0  0.96899605562E+02  0.93635774083E+02 -0.16080945528E+04  0.16137307382E+04  0.12699999809E+01 0.  1.
       -4    1    3    3    0  502 -0.96899605562E+02 -0.93635774083E+02  0.23876465139E+04  0.23914461483E+04  0.12699999809E+01 0. -1.
</event>
<event>
 5   0  0.1648000E-07  0.4297321E+04  0.7818609E-02  0.7947114E-01
        1   -1    0    0  501    0  0.00000000000E+00  0.00000000000E+00  0.24834035508E+04  0.24834035508E+04  0.50400001928E-02 0.  1.
       -1   -1    0    0    0  501  0.00000000000E+00  0.00000000000E+00 -0.18590380923E+04  0.18590380923E+04  0.50400001928E-02 0. -1.
    10030    2    1    2    0    0  0.00000000000E+00  0.00000000000E+00  0.62436545846E+03  0.43424416431E+04  0.42973209326E+04 0.  0.
        1    1    3    3  502    0 -0.21329133791E+03  0.16250438186E+04 -0.10918233535E+04  0.19693498527E+04  0.50400001928E-02 0. -1.
       -1    1    3    3    0  502  0.21329133791E+03 -0.16250438186E+04  0.17161888120E+04  0.23730917904E+04  0.50400001928E-02 0.  1.
</event>
<event>
 5   0  0.1656617E-07  0.3752988E+04  0.7818609E-02  0.8056319E-01
        1   -1    0    0  501    0  0.00000000000E+00  0.00000000000E+00  0.19606221632E+04  0.19606221632E+04  0.50400001928E-02 0. -1.
       -1   -1    0    0    0  501  0.00000000000E+00  0.00000000000E+00 -0.17959755445E+04  0.17959755445E+04  0.50400001928E-02 0.  1.
    10030    2    1    2    0    0  0.00000000000E+00  0.00000000000E+00  0.16464661872E+03  0.37565977078E+04  0.37529878536E+04 0.  0.
        5    1    3    3  502    0 -0.36333949498E+03  0.15637222600E+04  0.10548361739E+04  0.19209227831E+04  0.46999998093E+01 0. -1.
       -5    1    3    3    0  502  0.36333949498E+03 -0.15637222600E+04 -0.89018955517E+03  0.18356749247E+04  0.46999998093E+01 0.  1.
</event>
<event>
 5   0  0.5325362E-07  0.3731629E+04  0.7818609E-02  0.8060988E-01
        2   -1    0    0  501    0  0.00000000000E+00  0.00000000000E+00  0.27499786359E+04  0.27499786359E+04  0.25500000920E-02 0.  1.
       -2   -1    0    0    0  501  0.00000000000E+00  0.00000000000E+00 -0.12659238301E+04  0.12659238301E+04  0.25500000920E-02 0. -1.
    10030    2    1    2    0    0  0.00000000000E+00  0.00000000000E+00  0.14840548058E+04  0.40159024660E+04  0.37316288601E+04 0.  0.
        4    1    3    3  502    0  0.12673574032E+04  0.18183257497E+03 -0.71856823080E+03  0.14681961000E+04  0.12699999809E+01 0. -1.
       -4    1    3    3    0  502 -0.12673574032E+04 -0.18183257497E+03  0.22026230366E+04  0.25477063660E+04  0.12699999809E+01 0.  1.
</event>
<event>
 5   0  0.1656617E-07  0.3092489E+04  0.7818609E-02  0.8217802E-01
       -1   -1    0    0    0  501  0.00000000000E+00  0.00000000000E+00  0.14869220480E+04  0.14869220480E+04  0.50400001928E-02 0.  1.
        1   -1    0    0  501    0  0.00000000000E+00  0.00000000000E+00 -0.16079335886E+04  0.16079335887E+04  0.50400001928E-02 0. -1.
    10030    2    1    2    0    0  0.00000000000E+00  0.00000000000E+00 -0.12101154069E+03  0.30948556366E+04  0.30924889036E+04 0.  0.
        5    1    3    3  502    0  0.15057267558E+04  0.13002668993E+03 -0.38745108402E+03  0.15602116638E+04  0.46999998093E+01 0.  1.
       -5    1    3    3    0  502 -0.15057267558E+04 -0.13002668993E+03  0.26643954333E+03  0.15346439729E+04  0.46999998093E+01 0. -1.
</event>
<event>
 5   0  0.5325362E-07  0.3922032E+04  0.7818609E-02  0.8020463E-01
        2   -1    0    0  501    0  0.00000000000E+00  0.00000000000E+00  0.20863485790E+04  0.20863485790E+04  0.25500000920E-02 0. -1.
       -2   -1    0    0    0  501  0.00000000000E+00  0.00000000000E+00 -0.18432122509E+04  0.18432122509E+04  0.25500000920E-02 0.  1.
    10030    2    1    2    0    0  0.00000000000E+00  0.00000000000E+00  0.24313632805E+03  0.39295608299E+04  0.39220317492E+04 0.  0.
        4    1    3    3  502    0  0.13379007379E+04 -0.10122571655E+04  0.11388688355E+04  0.20277245353E+04  0.12699999809E+01 0. -1.
       -4    1    3    3    0  502 -0.13379007379E+04  0.10122571655E+04 -0.89573250745E+03  0.19018362946E+04  0.12699999809E+01 0.  1.
</event>
<event>
 5   0  0.1648000E-07  0.3710871E+04  0.7818609E-02  0.8065557E-01
       -1   -1    0    0    0  501  0.00000000000E+00  0.00000000000E+00  0.14146961928E+04  0.14146961928E+04  0.50400001928E-02 0. -1.
        1   -1    0    0  501    0  0.00000000000E+00  0.00000000000E+00 -0.24334840536E+04  0.24334840536E+04  0.50400001928E-02 0.  1.
    10030    2    1    2    0    0  0.00000000000E+00  0.00000000000E+00 -0.10187878607E+04  0.38481802464E+04  0.37108708551E+04 0.  0.
        1    1    3    3  502    0 -0.16379548875E+04  0.72018513393E+03 -0.10185584841E+04  0.20588890758E+04  0.50400001928E-02 0. -1.
       -1    1    3    3    0  502  0.16379548875E+04 -0.72018513393E+03 -0.22937661677E+00  0.17892911706E+04  0.50400001928E-02 0.  1.
</event>
<event>
 5   0  0.5202788E-07  0.3787319E+04  0.7818609E-02  0.8048882E-01
        2   -1    0    0  501    0  0.00000000000E+00  0.00000000000E+00  0.22996149778E+04  0.22996149778E+04  0.25500000920E-02 0.  1.
       -2   -1    0    0    0  501  0.00000000000E+00  0.00000000000E+00 -0.15593683885E+04  0.15593683885E+04  0.25500000920E-02 0. -1.
    10030    2    1    2    0    0  0.00000000000E+00  0.00000000000E+00  0.74024658931E+03  0.38589833663E+04  0.37873193169E+04 0.  0.
        1    1    3    3  502    0 -0.14575391526E+04 -0.12805159853E+03 -0.85475894675E+03  0.16945295661E+04  0.50400001928E-02 0. -1.
       -1    1    3    3    0  502  0.14575391526E+04  0.12805159853E+03  0.15950055361E+04  0.21644538002E+04  0.50400001928E-02 0.  1.
</event>
<event>
 5   0  0.1648000E-07  0.3834895E+04  0.7818609E-02  0.8038708E-01
       -1   -1    0    0    0  501  0.00000000000E+00  0.00000000000E+00  0.14896089501E+04  0.14896089501E+04  0.50400001928E-02 0. -1.
        1   -1    0    0  501    0  0.00000000000E+00  0.00000000000E+00 -0.24681681691E+04  0.24681681691E+04  0.50400001928E-02 0.  1.
    10030    2    1    2    0    0  0.00000000000E+00  0.00000000000E+00 -0.97855921903E+03  0.39577771192E+04  0.38348952502E+04 0.  0.
        3    1    3    3  502    0 -0.12101916357E+04  0.34218401582E+03  0.10044941765E+04  0.16095534340E+04  0.10100000352E+00 0. -1.
       -3    1    3    3    0  502  0.12101916357E+04 -0.34218401582E+03 -0.19830533956E+04  0.23482236852E+04  0.10100000352E+00 0.  1.
</event>
<event>
 5   0  0.5158266E-07  0.3824743E+04  0.7818609E-02  0.8040866E-01
       -2   -1    0    0    0  501  0.00000000000E+00  0.00000000000E+00  0.19136827944E+04  0.19136827944E+04  0.25500000920E-02 0. -1.
        2   -1    0    0  501    0  0.00000000000E+00  0.00000000000E+00 -0.19110608119E+04  0.19110608119E+04  0.25500000920E-02 0.  1.
    10030    2    1    2    0    0  0.00000000000E+00  0.00000000000E+00  0.26219825517E+01  0.38247436063E+04  0.38247427076E+04 0.  0.
        2    1    3    3  502    0  0.10905111917E+04  0.12050103697E+04  0.10092296497E+04  0.19130627632E+04  0.25500000920E-02 0. -1.
       -2    1    3    3    0  502 -0.10905111917E+04 -0.12050103697E+04 -0.10066076671E+04  0.19116808431E+04  0.25500000920E-02 0.  1.
</event>
<event>
 5   0  0.1648000E-07  0.3780030E+04  0.7818609E-02  0.8050454E-01
        1   -1    0    0  501    0  0.00000000000E+00  0.00000000000E+00  0.16770618118E+04  0.16770618118E+04  0.50400001928E-02 0.  1.
       -1   -1    0    0    0  501  0.00000000000E+00  0.00000000000E+00 -0.21300088450E+04  0.21300088450E+04  0.50400001928E-02 0. -1.
    10030    2    1    2    0    0  0.00000000000E+00  0.00000000000E+00 -0.45294703323E+03  0.38070706568E+04  0.37800298903E+04 0.  0.
        1    1    3    3  502    0  0.27271471075E+03 -0.92276418826E+03  0.14119054895E+04  0.17086088411E+04  0.50400001928E-02 0.  1.
       -1    1    3    3    0  502 -0.27271471075E+03  0.92276418826E+03 -0.18648525227E+04  0.20984618157E+04  0.50400001928E-02 0. -1.
</event>
<event>
 5   0  0.1648000E-07  0.3748749E+04  0.7818609E-02  0.8057244E-01
        1   -1    0    0  501    0  0.00000000000E+00  0.00000000000E+00  0.13913474346E+04  0.13913474346E+04  0.50400001928E-02 0.  1.
       -1   -1    0    0    0  501  0.00000000000E+00  0.00000000000E+00 -0.25250913181E+04  0.25250913181E+04  0.50400001928E-02 0. -1.
    10030    2    1    2    0    0  0.00000000000E+00  0.00000000000E+00 -0.11337438835E+04  0.39164387527E+04  0.37487487660E+04 0.  0.
        3    1    3    3  502    0 -0.17112662991E+04 -0.44705545484E+03 -0.12151014855E+04  0.21458710484E+04  0.10100000352E+00 0. -1.
       -3    1    3    3    0  502  0.17112662991E+04  0.44705545484E+03  0.81357601950E+02  0.17705677044E+04  0.10100000352E+00 0.  1.
</event>
<event>
 5   0  0.1648000E-07  0.2893857E+04  0.7818609E-02  0.8274708E-01
       -1   -1    0    0    0  501  0.00000000000E+00  0.00000000000E+00  0.15093921126E+04  0.15093921126E+04  0.50400001928E-02 0. -1.
        1   -1    0    0  501    0  0.00000000000E+00  0.00000000000E+00 -0.13870498052E+04  0.13870498052E+04  0.50400001928E-02 0.  1.
    10030    2    1    2    0    0  0.00000000000E+00  0.00000000000E+00  0.12234230743E+03  0.28964419178E+04  0.28938569665E+04 0.  0.
        1    1    3    3  502    0 -0.27977449861E+03 -0.91557059817E+03  0.11470636488E+04  0.14940877835E+04  0.50400001928E-02 0. -1.
       -1    1    3    3    0  502  0.27977449861E+03  0.91557059817E+03 -0.10247213414E+04  0.14023541343E+04  0.50400001928E-02 0.  1.
</event>
<event>
 5   0  0.5134434E-07  0.3807013E+04  0.7818609E-02  0.8044652E-01
       -2   -1    0    0    0  501  0.00000000000E+00  0.00000000000E+00  0.12130095798E+04  0.12130095798E+04  0.25500000920E-02 0.  1.
        2   -1    0    0  501    0  0.00000000000E+00  0.00000000000E+00 -0.29870635774E+04  0.29870635774E+04  0.25500000920E-02 0. -1.
    10030    2    1    2    0    0  0.00000000000E+00  0.00000000000E+00 -0.17740539976E+04  0.42000731572E+04  0.38070128630E+04 0.  0.
        5    1    3    3  502    0 -0.15235715491E+04 -0.78639833893E+03  0.25152981041E+02  0.17147441136E+04  0.46999998093E+01 0. -1.
       -5    1    3    3    0  502  0.15235715491E+04  0.78639833893E+03 -0.17992069786E+04  0.24853290435E+04  0.46999998093E+01 0.  1.
</event>
<event>
 5   0  0.5132561E-07  0.3673819E+04  0.7818609E-02  0.8073789E-01
        2   -1    0    0  501    0  0.00000000000E+00  0.00000000000E+00  0.19067041399E+04  0.19067041399E+04  0.25500000920E-02 0.  1.
       -2   -1    0    0    0  501  0.00000000000E+00  0.00000000000E+00 -0.17696693690E+04  0.17696693690E+04  0.25500000920E-02 0. -1.
    10030    2    1    2    0    0  0.00000000000E+00  0.00000000000E+00  0.13703477086E+03  0.36763735089E+04  0.36738186738E+04 0.  0.
        3    1    3    3  502    0 -0.71364002392E+02  0.22615048281E+03 -0.17542868907E+04  0.17702427423E+04  0.10100000352E+00 0. -1.
       -3    1    3    3    0  502  0.71364002392E+02 -0.22615048281E+03  0.18913216615E+04  0.19061307666E+04  0.10100000352E+00 0.  1.
</event>
<event>
 5   0  0.5202788E-07  0.3810251E+04  0.7818609E-02  0.8043959E-01
        2   -1    0    0  501    0  0.00000000000E+00  0.00000000000E+00  0.29896840502E+04  0.29896840502E+04  0.25500000920E-02 0.  1.
       -2   -1    0    0    0  501  0.00000000000E+00  0.00000000000E+00 -0.12140086787E+04  0.12140086787E+04  0.25500000920E-02 0. -1.
    10030    2    1    2    0    0  0.00000000000E+00  0.00000000000E+00  0.17756753715E+04  0.42036927289E+04  0.38102505868E+04 0.  0.
        1    1    3    3  502    0  0.82790502726E+03  0.16872174790E+04  0.54356995517E+03  0.19564247626E+04  0.50400001928E-02 0. -1.
       -1    1    3    3    0  502 -0.82790502726E+03 -0.16872174790E+04  0.12321054163E+04  0.22472679663E+04  0.50400001928E-02 0.  1.
</event>
<event>
 5   0  0.1648000E-07  0.3063685E+04  0.7818609E-02  0.8225776E-01
        1   -1    0    0  501    0  0.00000000000E+00  0.00000000000E+00  0.15667037118E+04  0.15667037118E+04  0.50400001928E-02 0. -1.
       -1   -1    0    0    0  501  0.00000000000E+00  0.00000000000E+00 -0.14977566860E+04  0.14977566861E+04  0.50400001928E-02 0.  1.
    10030    2    1    2    0    0  0.00000000000E+00  0.00000000000E+00  0.68947025794E+02  0.30644603979E+04  0.30636846832E+04 0.  0.
        2    1    3    3  502    0 -0.82630943719E+03  0.44898332976E+03 -0.11750338946E+04  0.15050175978E+04  0.25500000920E-02 0.  1.
       -2    1    3    3    0  502  0.82630943719E+03 -0.44898332976E+03  0.12439809204E+04  0.15594428001E+04  0.25500000920E-02 0. -1.
</event>
<event>
 5   0  0.1648000E-07  0.3791028E+04  0.7818609E-02  0.8048083E-01
        1   -1    0    0  501    0  0.00000000000E+00  0.00000000000E+00  0.16695445333E+04  0.16695445333E+04  0.50400001928E-02 0.  1.
       -1   -1    0    0    0  501  0.00000000000E+00  0.00000000000E+00 -0.21520674217E+04  0.21520674217E+04  0.50400001928E-02 0. -1.
    10030    2    1    2    0    0  0.00000000000E+00  0.00000000000E+00 -0.48252288844E+03  0.38216119550E+04  0.37910275120E+04 0.  0.
        1    1    3    3  502    0  0.11098156515E+04 -0.11968693869E+03 -0.17855988303E+04  0.21057965064E+04  0.50400001928E-02 0. -1.
       -1    1    3    3    0  502 -0.11098156515E+04  0.11968693869E+03  0.13030759418E+04  0.17158154486E+04  0.50400001928E-02 0.  1.
</event>
<event>
 5   0  0.5134434E-07  0.3755863E+04  0.7818609E-02  0.8055694E-01
       -2   -1    0    0    0  501  0.00000000000E+00  0.00000000000E+00  0.24798398326E+04  0.24798398326E+04  0.25500000920E-02 0.  1.
        2   -1    0    0  501    0  0.00000000000E+00  0.00000000000E+00 -0.14221184566E+04  0.14221184566E+04  0.25500000920E-02 0. -1.
    10030    2    1    2    0    0  0.00000000000E+00  0.00000000000E+00  0.10577213760E+04  0.39019582893E+04  0.37558626149E+04 0.  0.
        5    1    3    3  502    0 -0.10689972366E+03  0.13563547298E+04  0.18736130496E+04  0.23155072131E+04  0.46999998093E+01 0. -1.
       -5    1    3    3    0  502  0.10689972366E+03 -0.13563547298E+04 -0.81589167368E+03  0.15864510762E+04  0.46999998093E+01 0.  1.
</event>
<event>
 5   0  0.1656617E-07  0.3208277E+04  0.7818609E-02  0.8186635E-01
        1   -1    0    0  501    0  0.00000000000E+00  0.00000000000E+00  0.11264044787E+04  0.11264044787E+04  0.50400001928E-02 0. -1.
       -1   -1    0    0    0  501  0.00000000000E+00  0.00000000000E+00 -0.22844908412E+04  0.22844908413E+04  0.50400001928E-02 0.  1.
    10030    2    1    2    0    0  0.00000000000E+00  0.00000000000E+00 -0.11580863626E+04  0.34108953200E+04  0.32082772418E+04 0.  0.
        5    1    3    3  502    0  0.79087936537E+03 -0.13948288545E+04 -0.52916636202E+03  0.16885132018E+04  0.46999998093E+01 0. -1.
       -5    1    3    3    0  502 -0.79087936537E+03  0.13948288545E+04 -0.62892000053E+03  0.17223821182E+04  0.46999998093E+01 0.  1.
</event>
<event>
 5   0  0.1648000E-07  0.3760003E+04  0.7818609E-02  0.8054793E-01
       -1   -1    0    0    0  501  0.00000000000E+00  0.00000000000E+00  0.23638007698E+04  0.23638007698E+04  0.50400001928E-02 0. -1.
        1   -1    0    0  501    0  0.00000000000E+00  0.00000000000E+00 -0.14952215612E+04  0.14952215612E+04  0.50400001928E-02 0.  1.
    10030    2    1    2    0    0  0.00000000000E+00  0.00000000000E+00  0.86857920863E+03  0.38590223310E+04  0.37600031263E+04 0.  0.
        4    1    3    3  502    0 -0.14017989954E+04 -0.12401153704E+04  0.61638151179E+03  0.19704959620E+04  0.12699999809E+01 0. -1.
       -4    1    3    3    0  502  0.14017989954E+04  0.12401153704E+04  0.25219769684E+03  0.18885263690E+04  0.12699999809E+01 0.  1.
</event>
<event>
 5   0  0.5134434E-07  0.3671020E+04  0.7818609E-02  0.8074415E-01
       -2   -1    0    0    0  501  0.00000000000E+00  0.00000000000E+00  0.29102119371E+04  0.29102119371E+04  0.25500000920E-02 0. -1.
        2   -1    0    0  501    0  0.00000000000E+00  0.00000000000E+00 -0.11576810253E+04  0.11576810253E+04  0.25500000920E-02 0.  1.
    10030    2    1    2    0    0  0.00000000000E+00  0.00000000000E+00  0.17525309118E+04  0.40678929625E+04  0.36710200976E+04 0.  0.
        5    1    3    3  502    0  0.31610342061E+03 -0.84441425147E+02 -0.11250994756E+04  0.11717178187E+04  0.46999998093E+01 0.  1.
       -5    1    3    3    0  502 -0.31610342061E+03  0.84441425147E+02  0.28776303874E+04  0.28961751437E+04  0.46999998093E+01 0. -1.
</event>
<event>
 5   0  0.1648000E-07  0.3905856E+04  0.7818609E-02  0.8023812E-01
        3   -1    0    0  501    0  0.00000000000E+00  0.00000000000E+00  0.23775479552E+04  0.23775479573E+04  0.10100000352E+00 0.  1.
       -3   -1    0    0    0  501  0.00000000000E+00  0.00000000000E+00 -0.16041429545E+04  0.16041429577E+04  0.10100000352E+00 0. -1.
    10030    2    1    2    0    0  0.00000000000E+00  0.00000000000E+00  0.77340500068E+03  0.39816909150E+04  0.39058555078E+04 0.  0.
        1    1    3    3  502    0 -0.19466934394E+03 -0.15130805458E+04  0.16296450428E+04  0.22322750407E+04  0.50400001928E-02 0.  1.
       -1    1    3    3    0  502  0.19466934394E+03  0.15130805458E+04 -0.85624004217E+03  0.17494158743E+04  0.50400001928E-02 0. -1.
</event>
<event>
 5   0  0.5134434E-07  0.3804926E+04  0.7818609E-02  0.8045099E-01
       -2   -1    0    0    0  501  0.00000000000E+00  0.00000000000E+00  0.13712984857E+04  0.13712984857E+04  0.25500000920E-02 0.  1.
        2   -1    0    0  501    0  0.00000000000E+00  0.00000000000E+00 -0.26393705634E+04  0.26393705634E+04  0.25500000920E-02 0. -1.
    10030    2    1    2    0    0  0.00000000000E+00  0.00000000000E+00 -0.12680720777E+04  0.40106690491E+04  0.38049256795E+04 0.  0.
        5    1    3    3  502    0 -0.18961978191E+03  0.48382404044E+02  0.13606548923E+04  0.13746637206E+04  0.46999998093E+01 0.  1.
       -5    1    3    3    0  502  0.18961978191E+03 -0.48382404044E+02 -0.26287269700E+04  0.26360053285E+04  0.46999998093E+01 0. -1.
</event>
<event>
 5   0  0.5325362E-07  0.3080695E+04  0.7818609E-02  0.8221056E-01
        2   -1    0    0  501    0  0.00000000000E+00  0.00000000000E+00  0.19475088595E+04  0.19475088595E+04  0.25500000920E-02 0.  1.
       -2   -1    0    0    0  501  0.00000000000E+00  0.00000000000E+00 -0.12183102865E+04  0.12183102865E+04  0.25500000920E-02 0. -1.
    10030    2    1    2    0    0  0.00000000000E+00  0.00000000000E+00  0.72919857301E+03  0.31658191460E+04  0.30806947766E+04 0.  0.
        4    1    3    3  502    0  0.56078793832E+03  0.55517979369E+03 -0.99481422722E+03  0.12697892245E+04  0.12699999809E+01 0. -1.
       -4    1    3    3    0  502 -0.56078793832E+03 -0.55517979369E+03  0.17240128002E+04  0.18960299215E+04  0.12699999809E+01 0.  1.
</event>
<event>
 5   0  0.5202788E-07  0.3205663E+04  0.7818609E-02  0.8187323E-01
        2   -1    0    0  501    0  0.00000000000E+00  0.00000000000E+00  0.11358506002E+04  0.11358506002E+04  0.25500000920E-02 0.  1.
       -2   -1    0    0    0  501  0.00000000000E+00  0.00000000000E+00 -0.22618012226E+04  0.22618012226E+04  0.25500000920E-02 0. -1.
    10030    2    1    2    0    0  0.00000000000E+00  0.00000000000E+00 -0.11259506224E+04  0.33976518227E+04  0.32056626623E+04 0.  0.
        1    1    3    3  502    0  0.51524918356E+03  0.63789259588E+03 -0.20226565928E+04  0.21825508877E+04  0.50400001928E-02 0. -1.
       -1    1    3    3    0  502 -0.51524918356E+03 -0.63789259588E+03  0.89670597036E+03  0.12151009350E+04  0.50400001928E-02 0.  1.
</event>
<event>
 5   0  0.5202788E-07  0.3805992E+04  0.7818609E-02  0.8044870E-01
       -2   -1    0    0    0  501  0.00000000000E+00  0.00000000000E+00  0.16070566387E+04  0.16070566387E+04  0.25500000920E-02 0. -1.
        2   -1    0    0  501    0  0.00000000000E+00  0.00000000000E+00 -0.22534331398E+04  0.22534331398E+04  0.25500000920E-02 0.  1.
    10030    2    1    2    0    0  0.00000000000E+00  0.00000000000E+00 -0.64637650106E+03  0.38604897785E+04  0.38059924788E+04 0.  0.
        1    1    3    3  502    0 -0.13279628029E+04  0.12527780069E+04  0.22158381710E+03  0.18390316280E+04  0.50400001928E-02 0. -1.
       -1    1    3    3    0  502  0.13279628029E+04 -0.12527780069E+04 -0.86796031816E+03  0.20214581506E+04  0.50400001928E-02 0.  1.
</event>
<event>
 5   0  0.1648000E-07  0.3781843E+04  0.7818609E-02  0.8050063E-01
       -1   -1    0    0    0  501  0.00000000000E+00  0.00000000000E+00  0.14236619852E+04  0.14236619852E+04  0.50400001928E-02 0. -1.
        1   -1    0    0  501    0  0.00000000000E+00  0.00000000000E+00 -0.25115398614E+04  0.25115398614E+04  0.50400001928E-02 0.  1.
    10030    2    1    2    0    0  0.00000000000E+00  0.00000000000E+00 -0.10878778763E+04  0.39352018466E+04  0.37818428444E+04 0.  0.
        2    1    3    3  502    0  0.71787379714E+03 -0.59994271591E+03  0.11659595562E+04  0.14949032536E+04  0.25500000920E-02 0. -1.
       -2    1    3    3    0  502 -0.71787379714E+03  0.59994271591E+03 -0.22538374325E+04  0.24402985930E+04  0.25500000920E-02 0.  1.
</event>
<event>
 5   0  0.5202788E-07  0.3812452E+04  0.7818609E-02  0.8043488E-01
        2   -1    0    0  501    0  0.00000000000E+00  0.00000000000E+00  0.13609657517E+04  0.13609657517E+04  0.25500000920E-02 0. -1.
       -2   -1    0    0    0  501  0.00000000000E+00  0.00000000000E+00 -0.26699399019E+04  0.26699399019E+04  0.25500000920E-02 0.  1.
    10030    2    1    2    0    0  0.00000000000E+00  0.00000000000E+00 -0.13089741502E+04  0.40309056536E+04  0.38124515817E+04 0.  0.
        1    1    3    3  502    0  0.83060924767E+03 -0.27161023415E+03  0.11366970134E+04  0.14337935493E+04  0.50400001928E-02 0. -1.
       -1    1    3    3    0  502 -0.83060924767E+03  0.27161023415E+03 -0.24456711637E+04  0.25971121043E+04  0.50400001928E-02 0.  1.
</event>
<event>
 5   0  0.1656617E-07  0.3867851E+04  0.7818609E-02  0.8031749E-01
       -1   -1    0    0    0  501  0.00000000000E+00  0.00000000000E+00  0.18579806155E+04  0.18579806155E+04  0.50400001928E-02 0. -1.
        1   -1    0    0  501    0  0.00000000000E+00  0.00000000000E+00 -0.20129746771E+04  0.20129746771E+04  0.50400001928E-02 0.  1.
    10030    2    1    2    0    0  0.00000000000E+00  0.00000000000E+00 -0.15499406154E+03  0.38709552926E+04  0.38678510465E+04 0.  0.
        5    1    3    3  502    0 -0.65511369303E+03  0.13276627790E+04 -0.13227558401E+04  0.19853381345E+04  0.46999998093E+01 0.  1.
       -5    1    3    3    0  502  0.65511369303E+03 -0.13276627790E+04  0.11677617786E+04  0.18856171581E+04  0.46999998093E+01 0. -1.
</event>
<event>
 5   0  0.1648000E-07  0.4304208E+04  0.7818609E-02  0.7945840E-01
        1   -1    0    0  501    0  0.00000000000E+00  0.00000000000E+00  0.18458691362E+04  0.18458691363E+04  0.50400001928E-02 0. -1.
       -1   -1    0    0    0  501  0.00000000000E+00  0.00000000000E+00 -0.25091443387E+04  0.25091443387E+04  0.50400001928E-02 0.  1.
    10030    2    1    2    0    0  0.00000000000E+00  0.00000000000E+00 -0.66327520245E+03  0.43550134749E+04  0.43042082167E+04 0.  0.
        3    1    3    3  502    0 -0.10058833598E+04  0.50222869273E+03  0.15251025762E+04  0.18947223732E+04  0.10100000352E+00 0. -1.
       -3    1    3    3    0  502  0.10058833598E+04 -0.50222869273E+03 -0.21883777786E+04  0.24602911018E+04  0.10100000352E+00 0.  1.
</event>
<event>
 5   0  0.5325362E-07  0.3798569E+04  0.7818609E-02  0.8046462E-01
       -2   -1    0    0    0  501  0.00000000000E+00  0.00000000000E+00  0.15292111447E+04  0.15292111447E+04  0.25500000920E-02 0.  1.
        2   -1    0    0  501    0  0.00000000000E+00  0.00000000000E+00 -0.23589170557E+04  0.23589170557E+04  0.25500000920E-02 0. -1.
    10030    2    1    2    0    0  0.00000000000E+00  0.00000000000E+00 -0.82970591095E+03  0.38881282004E+04  0.37985693365E+04 0.  0.
        4    1    3    3  502    0  0.58890745442E+03 -0.12911636445E+04  0.87719361332E+03  0.16683482235E+04  0.12699999809E+01 0.  1.
       -4    1    3    3    0  502 -0.58890745442E+03  0.12911636445E+04 -0.17068995243E+04  0.22197799769E+04  0.12699999809E+01 0. -1.
</event>
<event>
 5   0  0.1648000E-07  0.3833742E+04  0.7818609E-02  0.8038952E-01
       -1   -1    0    0    0  501  0.00000000000E+00  0.00000000000E+00  0.17445681521E+04  0.17445681521E+04  0.50400001928E-02 0. -1.
        1   -1    0    0  501    0  0.00000000000E+00  0.00000000000E+00 -0.21061918293E+04  0.21061918293E+04  0.50400001928E-02 0.  1.
    10030    2    1    2    0    0  0.00000000000E+00  0.00000000000E+00 -0.36162367716E+03  0.38507599814E+04  0.38337423949E+04 0.  0.
        1    1    3    3  502    0 -0.70248534207E+03 -0.85104333608E+03  0.13935110866E+04  0.17775358124E+04  0.50400001928E-02 0. -1.
       -1    1    3    3    0  502  0.70248534207E+03  0.85104333608E+03 -0.17551347638E+04  0.20732241690E+04  0.50400001928E-02 0.  1.
</event>
<event>
 5   0  0.5132561E-07  0.3840375E+04  0.7818609E-02  0.8037546E-01
        2   -1    0    0  501    0  0.00000000000E+00  0.00000000000E+00  0.21044578481E+04  0.21044578481E+04  0.25500000920E-02 0. -1.
       -2   -1    0    0    0  501  0.00000000000E+00  0.00000000000E+00 -0.17520521033E+04  0.17520521033E+04  0.25500000920E-02 0.  1.
    10030    2    1    2    0    0  0.00000000000E+00  0.00000000000E+00  0.35240574484E+03  0.38565099514E+04  0.38403748770E+04 0.  0.
        3    1    3    3  502    0 -0.11274884989E+02  0.72391655404E+03 -0.16097341520E+04  0.17650570389E+04  0.10100000352E+00 0.  1.
       -3    1    3    3    0  502  0.11274884989E+02 -0.72391655404E+03  0.19621398968E+04  0.20914529125E+04  0.10100000352E+00 0. -1.
</event>
<event>
 5   0  0.5132561E-07  0.3783448E+04  0.7818609E-02  0.8049716E-01
       -2   -1    0    0    0  501  0.00000000000E+00  0.00000000000E+00  0.16207393245E+04  0.16207393245E+04  0.25500000920E-02 0. -1.
        2   -1    0    0  501    0  0.00000000000E+00  0.00000000000E+00 -0.22080173277E+04  0.22080173277E+04  0.25500000920E-02 0.  1.
    10030    2    1    2    0    0  0.00000000000E+00  0.00000000000E+00 -0.58727800316E+03  0.38287566522E+04  0.37834484334E+04 0.  0.
        3    1    3    3  502    0 -0.99331766716E+03  0.79609301487E+03  0.11224672961E+04  0.16971673215E+04  0.10100000352E+00 0. -1.
       -3    1    3    3    0  502  0.99331766716E+03 -0.79609301487E+03 -0.17097452992E+04  0.21315893307E+04  0.10100000352E+00 0.  1.
</event>
<event>
 5   0  0.5132561E-07  0.3731607E+04  0.7818609E-02  0.8060993E-01
       -2   -1    0    0    0  501  0.00000000000E+00  0.00000000000E+00  0.16079763760E+04  0.16079763760E+04  0.25500000920E-02 0. -1.
        2   -1    0    0  501    0  0.00000000000E+00  0.00000000000E+00 -0.21649716836E+04  0.21649716836E+04  0.25500000920E-02 0.  1.
    10030    2    1    2    0    0  0.00000000000E+00  0.00000000000E+00 -0.55699530760E+03  0.37729480597E+04  0.37316073331E+04 0.  0.
        3    1    3    3  502    0 -0.13466301613E+04  0.60717917556E+03 -0.14309249318E+04  0.20566053372E+04  0.10100000352E+00 0.  1.
       -3    1    3    3    0  502  0.13466301613E+04 -0.60717917556E+03  0.87392962416E+03  0.17163427224E+04  0.10100000352E+00 0. -1.
</event>
<event>
 5   0  0.1648000E-07  0.3630217E+04  0.7818609E-02  0.8083605E-01
        1   -1    0    0  501    0  0.00000000000E+00  0.00000000000E+00  0.15360906665E+04  0.15360906665E+04  0.50400001928E-02 0. -1.
       -1   -1    0    0    0  501  0.00000000000E+00  0.00000000000E+00 -0.21448080864E+04  0.21448080864E+04  0.50400001928E-02 0.  1.
    10030    2    1    2    0    0  0.00000000000E+00  0.00000000000E+00 -0.60871741986E+03  0.36808987529E+04  0.36302174497E+04 0.  0.
        2    1    3    3  502    0  0.16786864720E+04  0.65742142091E+03 -0.51808207078E+03  0.18757932263E+04  0.25500000920E-02 0.  1.
       -2    1    3    3    0  502 -0.16786864720E+04 -0.65742142091E+03 -0.90635349077E+02  0.18051055266E+04  0.25500000920E-02 0. -1.
</event>
<event>
 5   0  0.5134434E-07  0.3754275E+04  0.7818609E-02  0.8056039E-01
        2   -1    0    0  501    0  0.00000000000E+00  0.00000000000E+00  0.13123883834E+04  0.13123883834E+04  0.25500000920E-02 0.  1.
       -2   -1    0    0    0  501  0.00000000000E+00  0.00000000000E+00 -0.26849102987E+04  0.26849102987E+04  0.25500000920E-02 0. -1.
    10030    2    1    2    0    0  0.00000000000E+00  0.00000000000E+00 -0.13725219153E+04  0.39972986821E+04  0.37542749428E+04 0.  0.
        5    1    3    3  502    0 -0.12848239116E+04  0.29759508432E+03 -0.21085012029E+04  0.24869931103E+04  0.46999998093E+01 0. -1.
       -5    1    3    3    0  502  0.12848239116E+04 -0.29759508432E+03  0.73597928766E+03  0.15103055717E+04  0.46999998093E+01 0.  1.
</event>
<event>
 5   0  0.5134434E-07  0.3764141E+04  0.7818609E-02  0.8053894E-01
       -2   -1    0    0    0  501  0.00000000000E+00  0.00000000000E+00  0.18595556501E+04  0.18595556501E+04  0.25500000920E-02 0.  1.
        2   -1    0    0  501    0  0.00000000000E+00  0.00000000000E+00 -0.19048575656E+04  0.19048575656E+04  0.25500000920E-02 0. -1.
    10030    2    1    2    0    0  0.00000000000E+00  0.00000000000E+00 -0.45301915520E+02  0.37644132157E+04  0.37641406184E+04 0.  0.
        5    1    3    3  502    0  0.77939206322E+03 -0.16516102817E+04 -0.47754436938E+03  0.18876809120E+04  0.46999998093E+01 0. -1.
       -5    1    3    3    0  502 -0.77939206322E+03  0.16516102817E+04  0.43224245386E+03  0.18767323037E+04  0.46999998093E+01 0.  1.
</event>
<event>
 5   0  0.5325362E-07  0.3767179E+04  0.7818609E-02  0.8053235E-01
        2   -1    0    0  501    0  0.00000000000E+00  0.00000000000E+00  0.12474461946E+04  0.12474461946E+04  0.25500000920E-02 0. -1.
       -2   -1    0    0    0  501  0.00000000000E+00  0.00000000000E+00 -0.28441386305E+04  0.28441386305E+04  0.25500000920E-02 0.  1.
    10030    2    1    2    0    0  0.00000000000E+00  0.00000000000E+00 -0.15966924359E+04  0.40915848250E+04  0.37671792691E+04 0.  0.
        4    1    3    3  502    0  0.16738812915E+04  0.63763814980E+03 -0.16555352190E+03  0.17988525703E+04  0.12699999809E+01 0. -1.
       -4    1    3    3    0  502 -0.16738812915E+04 -0.63763814980E+03 -0.14311389140E+04  0.22927322548E+04  0.12699999809E+01 0.  1.
</event>
<event>
 5   0  0.5325362E-07  0.3853981E+04  0.7818609E-02  0.8034669E-01
       -2   -1    0    0    0  501  0.00000000000E+00  0.00000000000E+00  0.15879319513E+04  0.15879319513E+04  0.25500000920E-02 0.  1.
        2   -1    0    0  501    0  0.00000000000E+00  0.00000000000E+00 -0.23384453568E+04  0.23384453568E+04  0.25500000920E-02 0. -1.
    10030    2    1    2    0    0  0.00000000000E+00  0.00000000000E+00 -0.75051340550E+03  0.39263773080E+04  0.38539808501E+04 0.  0.
        4    1    3    3  502    0  0.15582016646E+04 -0.11100805094E+04 -0.14067207075E+03  0.19183486152E+04  0.12699999809E+01 0. -1.
       -4    1    3    3    0  502 -0.15582016646E+04  0.11100805094E+04 -0.60984133475E+03  0.20080286929E+04  0.12699999809E+01 0.  1.
</event>
<event>
 5   0  0.1648000E-07  0.3651659E+04  0.7818609E-02  0.8078760E-01
       -1   -1    0    0    0  501  0.00000000000E+00  0.00000000000E+00  0.11271508005E+04  0.11271508006E+04  0.50400001928E-02 0. -1.
        1   -1    0    0  501    0  0.00000000000E+00  0.00000000000E+00 -0.29575922973E+04  0.29575922973E+04  0.50400001928E-02 0.  1.
    10030    2    1    2    0    0  0.00000000000E+00  0.00000000000E+00 -0.18304414968E+04  0.40847430979E+04  0.36516585413E+04 0.  0.
        4    1    3    3  502    0 -0.26244650213E+02 -0.16333183078E+04 -0.28704430269E+01  0.16335321633E+04  0.12699999809E+01 0. -1.
       -4    1    3    3    0  502  0.26244650213E+02  0.16333183078E+04 -0.18275710537E+04  0.24512109345E+04  0.12699999809E+01 0.  1.
</event>
<event>
 5   0  0.5132561E-07  0.3766875E+04  0.7818609E-02  0.8053301E-01
        2   -1    0    0  501    0  0.00000000000E+00  0.00000000000E+00  0.14222170303E+04  0.14222170303E+04  0.25500000920E-02 0. -1.
       -2   -1    0    0    0  501  0.00000000000E+00  0.00000000000E+00 -0.24942303054E+04  0.24942303054E+04  0.25500000920E-02 0.  1.
    10030    2    1    2    0    0  0.00000000000E+00  0.00000000000E+00 -0.10720132750E+04  0.39164473357E+04  0.37668750008E+04 0.  0.
        3    1    3    3  502    0  0.16169209358E+04 -0.57980312922E+03  0.26715079503E+03  0.17383827366E+04  0.10100000352E+00 0. -1.
       -3    1    3    3    0  502 -0.16169209358E+04  0.57980312922E+03 -0.13391640701E+04  0.21780645991E+04  0.10100000352E+00 0.  1.
</event>
<event>
 5   0  0.1648000E-07  0.3795369E+04  0.7818609E-02  0.8047149E-01
        1   -1    0    0  501    0  0.00000000000E+00  0.00000000000E+00  0.16872593983E+04  0.16872593983E+04  0.50400001928E-02 0.  1.
       -1   -1    0    0    0  501  0.00000000000E+00  0.00000000000E+00 -0.21343531223E+04  0.21343531223E+04  0.50400001928E-02 0. -1.
    10030    2    1    2    0    0  0.00000000000E+00  0.00000000000E+00 -0.44709372406E+03  0.38216125206E+04  0.37953694760E+04 0.  0.
        4    1    3    3  502    0 -0.12885724154E+04  0.35668240773E+03  0.11324512932E+04  0.17521668740E+04  0.12699999809E+01 0.  1.
       -4    1    3    3    0  502  0.12885724154E+04 -0.35668240773E+03 -0.15795450173E+04  0.20694456466E+04  0.12699999809E+01 0. -1.
</event>
<event>
 5   0  0.5202788E-07  0.3821776E+04  0.7818609E-02  0.8041498E-01
        2   -1    0    0  501    0  0.00000000000E+00  0.00000000000E+00  0.21178009923E+04  0.21178009923E+04  0.25500000920E-02 0. -1.
       -2   -1    0    0    0  501  0.00000000000E+00  0.00000000000E+00 -0.17241905175E+04  0.17241905175E+04  0.25500000920E-02 0.  1.
    10030    2    1    2    0    0  0.00000000000E+00  0.00000000000E+00  0.39361047477E+03  0.38419915098E+04  0.38217757072E+04 0.  0.
        1    1    3    3  502    0  0.13049049987E+04  0.10090044925E+04 -0.77298682509E+03  0.18216409507E+04  0.50400001928E-02 0.  1.
       -1    1    3    3    0  502 -0.13049049987E+04 -0.10090044925E+04  0.11665972999E+04  0.20203505591E+04  0.50400001928E-02 0. -1.
</event>
<event>
 5   0  0.5158266E-07  0.3764390E+04  0.7818609E-02  0.8053840E-01
       -2   -1    0    0    0  501  0.00000000000E+00  0.00000000000E+00  0.17023964656E+04  0.17023964656E+04  0.25500000920E-02 0. -1.
        2   -1    0    0  501    0  0.00000000000E+00  0.00000000000E+00 -0.20809826619E+04  0.20809826619E+04  0.25500000920E-02 0.  1.
    10030    2    1    2    0    0  0.00000000000E+00  0.00000000000E+00 -0.37858619634E+03  0.37833791275E+04  0.37643897400E+04 0.  0.
        2    1    3    3  502    0  0.16471523935E+04 -0.90486118896E+03 -0.84977663229E+02  0.18812511746E+04  0.25500000920E-02 0. -1.
       -2    1    3    3    0  502 -0.16471523935E+04  0.90486118896E+03 -0.29360853311E+03  0.19021279529E+04  0.25500000920E-02 0.  1.
</event>
<event>
 5   0  0.1648000E-07  0.3786119E+04  0.7818609E-02  0.8049140E-01
       -1   -1    0    0    0  501  0.00000000000E+00  0.00000000000E+00  0.10194234712E+04  0.10194234712E+04  0.50400001928E-02 0.  1.
        1   -1    0    0  501    0  0.00000000000E+00  0.00000000000E+00 -0.35153933005E+04  0.35153933005E+04  0.50400001928E-02 0. -1.
    10030    2    1    2    0    0  0.00000000000E+00  0.00000000000E+00 -0.24959698293E+04  0.45348167718E+04  0.37861190901E+04 0.  0.
        4    1    3    3  502    0 -0.14023320634E+04 -0.82225971439E+02  0.27196468139E+03  0.14308258899E+04  0.12699999809E+01 0.  1.
       -4    1    3    3    0  502  0.14023320634E+04  0.82225971439E+02 -0.27679345107E+04  0.31039908819E+04  0.12699999809E+01 0. -1.
</event>
<event>
 5   0  0.1648000E-07  0.3995712E+04  0.7818609E-02  0.8005412E-01
        1   -1    0    0  501    0  0.00000000000E+00  0.00000000000E+00  0.25408080353E+04  0.25408080353E+04  0.50400001928E-02 0. -1.
       -1   -1    0    0    0  501  0.00000000000E+00  0.00000000000E+00 -0.15709289043E+04  0.15709289043E+04  0.50400001928E-02 0.  1.
    10030    2    1    2    0    0  0.00000000000E+00  0.00000000000E+00  0.96987913095E+03  0.41117369396E+04  0.39957120932E+04 0.  0.
        2    1    3    3  502    0  0.10612189116E+04  0.16892455399E+04  0.59621229247E+03  0.20821155516E+04  0.25500000920E-02 0.  1.
       -2    1    3    3    0  502 -0.10612189116E+04 -0.16892455399E+04  0.37366683848E+03  0.20296213880E+04  0.25500000920E-02 0. -1.
</event>
<event>
 5   0  0.5325362E-07  0.3813475E+04  0.7818609E-02  0.8043269E-01
        2   -1    0    0  501    0  0.00000000000E+00  0.00000000000E+00  0.13164645306E+04  0.13164645306E+04  0.25500000920E-02 0. -1.
       -2   -1    0    0    0  501  0.00000000000E+00  0.00000000000E+00 -0.27616759960E+04  0.27616759960E+04  0.25500000920E-02 0.  1.
    10030    2    1    2    0    0  0.00000000000E+00  0.00000000000E+00 -0.14452114654E+04  0.40781405266E+04  0.38134753146E+04 0.  0.
        4    1    3    3  502    0 -0.10553680624E+04 -0.16715407791E+03 -0.24114172017E+04  0.26375512823E+04  0.12699999809E+01 0.  1.
       -4    1    3    3    0  502  0.10553680624E+04  0.16715407791E+03  0.96620573632E+03  0.14405892443E+04  0.12699999809E+01 0. -1.
</event>
<event>
 5   0  0.5325362E-07  0.3283662E+04  0.7818609E-02  0.8167065E-01
        2   -1    0    0  501    0  0.00000000000E+00  0.00000000000E+00  0.18870643718E+04  0.18870643718E+04  0.25500000920E-02 0.  1.
       -2   -1    0    0    0  501  0.00000000000E+00  0.00000000000E+00 -0.14284665453E+04  0.14284665453E+04  0.25500000920E-02 0. -1.
    10030    2    1    2    0    0  0.00000000000E+00  0.00000000000E+00  0.45859782651E+03  0.33155309171E+04  0.32836615684E+04 0.  0.
        4    1    3    3  502    0  0.99330785008E+03  0.62815626323E+03  0.13868837768E+04  0.18178803589E+04  0.12699999809E+01 0.  1.
       -4    1    3    3    0  502 -0.99330785008E+03 -0.62815626323E+03 -0.92828595030E+03  0.14976505582E+04  0.12699999809E+01 0. -1.
</event>
<event>
 5   0  0.1648000E-07  0.3341194E+04  0.7818609E-02  0.8152492E-01
        1   -1    0    0  501    0  0.00000000000E+00  0.00000000000E+00  0.16108332446E+04  0.16108332446E+04  0.50400001928E-02 0.  1.
       -1   -1    0    0    0  501  0.00000000000E+00  0.00000000000E+00 -0.17325783276E+04  0.17325783276E+04  0.50400001928E-02 0. -1.
    10030    2    1    2    0    0  0.00000000000E+00  0.00000000000E+00 -0.12174508303E+03  0.33434115722E+04  0.33411942590E+04 0.  0.
        4    1    3    3  502    0 -0.85265927162E+03 -0.12124512979E+04 -0.83198576035E+03  0.16997846633E+04  0.12699999809E+01 0. -1.
       -4    1    3    3    0  502  0.85265927162E+03  0.12124512979E+04  0.71024067732E+03  0.16436269090E+04  0.12699999809E+01 0.  1.
</event>
<event>
 5   0  0.1648000E-07  0.3743492E+04  0.7818609E-02  0.8058391E-01
       -1   -1    0    0    0  501  0.00000000000E+00  0.00000000000E+00  0.16954303729E+04  0.16954303729E+04  0.50400001928E-02 0. -1.
        1   -1    0    0  501    0  0.00000000000E+00  0.00000000000E+00 -0.20663974904E+04  0.20663974904E+04  0.50400001928E-02 0.  1.
    10030    2    1    2    0    0  0.00000000000E+00  0.00000000000E+00 -0.37096711749E+03  0.37618278633E+04  0.37434919889E+04 0.  0.
        2    1    3    3  502    0  0.72685494877E+03 -0.37727788228E+03 -0.18768127900E+04  0.20477018742E+04  0.25500000920E-02 0.  1.
       -2    1    3    3    0  502 -0.72685494877E+03  0.37727788228E+03  0.15058456725E+04  0.17141259891E+04  0.25500000920E-02 0. -1.
</event>
<event>
 5   0  0.5134434E-07  0.3823323E+04  0.7818609E-02  0.8041168E-01
        2   -1    0    0  501    0  0.00000000000E+00  0.00000000000E+00  0.17463851672E+04  0.17463851672E+04  0.25500000920E-02 0.  1.
       -2   -1    0    0    0  501  0.00000000000E+00  0.00000000000E+00 -0.20925792295E+04  0.20925792295E+04  0.25500000920E-02 0. -1.
    10030    2    1    2    0    0  0.00000000000E+00  0.00000000000E+00 -0.34619406231E+03  0.38389643967E+04  0.38233228101E+04 0.  0.
        5    1    3    3  502    0  0.67904912757E+03  0.13050255273E+04 -0.13988401406E+04  0.20300185156E+04  0.46999998093E+01 0. -1.
       -5    1    3    3    0  502 -0.67904912757E+03 -0.13050255273E+04  0.10526460783E+04  0.18089458811E+04  0.46999998093E+01 0.  1.
</event>
<event>
 5   0  0.5134434E-07  0.3800939E+04  0.7818609E-02  0.8045953E-01
       -2   -1    0    0    0  501  0.00000000000E+00  0.00000000000E+00  0.28460089631E+04  0.28460089631E+04  0.25500000920E-02 0.  1.
        2   -1    0    0  501    0  0.00000000000E+00  0.00000000000E+00 -0.12690696892E+04  0.12690696892E+04  0.25500000920E-02 0. -1.
    10030    2    1    2    0    0  0.00000000000E+00  0.00000000000E+00  0.15769392739E+04  0.41150786523E+04  0.38009386790E+04 0.  0.
        5    1    3    3  502    0  0.58607141144E+03 -0.12923560496E+04 -0.58016948177E+03  0.15330631350E+04  0.46999998093E+01 0. -1.
       -5    1    3    3    0  502 -0.58607141144E+03  0.12923560496E+04  0.21571087556E+04  0.25820155174E+04  0.46999998093E+01 0.  1.
</event>
<event>
 5   0  0.1656617E-07  0.3519016E+04  0.7818609E-02  0.8109298E-01
       -1   -1    0    0    0  501  0.00000000000E+00  0.00000000000E+00  0.19521648955E+04  0.19521648955E+04  0.50400001928E-02 0.  1.
        1   -1    0    0  501    0  0.00000000000E+00  0.00000000000E+00 -0.15858640940E+04  0.15858640940E+04  0.50400001928E-02 0. -1.
    10030    2    1    2    0    0  0.00000000000E+00  0.00000000000E+00  0.36630080141E+03  0.35380289895E+04  0.35190158928E+04 0.  0.
        5    1    3    3  502    0 -0.13504102013E+04 -0.80485350044E+03  0.97764094828E+03  0.18512700458E+04  0.46999998093E+01 0.  1.
       -5    1    3    3    0  502  0.13504102013E+04  0.80485350044E+03 -0.61134014687E+03  0.16867589437E+04  0.46999998093E+01 0. -1.
</event>
<event>
 5   0  0.5158266E-07  0.4149671E+04  0.7818609E-02  0.7975015E-01
       -2   -1    0    0    0  501  0.00000000000E+00  0.00000000000E+00  0.20418544469E+04  0.20418544469E+04  0.25500000920E-02 0. -1.
        2   -1    0    0  501    0  0.00000000000E+00  0.00000000000E+00 -0.21083494010E+04  0.21083494010E+04  0.25500000920E-02 0.  1.
    10030    2    1    2    0    0  0.00000000000E+00  0.00000000000E+00 -0.66494954150E+02  0.41502038479E+04  0.41496711196E+04 0.  0.
        2    1    3    3  502    0 -0.13852872028E+04  0.13671556694E+04  0.68573794974E+03  0.20635822722E+04  0.25500000920E-02 0. -1.
       -2    1    3    3    0  502  0.13852872028E+04 -0.13671556694E+04 -0.75223290389E+03  0.20866215757E+04  0.25500000920E-02 0.  1.
</event>
<event>
 5   0  0.1648000E-07  0.3845339E+04  0.7818609E-02  0.8036495E-01
       -1   -1    0    0    0  501  0.00000000000E+00  0.00000000000E+00  0.16181217513E+04  0.16181217513E+04  0.50400001928E-02 0.  1.
        1   -1    0    0  501    0  0.00000000000E+00  0.00000000000E+00 -0.22845365709E+04  0.22845365710E+04  0.50400001928E-02 0. -1.
    10030    2    1    2    0    0  0.00000000000E+00  0.00000000000E+00 -0.66641481969E+03  0.39026583222E+04  0.38453391616E+04 0.  0.
        4    1    3    3  502    0  0.12393137125E+03  0.73477049908E+02  0.16126349580E+04  0.16190586717E+04  0.12699999809E+01 0.  1.
       -4    1    3    3    0  502 -0.12393137125E+03 -0.73477049908E+02 -0.22790497777E+04  0.22835996505E+04  0.12699999809E+01 0. -1.
</event>
<event>
 5   0  0.5132561E-07  0.3519127E+04  0.7818609E-02  0.8109272E-01
        2   -1    0    0  501    0  0.00000000000E+00  0.00000000000E+00  0.10935017068E+04  0.10935017068E+04  0.25500000920E-02 0.  1.
       -2   -1    0    0    0  501  0.00000000000E+00  0.00000000000E+00 -0.28313297255E+04  0.28313297255E+04  0.25500000920E-02 0. -1.
    10030    2    1    2    0    0  0.00000000000E+00  0.00000000000E+00 -0.17378280187E+04  0.39248314323E+04  0.35191271005E+04 0.  0.
        3    1    3    3  502    0  0.15380920538E+04 -0.81623341413E+03 -0.58654687967E+03  0.18373898347E+04  0.10100000352E+00 0.  1.
       -3    1    3    3    0  502 -0.15380920538E+04  0.81623341413E+03 -0.11512811390E+04  0.20874415976E+04  0.10100000352E+00 0. -1.
</event>
<event>
 5   0  0.5134434E-07  0.3619468E+04  0.7818609E-02  0.8086047E-01
        2   -1    0    0  501    0  0.00000000000E+00  0.00000000000E+00  0.14406827178E+04  0.14406827178E+04  0.25500000920E-02 0. -1.
       -2   -1    0    0    0  501  0.00000000000E+00  0.00000000000E+00 -0.22733225599E+04  0.22733225599E+04  0.25500000920E-02 0.  1.
    10030    2    1    2    0    0  0.00000000000E+00  0.00000000000E+00 -0.83263984209E+03  0.37140052778E+04  0.36194676538E+04 0.  0.
        5    1    3    3  502    0  0.15224773014E+03  0.44475391300E+03  0.13769328332E+04  0.14549747530E+04  0.46999998093E+01 0. -1.
       -5    1    3    3    0  502 -0.15224773014E+03 -0.44475391300E+03 -0.22095726753E+04  0.22590305248E+04  0.46999998093E+01 0.  1.
</event>
<event>
 5   0  0.5158266E-07  0.3878822E+04  0.7818609E-02  0.8029448E-01
        2   -1    0    0  501    0  0.00000000000E+00  0.00000000000E+00  0.25307305387E+04  0.25307305387E+04  0.25500000920E-02 0.  1.
       -2   -1    0    0    0  501  0.00000000000E+00  0.00000000000E+00 -0.14862569870E+04  0.14862569870E+04  0.25500000920E-02 0. -1.
    10030    2    1    2    0    0  0.00000000000E+00  0.00000000000E+00  0.10444735518E+04  0.40169875257E+04  0.38788224735E+04 0.  0.
        2    1    3    3  502    0  0.82288261937E+03  0.92077995413E+03  0.20709461411E+04  0.24111800946E+04  0.25500000920E-02 0.  1.
       -2    1    3    3    0  502 -0.82288261937E+03 -0.92077995413E+03 -0.10264725893E+04  0.16058074311E+04  0.25500000920E-02 0. -1.
</event>
<event>
 5   0  0.1648000E-07  0.3773727E+04  0.7818609E-02  0.8051817E-01
       -1   -1    0    0    0  501  0.00000000000E+00  0.00000000000E+00  0.17506114256E+04  0.17506114256E+04  0.50400001928E-02 0. -1.
        1   -1    0    0  501    0  0.00000000000E+00  0.00000000000E+00 -0.20337204070E+04  0.20337204070E+04  0.50400001928E-02 0.  1.
    10030    2    1    2    0    0  0.00000000000E+00  0.00000000000E+00 -0.28310898138E+03  0.37843318326E+04  0.37737271660E+04 0.  0.
        3    1    3    3  502    0  0.66723342028E+03  0.25579381054E+03  0.16096699445E+04  0.17611553739E+04  0.10100000352E+00 0. -1.
       -3    1    3    3    0  502 -0.66723342028E+03 -0.25579381054E+03 -0.18927789258E+04  0.20231764587E+04  0.10100000352E+00 0.  1.
</event>
<event>
 5   0  0.5158266E-07  0.3861051E+04  0.7818609E-02  0.8033179E-01
        2   -1    0    0  501    0  0.00000000000E+00  0.00000000000E+00  0.30537776883E+04  0.30537776883E+04  0.25500000920E-02 0. -1.
       -2   -1    0    0    0  501  0.00000000000E+00  0.00000000000E+00 -0.12204324276E+04  0.12204324276E+04  0.25500000920E-02 0.  1.
    10030    2    1    2    0    0  0.00000000000E+00  0.00000000000E+00  0.18333452607E+04  0.42742101159E+04  0.38610513167E+04 0.  0.
        2    1    3    3  502    0  0.39358318860E+03  0.18586669781E+04  0.53740580207E+03  0.19744253994E+04  0.25500000920E-02 0.  1.
       -2    1    3    3    0  502 -0.39358318860E+03 -0.18586669781E+04  0.12959394586E+04  0.22997847165E+04  0.25500000920E-02 0. -1.
</event>
<event>
 5   0  0.1656617E-07  0.3433851E+04  0.7818609E-02  0.8129648E-01
       -1   -1    0    0    0  501  0.00000000000E+00  0.00000000000E+00  0.33631116133E+04  0.33631116133E+04  0.50400001928E-02 0. -1.
        1   -1    0    0  501    0  0.00000000000E+00  0.00000000000E+00 -0.87651940254E+03  0.87651940256E+03  0.50400001928E-02 0.  1.
    10030    2    1    2    0    0  0.00000000000E+00  0.00000000000E+00  0.24865922107E+04  0.42396310158E+04  0.34338506560E+04 0.  0.
        5    1    3    3  502    0  0.86234515096E+03 -0.30618275819E+03 -0.55032811447E+03  0.10678343338E+04  0.46999998093E+01 0.  1.
       -5    1    3    3    0  502 -0.86234515096E+03  0.30618275819E+03  0.30369203252E+04  0.31717966821E+04  0.46999998093E+01 0. -1.
</event>
<event>
 5   0  0.1648000E-07  0.3100718E+04  0.7818609E-02  0.8215541E-01
        1   -1    0    0  501    0  0.00000000000E+00  0.00000000000E+00  0.11394209139E+04  0.11394209139E+04  0.50400001928E-02 0.  1.
       -1   -1    0    0    0  501  0.00000000000E+00  0.00000000000E+00 -0.21095036988E+04  0.21095036988E+04  0.50400001928E-02 0. -1.
    10030    2    1    2    0    0  0.00000000000E+00  0.00000000000E+00 -0.97008278490E+03  0.32489246127E+04  0.31007177442E+04 0.  0.
        4    1    3    3  502    0  0.10099983077E+04 -0.66150263519E+03  0.53403467191E+03  0.13201806549E+04  0.12699999809E+01 0.  1.
       -4    1    3    3    0  502 -0.10099983077E+04  0.66150263519E+03 -0.15041174568E+04  0.19287439578E+04  0.12699999809E+01 0. -1.
</event>
<event>
 5   0  0.5132561E-07  0.3809298E+04  0.7818609E-02  0.8044162E-01
        2   -1    0    0  501    0  0.00000000000E+00  0.00000000000E+00  0.27340658069E+04  0.27340658069E+04  0.25500000920E-02 0.  1.
       -2   -1    0    0    0  501  0.00000000000E+00  0.00000000000E+00 -0.13268476104E+04  0.13268476104E+04  0.25500000920E-02 0. -1.
    10030    2    1    2    0    0  0.00000000000E+00  0.00000000000E+00  0.14072181965E+04  0.40609134173E+04  0.38092984565E+04 0.  0.
        3    1    3    3  502    0 -0.14436521306E+04 -0.12395164649E+04  0.61342750780E+03  0.19992063071E+04  0.10100000352E+00 0. -1.
       -3    1    3    3    0  502  0.14436521306E+04  0.12395164649E+04  0.79379068865E+03  0.20617071102E+04  0.10100000352E+00 0.  1.
</event>
<event>
 5   0  0.1648000E-07  0.3761635E+04  0.7818609E-02  0.8054438E-01
       -1   -1    0    0    0  501  0.00000000000E+00  0.00000000000E+00  0.16137350215E+04  0.16137350215E+04  0.50400001928E-02 0.  1.
        1   -1    0    0  501    0  0.00000000000E+00  0.00000000000E+00 -0.21921031264E+04  0.21921031265E+04  0.50400001928E-02 0. -1.
    10030    2    1    2    0    0  0.00000000000E+00  0.00000000000E+00 -0.57836810496E+03  0.38058381479E+04  0.37616345308E+04 0.  0.
        3    1    3    3  502    0  0.93743493713E+03  0.37845930194E+03 -0.18938411469E+04  0.21467766545E+04  0.10100000352E+00 0. -1.
       -3    1    3    3    0  502 -0.93743493713E+03 -0.37845930194E+03  0.13154730420E+04  0.16590614934E+04  0.10100000352E+00 0.  1.
</event>
<event>
 5   0  0.1648000E-07  0.3598482E+04  0.7818609E-02  0.8090840E-01
        1   -1    0    0  501    0  0.00000000000E+00  0.00000000000E+00  0.24326320695E+04  0.24326320695E+04  0.50400001928E-02 0.  1.
       -1   -1    0    0    0  501  0.00000000000E+00  0.00000000000E+00 -0.13307676394E+04  0.13307676394E+04  0.50400001928E-02 0. -1.
    10030    2    1    2    0    0  0.00000000000E+00  0.00000000000E+00  0.11018644301E+04  0.37633997089E+04  0.35984819225E+04 0.  0.
        2    1    3    3  502    0  0.68756975351E+03 -0.12155327888E+04  0.17373826642E+04  0.22290739441E+04  0.25500000920E-02 0.  1.
       -2    1    3    3    0  502 -0.68756975351E+03  0.12155327888E+04 -0.63551823413E+03  0.15343257648E+04  0.25500000920E-02 0. -1.
</event>
<event>
 5   0  0.1648000E-07  0.3844925E+04  0.7818609E-02  0.8036582E-01
        1   -1    0    0  501    0  0.00000000000E+00  0.00000000000E+00  0.23180437421E+04  0.23180437421E+04  0.50400001928E-02 0. -1.
       -1   -1    0    0    0  501  0.00000000000E+00  0.00000000000E+00 -0.15943883549E+04  0.15943883549E+04  0.50400001928E-02 0.  1.
    10030    2    1    2    0    0  0.00000000000E+00  0.00000000000E+00  0.72365538721E+03  0.39124320971E+04  0.38449249401E+04 0.  0.
        2    1    3    3  502    0  0.97791345020E+03  0.72420748433E+03  0.18762700531E+04  0.22363319317E+04  0.25500000920E-02 0. -1.
       -2    1    3    3    0  502 -0.97791345020E+03 -0.72420748433E+03 -0.11526146659E+04  0.16761001654E+04  0.25500000920E-02 0.  1.
</event>
<event>
 5   0  0.5325362E-07  0.3739686E+04  0.7818609E-02  0.8059223E-01
       -2   -1    0    0    0  501  0.00000000000E+00  0.00000000000E+00  0.13724032088E+04  0.13724032088E+04  0.25500000920E-02 0.  1.
        2   -1    0    0  501    0  0.00000000000E+00  0.00000000000E+00 -0.25475846538E+04  0.25475846538E+04  0.25500000920E-02 0. -1.
    10030    2    1    2    0    0  0.00000000000E+00  0.00000000000E+00 -0.11751814450E+04  0.39199878626E+04  0.37396862722E+04 0.  0.
        4    1    3    3  502    0 -0.64507624758E+03  0.15852408110E+04 -0.13770280233E+04  0.21966610079E+04  0.12699999809E+01 0. -1.
       -4    1    3    3    0  502  0.64507624758E+03 -0.15852408110E+04  0.20184657823E+03  0.17233268547E+04  0.12699999809E+01 0.  1.
</event>
<event>
 5   0  0.1648000E-07  0.3786965E+04  0.7818609E-02  0.8048958E-01
        1   -1    0    0  501    0  0.00000000000E+00  0.00000000000E+00  0.10893846374E+04  0.10893846374E+04  0.50400001928E-02 0.  1.
       -1   -1    0    0    0  501  0.00000000000E+00  0.00000000000E+00 -0.32911027840E+04  0.32911027840E+04  0.50400001928E-02 0. -1.
    10030    2    1    2    0    0  0.00000000000E+00  0.00000000000E+00 -0.22017181466E+04  0.43804874213E+04  0.37869654410E+04 0.  0.
        1    1    3    3  502    0 -0.17542841396E+04 -0.22687472584E+03 -0.18822213526E+04  0.25829715841E+04  0.50400001928E-02 0. -1.
       -1    1    3    3    0  502  0.17542841396E+04  0.22687472584E+03 -0.31949679397E+03  0.17975158373E+04  0.50400001928E-02 0.  1.
</event>
<event>
 5   0  0.1648000E-07  0.3201494E+04  0.7818609E-02  0.8188423E-01
        1   -1    0    0  501    0  0.00000000000E+00  0.00000000000E+00  0.18832814033E+04  0.18832814033E+04  0.50400001928E-02 0.  1.
       -1   -1    0    0    0  501  0.00000000000E+00  0.00000000000E+00 -0.13605989203E+04  0.13605989203E+04  0.50400001928E-02 0. -1.
    10030    2    1    2    0    0  0.00000000000E+00  0.00000000000E+00  0.52268248302E+03  0.32438803236E+04  0.32014938038E+04 0.  0.
        1    1    3    3  502    0  0.91075059648E+03  0.93474846341E+03 -0.67784459442E+03  0.14706102927E+04  0.50400001928E-02 0. -1.
       -1    1    3    3    0  502 -0.91075059648E+03 -0.93474846341E+03  0.12005270774E+04  0.17732700309E+04  0.50400001928E-02 0.  1.
</event>
<event>
 5   0  0.5134434E-07  0.3916215E+04  0.7818609E-02  0.8021665E-01
       -2   -1    0    0    0  501  0.00000000000E+00  0.00000000000E+00  0.14499915109E+04  0.14499915109E+04  0.25500000920E-02 0.  1.
        2   -1    0    0  501    0  0.00000000000E+00  0.00000000000E+00 -0.26442814810E+04  0.26442814810E+04  0.25500000920E-02 0. -1.
    10030    2    1    2    0    0  0.00000000000E+00  0.00000000000E+00 -0.11942899701E+04  0.40942729919E+04  0.39162153669E+04 0.  0.
        5    1    3    3  502    0  0.70914493282E+03 -0.11413895549E+03  0.13072838119E+04  0.14916190169E+04  0.46999998093E+01 0.  1.
       -5    1    3    3    0  502 -0.70914493282E+03  0.11413895549E+03 -0.25015737820E+04  0.26026539750E+04  0.46999998093E+01 0. -1.
</event>
<event>
 5   0  0.5202788E-07  0.3455521E+04  0.7818609E-02  0.8124412E-01
        2   -1    0    0  501    0  0.00000000000E+00  0.00000000000E+00  0.14266813949E+04  0.14266813949E+04  0.25500000920E-02 0.  1.
       -2   -1    0    0    0  501  0.00000000000E+00  0.00000000000E+00 -0.20923781318E+04  0.20923781318E+04  0.25500000920E-02 0. -1.
    10030    2    1    2    0    0  0.00000000000E+00  0.00000000000E+00 -0.66569673685E+03  0.35190595267E+04  0.34555213509E+04 0.  0.
        1    1    3    3  502    0  0.93435982203E+03  0.13281314451E+04 -0.93377940382E+03  0.18732072463E+04  0.50400001928E-02 0. -1.
       -1    1    3    3    0  502 -0.93435982203E+03 -0.13281314451E+04  0.26808266697E+03  0.16458522804E+04  0.50400001928E-02 0.  1.
</event>
<event>
 5   0  0.5202788E-07  0.3818456E+04  0.7818609E-02  0.8042206E-01
       -2   -1    0    0    0  501  0.00000000000E+00  0.00000000000E+00  0.17932109905E+04  0.17932109905E+04  0.25500000920E-02 0.  1.
        2   -1    0    0  501    0  0.00000000000E+00  0.00000000000E+00 -0.20327514776E+04  0.20327514776E+04  0.25500000920E-02 0. -1.
    10030    2    1    2    0    0  0.00000000000E+00  0.00000000000E+00 -0.23954048709E+03  0.38259624682E+04  0.38184563848E+04 0.  0.
        1    1    3    3  502    0  0.58687275872E+03 -0.66929404410E+03  0.15725668353E+04  0.18070253468E+04  0.50400001928E-02 0.  1.
       -1    1    3    3    0  502 -0.58687275872E+03  0.66929404410E+03 -0.18121073224E+04  0.20189371214E+04  0.50400001928E-02 0. -1.
</event>
<event>
 5   0  0.1648000E-07  0.3791707E+04  0.7818609E-02  0.8047937E-01
       -1   -1    0    0    0  501  0.00000000000E+00  0.00000000000E+00  0.17574502994E+04  0.17574502994E+04  0.50400001928E-02 0. -1.
        1   -1    0    0  501    0  0.00000000000E+00  0.00000000000E+00 -0.20451567467E+04  0.20451567467E+04  0.50400001928E-02 0.  1.
    10030    2    1    2    0    0  0.00000000000E+00  0.00000000000E+00 -0.28770644728E+03  0.38026070461E+04  0.37917074448E+04 0.  0.
        3    1    3    3  502    0  0.79966789709E+03 -0.48584556278E+02  0.15793503562E+04  0.17709253972E+04  0.10100000352E+00 0. -1.
       -3    1    3    3    0  502 -0.79966789709E+03  0.48584556278E+02 -0.18670568035E+04  0.20316816489E+04  0.10100000352E+00 0.  1.
</event>
<event>
 5   0  0.5134434E-07  0.3820823E+04  0.7818609E-02  0.8041701E-01
        2   -1    0    0  501    0  0.00000000000E+00  0.00000000000E+00  0.24053564377E+04  0.24053564377E+04  0.25500000920E-02 0.  1.
       -2   -1    0    0    0  501  0.00000000000E+00  0.00000000000E+00 -0.15173101037E+04  0.15173101037E+04  0.25500000920E-02 0. -1.
    10030    2    1    2    0    0  0.00000000000E+00  0.00000000000E+00  0.88804633397E+03  0.39226665414E+04  0.38208227522E+04 0.  0.
        5    1    3    3  502    0  0.13280702175E+04 -0.10782021162E+04 -0.42915227662E+03  0.17636564497E+04  0.46999998093E+01 0. -1.
       -5    1    3    3    0  502 -0.13280702175E+04  0.10782021162E+04  0.13171986106E+04  0.21590100917E+04  0.46999998093E+01 0.  1.
</event>
<event>
 5   0  0.5158266E-07  0.3850450E+04  0.7818609E-02  0.8035414E-01
       -2   -1    0    0    0  501  0.00000000000E+00  0.00000000000E+00  0.32300615848E+04  0.32300615848E+04  0.25500000920E-02 0. -1.
        2   -1    0    0  501    0  0.00000000000E+00  0.00000000000E+00 -0.11474988612E+04  0.11474988612E+04  0.25500000920E-02 0.  1.
    10030    2    1    2    0    0  0.00000000000E+00  0.00000000000E+00  0.20825627236E+04  0.43775604460E+04  0.38504503581E+04 0.  0.
        2    1    3    3  502    0 -0.18736075462E+04 -0.96386099860E+02  0.54991552426E+03  0.19550198467E+04  0.25500000920E-02 0. -1.
       -2    1    3    3    0  502  0.18736075462E+04  0.96386099860E+02  0.15326471993E+04  0.24225405992E+04  0.25500000920E-02 0.  1.
</event>
<event>
 5   0  0.1656617E-07  0.3797959E+04  0.7818609E-02  0.8046593E-01
       -1   -1    0    0    0  501  0.00000000000E+00  0.00000000000E+00  0.14620157732E+04  0.14620157732E+04  0.50400001928E-02 0.  1.
        1   -1    0    0  501    0  0.00000000000E+00  0.00000000000E+00 -0.24665424530E+04  0.24665424530E+04  0.50400001928E-02 0. -1.
    10030    2    1    2    0    0  0.00000000000E+00  0.00000000000E+00 -0.10045266797E+04  0.39285582262E+04  0.37979594372E+04 0.  0.
        5    1    3    3  502    0  0.86547894979E+03 -0.87039826659E+03 -0.20010373373E+04  0.23475134654E+04  0.46999998093E+01 0. -1.
       -5    1    3    3    0  502 -0.86547894979E+03  0.87039826659E+03  0.99651065757E+03  0.15810447608E+04  0.46999998093E+01 0.  1.
</event>
<event>
 5   0  0.5202788E-07  0.3747218E+04  0.7818609E-02  0.8057578E-01
       -2   -1    0    0    0  501  0.00000000000E+00  0.00000000000E+00  0.18900038601E+04  0.18900038601E+04  0.25500000920E-02 0. -1.
        2   -1    0    0  501    0  0.00000000000E+00  0.00000000000E+00 -0.18573563581E+04  0.18573563581E+04  0.25500000920E-02 0.  1.
    10030    2    1    2    0    0  0.00000000000E+00  0.00000000000E+00  0.32647501987E+02  0.37473602181E+04  0.37472180007E+04 0.  0.
        1    1    3    3  502    0  0.91165904486E+03  0.40984745329E+03 -0.15684488395E+04  0.18598733589E+04  0.50400001928E-02 0.  1.
       -1    1    3    3    0  502 -0.91165904486E+03 -0.40984745329E+03  0.16010963415E+04  0.18874868592E+04  0.50400001928E-02 0. -1.
</event>
<event>
 5   0  0.5325362E-07  0.3827927E+04  0.7818609E-02  0.8040188E-01
       -2   -1    0    0    0  501  0.00000000000E+00  0.00000000000E+00  0.21666036353E+04  0.21666036353E+04  0.25500000920E-02 0.  1.
        2   -1    0    0  501    0  0.00000000000E+00  0.00000000000E+00 -0.16907831420E+04  0.16907831420E+04  0.25500000920E-02 0. -1.
    10030    2    1    2    0    0  0.00000000000E+00  0.00000000000E+00  0.47582049328E+03  0.38573867772E+04  0.38279273252E+04 0.  0.
        4    1    3    3  502    0  0.64583614503E+03  0.16266296896E+04 -0.54279518432E+03  0.18323909785E+04  0.12699999809E+01 0.  1.
       -4    1    3    3    0  502 -0.64583614503E+03 -0.16266296896E+04  0.10186156776E+04  0.20249957987E+04  0.12699999809E+01 0. -1.
</event>
<event>
 5   0  0.5202788E-07  0.3702554E+04  0.7818609E-02  0.8067396E-01
       -2   -1    0    0    0  501  0.00000000000E+00  0.00000000000E+00  0.17673678572E+04  0.17673678572E+04  0.25500000920E-02 0. -1.
        2   -1    0    0  501    0  0.00000000000E+00  0.00000000000E+00 -0.19391695451E+04  0.19391695451E+04  0.25500000920E-02 0.  1.
    10030    2    1    2    0    0  0.00000000000E+00  0.00000000000E+00 -0.17180168796E+03  0.37065374023E+04  0.37025536721E+04 0.  0.
        1    1    3    3  502    0 -0.89814473539E+02  0.10084492234E+04  0.14656665758E+04  0.17813520111E+04  0.50400001928E-02 0. -1.
       -1    1    3    3    0  502  0.89814473539E+02 -0.10084492234E+04 -0.16374682638E+04  0.19251853913E+04  0.50400001928E-02 0.  1.
</event>
<event>
 5   0  0.5158266E-07  0.3733675E+04  0.7818609E-02  0.8060540E-01
        2   -1    0    0  501    0  0.00000000000E+00  0.00000000000E+00  0.19067396993E+04  0.19067396993E+04  0.25500000920E-02 0.  1.
       -2   -1    0    0    0  501  0.00000000000E+00  0.00000000000E+00 -0.18277706498E+04  0.18277706498E+04  0.25500000920E-02 0. -1.
    10030    2    1    2    0    0  0.00000000000E+00  0.00000000000E+00  0.78969049544E+02  0.37345103491E+04  0.37336753256E+04 0.  0.
        2    1    3    3  502    0  0.58783005360E+03 -0.97044367272E+03  0.15223064716E+04  0.18986105676E+04  0.25500000920E-02 0.  1.
       -2    1    3    3    0  502 -0.58783005360E+03  0.97044367272E+03 -0.14433374221E+04  0.18358997815E+04  0.25500000920E-02 0. -1.
</event>
<event>
 5   0  0.1648000E-07  0.3810828E+04  0.7818609E-02  0.8043835E-01
        1   -1    0    0  501    0  0.00000000000E+00  0.00000000000E+00  0.20110215433E+04  0.20110215433E+04  0.50400001928E-02 0. -1.
       -1   -1    0    0    0  501  0.00000000000E+00  0.00000000000E+00 -0.18053520690E+04  0.18053520690E+04  0.50400001928E-02 0.  1.
    10030    2    1    2    0    0  0.00000000000E+00  0.00000000000E+00  0.20566947430E+03  0.38163736122E+04  0.38108276811E+04 0.  0.
        2    1    3    3  502    0 -0.62019753052E+03  0.41811113643E+03  0.18578519516E+04  0.20027670293E+04  0.25500000920E-02 0. -1.
       -2    1    3    3    0  502  0.62019753052E+03 -0.41811113643E+03 -0.16521824773E+04  0.18136065830E+04  0.25500000920E-02 0.  1.
</event>
<event>
 5   0  0.1648000E-07  0.2991417E+04  0.7818609E-02  0.8246186E-01
       -1   -1    0    0    0  501  0.00000000000E+00  0.00000000000E+00  0.81214424578E+03  0.81214424580E+03  0.50400001928E-02 0. -1.
        1   -1    0    0  501    0  0.00000000000E+00  0.00000000000E+00 -0.27546136885E+04  0.27546136885E+04  0.50400001928E-02 0.  1.
    10030    2    1    2    0    0  0.00000000000E+00  0.00000000000E+00 -0.19424694427E+04  0.35667579343E+04  0.29914168259E+04 0.  0.
        2    1    3    3  502    0  0.11764336596E+04  0.87183026408E+03 -0.13349629790E+04  0.19814667093E+04  0.25500000920E-02 0. -1.
       -2    1    3    3    0  502 -0.11764336596E+04 -0.87183026408E+03 -0.60750646377E+03  0.15852912251E+04  0.25500000920E-02 0.  1.
</event>
<event>
 5   0  0.5202788E-07  0.3776727E+04  0.7818609E-02  0.8051168E-01
       -2   -1    0    0    0  501  0.00000000000E+00  0.00000000000E+00  0.18513914357E+04  0.18513914357E+04  0.25500000920E-02 0. -1.
        2   -1    0    0  501    0  0.00000000000E+00  0.00000000000E+00 -0.19260741585E+04  0.19260741585E+04  0.25500000920E-02 0.  1.
    10030    2    1    2    0    0  0.00000000000E+00  0.00000000000E+00 -0.74682722870E+02  0.37774655942E+04  0.37767272613E+04 0.  0.
        1    1    3    3  502    0 -0.14405575897E+04 -0.59543483999E+03  0.10287790157E+04  0.18676549684E+04  0.50400001928E-02 0. -1.
       -1    1    3    3    0  502  0.14405575897E+04  0.59543483999E+03 -0.11034617385E+04  0.19098106258E+04  0.50400001928E-02 0.  1.
</event>
<event>
 5   0  0.1648000E-07  0.3806192E+04  0.7818609E-02  0.8044827E-01
       -1   -1    0    0    0  501  0.00000000000E+00  0.00000000000E+00  0.19906331014E+04  0.19906331014E+04  0.50400001928E-02 0. -1.
        1   -1    0    0  501    0  0.00000000000E+00  0.00000000000E+00 -0.18194083355E+04  0.18194083355E+04  0.50400001928E-02 0.  1.
    10030    2    1    2    0    0  0.00000000000E+00  0.00000000000E+00  0.17122476591E+03  0.38100414369E+04  0.38061920380E+04 0.  0.
        1    1    3    3  502    0 -0.87134686142E+03  0.14447481774E+04  0.96697534193E+03  0.19446295177E+04  0.50400001928E-02 0. -1.
       -1    1    3    3    0  502  0.87134686142E+03 -0.14447481774E+04 -0.79575057602E+03  0.18654119192E+04  0.50400001928E-02 0.  1.
</event>
<event>
 5   0  0.1656617E-07  0.3846587E+04  0.7818609E-02  0.8036231E-01
        1   -1    0    0  501    0  0.00000000000E+00  0.00000000000E+00  0.22413229507E+04  0.22413229507E+04  0.50400001928E-02 0. -1.
       -1   -1    0    0    0  501  0.00000000000E+00  0.00000000000E+00 -0.16503901758E+04  0.16503901758E+04  0.50400001928E-02 0.  1.
    10030    2    1    2    0    0  0.00000000000E+00  0.00000000000E+00  0.59093277487E+03  0.38917131265E+04  0.38465867356E+04 0.  0.
        5    1    3    3  502    0  0.31507830651E+03  0.39942314137E+03 -0.15810766558E+04  0.16609150088E+04  0.46999998093E+01 0.  1.
       -5    1    3    3    0  502 -0.31507830651E+03 -0.39942314137E+03  0.21720094306E+04  0.22307981177E+04  0.46999998093E+01 0. -1.
</event>
<event>
 5   0  0.5202788E-07  0.3719469E+04  0.7818609E-02  0.8063661E-01
        2   -1    0    0  501    0  0.00000000000E+00  0.00000000000E+00  0.17212696239E+04  0.17212696239E+04  0.25500000920E-02 0.  1.
       -2   -1    0    0    0  501  0.00000000000E+00  0.00000000000E+00 -0.20093377485E+04  0.20093377485E+04  0.25500000920E-02 0. -1.
    10030    2    1    2    0    0  0.00000000000E+00  0.00000000000E+00 -0.28806812455E+03  0.37306073724E+04  0.37194687957E+04 0.  0.
        1    1    3    3  502    0  0.73075112484E+03 -0.17069735760E+04 -0.39529742908E+02  0.18572341253E+04  0.50400001928E-02 0. -1.
       -1    1    3    3    0  502 -0.73075112484E+03  0.17069735760E+04 -0.24853838164E+03  0.18733732471E+04  0.50400001928E-02 0.  1.
</event>
<event>
 5   0  0.1648000E-07  0.3602892E+04  0.7818609E-02  0.8089830E-01
       -1   -1    0    0    0  501  0.00000000000E+00  0.00000000000E+00  0.11601378310E+04  0.11601378310E+04  0.50400001928E-02 0.  1.
        1   -1    0    0  501    0  0.00000000000E+00  0.00000000000E+00 -0.27972608588E+04  0.27972608588E+04  0.50400001928E-02 0. -1.
    10030    2    1    2    0    0  0.00000000000E+00  0.00000000000E+00 -0.16371230279E+04  0.39573986898E+04  0.36028922523E+04 0.  0.
        4    1    3    3  502    0 -0.10028687752E+04 -0.93573070792E+02 -0.24590741707E+04  0.26573575390E+04  0.12699999809E+01 0. -1.
       -4    1    3    3    0  502  0.10028687752E+04  0.93573070792E+02  0.82195114285E+03  0.13000411509E+04  0.12699999809E+01 0.  1.
</event>
<event>
 5   0  0.5158266E-07  0.3816050E+04  0.7818609E-02  0.8042719E-01
       -2   -1    0    0    0  501  0.00000000000E+00  0.00000000000E+00  0.17056304716E+04  0.17056304716E+04  0.25500000920E-02 0.  1.
        2   -1    0    0  501    0  0.00000000000E+00  0.00000000000E+00 -0.21344356672E+04  0.21344356672E+04  0.25500000920E-02 0. -1.
    10030    2    1    2    0    0  0.00000000000E+00  0.00000000000E+00 -0.42880519566E+03  0.38400661388E+04  0.38160495351E+04 0.  0.
        2    1    3    3  502    0 -0.13565844761E+04  0.28592352281E+03  0.11047576329E+04  0.17727275959E+04  0.25500000920E-02 0.  1.
       -2    1    3    3    0  502  0.13565844761E+04 -0.28592352281E+03 -0.15335628286E+04  0.20673385429E+04  0.25500000920E-02 0. -1.
</event>
<event>
 5   0  0.1648000E-07  0.3714214E+04  0.7818609E-02  0.8064819E-01
       -1   -1    0    0    0  501  0.00000000000E+00  0.00000000000E+00  0.16550743381E+04  0.16550743381E+04  0.50400001928E-02 0.  1.
        1   -1    0    0  501    0  0.00000000000E+00  0.00000000000E+00 -0.20838011433E+04  0.20838011433E+04  0.50400001928E-02 0. -1.
    10030    2    1    2    0    0  0.00000000000E+00  0.00000000000E+00 -0.42872680512E+03  0.37388754814E+04  0.37142136707E+04 0.  0.
        4    1    3    3  502    0  0.33184436056E+03 -0.71337756656E+03  0.14790118668E+04  0.16752629487E+04  0.12699999809E+01 0.  1.
       -4    1    3    3    0  502 -0.33184436056E+03  0.71337756656E+03 -0.19077386719E+04  0.20636125327E+04  0.12699999809E+01 0. -1.
</event>
<event>
 5   0  0.1648000E-07  0.3873134E+04  0.7818609E-02  0.8030640E-01
        1   -1    0    0  501    0  0.00000000000E+00  0.00000000000E+00  0.22651023863E+04  0.22651023863E+04  0.50400001928E-02 0. -1.
       -1   -1    0    0    0  501  0.00000000000E+00  0.00000000000E+00 -0.16556834288E+04  0.16556834288E+04  0.50400001928E-02 0.  1.
    10030    2    1    2    0    0  0.00000000000E+00  0.00000000000E+00  0.60941895756E+03  0.39207858151E+04  0.38731343822E+04 0.  0.
        1    1    3    3  502    0 -0.17427491763E+04  0.51416058288E+03 -0.37342530347E+03  0.18549884781E+04  0.50400001928E-02 0.  1.
       -1    1    3    3    0  502  0.17427491763E+04 -0.51416058288E+03  0.98284426104E+03  0.20657973371E+04  0.50400001928E-02 0. -1.
</event>
<event>
 5   0  0.5134434E-07  0.2975671E+04  0.7818609E-02  0.8250712E-01
        2   -1    0    0  501    0  0.00000000000E+00  0.00000000000E+00  0.15709615930E+04  0.15709615930E+04  0.25500000920E-02 0. -1.
       -2   -1    0    0    0  501  0.00000000000E+00  0.00000000000E+00 -0.14091081230E+04  0.14091081230E+04  0.25500000920E-02 0.  1.
    10030    2    1    2    0    0  0.00000000000E+00  0.00000000000E+00  0.16185347001E+03  0.29800697160E+04  0.29756711792E+04 0.  0.
        5    1    3    3  502    0  0.72250133445E+03 -0.17024868143E+03 -0.12104131928E+04  0.14198996369E+04  0.46999998093E+01 0.  1.
       -5    1    3    3    0  502 -0.72250133445E+03  0.17024868143E+03  0.13722666628E+04  0.15601700790E+04  0.46999998093E+01 0. -1.
</event>
<event>
 5   0  0.1648000E-07  0.3794583E+04  0.7818609E-02  0.8047318E-01
        1   -1    0    0  501    0  0.00000000000E+00  0.00000000000E+00  0.22215257400E+04  0.22215257400E+04  0.50400001928E-02 0.  1.
       -1   -1    0    0    0  501  0.00000000000E+00  0.00000000000E+00 -0.16203794095E+04  0.16203794095E+04  0.50400001928E-02 0. -1.
    10030    2    1    2    0    0  0.00000000000E+00  0.00000000000E+00  0.60114633053E+03  0.38419051495E+04  0.37945827527E+04 0.  0.
        3    1    3    3  502    0 -0.17779737199E+04  0.31491509677E+03 -0.28923140044E+03  0.18286653275E+04  0.10100000352E+00 0. -1.
       -3    1    3    3    0  502  0.17779737199E+04 -0.31491509677E+03  0.89037773097E+03  0.20132398220E+04  0.10100000352E+00 0.  1.
</event>
<event>
 5   0  0.1656617E-07  0.3781174E+04  0.7818609E-02  0.8050207E-01
       -1   -1    0    0    0  501  0.00000000000E+00  0.00000000000E+00  0.17428166546E+04  0.17428166546E+04  0.50400001928E-02 0.  1.
        1   -1    0    0  501    0  0.00000000000E+00  0.00000000000E+00 -0.20508868617E+04  0.20508868617E+04  0.50400001928E-02 0. -1.
    10030    2    1    2    0    0  0.00000000000E+00  0.00000000000E+00 -0.30807020710E+03  0.37937035164E+04  0.37811743041E+04 0.  0.
        5    1    3    3  502    0  0.66169574145E+03 -0.74696474487E+03  0.14570566176E+04  0.17660219878E+04  0.46999998093E+01 0.  1.
       -5    1    3    3    0  502 -0.66169574145E+03  0.74696474487E+03 -0.17651268247E+04  0.20276815286E+04  0.46999998093E+01 0. -1.
</event>
<event>
 5   0  0.5158266E-07  0.4024071E+04  0.7818609E-02  0.7999708E-01
       -2   -1    0    0    0  501  0.00000000000E+00  0.00000000000E+00  0.17445281738E+04  0.17445281738E+04  0.25500000920E-02 0. -1.
        2   -1    0    0  501    0  0.00000000000E+00  0.00000000000E+00 -0.23205629453E+04  0.23205629453E+04  0.25500000920E-02 0.  1.
    10030    2    1    2    0    0  0.00000000000E+00  0.00000000000E+00 -0.57603477149E+03  0.40650911191E+04  0.40240712902E+04 0.  0.
        2    1    3    3  502    0  0.65018559843E+03 -0.11643304569E+03  0.16318792895E+04  0.17604908355E+04  0.25500000920E-02 0. -1.
       -2    1    3    3    0  502 -0.65018559843E+03  0.11643304569E+03 -0.22079140609E+04  0.23046002836E+04  0.25500000920E-02 0.  1.
</event>
<event>
 5   0  0.5325362E-07  0.3834149E+04  0.7818609E-02  0.8038866E-01
       -2   -1    0    0    0  501  0.00000000000E+00  0.00000000000E+00  0.15561365813E+04  0.15561365813E+04  0.25500000920E-02 0.  1.
        2   -1    0    0  501    0  0.00000000000E+00  0.00000000000E+00 -0.23617303294E+04  0.23617303294E+04  0.25500000920E-02 0. -1.
    10030    2    1    2    0    0  0.00000000000E+00  0.00000000000E+00 -0.80559374805E+03  0.39178669107E+04  0.38341491681E+04 0.  0.
        4    1    3    3  502    0 -0.12689684170E+04  0.12391135941E+04  0.34075206335E+03  0.18060445520E+04  0.12699999809E+01 0.  1.
       -4    1    3    3    0  502  0.12689684170E+04 -0.12391135941E+04 -0.11463458114E+04  0.21118223587E+04  0.12699999809E+01 0. -1.
</event>
<event>
 5   0  0.1648000E-07  0.3395638E+04  0.7818609E-02  0.8138978E-01
       -1   -1    0    0    0  501  0.00000000000E+00  0.00000000000E+00  0.10752080542E+04  0.10752080542E+04  0.50400001928E-02 0. -1.
        1   -1    0    0  501    0  0.00000000000E+00  0.00000000000E+00 -0.26809601255E+04  0.26809601255E+04  0.50400001928E-02 0.  1.
    10030    2    1    2    0    0  0.00000000000E+00  0.00000000000E+00 -0.16057520713E+04  0.37561681796E+04  0.33956383316E+04 0.  0.
        3    1    3    3  502    0  0.85258238080E+03 -0.76925913846E+02 -0.24247614424E+04  0.25714358586E+04  0.10100000352E+00 0.  1.
       -3    1    3    3    0  502 -0.85258238080E+03  0.76925913846E+02  0.81900937112E+03  0.11847323210E+04  0.10100000352E+00 0. -1.
</event>
<event>
 5   0  0.5158266E-07  0.3835705E+04  0.7818609E-02  0.8038536E-01
       -2   -1    0    0    0  501  0.00000000000E+00  0.00000000000E+00  0.14815223704E+04  0.14815223704E+04  0.25500000920E-02 0. -1.
        2   -1    0    0  501    0  0.00000000000E+00  0.00000000000E+00 -0.24826884889E+04  0.24826884889E+04  0.25500000920E-02 0.  1.
    10030    2    1    2    0    0  0.00000000000E+00  0.00000000000E+00 -0.10011661185E+04  0.39642108593E+04  0.38357051685E+04 0.  0.
        2    1    3    3  502    0 -0.44342756316E+03  0.59889238289E+03 -0.23269484908E+04  0.24433561691E+04  0.25500000920E-02 0.  1.
       -2    1    3    3    0  502  0.44342756316E+03 -0.59889238289E+03  0.13257823723E+04  0.15208546902E+04  0.25500000920E-02 0. -1.
</event>
<event>
 5   0  0.5325362E-07  0.3804854E+04  0.7818609E-02  0.8045114E-01
       -2   -1    0    0    0  501  0.00000000000E+00  0.00000000000E+00  0.12681255979E+04  0.12681255979E+04  0.25500000920E-02 0.  1.
        2   -1    0    0  501    0  0.00000000000E+00  0.00000000000E+00 -0.28539981963E+04  0.28539981963E+04  0.25500000920E-02 0. -1.
    10030    2    1    2    0    0  0.00000000000E+00  0.00000000000E+00 -0.15858725984E+04  0.41221237943E+04  0.38048538312E+04 0.  0.
        4    1    3    3  502    0  0.68415566837E+03 -0.16195611710E+04 -0.15802969313E+04  0.23639770239E+04  0.12699999809E+01 0.  1.
       -4    1    3    3    0  502 -0.68415566837E+03  0.16195611710E+04 -0.55756670827E+01  0.17581467704E+04  0.12699999809E+01 0. -1.
</event>
<event>
 5   0  0.5132561E-07  0.3832930E+04  0.7818609E-02  0.8039125E-01
        2   -1    0    0  501    0  0.00000000000E+00  0.00000000000E+00  0.22317441239E+04  0.22317441239E+04  0.25500000920E-02 0. -1.
       -2   -1    0    0    0  501  0.00000000000E+00  0.00000000000E+00 -0.16457256421E+04  0.16457256421E+04  0.25500000920E-02 0.  1.
    10030    2    1    2    0    0  0.00000000000E+00  0.00000000000E+00  0.58601848185E+03  0.38774697660E+04  0.38329302270E+04 0.  0.
        3    1    3    3  502    0  0.59748773940E+03  0.97402469359E+03 -0.12634147000E+04  0.17035059192E+04  0.10100000352E+00 0.  1.
       -3    1    3    3    0  502 -0.59748773940E+03 -0.97402469359E+03  0.18494331819E+04  0.21739638467E+04  0.10100000352E+00 0. -1.
</event>
<event>
 5   0  0.1656617E-07  0.3849927E+04  0.7818609E-02  0.8035525E-01
       -1   -1    0    0    0  501  0.00000000000E+00  0.00000000000E+00  0.23694065782E+04  0.23694065782E+04  0.50400001928E-02 0.  1.
        1   -1    0    0  501    0  0.00000000000E+00  0.00000000000E+00 -0.15638868616E+04  0.15638868617E+04  0.50400001928E-02 0. -1.
    10030    2    1    2    0    0  0.00000000000E+00  0.00000000000E+00  0.80551971655E+03  0.39332934399E+04  0.38499266578E+04 0.  0.
        5    1    3    3  502    0  0.10943649470E+02  0.58339428584E+03  0.22768737454E+04  0.23504562959E+04  0.46999998093E+01 0.  1.
       -5    1    3    3    0  502 -0.10943649470E+02 -0.58339428584E+03 -0.14713540289E+04  0.15828371440E+04  0.46999998093E+01 0. -1.
</event>
<event>
 5   0  0.5158266E-07  0.3837386E+04  0.7818609E-02  0.8038179E-01
       -2   -1    0    0    0  501  0.00000000000E+00  0.00000000000E+00  0.15177469986E+04  0.15177469986E+04  0.25500000920E-02 0.  1.
        2   -1    0    0  501    0  0.00000000000E+00  0.00000000000E+00 -0.24255580376E+04  0.24255580376E+04  0.25500000920E-02 0. -1.
    10030    2    1    2    0    0  0.00000000000E+00  0.00000000000E+00 -0.90781103901E+03  0.39433050362E+04  0.38373863145E+04 0.  0.
        2    1    3    3  502    0 -0.94956500919E+03  0.15393300158E+04  0.20421933768E+03  0.18201417917E+04  0.25500000920E-02 0.  1.
       -2    1    3    3    0  502  0.94956500919E+03 -0.15393300158E+04 -0.11120303767E+04  0.21231632445E+04  0.25500000920E-02 0. -1.
</event>
<event>
 5   0  0.1648000E-07  0.3789782E+04  0.7818609E-02  0.8048351E-01
       -3   -1    0    0    0  501  0.00000000000E+00  0.00000000000E+00  0.19702967515E+04  0.19702967541E+04  0.10100000352E+00 0.  1.
        3   -1    0    0  501    0  0.00000000000E+00  0.00000000000E+00 -0.18223708208E+04  0.18223708236E+04  0.10100000352E+00 0. -1.
    10030    2    1    2    0    0  0.00000000000E+00  0.00000000000E+00  0.14792593077E+03  0.37926675777E+04  0.37897816921E+04 0.  0.
        3    1    3    3  502    0 -0.15487078611E+04 -0.41524306743E+03  0.10845281652E+04  0.19357490011E+04  0.10100000352E+00 0. -1.
       -3    1    3    3    0  502  0.15487078611E+04  0.41524306743E+03 -0.93660223448E+03  0.18569185765E+04  0.10100000352E+00 0.  1.
</event>
<event>
 5   0  0.1648000E-07  0.3829526E+04  0.7818609E-02  0.8039848E-01
        1   -1    0    0  501    0  0.00000000000E+00  0.00000000000E+00  0.13452602996E+04  0.13452602996E+04  0.50400001928E-02 0. -1.
       -1   -1    0    0    0  501  0.00000000000E+00  0.00000000000E+00 -0.27253589870E+04  0.27253589870E+04  0.50400001928E-02 0.  1.
    10030    2    1    2    0    0  0.00000000000E+00  0.00000000000E+00 -0.13800986874E+04  0.40706192867E+04  0.38295259485E+04 0.  0.
        4    1    3    3  502    0 -0.20052977612E+03 -0.11090703527E+04 -0.23354243409E+04  0.25931559350E+04  0.12699999809E+01 0.  1.
       -4    1    3    3    0  502  0.20052977612E+03  0.11090703527E+04  0.95532565344E+03  0.14774633516E+04  0.12699999809E+01 0. -1.
</event>
<event>
 5   0  0.5158266E-07  0.3843680E+04  0.7818609E-02  0.8036846E-01
        2   -1    0    0  501    0  0.00000000000E+00  0.00000000000E+00  0.23386766963E+04  0.23386766963E+04  0.25500000920E-02 0.  1.
       -2   -1    0    0    0  501  0.00000000000E+00  0.00000000000E+00 -0.15792983160E+04  0.15792983160E+04  0.25500000920E-02 0. -1.
    10030    2    1    2    0    0  0.00000000000E+00  0.00000000000E+00  0.75937838031E+03  0.39179750124E+04  0.38436795747E+04 0.  0.
        2    1    3    3  502    0  0.23004316572E+03  0.81215679952E+03  0.21396046478E+04  0.23000927316E+04  0.25500000920E-02 0.  1.
       -2    1    3    3    0  502 -0.23004316572E+03 -0.81215679952E+03 -0.13802262675E+04  0.16178822808E+04  0.25500000920E-02 0. -1.
</event>
<event>
 5   0  0.1656617E-07  0.3769171E+04  0.7818609E-02  0.8052803E-01
       -1   -1    0    0    0  501  0.00000000000E+00  0.00000000000E+00  0.21597127194E+04  0.21597127194E+04  0.50400001928E-02 0. -1.
        1   -1    0    0  501    0  0.00000000000E+00  0.00000000000E+00 -0.16445065091E+04  0.16445065091E+04  0.50400001928E-02 0.  1.
    10030    2    1    2    0    0  0.00000000000E+00  0.00000000000E+00  0.51520621030E+03  0.38042192286E+04  0.37691705321E+04 0.  0.
        5    1    3    3  502    0  0.88192203099E+03 -0.11672982084E+04  0.14566177568E+04  0.20644924208E+04  0.46999998093E+01 0. -1.
       -5    1    3    3    0  502 -0.88192203099E+03  0.11672982084E+04 -0.94141154648E+03  0.17397268078E+04  0.46999998093E+01 0.  1.
</event>
<event>
 5   0  0.1656617E-07  0.3819177E+04  0.7818609E-02  0.8042052E-01
       -1   -1    0    0    0  501  0.00000000000E+00  0.00000000000E+00  0.13330979968E+04  0.13330979968E+04  0.50400001928E-02 0.  1.
        1   -1    0    0  501    0  0.00000000000E+00  0.00000000000E+00 -0.27353792556E+04  0.27353792556E+04  0.50400001928E-02 0. -1.
    10030    2    1    2    0    0  0.00000000000E+00  0.00000000000E+00 -0.14022812588E+04  0.40684772525E+04  0.38191771921E+04 0.  0.
        5    1    3    3  502    0 -0.10338248821E+03 -0.53682915008E+03  0.12479453923E+04  0.13624475284E+04  0.46999998093E+01 0.  1.
       -5    1    3    3    0  502  0.10338248821E+03  0.53682915008E+03 -0.26502266512E+04  0.27060297241E+04  0.46999998093E+01 0. -1.
</event>
<event>
 5   0  0.1648000E-07  0.3810747E+04  0.7818609E-02  0.8043853E-01
        1   -1    0    0  501    0  0.00000000000E+00  0.00000000000E+00  0.25922431017E+04  0.25922431017E+04  0.50400001928E-02 0.  1.
       -1   -1    0    0    0  501  0.00000000000E+00  0.00000000000E+00 -0.14005043118E+04  0.14005043118E+04  0.50400001928E-02 0. -1.
    10030    2    1    2    0    0  0.00000000000E+00  0.00000000000E+00  0.11917387899E+04  0.39927474135E+04  0.38107467201E+04 0.  0.
        3    1    3    3  502    0  0.83312425980E+03  0.15679946118E+04 -0.12833240309E+03  0.17802169393E+04  0.10100000352E+00 0. -1.
       -3    1    3    3    0  502 -0.83312425980E+03 -0.15679946118E+04  0.13200711930E+04  0.22125304743E+04  0.10100000352E+00 0.  1.
</event>
<event>
 5   0  0.1648000E-07  0.3808708E+04  0.7818609E-02  0.8044289E-01
       -1   -1    0    0    0  501  0.00000000000E+00  0.00000000000E+00  0.17634047224E+04  0.17634047224E+04  0.50400001928E-02 0.  1.
        1   -1    0    0  501    0  0.00000000000E+00  0.00000000000E+00 -0.20565693892E+04  0.20565693892E+04  0.50400001928E-02 0. -1.
    10030    2    1    2    0    0  0.00000000000E+00  0.00000000000E+00 -0.29316466677E+03  0.38199741115E+04  0.38087080081E+04 0.  0.
        2    1    3    3  502    0 -0.79768211497E+03  0.10129192365E+04  0.12590846758E+04  0.18021088639E+04  0.25500000920E-02 0.  1.
       -2    1    3    3    0  502  0.79768211497E+03 -0.10129192365E+04 -0.15522493426E+04  0.20178652477E+04  0.25500000920E-02 0. -1.
</event>
<event>
 5   0  0.5134434E-07  0.2971992E+04  0.7818609E-02  0.8251774E-01
       -2   -1    0    0    0  501  0.00000000000E+00  0.00000000000E+00  0.23119594001E+04  0.23119594001E+04  0.25500000920E-02 0.  1.
        2   -1    0    0  501    0  0.00000000000E+00  0.00000000000E+00 -0.95511397762E+03  0.95511397762E+03  0.25500000920E-02 0. -1.
    10030    2    1    2    0    0  0.00000000000E+00  0.00000000000E+00  0.13568454224E+04  0.32670733777E+04  0.29719924217E+04 0.  0.
        5    1    3    3  502    0 -0.82138144137E+03  0.12382301917E+04  0.69685566118E+03  0.16411920614E+04  0.46999998093E+01 0. -1.
       -5    1    3    3    0  502  0.82138144137E+03 -0.12382301917E+04  0.65998976126E+03  0.16258813163E+04  0.46999998093E+01 0.  1.
</event>
<event>
 5   0  0.1648000E-07  0.3821307E+04  0.7818609E-02  0.8041598E-01
        1   -1    0    0  501    0  0.00000000000E+00  0.00000000000E+00  0.12070873531E+04  0.12070873531E+04  0.50400001928E-02 0. -1.
       -1   -1    0    0    0  501  0.00000000000E+00  0.00000000000E+00 -0.30243025149E+04  0.30243025149E+04  0.50400001928E-02 0.  1.
    10030    2    1    2    0    0  0.00000000000E+00  0.00000000000E+00 -0.18172151618E+04  0.42313898680E+04  0.38213072724E+04 0.  0.
        4    1    3    3  502    0 -0.17778707759E+03 -0.10733745397E+04  0.83056569464E+03  0.13687885642E+04  0.12699999809E+01 0. -1.
       -4    1    3    3    0  502  0.17778707759E+03  0.10733745397E+04 -0.26477808564E+04  0.28626013037E+04  0.12699999809E+01 0.  1.
</event>
<event>
 5   0  0.1656617E-07  0.3541672E+04  0.7818609E-02  0.8103985E-01
        1   -1    0    0  501    0  0.00000000000E+00  0.00000000000E+00  0.17822835250E+04  0.17822835250E+04  0.50400001928E-02 0.  1.
       -1   -1    0    0    0  501  0.00000000000E+00  0.00000000000E+00 -0.17594619929E+04  0.17594619929E+04  0.50400001928E-02 0. -1.
    10030    2    1    2    0    0  0.00000000000E+00  0.00000000000E+00  0.22821532149E+02  0.35417455179E+04  0.35416719909E+04 0.  0.
        5    1    3    3  502    0 -0.34870540609E+03  0.11866275892E+04 -0.12559582517E+04  0.17627063612E+04  0.46999998093E+01 0. -1.
       -5    1    3    3    0  502  0.34870540609E+03 -0.11866275892E+04  0.12787797838E+04  0.17790391568E+04  0.46999998093E+01 0.  1.
</event>
<event>
 5   0  0.5158266E-07  0.3797640E+04  0.7818609E-02  0.8046661E-01
        2   -1    0    0  501    0  0.00000000000E+00  0.00000000000E+00  0.23547765244E+04  0.23547765244E+04  0.25500000920E-02 0.  1.
       -2   -1    0    0    0  501  0.00000000000E+00  0.00000000000E+00 -0.15311506914E+04  0.15311506914E+04  0.25500000920E-02 0. -1.
    10030    2    1    2    0    0  0.00000000000E+00  0.00000000000E+00  0.82362583302E+03  0.38859272158E+04  0.37976401638E+04 0.  0.
        2    1    3    3  502    0 -0.42090614384E+03 -0.84613262695E+03  0.20970419892E+04  0.23001494536E+04  0.25500000920E-02 0.  1.
       -2    1    3    3    0  502  0.42090614384E+03  0.84613262695E+03 -0.12734161562E+04  0.15857777622E+04  0.25500000920E-02 0. -1.
</event>
<event>
 5   0  0.1648000E-07  0.3826438E+04  0.7818609E-02  0.8040505E-01
       -1   -1    0    0    0  501  0.00000000000E+00  0.00000000000E+00  0.14856774279E+04  0.14856774279E+04  0.50400001928E-02 0. -1.
        1   -1    0    0  501    0  0.00000000000E+00  0.00000000000E+00 -0.24637968825E+04  0.24637968825E+04  0.50400001928E-02 0.  1.
    10030    2    1    2    0    0  0.00000000000E+00  0.00000000000E+00 -0.97811945457E+03  0.39494743105E+04  0.38264382474E+04 0.  0.
        2    1    3    3  502    0 -0.50292707216E+03 -0.12050167985E+04 -0.19323812518E+04  0.23321874768E+04  0.25500000920E-02 0.  1.
       -2    1    3    3    0  502  0.50292707216E+03  0.12050167985E+04  0.95426179722E+03  0.16172868337E+04  0.25500000920E-02 0. -1.
</event>
<event>
 5   0  0.5134434E-07  0.3817923E+04  0.7818609E-02  0.8042320E-01
       -2   -1    0    0    0  501  0.00000000000E+00  0.00000000000E+00  0.25132158994E+04  0.25132158994E+04  0.25500000920E-02 0. -1.
        2   -1    0    0  501    0  0.00000000000E+00  0.00000000000E+00 -0.14499883797E+04  0.14499883797E+04  0.25500000920E-02 0.  1.
    10030    2    1    2    0    0  0.00000000000E+00  0.00000000000E+00  0.10632275197E+04  0.39632042791E+04  0.38179229169E+04 0.  0.
        5    1    3    3  502    0  0.22219872900E+02  0.15782852438E+04 -0.58284746768E+03  0.16826203654E+04  0.46999998093E+01 0.  1.
       -5    1    3    3    0  502 -0.22219872900E+02 -0.15782852438E+04  0.16460749874E+04  0.22805839137E+04  0.46999998093E+01 0. -1.
</event>
<event>
 5   0  0.1648000E-07  0.3821538E+04  0.7818609E-02  0.8041549E-01
        1   -1    0    0  501    0  0.00000000000E+00  0.00000000000E+00  0.17005640638E+04  0.17005640638E+04  0.50400001928E-02 0. -1.
       -1   -1    0    0    0  501  0.00000000000E+00  0.00000000000E+00 -0.21469566253E+04  0.21469566253E+04  0.50400001928E-02 0.  1.
    10030    2    1    2    0    0  0.00000000000E+00  0.00000000000E+00 -0.44639256148E+03  0.38475206891E+04  0.38215375353E+04 0.  0.
        1    1    3    3  502    0 -0.51205968697E+03  0.18037432510E+04 -0.59358678399E+03  0.19667333599E+04  0.50400001928E-02 0. -1.
       -1    1    3    3    0  502  0.51205968697E+03 -0.18037432510E+04  0.14719422251E+03  0.18807873292E+04  0.50400001928E-02 0.  1.
</event>
<event>
 5   0  0.5132561E-07  0.3634140E+04  0.7818609E-02  0.8082716E-01
        2   -1    0    0  501    0  0.00000000000E+00  0.00000000000E+00  0.11137521542E+04  0.11137521542E+04  0.25500000920E-02 0.  1.
       -2   -1    0    0    0  501  0.00000000000E+00  0.00000000000E+00 -0.29645220626E+04  0.29645220626E+04  0.25500000920E-02 0. -1.
    10030    2    1    2    0    0  0.00000000000E+00  0.00000000000E+00 -0.18507699084E+04  0.40782742168E+04  0.36341396965E+04 0.  0.
        3    1    3    3  502    0  0.42803283176E+03 -0.13767166093E+04 -0.21665237865E+04  0.26023808436E+04  0.10100000352E+00 0. -1.
       -3    1    3    3    0  502 -0.42803283176E+03  0.13767166093E+04  0.31575387811E+03  0.14758933732E+04  0.10100000352E+00 0.  1.
</event>
<event>
 5   0  0.5134434E-07  0.3792944E+04  0.7818609E-02  0.8047671E-01
        2   -1    0    0  501    0  0.00000000000E+00  0.00000000000E+00  0.16752505138E+04  0.16752505138E+04  0.25500000920E-02 0. -1.
       -2   -1    0    0    0  501  0.00000000000E+00  0.00000000000E+00 -0.21469063090E+04  0.21469063090E+04  0.25500000920E-02 0.  1.
    10030    2    1    2    0    0  0.00000000000E+00  0.00000000000E+00 -0.47165579527E+03  0.38221568228E+04  0.37929439211E+04 0.  0.
        5    1    3    3  502    0 -0.40321684848E+03  0.16272122907E+04 -0.11293249316E+04  0.20213363295E+04  0.46999998093E+01 0.  1.
       -5    1    3    3    0  502  0.40321684848E+03 -0.16272122907E+04  0.65766913630E+03  0.18008204932E+04  0.46999998093E+01 0. -1.
</event>
<event>
 5   0  0.1648000E-07  0.3807500E+04  0.7818609E-02  0.8044547E-01
       -1   -1    0    0    0  501  0.00000000000E+00  0.00000000000E+00  0.16698113583E+04  0.16698113583E+04  0.50400001928E-02 0.  1.
        1   -1    0    0  501    0  0.00000000000E+00  0.00000000000E+00 -0.21704635038E+04  0.21704635038E+04  0.50400001928E-02 0. -1.
    10030    2    1    2    0    0  0.00000000000E+00  0.00000000000E+00 -0.50065214546E+03  0.38402748621E+04  0.38075002884E+04 0.  0.
        1    1    3    3  502    0  0.34422606983E+03 -0.51957431710E+03  0.15639954131E+04  0.16836064595E+04  0.50400001928E-02 0.  1.
       -1    1    3    3    0  502 -0.34422606983E+03  0.51957431710E+03 -0.20646475585E+04  0.21566684027E+04  0.50400001928E-02 0. -1.
</event>
<event>
 5   0  0.5158266E-07  0.3774959E+04  0.7818609E-02  0.8051550E-01
       -2   -1    0    0    0  501  0.00000000000E+00  0.00000000000E+00  0.19464394399E+04  0.19464394399E+04  0.25500000920E-02 0. -1.
        2   -1    0    0  501    0  0.00000000000E+00  0.00000000000E+00 -0.18303051813E+04  0.18303051813E+04  0.25500000920E-02 0.  1.
    10030    2    1    2    0    0  0.00000000000E+00  0.00000000000E+00  0.11613425861E+03  0.37767446212E+04  0.37749586445E+04 0.  0.
        2    1    3    3  502    0  0.12855301915E+04  0.10873584058E+04 -0.79535579673E+03  0.18621296999E+04  0.25500000920E-02 0.  1.
       -2    1    3    3    0  502 -0.12855301915E+04 -0.10873584058E+04  0.91149005535E+03  0.19146149213E+04  0.25500000920E-02 0. -1.
</event>
<event>
 5   0  0.5134434E-07  0.3772194E+04  0.7818609E-02  0.8052149E-01
       -2   -1    0    0    0  501  0.00000000000E+00  0.00000000000E+00  0.22007059397E+04  0.22007059397E+04  0.25500000920E-02 0. -1.
        2   -1    0    0  501    0  0.00000000000E+00  0.00000000000E+00 -0.16164635840E+04  0.16164635840E+04  0.25500000920E-02 0.  1.
    10030    2    1    2    0    0  0.00000000000E+00  0.00000000000E+00  0.58424235568E+03  0.38171695237E+04  0.37721935320E+04 0.  0.
        5    1    3    3  502    0  0.15348204843E+04 -0.28308690511E+03  0.13637695554E+04  0.20726074411E+04  0.46999998093E+01 0. -1.
       -5    1    3    3    0  502 -0.15348204843E+04  0.28308690511E+03 -0.77952719968E+03  0.17445620826E+04  0.46999998093E+01 0.  1.
</event>
<event>
 5   0  0.1648000E-07  0.3883151E+04  0.7818609E-02  0.8028543E-01
       -1   -1    0    0    0  501  0.00000000000E+00  0.00000000000E+00  0.19919421863E+04  0.19919421863E+04  0.50400001928E-02 0. -1.
        1   -1    0    0  501    0  0.00000000000E+00  0.00000000000E+00 -0.18924822144E+04  0.18924822144E+04  0.50400001928E-02 0.  1.
    10030    2    1    2    0    0  0.00000000000E+00  0.00000000000E+00  0.99459971907E+02  0.38844244006E+04  0.38831508647E+04 0.  0.
        2    1    3    3  502    0  0.10790550370E+04  0.11313511546E+04 -0.11019077447E+04  0.19127247282E+04  0.25500000920E-02 0.  1.
       -2    1    3    3    0  502 -0.10790550370E+04 -0.11313511546E+04  0.12013677166E+04  0.19716996725E+04  0.25500000920E-02 0. -1.
</event>
<event>
 5   0  0.5134434E-07  0.3904046E+04  0.7818609E-02  0.8024188E-01
        2   -1    0    0  501    0  0.00000000000E+00  0.00000000000E+00  0.17220060258E+04  0.17220060258E+04  0.25500000920E-02 0. -1.
       -2   -1    0    0    0  501  0.00000000000E+00  0.00000000000E+00 -0.22127650150E+04  0.22127650150E+04  0.25500000920E-02 0.  1.
    10030    2    1    2    0    0  0.00000000000E+00  0.00000000000E+00 -0.49075898928E+03  0.39347710408E+04  0.39040464595E+04 0.  0.
        5    1    3    3  502    0  0.82309372120E+03 -0.76971093177E+03  0.13610382109E+04  0.17670272476E+04  0.46999998093E+01 0. -1.
       -5    1    3    3    0  502 -0.82309372120E+03  0.76971093177E+03 -0.18517972002E+04  0.21677437932E+04  0.46999998093E+01 0.  1.
</event>
<event>
 5   0  0.1648000E-07  0.3744911E+04  0.7818609E-02  0.8058081E-01
        1   -1    0    0  501    0  0.00000000000E+00  0.00000000000E+00  0.17495261172E+04  0.17495261172E+04  0.50400001928E-02 0. -1.
       -1   -1    0    0    0  501  0.00000000000E+00  0.00000000000E+00 -0.20040221358E+04  0.20040221358E+04  0.50400001928E-02 0.  1.
    10030    2    1    2    0    0  0.00000000000E+00  0.00000000000E+00 -0.25449601859E+03  0.37535482530E+04  0.37449107151E+04 0.  0.
        4    1    3    3  502    0 -0.82441050233E+02  0.60363230928E+03 -0.19019020191E+04  0.19970982437E+04  0.12699999809E+01 0.  1.
       -4    1    3    3    0  502  0.82441050233E+02 -0.60363230928E+03  0.16474060006E+04  0.17564500093E+04  0.12699999809E+01 0. -1.
</event>
<event>
 5   0  0.1656617E-07  0.3803295E+04  0.7818609E-02  0.8045448E-01
       -1   -1    0    0    0  501  0.00000000000E+00  0.00000000000E+00  0.28980321938E+04  0.28980321938E+04  0.50400001928E-02 0.  1.
        1   -1    0    0  501    0  0.00000000000E+00  0.00000000000E+00 -0.12478342832E+04  0.12478342832E+04  0.50400001928E-02 0. -1.
    10030    2    1    2    0    0  0.00000000000E+00  0.00000000000E+00  0.16501979106E+04  0.41458664770E+04  0.38032953739E+04 0.  0.
        5    1    3    3  502    0  0.17606790395E+04 -0.67608118107E+02  0.45350356410E+02  0.17625663910E+04  0.46999998093E+01 0. -1.
       -5    1    3    3    0  502 -0.17606790395E+04  0.67608118107E+02  0.16048475542E+04  0.23833000860E+04  0.46999998093E+01 0.  1.
</event>
<event>
 5   0  0.1656617E-07  0.3722128E+04  0.7818609E-02  0.8063076E-01
       -1   -1    0    0    0  501  0.00000000000E+00  0.00000000000E+00  0.10298061349E+04  0.10298061349E+04  0.50400001928E-02 0.  1.
        1   -1    0    0  501    0  0.00000000000E+00  0.00000000000E+00 -0.33633125468E+04  0.33633125468E+04  0.50400001928E-02 0. -1.
    10030    2    1    2    0    0  0.00000000000E+00  0.00000000000E+00 -0.23335064119E+04  0.43931186816E+04  0.37221283665E+04 0.  0.
        5    1    3    3  502    0 -0.13771886648E+04  0.85046941167E+02  0.30724185323E+03  0.14136128349E+04  0.46999998093E+01 0.  1.
       -5    1    3    3    0  502  0.13771886648E+04 -0.85046941167E+02 -0.26407482651E+04  0.29795058467E+04  0.46999998093E+01 0. -1.
</event>
<event>
 5   0  0.1648000E-07  0.3751651E+04  0.7818609E-02  0.8056611E-01
        3   -1    0    0  501    0  0.00000000000E+00  0.00000000000E+00  0.25156545886E+04  0.25156545906E+04  0.10100000352E+00 0.  1.
       -3   -1    0    0    0  501  0.00000000000E+00  0.00000000000E+00 -0.13987298514E+04  0.13987298551E+04  0.10100000352E+00 0. -1.
    10030    2    1    2    0    0  0.00000000000E+00  0.00000000000E+00  0.11169247372E+04  0.39143844457E+04  0.37516509326E+04 0.  0.
        5    1    3    3  502    0  0.14601314659E+03  0.67452758793E+03  0.23783669723E+04  0.24764811428E+04  0.46999998093E+01 0.  1.
       -5    1    3    3    0  502 -0.14601314659E+03 -0.67452758793E+03 -0.12614422351E+04  0.14379033029E+04  0.46999998093E+01 0. -1.
</event>
<event>
 5   0  0.5132561E-07  0.3864844E+04  0.7818609E-02  0.8032381E-01
       -2   -1    0    0    0  501  0.00000000000E+00  0.00000000000E+00  0.13988805295E+04  0.13988805295E+04  0.25500000920E-02 0. -1.
        2   -1    0    0  501    0  0.00000000000E+00  0.00000000000E+00 -0.26694588164E+04  0.26694588164E+04  0.25500000920E-02 0.  1.
    10030    2    1    2    0    0  0.00000000000E+00  0.00000000000E+00 -0.12705782869E+04  0.40683393459E+04  0.38648435739E+04 0.  0.
        3    1    3    3  502    0  0.34642553246E+03  0.14325516681E+03 -0.26308153904E+04  0.26573901334E+04  0.10100000352E+00 0.  1.
       -3    1    3    3    0  502 -0.34642553246E+03 -0.14325516681E+03  0.13602371035E+04  0.14109492125E+04  0.10100000352E+00 0. -1.
</event>
<event>
 5   0  0.1656617E-07  0.3782142E+04  0.7818609E-02  0.8049998E-01
        1   -1    0    0  501    0  0.00000000000E+00  0.00000000000E+00  0.24653989340E+04  0.24653989340E+04  0.50400001928E-02 0. -1.
       -1   -1    0    0    0  501  0.00000000000E+00  0.00000000000E+00 -0.14505355209E+04  0.14505355209E+04  0.50400001928E-02 0.  1.
    10030    2    1    2    0    0  0.00000000000E+00  0.00000000000E+00  0.10148634130E+04  0.39159344549E+04  0.37821415770E+04 0.  0.
        5    1    3    3  502    0 -0.90349033864E+03 -0.13417340068E+04  0.15216667469E+04  0.22208189290E+04  0.46999998093E+01 0. -1.
       -5    1    3    3    0  502  0.90349033864E+03  0.13417340068E+04 -0.50680333383E+03  0.16951155259E+04  0.46999998093E+01 0.  1.
</event>
<event>
 5   0  0.1656617E-07  0.3776331E+04  0.7818609E-02  0.8051253E-01
        1   -1    0    0  501    0  0.00000000000E+00  0.00000000000E+00  0.19742970772E+04  0.19742970772E+04  0.50400001928E-02 0.  1.
       -1   -1    0    0    0  501  0.00000000000E+00  0.00000000000E+00 -0.18057919977E+04  0.18057919977E+04  0.50400001928E-02 0. -1.
    10030    2    1    2    0    0  0.00000000000E+00  0.00000000000E+00  0.16850507949E+03  0.37800890750E+04  0.37763314808E+04 0.  0.
        5    1    3    3  502    0  0.11272950395E+04 -0.14927127277E+04  0.34172897246E+03  0.19015220677E+04  0.46999998093E+01 0.  1.
       -5    1    3    3    0  502 -0.11272950395E+04  0.14927127277E+04 -0.17322389298E+03  0.18785670072E+04  0.46999998093E+01 0. -1.
</event>
<event>
 5   0  0.5132561E-07  0.3799293E+04  0.7818609E-02  0.8046307E-01
        2   -1    0    0  501    0  0.00000000000E+00  0.00000000000E+00  0.18981534089E+04  0.18981534089E+04  0.25500000920E-02 0. -1.
       -2   -1    0    0    0  501  0.00000000000E+00  0.00000000000E+00 -0.19011412610E+04  0.19011412610E+04  0.25500000920E-02 0.  1.
    10030    2    1    2    0    0  0.00000000000E+00  0.00000000000E+00 -0.29878520476E+01  0.37992946699E+04  0.37992934951E+04 0.  0.
        3    1    3    3  502    0 -0.66396630026E+03  0.16643829929E+04 -0.63207778737E+03  0.19001432405E+04  0.10100000352E+00 0.  1.
       -3    1    3    3    0  502  0.66396630026E+03 -0.16643829929E+04  0.62908993532E+03  0.18991514294E+04  0.10100000352E+00 0. -1.
</event>
<event>
 5   0  0.5202788E-07  0.3612158E+04  0.7818609E-02  0.8087713E-01
        2   -1    0    0  501    0  0.00000000000E+00  0.00000000000E+00  0.18243538749E+04  0.18243538749E+04  0.25500000920E-02 0.  1.
       -2   -1    0    0    0  501  0.00000000000E+00  0.00000000000E+00 -0.17879867205E+04  0.17879867205E+04  0.25500000920E-02 0. -1.
    10030    2    1    2    0    0  0.00000000000E+00  0.00000000000E+00  0.36367154341E+02  0.36123405954E+04  0.36121575280E+04 0.  0.
        1    1    3    3  502    0  0.17597514995E+04 -0.35651439196E+03  0.21336685336E+03  0.18081353007E+04  0.50400001928E-02 0. -1.
       -1    1    3    3    0  502 -0.17597514995E+04  0.35651439196E+03 -0.17699969902E+03  0.18042052946E+04  0.50400001928E-02 0.  1.
</event>
<event>
 5   0  0.5325362E-07  0.3837030E+04  0.7818609E-02  0.8038255E-01
       -2   -1    0    0    0  501  0.00000000000E+00  0.00000000000E+00  0.10646698550E+04  0.10646698550E+04  0.25500000920E-02 0. -1.
        2   -1    0    0  501    0  0.00000000000E+00  0.00000000000E+00 -0.34571278035E+04  0.34571278035E+04  0.25500000920E-02 0.  1.
    10030    2    1    2    0    0  0.00000000000E+00  0.00000000000E+00 -0.23924579485E+04  0.45217976585E+04  0.38370299750E+04 0.  0.
        4    1    3    3  502    0  0.10895802530E+04  0.10385986281E+04  0.20551092199E+03  0.15192460598E+04  0.12699999809E+01 0. -1.
       -4    1    3    3    0  502 -0.10895802530E+04 -0.10385986281E+04 -0.25979688705E+04  0.30025515987E+04  0.12699999809E+01 0.  1.
</event>
<event>
 5   0  0.1648000E-07  0.3789602E+04  0.7818609E-02  0.8048390E-01
        1   -1    0    0  501    0  0.00000000000E+00  0.00000000000E+00  0.23855202043E+04  0.23855202043E+04  0.50400001928E-02 0. -1.
       -1   -1    0    0    0  501  0.00000000000E+00  0.00000000000E+00 -0.15050261408E+04  0.15050261408E+04  0.50400001928E-02 0.  1.
    10030    2    1    2    0    0  0.00000000000E+00  0.00000000000E+00  0.88049406358E+03  0.38905463451E+04  0.37896017030E+04 0.  0.
        2    1    3    3  502    0  0.14250084609E+04  0.26080936689E+03  0.16940900306E+04  0.22290382840E+04  0.25500000920E-02 0. -1.
       -2    1    3    3    0  502 -0.14250084609E+04 -0.26080936689E+03 -0.81359596705E+03  0.16615080611E+04  0.25500000920E-02 0.  1.
</event>
<event>
 5   0  0.5134434E-07  0.3374777E+04  0.7818609E-02  0.8144125E-01
       -2   -1    0    0    0  501  0.00000000000E+00  0.00000000000E+00  0.10262636307E+04  0.10262636307E+04  0.25500000920E-02 0.  1.
        2   -1    0    0  501    0  0.00000000000E+00  0.00000000000E+00 -0.27744138245E+04  0.27744138245E+04  0.25500000920E-02 0. -1.
    10030    2    1    2    0    0  0.00000000000E+00  0.00000000000E+00 -0.17481501938E+04  0.38006774551E+04  0.33747770323E+04 0.  0.
        5    1    3    3  502    0  0.12270730540E+04 -0.99632047859E+03 -0.20885802086E+03  0.15943671280E+04  0.46999998093E+01 0.  1.
       -5    1    3    3    0  502 -0.12270730540E+04  0.99632047859E+03 -0.15392921730E+04  0.22063103272E+04  0.46999998093E+01 0. -1.
</event>
<event>
 5   0  0.1648000E-07  0.3830706E+04  0.7818609E-02  0.8039597E-01
        1   -1    0    0  501    0  0.00000000000E+00  0.00000000000E+00  0.14665951023E+04  0.14665951023E+04  0.50400001928E-02 0.  1.
       -1   -1    0    0    0  501  0.00000000000E+00  0.00000000000E+00 -0.25014249546E+04  0.25014249546E+04  0.50400001928E-02 0. -1.
    10030    2    1    2    0    0  0.00000000000E+00  0.00000000000E+00 -0.10348298524E+04  0.39680200569E+04  0.38307062467E+04 0.  0.
        4    1    3    3  502    0 -0.95020070196E+03  0.33980827511E+03 -0.22037208933E+04  0.24237859696E+04  0.12699999809E+01 0. -1.
       -4    1    3    3    0  502  0.95020070196E+03 -0.33980827511E+03  0.11688910410E+04  0.15442340873E+04  0.12699999809E+01 0.  1.
</event>
<event>
 5   0  0.5202788E-07  0.3812926E+04  0.7818609E-02  0.8043387E-01
        2   -1    0    0  501    0  0.00000000000E+00  0.00000000000E+00  0.18804124780E+04  0.18804124780E+04  0.25500000920E-02 0.  1.
       -2   -1    0    0    0  501  0.00000000000E+00  0.00000000000E+00 -0.19328743296E+04  0.19328743296E+04  0.25500000920E-02 0. -1.
    10030    2    1    2    0    0  0.00000000000E+00  0.00000000000E+00 -0.52461851600E+02  0.38132868076E+04  0.38129259147E+04 0.  0.
        1    1    3    3  502    0  0.53169697770E+03 -0.97473670529E+03  0.15236859643E+04  0.18853201952E+04  0.50400001928E-02 0.  1.
       -1    1    3    3    0  502 -0.53169697770E+03  0.97473670529E+03 -0.15761478159E+04  0.19279666124E+04  0.50400001928E-02 0. -1.
</event>
<event>
 5   0  0.5134434E-07  0.3484729E+04  0.7818609E-02  0.8117419E-01
       -2   -1    0    0    0  501  0.00000000000E+00  0.00000000000E+00  0.30812611709E+04  0.30812611709E+04  0.25500000920E-02 0.  1.
        2   -1    0    0  501    0  0.00000000000E+00  0.00000000000E+00 -0.98525688547E+03  0.98525688547E+03  0.25500000920E-02 0. -1.
    10030    2    1    2    0    0  0.00000000000E+00  0.00000000000E+00  0.20960042854E+04  0.40665180563E+04  0.34847288471E+04 0.  0.
        5    1    3    3  502    0  0.11691034663E+04 -0.90789118582E+03  0.21205479623E+04  0.25860810255E+04  0.46999998093E+01 0.  1.
       -5    1    3    3    0  502 -0.11691034663E+04  0.90789118582E+03 -0.24543676878E+02  0.14804370308E+04  0.46999998093E+01 0. -1.
</event>
<event>
 5   0  0.5158266E-07  0.3897662E+04  0.7818609E-02  0.8025516E-01
        2   -1    0    0  501    0  0.00000000000E+00  0.00000000000E+00  0.30043121517E+04  0.30043121517E+04  0.25500000920E-02 0. -1.
       -2   -1    0    0    0  501  0.00000000000E+00  0.00000000000E+00 -0.12641637704E+04  0.12641637704E+04  0.25500000920E-02 0.  1.
    10030    2    1    2    0    0  0.00000000000E+00  0.00000000000E+00  0.17401483814E+04  0.42684759221E+04  0.38976621593E+04 0.  0.
        2    1    3    3  502    0  0.16996877646E+04  0.87038684291E+03  0.12962372342E+04  0.23079737262E+04  0.25500000920E-02 0. -1.
       -2    1    3    3    0  502 -0.16996877646E+04 -0.87038684291E+03  0.44391114719E+03  0.19605021959E+04  0.25500000920E-02 0.  1.
</event>
<event>
 5   0  0.1648000E-07  0.3802362E+04  0.7818609E-02  0.8045648E-01
       -1   -1    0    0    0  501  0.00000000000E+00  0.00000000000E+00  0.14840593051E+04  0.14840593052E+04  0.50400001928E-02 0. -1.
        1   -1    0    0  501    0  0.00000000000E+00  0.00000000000E+00 -0.24355422063E+04  0.24355422063E+04  0.50400001928E-02 0.  1.
    10030    2    1    2    0    0  0.00000000000E+00  0.00000000000E+00 -0.95148290118E+03  0.39196015115E+04  0.38023619367E+04 0.  0.
        1    1    3    3  502    0 -0.10786309697E+04 -0.11712056801E+04 -0.15466783657E+04  0.22197705920E+04  0.50400001928E-02 0.  1.
       -1    1    3    3    0  502  0.10786309697E+04  0.11712056801E+04  0.59519546455E+03  0.16998309195E+04  0.50400001928E-02 0. -1.
</event>
<event>
 5   0  0.1648000E-07  0.3788576E+04  0.7818609E-02  0.8048611E-01
       -1   -1    0    0    0  501  0.00000000000E+00  0.00000000000E+00  0.19590114721E+04  0.19590114721E+04  0.50400001928E-02 0. -1.
        1   -1    0    0  501    0  0.00000000000E+00  0.00000000000E+00 -0.18317032756E+04  0.18317032756E+04  0.50400001928E-02 0.  1.
    10030    2    1    2    0    0  0.00000000000E+00  0.00000000000E+00  0.12730819652E+03  0.37907147477E+04  0.37885763713E+04 0.  0.
        4    1    3    3  502    0 -0.50369311689E+03 -0.35135644382E+03 -0.17293305576E+04  0.18351413834E+04  0.12699999809E+01 0.  1.
       -4    1    3    3    0  502  0.50369311689E+03  0.35135644382E+03  0.18566387542E+04  0.19555733642E+04  0.12699999809E+01 0. -1.
</event>
<event>
 5   0  0.5158266E-07  0.3789895E+04  0.7818609E-02  0.8048327E-01
       -2   -1    0    0    0  501  0.00000000000E+00  0.00000000000E+00  0.14927965071E+04  0.14927965071E+04  0.25500000920E-02 0. -1.
        2   -1    0    0  501    0  0.00000000000E+00  0.00000000000E+00 -0.24054357043E+04  0.24054357043E+04  0.25500000920E-02 0.  1.
    10030    2    1    2    0    0  0.00000000000E+00  0.00000000000E+00 -0.91263919723E+03  0.38982322114E+04  0.37898949945E+04 0.  0.
        2    1    3    3  502    0  0.16990550384E+03 -0.10874560632E+03  0.14817207366E+04  0.14953895240E+04  0.25500000920E-02 0. -1.
       -2    1    3    3    0  502 -0.16990550384E+03  0.10874560632E+03 -0.23943599339E+04  0.24028426873E+04  0.25500000920E-02 0.  1.
</event>
<event>
 5   0  0.5134434E-07  0.3810682E+04  0.7818609E-02  0.8043866E-01
       -2   -1    0    0    0  501  0.00000000000E+00  0.00000000000E+00  0.15831085272E+04  0.15831085272E+04  0.25500000920E-02 0. -1.
        2   -1    0    0  501    0  0.00000000000E+00  0.00000000000E+00 -0.22931619572E+04  0.22931619572E+04  0.25500000920E-02 0.  1.
    10030    2    1    2    0    0  0.00000000000E+00  0.00000000000E+00 -0.71005342993E+03  0.38762704844E+04  0.38106819593E+04 0.  0.
        5    1    3    3  502    0  0.10561924331E+04  0.13166684071E+04 -0.12540623859E+04  0.21028201795E+04  0.46999998093E+01 0.  1.
       -5    1    3    3    0  502 -0.10561924331E+04 -0.13166684071E+04  0.54400895592E+03  0.17734503049E+04  0.46999998093E+01 0. -1.
</event>
<event>
 5   0  0.1648000E-07  0.3688292E+04  0.7818609E-02  0.8070561E-01
        1   -1    0    0  501    0  0.00000000000E+00  0.00000000000E+00  0.24347863179E+04  0.24347863179E+04  0.50400001928E-02 0.  1.
       -1   -1    0    0    0  501  0.00000000000E+00  0.00000000000E+00 -0.13967853460E+04  0.13967853460E+04  0.50400001928E-02 0. -1.
    10030    2    1    2    0    0  0.00000000000E+00  0.00000000000E+00  0.10380009719E+04  0.38315716639E+04  0.36882916639E+04 0.  0.
        4    1    3    3  502    0 -0.31862869882E+03 -0.55700557240E+03 -0.12770618004E+04  0.14292193359E+04  0.12699999809E+01 0. -1.
       -4    1    3    3    0  502  0.31862869882E+03  0.55700557240E+03  0.23150627723E+04  0.24023523280E+04  0.12699999809E+01 0.  1.
</event>
<event>
 5   0  0.1648000E-07  0.3877202E+04  0.7818609E-02  0.8029788E-01
        1   -1    0    0  501    0  0.00000000000E+00  0.00000000000E+00  0.26239072998E+04  0.26239072998E+04  0.50400001928E-02 0.  1.
       -1   -1    0    0    0  501  0.00000000000E+00  0.00000000000E+00 -0.14322811798E+04  0.14322811798E+04  0.50400001928E-02 0. -1.
    10030    2    1    2    0    0  0.00000000000E+00  0.00000000000E+00  0.11916261201E+04  0.40561884796E+04  0.38772015903E+04 0.  0.
        2    1    3    3  502    0  0.14157487306E+04  0.23774473596E+02 -0.78942151277E+03  0.16211403451E+04  0.25500000920E-02 0. -1.
       -2    1    3    3    0  502 -0.14157487306E+04 -0.23774473596E+02  0.19810476328E+04  0.24350481345E+04  0.25500000920E-02 0.  1.
</event>
<event>
 5   0  0.5325362E-07  0.3827036E+04  0.7818609E-02  0.8040378E-01
        2   -1    0    0  501    0  0.00000000000E+00  0.00000000000E+00  0.15913619361E+04  0.15913619361E+04  0.25500000920E-02 0. -1.
       -2   -1    0    0    0  501  0.00000000000E+00  0.00000000000E+00 -0.23008920363E+04  0.23008920363E+04  0.25500000920E-02 0.  1.
    10030    2    1    2    0    0  0.00000000000E+00  0.00000000000E+00 -0.70953010020E+03  0.38922539725E+04  0.38270364544E+04 0.  0.
        4    1    3    3  502    0 -0.16614794439E+04 -0.50716001942E+03  0.46129580365E+03  0.17973649210E+04  0.12699999809E+01 0.  1.
       -4    1    3    3    0  502  0.16614794439E+04  0.50716001942E+03 -0.11708259038E+04  0.20948890515E+04  0.12699999809E+01 0. -1.
</event>
<event>
 5   0  0.1648000E-07  0.3811648E+04  0.7818609E-02  0.8043660E-01
       -3   -1    0    0    0  501  0.00000000000E+00  0.00000000000E+00  0.21424491780E+04  0.21424491804E+04  0.10100000352E+00 0. -1.
        3   -1    0    0  501    0  0.00000000000E+00  0.00000000000E+00 -0.16953328833E+04  0.16953328863E+04  0.10100000352E+00 0.  1.
    10030    2    1    2    0    0  0.00000000000E+00  0.00000000000E+00  0.44711629466E+03  0.38377820667E+04  0.38116477028E+04 0.  0.
        1    1    3    3  502    0 -0.12785240017E+04  0.11317363587E+04 -0.62883592724E+03  0.18195838623E+04  0.50400001928E-02 0.  1.
       -1    1    3    3    0  502  0.12785240017E+04 -0.11317363587E+04  0.10759522219E+04  0.20181982044E+04  0.50400001928E-02 0. -1.
</event>
<event>
 5   0  0.5325362E-07  0.3917482E+04  0.7818609E-02  0.8021403E-01
        2   -1    0    0  501    0  0.00000000000E+00  0.00000000000E+00  0.23129708550E+04  0.23129708550E+04  0.25500000920E-02 0. -1.
       -2   -1    0    0    0  501  0.00000000000E+00  0.00000000000E+00 -0.16587612888E+04  0.16587612888E+04  0.25500000920E-02 0.  1.
    10030    2    1    2    0    0  0.00000000000E+00  0.00000000000E+00  0.65420956624E+03  0.39717321438E+04  0.39174821078E+04 0.  0.
        4    1    3    3  502    0  0.14557987283E+04 -0.10195097671E+04  0.11618625875E+04  0.21233644029E+04  0.12699999809E+01 0.  1.
       -4    1    3    3    0  502 -0.14557987283E+04  0.10195097671E+04 -0.50765302127E+03  0.18483677408E+04  0.12699999809E+01 0. -1.
</event>
<event>
 5   0  0.5325362E-07  0.3851620E+04  0.7818609E-02  0.8035167E-01
       -2   -1    0    0    0  501  0.00000000000E+00  0.00000000000E+00  0.22501565827E+04  0.22501565827E+04  0.25500000920E-02 0. -1.
        2   -1    0    0  501    0  0.00000000000E+00  0.00000000000E+00 -0.16482158857E+04  0.16482158857E+04  0.25500000920E-02 0.  1.
    10030    2    1    2    0    0  0.00000000000E+00  0.00000000000E+00  0.60194069700E+03  0.38983724684E+04  0.38516198281E+04 0.  0.
        4    1    3    3  502    0  0.10095207357E+04 -0.10468242259E+04 -0.97679946406E+03  0.17518880905E+04  0.12699999809E+01 0.  1.
       -4    1    3    3    0  502 -0.10095207357E+04  0.10468242259E+04  0.15787401611E+04  0.21464843779E+04  0.12699999809E+01 0. -1.
</event>
<event>
 5   0  0.5132561E-07  0.3769204E+04  0.7818609E-02  0.8052796E-01
       -2   -1    0    0    0  501  0.00000000000E+00  0.00000000000E+00  0.15156856597E+04  0.15156856597E+04  0.25500000920E-02 0.  1.
        2   -1    0    0  501    0  0.00000000000E+00  0.00000000000E+00 -0.23433122128E+04  0.23433122128E+04  0.25500000920E-02 0. -1.
    10030    2    1    2    0    0  0.00000000000E+00  0.00000000000E+00 -0.82762655311E+03  0.38589978725E+04  0.37692040099E+04 0.  0.
        3    1    3    3  502    0  0.44682717106E+03 -0.89801255307E+03  0.12197038736E+04  0.15791638977E+04  0.10100000352E+00 0.  1.
       -3    1    3    3    0  502 -0.44682717106E+03  0.89801255307E+03 -0.20473304267E+04  0.22798339748E+04  0.10100000352E+00 0. -1.
</event>
<event>
 5   0  0.1648000E-07  0.3689747E+04  0.7818609E-02  0.8070238E-01
       -1   -1    0    0    0  501  0.00000000000E+00  0.00000000000E+00  0.23276447764E+04  0.23276447764E+04  0.50400001928E-02 0. -1.
        1   -1    0    0  501    0  0.00000000000E+00  0.00000000000E+00 -0.14622329916E+04  0.14622329916E+04  0.50400001928E-02 0.  1.
    10030    2    1    2    0    0  0.00000000000E+00  0.00000000000E+00  0.86541178480E+03  0.37898777680E+04  0.36897474086E+04 0.  0.
        2    1    3    3  502    0  0.64855884728E+03 -0.12870281592E+04  0.16156940056E+04  0.21650720960E+04  0.25500000920E-02 0. -1.
       -2    1    3    3    0  502 -0.64855884728E+03  0.12870281592E+04 -0.75028222079E+03  0.16248056720E+04  0.25500000920E-02 0.  1.
</event>
<event>
 5   0  0.1648000E-07  0.3350859E+04  0.7818609E-02  0.8150074E-01
       -1   -1    0    0    0  501  0.00000000000E+00  0.00000000000E+00  0.10952370815E+04  0.10952370815E+04  0.50400001928E-02 0. -1.
        1   -1    0    0  501    0  0.00000000000E+00  0.00000000000E+00 -0.25629741476E+04  0.25629741476E+04  0.50400001928E-02 0.  1.
    10030    2    1    2    0    0  0.00000000000E+00  0.00000000000E+00 -0.14677370661E+04  0.36582112291E+04  0.33508591885E+04 0.  0.
        1    1    3    3  502    0  0.45553143320E+03  0.15374974450E+04 -0.20389666798E+03  0.16164718158E+04  0.50400001928E-02 0. -1.
       -1    1    3    3    0  502 -0.45553143320E+03 -0.15374974450E+04 -0.12638403981E+04  0.20417394133E+04  0.50400001928E-02 0.  1.
</event>
<event>
 5   0  0.1648000E-07  0.3686649E+04  0.7818609E-02  0.8070927E-01
       -3   -1    0    0    0  501  0.00000000000E+00  0.00000000000E+00  0.26658894113E+04  0.26658894132E+04  0.10100000352E+00 0.  1.
        3   -1    0    0  501    0  0.00000000000E+00  0.00000000000E+00 -0.12745631420E+04  0.12745631460E+04  0.10100000352E+00 0. -1.
    10030    2    1    2    0    0  0.00000000000E+00  0.00000000000E+00  0.13913262693E+04  0.39404525592E+04  0.36866485571E+04 0.  0.
        2    1    3    3  502    0 -0.16204415851E+04  0.81060351022E+03  0.33330226147E+03  0.18422810260E+04  0.25500000920E-02 0.  1.
       -2    1    3    3    0  502  0.16204415851E+04 -0.81060351022E+03  0.10580240078E+04  0.20981715332E+04  0.25500000920E-02 0. -1.
</event>
<event>
 5   0  0.5202788E-07  0.3750280E+04  0.7818609E-02  0.8056910E-01
        2   -1    0    0  501    0  0.00000000000E+00  0.00000000000E+00  0.14921780418E+04  0.14921780418E+04  0.25500000920E-02 0.  1.
       -2   -1    0    0    0  501  0.00000000000E+00  0.00000000000E+00 -0.23563881144E+04  0.23563881144E+04  0.25500000920E-02 0. -1.
    10030    2    1    2    0    0  0.00000000000E+00  0.00000000000E+00 -0.86421007255E+03  0.38485661562E+04  0.37502803107E+04 0.  0.
        1    1    3    3  502    0  0.83991179780E+02  0.15038876387E+04  0.71404438454E+03  0.16669108948E+04  0.50400001928E-02 0.  1.
       -1    1    3    3    0  502 -0.83991179780E+02 -0.15038876387E+04 -0.15782544571E+04  0.21816552614E+04  0.50400001928E-02 0. -1.
</event>
<event>
 5   0  0.5134434E-07  0.3843935E+04  0.7818609E-02  0.8036792E-01
       -2   -1    0    0    0  501  0.00000000000E+00  0.00000000000E+00  0.14386989149E+04  0.14386989149E+04  0.25500000920E-02 0. -1.
        2   -1    0    0  501    0  0.00000000000E+00  0.00000000000E+00 -0.25675685670E+04  0.25675685670E+04  0.25500000920E-02 0.  1.
    10030    2    1    2    0    0  0.00000000000E+00  0.00000000000E+00 -0.11288696521E+04  0.40062674819E+04  0.38439345006E+04 0.  0.
        5    1    3    3  502    0  0.60290355779E+03  0.11320644496E+04  0.92740269398E+03  0.15827698711E+04  0.46999998093E+01 0. -1.
       -5    1    3    3    0  502 -0.60290355779E+03 -0.11320644496E+04 -0.20562723461E+04  0.24234976108E+04  0.46999998093E+01 0.  1.
</event>
<event>
 5   0  0.5325362E-07  0.3790406E+04  0.7818609E-02  0.8048217E-01
       -2   -1    0    0    0  501  0.00000000000E+00  0.00000000000E+00  0.14275058146E+04  0.14275058146E+04  0.25500000920E-02 0. -1.
        2   -1    0    0  501    0  0.00000000000E+00  0.00000000000E+00 -0.25161330792E+04  0.25161330792E+04  0.25500000920E-02 0.  1.
    10030    2    1    2    0    0  0.00000000000E+00  0.00000000000E+00 -0.10886272645E+04  0.39436388938E+04  0.37904061001E+04 0.  0.
        4    1    3    3  502    0  0.37768911756E+03  0.16613828303E+04  0.31927232030E+03  0.17334296656E+04  0.12699999809E+01 0. -1.
       -4    1    3    3    0  502 -0.37768911756E+03 -0.16613828303E+04 -0.14078995848E+04  0.22102092282E+04  0.12699999809E+01 0.  1.
</event>
<event>
 5   0  0.1656617E-07  0.3400680E+04  0.7818609E-02  0.8137740E-01
        1   -1    0    0  501    0  0.00000000000E+00  0.00000000000E+00  0.25617966361E+04  0.25617966361E+04  0.50400001928E-02 0.  1.
       -1   -1    0    0    0  501  0.00000000000E+00  0.00000000000E+00 -0.11285655377E+04  0.11285655377E+04  0.50400001928E-02 0. -1.
    10030    2    1    2    0    0  0.00000000000E+00  0.00000000000E+00  0.14332310984E+04  0.36903621738E+04  0.34006795780E+04 0.  0.
        5    1    3    3  502    0  0.44566503669E+03 -0.14938531573E+04  0.14533575918E+04  0.21313106203E+04  0.46999998093E+01 0.  1.
       -5    1    3    3    0  502 -0.44566503669E+03  0.14938531573E+04 -0.20126493357E+02  0.15590515535E+04  0.46999998093E+01 0. -1.
</event>
<event>
 5   0  0.1648000E-07  0.3765431E+04  0.7818609E-02  0.8053614E-01
        1   -1    0    0  501    0  0.00000000000E+00  0.00000000000E+00  0.23350624147E+04  0.23350624147E+04  0.50400001928E-02 0.  1.
       -1   -1    0    0    0  501  0.00000000000E+00  0.00000000000E+00 -0.15179969300E+04  0.15179969300E+04  0.50400001928E-02 0. -1.
    10030    2    1    2    0    0  0.00000000000E+00  0.00000000000E+00  0.81706548462E+03  0.38530593447E+04  0.37654309591E+04 0.  0.
        3    1    3    3  502    0  0.13249428478E+04 -0.13078137824E+04  0.69571890626E+03  0.19874293059E+04  0.10100000352E+00 0.  1.
       -3    1    3    3    0  502 -0.13249428478E+04  0.13078137824E+04  0.12134657836E+03  0.18656300388E+04  0.10100000352E+00 0. -1.
</event>
<event>
 5   0  0.1648000E-07  0.3790569E+04  0.7818609E-02  0.8048182E-01
        1   -1    0    0  501    0  0.00000000000E+00  0.00000000000E+00  0.22398215125E+04  0.22398215126E+04  0.50400001928E-02 0.  1.
       -1   -1    0    0    0  501  0.00000000000E+00  0.00000000000E+00 -0.16037455182E+04  0.16037455182E+04  0.50400001928E-02 0. -1.
    10030    2    1    2    0    0  0.00000000000E+00  0.00000000000E+00  0.63607599433E+03  0.38435670308E+04  0.37905691986E+04 0.  0.
        2    1    3    3  502    0 -0.59249784388E+02  0.16788923639E+04 -0.57167723813E+03  0.17745435952E+04  0.25500000920E-02 0.  1.
       -2    1    3    3    0  502  0.59249784388E+02 -0.16788923639E+04  0.12077532325E+04  0.20690234356E+04  0.25500000920E-02 0. -1.
</event>
<event>
 5   0  0.1648000E-07  0.3774524E+04  0.7818609E-02  0.8051644E-01
        1   -1    0    0  501    0  0.00000000000E+00  0.00000000000E+00  0.30904699487E+04  0.30904699487E+04  0.50400001928E-02 0. -1.
       -1   -1    0    0    0  501  0.00000000000E+00  0.00000000000E+00 -0.11524974373E+04  0.11524974373E+04  0.50400001928E-02 0.  1.
    10030    2    1    2    0    0  0.00000000000E+00  0.00000000000E+00  0.19379725114E+04  0.42429673861E+04  0.37745244448E+04 0.  0.
        2    1    3    3  502    0 -0.18277071782E+04 -0.26326684813E+03  0.14071509842E+04  0.23216151393E+04  0.25500000920E-02 0.  1.
       -2    1    3    3    0  502  0.18277071782E+04  0.26326684813E+03  0.53082152720E+03  0.19213522468E+04  0.25500000920E-02 0. -1.
</event>
<event>
 5   0  0.1656617E-07  0.3908288E+04  0.7818609E-02  0.8023308E-01
       -1   -1    0    0    0  501  0.00000000000E+00  0.00000000000E+00  0.14829758451E+04  0.14829758451E+04  0.50400001928E-02 0.  1.
        1   -1    0    0  501    0  0.00000000000E+00  0.00000000000E+00 -0.25750113457E+04  0.25750113458E+04  0.50400001928E-02 0. -1.
    10030    2    1    2    0    0  0.00000000000E+00  0.00000000000E+00 -0.10920355007E+04  0.40579871908E+04  0.39082884369E+04 0.  0.
        5    1    3    3  502    0 -0.12655606809E+02 -0.17957489905E+04  0.25407055080E+03  0.18136836924E+04  0.46999998093E+01 0.  1.
       -5    1    3    3    0  502  0.12655606809E+02  0.17957489905E+04 -0.13461060515E+04  0.22443034984E+04  0.46999998093E+01 0. -1.
</event>
<event>
 5   0  0.5202788E-07  0.3638357E+04  0.7818609E-02  0.8081762E-01
       -2   -1    0    0    0  501  0.00000000000E+00  0.00000000000E+00  0.16737012364E+04  0.16737012364E+04  0.25500000920E-02 0.  1.
        2   -1    0    0  501    0  0.00000000000E+00  0.00000000000E+00 -0.19773009068E+04  0.19773009068E+04  0.25500000920E-02 0. -1.
    10030    2    1    2    0    0  0.00000000000E+00  0.00000000000E+00 -0.30359967035E+03  0.36510021432E+04  0.36383573065E+04 0.  0.
        1    1    3    3  502    0 -0.11251795805E+04  0.14693058975E+03  0.12750396396E+04  0.17068520056E+04  0.50400001928E-02 0.  1.
       -1    1    3    3    0  502  0.11251795805E+04 -0.14693058975E+03 -0.15786393099E+04  0.19441501376E+04  0.50400001928E-02 0. -1.
</event>
<event>
 5   0  0.1648000E-07  0.3790068E+04  0.7818609E-02  0.8048290E-01
       -1   -1    0    0    0  501  0.00000000000E+00  0.00000000000E+00  0.30388539083E+04  0.30388539083E+04  0.50400001928E-02 0.  1.
        1   -1    0    0  501    0  0.00000000000E+00  0.00000000000E+00 -0.11817462113E+04  0.11817462113E+04  0.50400001928E-02 0. -1.
    10030    2    1    2    0    0  0.00000000000E+00  0.00000000000E+00  0.18571076970E+04  0.42206001195E+04  0.37900681222E+04 0.  0.
        4    1    3    3  502    0  0.10239418636E+04  0.94812681967E+03  0.23562809900E+04  0.27385147659E+04  0.12699999809E+01 0. -1.
       -4    1    3    3    0  502 -0.10239418636E+04 -0.94812681967E+03 -0.49917329294E+03  0.14820853537E+04  0.12699999809E+01 0.  1.
</event>
<event>
 5   0  0.1648000E-07  0.3584073E+04  0.7818609E-02  0.8094150E-01
       -1   -1    0    0    0  501  0.00000000000E+00  0.00000000000E+00  0.18539876436E+04  0.18539876436E+04  0.50400001928E-02 0.  1.
        1   -1    0    0  501    0  0.00000000000E+00  0.00000000000E+00 -0.17321551879E+04  0.17321551879E+04  0.50400001928E-02 0. -1.
    10030    2    1    2    0    0  0.00000000000E+00  0.00000000000E+00  0.12183245568E+03  0.35861428315E+04  0.35840727197E+04 0.  0.
        1    1    3    3  502    0  0.22130061297E+03  0.66580647204E+00  0.18402627672E+04  0.18535213667E+04  0.50400001928E-02 0.  1.
       -1    1    3    3    0  502 -0.22130061297E+03 -0.66580647204E+00 -0.17184303115E+04  0.17326214647E+04  0.50400001928E-02 0. -1.
</event>
<event>
 5   0  0.5325362E-07  0.3427848E+04  0.7818609E-02  0.8131105E-01
       -2   -1    0    0    0  501  0.00000000000E+00  0.00000000000E+00  0.12165957679E+04  0.12165957679E+04  0.25500000920E-02 0.  1.
        2   -1    0    0  501    0  0.00000000000E+00  0.00000000000E+00 -0.24145538208E+04  0.24145538208E+04  0.25500000920E-02 0. -1.
    10030    2    1    2    0    0  0.00000000000E+00  0.00000000000E+00 -0.11979580529E+04  0.36311495886E+04  0.34278482812E+04 0.  0.
        4    1    3    3  502    0  0.45570641598E+03 -0.99921640354E+03  0.79490083205E+03  0.13557177820E+04  0.12699999809E+01 0.  1.
       -4    1    3    3    0  502 -0.45570641598E+03  0.99921640354E+03 -0.19928588849E+04  0.22754318067E+04  0.12699999809E+01 0. -1.
</event>
<event>
 5   0  0.1656617E-07  0.3607214E+04  0.7818609E-02  0.8088841E-01
       -1   -1    0    0    0  501  0.00000000000E+00  0.00000000000E+00  0.20965542637E+04  0.20965542637E+04  0.50400001928E-02 0.  1.
        1   -1    0    0  501    0  0.00000000000E+00  0.00000000000E+00 -0.15515928972E+04  0.15515928972E+04  0.50400001928E-02 0. -1.
    10030    2    1    2    0    0  0.00000000000E+00  0.00000000000E+00  0.54496136652E+03  0.36481471608E+04  0.36072142737E+04 0.  0.
        5    1    3    3  502    0  0.23742403321E+03  0.16717410924E+04 -0.36865952684E+03  0.17282998549E+04  0.46999998093E+01 0. -1.
       -5    1    3    3    0  502 -0.23742403321E+03 -0.16717410924E+04  0.91362089336E+03  0.19198473060E+04  0.46999998093E+01 0.  1.
</event>
<event>
 5   0  0.1656617E-07  0.3700929E+04  0.7818609E-02  0.8067756E-01
       -1   -1    0    0    0  501  0.00000000000E+00  0.00000000000E+00  0.17515198949E+04  0.17515198949E+04  0.50400001928E-02 0. -1.
        1   -1    0    0  501    0  0.00000000000E+00  0.00000000000E+00 -0.19549987145E+04  0.19549987145E+04  0.50400001928E-02 0.  1.
    10030    2    1    2    0    0  0.00000000000E+00  0.00000000000E+00 -0.20347881964E+03  0.37065186094E+04  0.37009291498E+04 0.  0.
        5    1    3    3  502    0  0.20439510530E+03  0.10158571905E+04 -0.16371738553E+04  0.19375509059E+04  0.46999998093E+01 0.  1.
       -5    1    3    3    0  502 -0.20439510530E+03 -0.10158571905E+04  0.14336950357E+04  0.17689677035E+04  0.46999998093E+01 0. -1.
</event>
<event>
 5   0  0.1648000E-07  0.3847309E+04  0.7818609E-02  0.8036078E-01
        1   -1    0    0  501    0  0.00000000000E+00  0.00000000000E+00  0.19717464869E+04  0.19717464869E+04  0.50400001928E-02 0.  1.
       -1   -1    0    0    0  501  0.00000000000E+00  0.00000000000E+00 -0.18767355457E+04  0.18767355458E+04  0.50400001928E-02 0. -1.
    10030    2    1    2    0    0  0.00000000000E+00  0.00000000000E+00  0.95010941132E+02  0.38484820326E+04  0.38473090435E+04 0.  0.
        2    1    3    3  502    0  0.92327932325E+03 -0.31769714186E+03 -0.16104287489E+04  0.18833101014E+04  0.25500000920E-02 0. -1.
       -2    1    3    3    0  502 -0.92327932325E+03  0.31769714186E+03  0.17054396901E+04  0.19651719312E+04  0.25500000920E-02 0.  1.
</event>
<event>
 5   0  0.5202788E-07  0.3571848E+04  0.7818609E-02  0.8096971E-01
        2   -1    0    0  501    0  0.00000000000E+00  0.00000000000E+00  0.18932836709E+04  0.18932836709E+04  0.25500000920E-02 0. -1.
       -2   -1    0    0    0  501  0.00000000000E+00  0.00000000000E+00 -0.16846520019E+04  0.16846520019E+04  0.25500000920E-02 0.  1.
    10030    2    1    2    0    0  0.00000000000E+00  0.00000000000E+00  0.20863166899E+03  0.35779356729E+04  0.35718477719E+04 0.  0.
        1    1    3    3  502    0 -0.10991120267E+04  0.90499752472E+03 -0.97569451081E+03  0.17259917571E+04  0.50400001928E-02 0.  1.
       -1    1    3    3    0  502  0.10991120267E+04 -0.90499752472E+03  0.11843261798E+04  0.18519439158E+04  0.50400001928E-02 0. -1.
</event>
<event>
 5   0  0.1648000E-07  0.3796583E+04  0.7818609E-02  0.8046889E-01
       -1   -1    0    0    0  501  0.00000000000E+00  0.00000000000E+00  0.15812314093E+04  0.15812314093E+04  0.50400001928E-02 0. -1.
        1   -1    0    0  501    0  0.00000000000E+00  0.00000000000E+00 -0.22789267334E+04  0.22789267334E+04  0.50400001928E-02 0.  1.
    10030    2    1    2    0    0  0.00000000000E+00  0.00000000000E+00 -0.69769532416E+03  0.38601581427E+04  0.37965829533E+04 0.  0.
        4    1    3    3  502    0  0.76991194753E+03 -0.13448878627E+04  0.76587866424E+03  0.17286004488E+04  0.12699999809E+01 0. -1.
       -4    1    3    3    0  502 -0.76991194753E+03  0.13448878627E+04 -0.14635739884E+04  0.21315576940E+04  0.12699999809E+01 0.  1.
</event>
<event>
 5   0  0.5202788E-07  0.3760159E+04  0.7818609E-02  0.8054759E-01
       -2   -1    0    0    0  501  0.00000000000E+00  0.00000000000E+00  0.12873824285E+04  0.12873824285E+04  0.25500000920E-02 0. -1.
        2   -1    0    0  501    0  0.00000000000E+00  0.00000000000E+00 -0.27456474532E+04  0.27456474532E+04  0.25500000920E-02 0.  1.
    10030    2    1    2    0    0  0.00000000000E+00  0.00000000000E+00 -0.14582650247E+04  0.40330298817E+04  0.37601586595E+04 0.  0.
        1    1    3    3  502    0  0.81712638875E+03 -0.14864322308E+03 -0.25382192024E+04  0.26706454393E+04  0.50400001928E-02 0.  1.
       -1    1    3    3    0  502 -0.81712638875E+03  0.14864322308E+03  0.10799541777E+04  0.13623844424E+04  0.50400001928E-02 0. -1.
</event>
<event>
 5   0  0.5132561E-07  0.3630304E+04  0.7818609E-02  0.8083585E-01
        2   -1    0    0  501    0  0.00000000000E+00  0.00000000000E+00  0.26475032954E+04  0.26475032954E+04  0.25500000920E-02 0. -1.
       -2   -1    0    0    0  501  0.00000000000E+00  0.00000000000E+00 -0.12444843174E+04  0.12444843174E+04  0.25500000920E-02 0.  1.
    10030    2    1    2    0    0  0.00000000000E+00  0.00000000000E+00  0.14030189780E+04  0.38919876128E+04  0.36303037512E+04 0.  0.
        3    1    3    3  502    0 -0.85312640765E+02  0.17588615996E+04  0.11735962384E+04  0.21161759176E+04  0.10100000352E+00 0. -1.
       -3    1    3    3    0  502  0.85312640765E+02 -0.17588615996E+04  0.22942273965E+03  0.17758116952E+04  0.10100000352E+00 0.  1.
</event>
<event>
 5   0  0.5132561E-07  0.3793534E+04  0.7818609E-02  0.8047544E-01
        2   -1    0    0  501    0  0.00000000000E+00  0.00000000000E+00  0.16724599550E+04  0.16724599550E+04  0.25500000920E-02 0.  1.
       -2   -1    0    0    0  501  0.00000000000E+00  0.00000000000E+00 -0.21511573257E+04  0.21511573258E+04  0.25500000920E-02 0. -1.
    10030    2    1    2    0    0  0.00000000000E+00  0.00000000000E+00 -0.47869737073E+03  0.38236172808E+04  0.37935337005E+04 0.  0.
        3    1    3    3  502    0 -0.11293068503E+04 -0.97132255033E+03 -0.14229364837E+04  0.20599877926E+04  0.10100000352E+00 0. -1.
       -3    1    3    3    0  502  0.11293068503E+04  0.97132255033E+03  0.94423911294E+03  0.17636294882E+04  0.10100000352E+00 0.  1.
</event>
<event>
 5   0  0.1648000E-07  0.4076840E+04  0.7818609E-02  0.7989222E-01
       -1   -1    0    0    0  501  0.00000000000E+00  0.00000000000E+00  0.13816216710E+04  0.13816216710E+04  0.50400001928E-02 0.  1.
        1   -1    0    0  501    0  0.00000000000E+00  0.00000000000E+00 -0.30074488917E+04  0.30074488917E+04  0.50400001928E-02 0. -1.
    10030    2    1    2    0    0  0.00000000000E+00  0.00000000000E+00 -0.16258272207E+04  0.43890705627E+04  0.40768402290E+04 0.  0.
        1    1    3    3  502    0 -0.81693045622E+03 -0.85408252680E+03  0.97510291530E+03  0.15322069143E+04  0.50400001928E-02 0.  1.
       -1    1    3    3    0  502  0.81693045622E+03  0.85408252680E+03 -0.26009301360E+04  0.28568636484E+04  0.50400001928E-02 0. -1.
</event>
<event>
 5   0  0.1656617E-07  0.3790772E+04  0.7818609E-02  0.8048138E-01
       -1   -1    0    0    0  501  0.00000000000E+00  0.00000000000E+00  0.21861852915E+04  0.21861852915E+04  0.50400001928E-02 0. -1.
        1   -1    0    0  501    0  0.00000000000E+00  0.00000000000E+00 -0.16432680551E+04  0.16432680551E+04  0.50400001928E-02 0.  1.
    10030    2    1    2    0    0  0.00000000000E+00  0.00000000000E+00  0.54291723642E+03  0.38294533466E+04  0.37907721915E+04 0.  0.
        5    1    3    3  502    0  0.76304092820E+03 -0.34424829047E+03 -0.14464015837E+04  0.16711786185E+04  0.46999998093E+01 0.  1.
       -5    1    3    3    0  502 -0.76304092820E+03  0.34424829047E+03  0.19893188202E+04  0.21582747281E+04  0.46999998093E+01 0. -1.
</event>
<event>
 5   0  0.5132561E-07  0.2769039E+04  0.7818609E-02  0.8312945E-01
        2   -1    0    0  501    0  0.00000000000E+00  0.00000000000E+00  0.23090896457E+04  0.23090896457E+04  0.25500000920E-02 0. -1.
       -2   -1    0    0    0  501  0.00000000000E+00  0.00000000000E+00 -0.83015175984E+03  0.83015175985E+03  0.25500000920E-02 0.  1.
    10030    2    1    2    0    0  0.00000000000E+00  0.00000000000E+00  0.14789378858E+04  0.31392414055E+04  0.27690394241E+04 0.  0.
        3    1    3    3  502    0 -0.11274972282E+03  0.12588930517E+04  0.98786169604E+02  0.12677866276E+04  0.10100000352E+00 0.  1.
       -3    1    3    3    0  502  0.11274972282E+03 -0.12588930517E+04  0.13801517162E+04  0.18714547779E+04  0.10100000352E+00 0. -1.
</event>
<event>
 5   0  0.1656617E-07  0.3781779E+04  0.7818609E-02  0.8050076E-01
        1   -1    0    0  501    0  0.00000000000E+00  0.00000000000E+00  0.29493459110E+04  0.29493459110E+04  0.50400001928E-02 0.  1.
       -1   -1    0    0    0  501  0.00000000000E+00  0.00000000000E+00 -0.12122904022E+04  0.12122904022E+04  0.50400001928E-02 0. -1.
    10030    2    1    2    0    0  0.00000000000E+00  0.00000000000E+00  0.17370555088E+04  0.41616363133E+04  0.37817793383E+04 0.  0.
        5    1    3    3  502    0 -0.38812966461E+03 -0.30144691116E+03  0.28778332314E+04  0.29194967160E+04  0.46999998093E+01 0.  1.
       -5    1    3    3    0  502  0.38812966461E+03  0.30144691116E+03 -0.11407777226E+04  0.12421395973E+04  0.46999998093E+01 0. -1.
</event>
<event>
 5   0  0.5158266E-07  0.3552873E+04  0.7818609E-02  0.8101373E-01
        2   -1    0    0  501    0  0.00000000000E+00  0.00000000000E+00  0.28509515322E+04  0.28509515322E+04  0.25500000920E-02 0. -1.
       -2   -1    0    0    0  501  0.00000000000E+00  0.00000000000E+00 -0.11069026456E+04  0.11069026456E+04  0.25500000920E-02 0.  1.
    10030    2    1    2    0    0  0.00000000000E+00  0.00000000000E+00  0.17440488866E+04  0.39578541778E+04  0.35528725243E+04 0.  0.
        2    1    3    3  502    0 -0.39238958878E+03  0.16570065933E+04  0.30829264317E+03  0.17305157594E+04  0.25500000920E-02 0.  1.
       -2    1    3    3    0  502  0.39238958878E+03 -0.16570065933E+04  0.14357562434E+04  0.22273384184E+04  0.25500000920E-02 0. -1.
</event>
<event>
 5   0  0.1648000E-07  0.3806291E+04  0.7818609E-02  0.8044806E-01
        1   -1    0    0  501    0  0.00000000000E+00  0.00000000000E+00  0.17019008710E+04  0.17019008710E+04  0.50400001928E-02 0. -1.
       -1   -1    0    0    0  501  0.00000000000E+00  0.00000000000E+00 -0.21281864842E+04  0.21281864842E+04  0.50400001928E-02 0.  1.
    10030    2    1    2    0    0  0.00000000000E+00  0.00000000000E+00 -0.42628561324E+03  0.38300873552E+04  0.38062908092E+04 0.  0.
        3    1    3    3  502    0 -0.16652718621E+04 -0.51375478811E+03  0.55641826785E+03  0.18293921548E+04  0.10100000352E+00 0. -1.
       -3    1    3    3    0  502  0.16652718621E+04  0.51375478811E+03 -0.98270388110E+03  0.20006952004E+04  0.10100000352E+00 0.  1.
</event>
<event>
 5   0  0.1648000E-07  0.3829147E+04  0.7818609E-02  0.8039929E-01
       -1   -1    0    0    0  501  0.00000000000E+00  0.00000000000E+00  0.15193102366E+04  0.15193102366E+04  0.50400001928E-02 0.  1.
        1   -1    0    0  501    0  0.00000000000E+00  0.00000000000E+00 -0.24126684389E+04  0.24126684389E+04  0.50400001928E-02 0. -1.
    10030    2    1    2    0    0  0.00000000000E+00  0.00000000000E+00 -0.89335820230E+03  0.39319786756E+04  0.38291470888E+04 0.  0.
        1    1    3    3  502    0 -0.10929002442E+04  0.14119451926E+02 -0.20608224420E+04  0.23327278967E+04  0.50400001928E-02 0. -1.
       -1    1    3    3    0  502  0.10929002442E+04 -0.14119451926E+02  0.11674642397E+04  0.15992507789E+04  0.50400001928E-02 0.  1.
</event>
<event>
 5   0  0.1648000E-07  0.3196408E+04  0.7818609E-02  0.8189766E-01
        1   -1    0    0  501    0  0.00000000000E+00  0.00000000000E+00  0.17253631252E+04  0.17253631252E+04  0.50400001928E-02 0. -1.
       -1   -1    0    0    0  501  0.00000000000E+00  0.00000000000E+00 -0.14804166377E+04  0.14804166377E+04  0.50400001928E-02 0.  1.
    10030    2    1    2    0    0  0.00000000000E+00  0.00000000000E+00  0.24494648747E+03  0.32057797629E+04  0.31964081570E+04 0.  0.
        4    1    3    3  502    0  0.12898489901E+02 -0.13185660237E+04 -0.78320922662E+03  0.15336887022E+04  0.12699999809E+01 0.  1.
       -4    1    3    3    0  502 -0.12898489901E+02  0.13185660237E+04  0.10281557141E+04  0.16720910607E+04  0.12699999809E+01 0. -1.
</event>
<event>
 5   0  0.5325362E-07  0.3788528E+04  0.7818609E-02  0.8048621E-01
        2   -1    0    0  501    0  0.00000000000E+00  0.00000000000E+00  0.22274937629E+04  0.22274937629E+04  0.25500000920E-02 0.  1.
       -2   -1    0    0    0  501  0.00000000000E+00  0.00000000000E+00 -0.16108847896E+04  0.16108847896E+04  0.25500000920E-02 0. -1.
    10030    2    1    2    0    0  0.00000000000E+00  0.00000000000E+00  0.61660897328E+03  0.38383785525E+04  0.37885278521E+04 0.  0.
        4    1    3    3  502    0  0.14857269049E+04  0.11157700581E+04 -0.65202003715E+02  0.18591880412E+04  0.12699999809E+01 0.  1.
       -4    1    3    3    0  502 -0.14857269049E+04 -0.11157700581E+04  0.68181097699E+03  0.19791905112E+04  0.12699999809E+01 0. -1.
</event>
<event>
 5   0  0.1648000E-07  0.3798172E+04  0.7818609E-02  0.8046547E-01
        1   -1    0    0  501    0  0.00000000000E+00  0.00000000000E+00  0.16898340927E+04  0.16898340927E+04  0.50400001928E-02 0. -1.
       -1   -1    0    0    0  501  0.00000000000E+00  0.00000000000E+00 -0.21342493560E+04  0.21342493560E+04  0.50400001928E-02 0.  1.
    10030    2    1    2    0    0  0.00000000000E+00  0.00000000000E+00 -0.44441526327E+03  0.38240834486E+04  0.37981718360E+04 0.  0.
        3    1    3    3  502    0  0.45224943531E+03 -0.15973012887E+04 -0.11507937113E+04  0.20199572112E+04  0.10100000352E+00 0.  1.
       -3    1    3    3    0  502 -0.45224943531E+03  0.15973012887E+04  0.70637844808E+03  0.18041262375E+04  0.10100000352E+00 0. -1.
</event>
<event>
 5   0  0.1656617E-07  0.3814905E+04  0.7818609E-02  0.8042964E-01
        1   -1    0    0  501    0  0.00000000000E+00  0.00000000000E+00  0.24440602831E+04  0.24440602831E+04  0.50400001928E-02 0. -1.
       -1   -1    0    0    0  501  0.00000000000E+00  0.00000000000E+00 -0.14886597322E+04  0.14886597322E+04  0.50400001928E-02 0.  1.
    10030    2    1    2    0    0  0.00000000000E+00  0.00000000000E+00  0.95540055092E+03  0.39327200153E+04  0.38149045212E+04 0.  0.
        5    1    3    3  502    0  0.56237863191E+03 -0.86899088416E+03  0.21293462893E+04  0.23676048218E+04  0.46999998093E+01 0. -1.
       -5    1    3    3    0  502 -0.56237863191E+03  0.86899088416E+03 -0.11739457384E+04  0.15651151935E+04  0.46999998093E+01 0.  1.
</event>
<event>
 5   0  0.1648000E-07  0.3066325E+04  0.7818609E-02  0.8225041E-01
        1   -1    0    0  501    0  0.00000000000E+00  0.00000000000E+00  0.15876592504E+04  0.15876592504E+04  0.50400001928E-02 0. -1.
       -1   -1    0    0    0  501  0.00000000000E+00  0.00000000000E+00 -0.14805363502E+04  0.14805363502E+04  0.50400001928E-02 0.  1.
    10030    2    1    2    0    0  0.00000000000E+00  0.00000000000E+00  0.10712290015E+03  0.30681956006E+04  0.30663249873E+04 0.  0.
        4    1    3    3  502    0  0.99954609330E+03 -0.40124949958E+03  0.11453238002E+04  0.15722155621E+04  0.12699999809E+01 0. -1.
       -4    1    3    3    0  502 -0.99954609330E+03  0.40124949958E+03 -0.10382009001E+04  0.14959800384E+04  0.12699999809E+01 0.  1.
</event>
<event>
 5   0  0.5158266E-07  0.3786768E+04  0.7818609E-02  0.8049000E-01
        2   -1    0    0  501    0  0.00000000000E+00  0.00000000000E+00  0.21964665391E+04  0.21964665391E+04  0.25500000920E-02 0.  1.
       -2   -1    0    0    0  501  0.00000000000E+00  0.00000000000E+00 -0.16321228966E+04  0.16321228966E+04  0.25500000920E-02 0. -1.
    10030    2    1    2    0    0  0.00000000000E+00  0.00000000000E+00  0.56434364250E+03  0.38285894358E+04  0.37867681895E+04 0.  0.
        2    1    3    3  502    0 -0.11916876828E+04  0.11611654144E+04  0.11957432316E+04  0.20489574249E+04  0.25500000920E-02 0.  1.
       -2    1    3    3    0  502  0.11916876828E+04 -0.11611654144E+04 -0.63139958912E+03  0.17796320109E+04  0.25500000920E-02 0. -1.
</event>
<event>
 5   0  0.5325362E-07  0.2790752E+04  0.7818609E-02  0.8306145E-01
        2   -1    0    0  501    0  0.00000000000E+00  0.00000000000E+00  0.19936786441E+04  0.19936786441E+04  0.25500000920E-02 0.  1.
       -2   -1    0    0    0  501  0.00000000000E+00  0.00000000000E+00 -0.97662373664E+03  0.97662373665E+03  0.25500000920E-02 0. -1.
    10030    2    1    2    0    0  0.00000000000E+00  0.00000000000E+00  0.10170549075E+04  0.29703023808E+04  0.27907517891E+04 0.  0.
        4    1    3    3  502    0  0.93518366526E+03  0.82185010260E+03 -0.16214567890E+03  0.12555074325E+04  0.12699999809E+01 0. -1.
       -4    1    3    3    0  502 -0.93518366526E+03 -0.82185010260E+03  0.11792005864E+04  0.17147949483E+04  0.12699999809E+01 0.  1.
</event>
<event>
 5   0  0.5325362E-07  0.2840018E+04  0.7818609E-02  0.8290951E-01
       -2   -1    0    0    0  501  0.00000000000E+00  0.00000000000E+00  0.16040103986E+04  0.16040103986E+04  0.25500000920E-02 0.  1.
        2   -1    0    0  501    0  0.00000000000E+00  0.00000000000E+00 -0.12571146711E+04  0.12571146711E+04  0.25500000920E-02 0. -1.
    10030    2    1    2    0    0  0.00000000000E+00  0.00000000000E+00  0.34689572755E+03  0.28611250697E+04  0.28400176088E+04 0.  0.
        4    1    3    3  502    0 -0.11824695387E+03  0.47276741217E+03 -0.11702310025E+04  0.12676488395E+04  0.12699999809E+01 0. -1.
       -4    1    3    3    0  502  0.11824695387E+03 -0.47276741217E+03  0.15171267301E+04  0.15934762302E+04  0.12699999809E+01 0.  1.
</event>
<event>
 5   0  0.1648000E-07  0.3571380E+04  0.7818609E-02  0.8097079E-01
        1   -1    0    0  501    0  0.00000000000E+00  0.00000000000E+00  0.27147438658E+04  0.27147438658E+04  0.50400001928E-02 0. -1.
       -1   -1    0    0    0  501  0.00000000000E+00  0.00000000000E+00 -0.11745819802E+04  0.11745819802E+04  0.50400001928E-02 0.  1.
    10030    2    1    2    0    0  0.00000000000E+00  0.00000000000E+00  0.15401618856E+04  0.38893258460E+04  0.35713802517E+04 0.  0.
        4    1    3    3  502    0 -0.64086730083E+03  0.10095200463E+04 -0.67420153886E+03  0.13727312006E+04  0.12699999809E+01 0.  1.
       -4    1    3    3    0  502  0.64086730083E+03 -0.10095200463E+04  0.22143634245E+04  0.25165946455E+04  0.12699999809E+01 0. -1.
</event>
<event>
 5   0  0.5158266E-07  0.3710846E+04  0.7818609E-02  0.8065563E-01
       -2   -1    0    0    0  501  0.00000000000E+00  0.00000000000E+00  0.15924919941E+04  0.15924919941E+04  0.25500000920E-02 0.  1.
        2   -1    0    0  501    0  0.00000000000E+00  0.00000000000E+00 -0.21617651032E+04  0.21617651032E+04  0.25500000920E-02 0. -1.
    10030    2    1    2    0    0  0.00000000000E+00  0.00000000000E+00 -0.56927310907E+03  0.37542570973E+04  0.37108455209E+04 0.  0.
        2    1    3    3  502    0  0.14917141072E+04  0.65182379213E+03  0.61600725511E+03  0.17405603040E+04  0.25500000920E-02 0. -1.
       -2    1    3    3    0  502 -0.14917141072E+04 -0.65182379213E+03 -0.11852803642E+04  0.20136967933E+04  0.25500000920E-02 0.  1.
</event>
<event>
 5   0  0.5325362E-07  0.3801975E+04  0.7818609E-02  0.8045731E-01
       -2   -1    0    0    0  501  0.00000000000E+00  0.00000000000E+00  0.17386813053E+04  0.17386813053E+04  0.25500000920E-02 0. -1.
        2   -1    0    0  501    0  0.00000000000E+00  0.00000000000E+00 -0.20784447039E+04  0.20784447039E+04  0.25500000920E-02 0.  1.
    10030    2    1    2    0    0  0.00000000000E+00  0.00000000000E+00 -0.33976339856E+03  0.38171260092E+04  0.38019747242E+04 0.  0.
        4    1    3    3  502    0 -0.46802080644E+03  0.56848334083E+03 -0.19294453200E+04  0.20651822292E+04  0.12699999809E+01 0.  1.
       -4    1    3    3    0  502  0.46802080644E+03 -0.56848334083E+03  0.15896819214E+04  0.17519437800E+04  0.12699999809E+01 0. -1.
</event>
<event>
 5   0  0.5134434E-07  0.3719399E+04  0.7818609E-02  0.8063676E-01
        2   -1    0    0  501    0  0.00000000000E+00  0.00000000000E+00  0.14411971104E+04  0.14411971104E+04  0.25500000920E-02 0. -1.
       -2   -1    0    0    0  501  0.00000000000E+00  0.00000000000E+00 -0.23997289045E+04  0.23997289045E+04  0.25500000920E-02 0.  1.
    10030    2    1    2    0    0  0.00000000000E+00  0.00000000000E+00 -0.95853179407E+03  0.38409260149E+04  0.37193990713E+04 0.  0.
        5    1    3    3  502    0  0.60335776451E+03  0.13617737986E+04 -0.16291989849E+04  0.22074374041E+04  0.46999998093E+01 0.  1.
       -5    1    3    3    0  502 -0.60335776451E+03 -0.13617737986E+04  0.67066719084E+03  0.16334886108E+04  0.46999998093E+01 0. -1.
</event>
<event>
 5   0  0.1648000E-07  0.3743498E+04  0.7818609E-02  0.8058390E-01
        1   -1    0    0  501    0  0.00000000000E+00  0.00000000000E+00  0.20538945962E+04  0.20538945962E+04  0.50400001928E-02 0.  1.
       -1   -1    0    0    0  501  0.00000000000E+00  0.00000000000E+00 -0.17057567350E+04  0.17057567350E+04  0.50400001928E-02 0. -1.
    10030    2    1    2    0    0  0.00000000000E+00  0.00000000000E+00  0.34813786122E+03  0.37596513311E+04  0.37434981183E+04 0.  0.
        2    1    3    3  502    0  0.14187638181E+04 -0.30294265035E+03 -0.10137345232E+04  0.17698369146E+04  0.25500000920E-02 0. -1.
       -2    1    3    3    0  502 -0.14187638181E+04  0.30294265035E+03  0.13618723844E+04  0.19898144165E+04  0.25500000920E-02 0.  1.
</event>
<event>
 5   0  0.5134434E-07  0.3782901E+04  0.7818609E-02  0.8049834E-01
       -2   -1    0    0    0  501  0.00000000000E+00  0.00000000000E+00  0.20257538413E+04  0.20257538413E+04  0.25500000920E-02 0.  1.
        2   -1    0    0  501    0  0.00000000000E+00  0.00000000000E+00 -0.17660513046E+04  0.17660513046E+04  0.25500000920E-02 0. -1.
    10030    2    1    2    0    0  0.00000000000E+00  0.00000000000E+00  0.25970253674E+03  0.37918051459E+04  0.37829011165E+04 0.  0.
        5    1    3    3  502    0 -0.93935747210E+03 -0.33987654833E+03  0.17397620258E+04  0.20061661259E+04  0.46999998093E+01 0.  1.
       -5    1    3    3    0  502  0.93935747210E+03  0.33987654833E+03 -0.14800594891E+04  0.17856390200E+04  0.46999998093E+01 0. -1.
</event>
<event>
 5   0  0.1648000E-07  0.3692585E+04  0.7818609E-02  0.8069607E-01
       -3   -1    0    0    0  501  0.00000000000E+00  0.00000000000E+00  0.19130201568E+04  0.19130201595E+04  0.10100000352E+00 0.  1.
        3   -1    0    0  501    0  0.00000000000E+00  0.00000000000E+00 -0.17818924856E+04  0.17818924885E+04  0.10100000352E+00 0. -1.
    10030    2    1    2    0    0  0.00000000000E+00  0.00000000000E+00  0.13112767123E+03  0.36949126479E+04  0.36925851391E+04 0.  0.
        4    1    3    3  502    0 -0.63399157021E+03 -0.81840300169E+02  0.17987501482E+04  0.19089648647E+04  0.12699999809E+01 0.  1.
       -4    1    3    3    0  502  0.63399157021E+03  0.81840300169E+02 -0.16676224770E+04  0.17859477833E+04  0.12699999809E+01 0. -1.
</event>
<event>
 5   0  0.1648000E-07  0.3680973E+04  0.7818609E-02  0.8072192E-01
        1   -1    0    0  501    0  0.00000000000E+00  0.00000000000E+00  0.15159093991E+04  0.15159093991E+04  0.50400001928E-02 0.  1.
       -1   -1    0    0    0  501  0.00000000000E+00  0.00000000000E+00 -0.22345603192E+04  0.22345603192E+04  0.50400001928E-02 0. -1.
    10030    2    1    2    0    0  0.00000000000E+00  0.00000000000E+00 -0.71865092013E+03  0.37504697183E+04  0.36809732358E+04 0.  0.
        2    1    3    3  502    0  0.78617043598E+03 -0.13216512424E+04 -0.13896367808E+04  0.20726592444E+04  0.25500000920E-02 0. -1.
       -2    1    3    3    0  502 -0.78617043598E+03  0.13216512424E+04  0.67098586065E+03  0.16778104739E+04  0.25500000920E-02 0.  1.
</event>
<event>
 5   0  0.5202788E-07  0.3689090E+04  0.7818609E-02  0.8070384E-01
        2   -1    0    0  501    0  0.00000000000E+00  0.00000000000E+00  0.17965191313E+04  0.17965191313E+04  0.25500000920E-02 0. -1.
       -2   -1    0    0    0  501  0.00000000000E+00  0.00000000000E+00 -0.18938546246E+04  0.18938546246E+04  0.25500000920E-02 0.  1.
    10030    2    1    2    0    0  0.00000000000E+00  0.00000000000E+00 -0.97335493331E+02  0.36903737558E+04  0.36890898958E+04 0.  0.
        1    1    3    3  502    0  0.10833738144E+04  0.14397269788E+03  0.14377562010E+04  0.18059816868E+04  0.50400001928E-02 0. -1.
       -1    1    3    3    0  502 -0.10833738144E+04 -0.14397269788E+03 -0.15350916944E+04  0.18843920690E+04  0.50400001928E-02 0.  1.
</event>
<event>
 5   0  0.1648000E-07  0.3754765E+04  0.7818609E-02  0.8055932E-01
        1   -1    0    0  501    0  0.00000000000E+00  0.00000000000E+00  0.21946537746E+04  0.21946537746E+04  0.50400001928E-02 0. -1.
       -1   -1    0    0    0  501  0.00000000000E+00  0.00000000000E+00 -0.16059777998E+04  0.16059777998E+04  0.50400001928E-02 0.  1.
    10030    2    1    2    0    0  0.00000000000E+00  0.00000000000E+00  0.58867597481E+03  0.38006315743E+04  0.37547651006E+04 0.  0.
        4    1    3    3  502    0  0.38969006903E+03 -0.14775641997E+04  0.13983071002E+04  0.20713084448E+04  0.12699999809E+01 0. -1.
       -4    1    3    3    0  502 -0.38969006903E+03  0.14775641997E+04 -0.80963112540E+03  0.17293231295E+04  0.12699999809E+01 0.  1.
</event>
<event>
 5   0  0.5132561E-07  0.3558474E+04  0.7818609E-02  0.8100070E-01
       -2   -1    0    0    0  501  0.00000000000E+00  0.00000000000E+00  0.13725920333E+04  0.13725920333E+04  0.25500000920E-02 0. -1.
        2   -1    0    0  501    0  0.00000000000E+00  0.00000000000E+00 -0.23063549702E+04  0.23063549702E+04  0.25500000920E-02 0.  1.
    10030    2    1    2    0    0  0.00000000000E+00  0.00000000000E+00 -0.93376293687E+03  0.36789470036E+04  0.35584740877E+04 0.  0.
        3    1    3    3  502    0 -0.43114755091E+03 -0.15642404700E+04  0.28786682209E+03  0.16479089102E+04  0.10100000352E+00 0. -1.
       -3    1    3    3    0  502  0.43114755091E+03  0.15642404700E+04 -0.12216297590E+04  0.20310380934E+04  0.10100000352E+00 0.  1.
</event>
<event>
 5   0  0.1656617E-07  0.3742166E+04  0.7818609E-02  0.8058681E-01
       -1   -1    0    0    0  501  0.00000000000E+00  0.00000000000E+00  0.13282726313E+04  0.13282726313E+04  0.50400001928E-02 0. -1.
        1   -1    0    0  501    0  0.00000000000E+00  0.00000000000E+00 -0.26357173641E+04  0.26357173641E+04  0.50400001928E-02 0.  1.
    10030    2    1    2    0    0  0.00000000000E+00  0.00000000000E+00 -0.13074447328E+04  0.39639899954E+04  0.37421658106E+04 0.  0.
        5    1    3    3  502    0 -0.16106509951E+04 -0.68459862272E+03  0.47369546381E+02  0.17507535138E+04  0.46999998093E+01 0. -1.
       -5    1    3    3    0  502  0.16106509951E+04  0.68459862272E+03 -0.13548142792E+04  0.22132364816E+04  0.46999998093E+01 0.  1.
</event>
<event>
 5   0  0.1648000E-07  0.3781380E+04  0.7818609E-02  0.8050163E-01
        1   -1    0    0  501    0  0.00000000000E+00  0.00000000000E+00  0.23254844275E+04  0.23254844276E+04  0.50400001928E-02 0.  1.
       -1   -1    0    0    0  501  0.00000000000E+00  0.00000000000E+00 -0.15371884488E+04  0.15371884488E+04  0.50400001928E-02 0. -1.
    10030    2    1    2    0    0  0.00000000000E+00  0.00000000000E+00  0.78829597878E+03  0.38626728763E+04  0.37813795365E+04 0.  0.
        3    1    3    3  502    0 -0.82478706625E+03 -0.65917497510E+03  0.19962802565E+04  0.22583002956E+04  0.10100000352E+00 0.  1.
       -3    1    3    3    0  502  0.82478706625E+03  0.65917497510E+03 -0.12079842777E+04  0.16043725807E+04  0.10100000352E+00 0. -1.
</event>
<event>
 5   0  0.5158266E-07  0.3726996E+04  0.7818609E-02  0.8062005E-01
        2   -1    0    0  501    0  0.00000000000E+00  0.00000000000E+00  0.25875313362E+04  0.25875313362E+04  0.25500000920E-02 0.  1.
       -2   -1    0    0    0  501  0.00000000000E+00  0.00000000000E+00 -0.13420608504E+04  0.13420608504E+04  0.25500000920E-02 0. -1.
    10030    2    1    2    0    0  0.00000000000E+00  0.00000000000E+00  0.12454704858E+04  0.39295921866E+04  0.37269958441E+04 0.  0.
        2    1    3    3  502    0  0.70778767973E+03 -0.17197709504E+04  0.74770675730E+03  0.20044053772E+04  0.25500000920E-02 0.  1.
       -2    1    3    3    0  502 -0.70778767973E+03  0.17197709504E+04  0.49776372854E+03  0.19251868093E+04  0.25500000920E-02 0. -1.
</event>
<event>
 5   0  0.5134434E-07  0.3827214E+04  0.7818609E-02  0.8040340E-01
       -2   -1    0    0    0  501  0.00000000000E+00  0.00000000000E+00  0.13982353258E+04  0.13982353258E+04  0.25500000920E-02 0. -1.
        2   -1    0    0  501    0  0.00000000000E+00  0.00000000000E+00 -0.26189384651E+04  0.26189384651E+04  0.25500000920E-02 0.  1.
    10030    2    1    2    0    0  0.00000000000E+00  0.00000000000E+00 -0.12207031393E+04  0.40171737908E+04  0.38272142756E+04 0.  0.
        5    1    3    3  502    0  0.22026207841E+03  0.18790179061E+04 -0.30859960204E+03  0.19168931840E+04  0.46999998093E+01 0.  1.
       -5    1    3    3    0  502 -0.22026207841E+03 -0.18790179061E+04 -0.91210353727E+03  0.21002806068E+04  0.46999998093E+01 0. -1.
</event>
<event>
 5   0  0.1648000E-07  0.3740216E+04  0.7818609E-02  0.8059108E-01
       -1   -1    0    0    0  501  0.00000000000E+00  0.00000000000E+00  0.15869931814E+04  0.15869931814E+04  0.50400001928E-02 0. -1.
        1   -1    0    0  501    0  0.00000000000E+00  0.00000000000E+00 -0.22037292064E+04  0.22037292064E+04  0.50400001928E-02 0.  1.
    10030    2    1    2    0    0  0.00000000000E+00  0.00000000000E+00 -0.61673602499E+03  0.37907223878E+04  0.37402156217E+04 0.  0.
        4    1    3    3  502    0 -0.14260265566E+03 -0.15817764779E+04 -0.13090966986E+04  0.20581759212E+04  0.12699999809E+01 0.  1.
       -4    1    3    3    0  502  0.14260265566E+03  0.15817764779E+04  0.69236067358E+03  0.17325464666E+04  0.12699999809E+01 0. -1.
</event>
<event>
 5   0  0.5325362E-07  0.3770542E+04  0.7818609E-02  0.8052506E-01
        2   -1    0    0  501    0  0.00000000000E+00  0.00000000000E+00  0.25329150330E+04  0.25329150330E+04  0.25500000920E-02 0.  1.
       -2   -1    0    0    0  501  0.00000000000E+00  0.00000000000E+00 -0.14032240703E+04  0.14032240703E+04  0.25500000920E-02 0. -1.
    10030    2    1    2    0    0  0.00000000000E+00  0.00000000000E+00  0.11296909627E+04  0.39361391033E+04  0.37705423177E+04 0.  0.
        4    1    3    3  502    0  0.12786960224E+04 -0.39676181990E+03 -0.82076216444E+03  0.15703934548E+04  0.12699999809E+01 0. -1.
       -4    1    3    3    0  502 -0.12786960224E+04  0.39676181990E+03  0.19504531271E+04  0.23657456485E+04  0.12699999809E+01 0.  1.
</event>
<event>
 5   0  0.1656617E-07  0.3808531E+04  0.7818609E-02  0.8044327E-01
        1   -1    0    0  501    0  0.00000000000E+00  0.00000000000E+00  0.29873819139E+04  0.29873819139E+04  0.50400001928E-02 0. -1.
       -1   -1    0    0    0  501  0.00000000000E+00  0.00000000000E+00 -0.12138476683E+04  0.12138476683E+04  0.50400001928E-02 0.  1.
    10030    2    1    2    0    0  0.00000000000E+00  0.00000000000E+00  0.17735342456E+04  0.42012295822E+04  0.38085307248E+04 0.  0.
        5    1    3    3  502    0 -0.13682791774E+04  0.94180352722E+03 -0.14038361542E+03  0.16670067309E+04  0.46999998093E+01 0.  1.
       -5    1    3    3    0  502  0.13682791774E+04 -0.94180352722E+03  0.19139178610E+04  0.25342228513E+04  0.46999998093E+01 0. -1.
</event>
<event>
 5   0  0.5158266E-07  0.3771091E+04  0.7818609E-02  0.8052387E-01
       -2   -1    0    0    0  501  0.00000000000E+00  0.00000000000E+00  0.18151102671E+04  0.18151102671E+04  0.25500000920E-02 0. -1.
        2   -1    0    0  501    0  0.00000000000E+00  0.00000000000E+00 -0.19587143603E+04  0.19587143603E+04  0.25500000920E-02 0.  1.
    10030    2    1    2    0    0  0.00000000000E+00  0.00000000000E+00 -0.14360409319E+03  0.37738246274E+04  0.37710913782E+04 0.  0.
        2    1    3    3  502    0 -0.16887353028E+04 -0.64295380952E+03 -0.61077017891E+03  0.19074214887E+04  0.25500000920E-02 0.  1.
       -2    1    3    3    0  502  0.16887353028E+04  0.64295380952E+03  0.46716608572E+03  0.18664031386E+04  0.25500000920E-02 0. -1.
</event>
<event>
 5   0  0.5132561E-07  0.3467616E+04  0.7818609E-02  0.8121508E-01
        2   -1    0    0  501    0  0.00000000000E+00  0.00000000000E+00  0.14071963815E+04  0.14071963815E+04  0.25500000920E-02 0. -1.
       -2   -1    0    0    0  501  0.00000000000E+00  0.00000000000E+00 -0.21362261970E+04  0.21362261970E+04  0.25500000920E-02 0.  1.
    10030    2    1    2    0    0  0.00000000000E+00  0.00000000000E+00 -0.72902981546E+03  0.35434225785E+04  0.34676157656E+04 0.  0.
        3    1    3    3  502    0  0.25394438735E+03 -0.10622376769E+04 -0.17405236631E+04  0.20548136816E+04  0.10100000352E+00 0.  1.
       -3    1    3    3    0  502 -0.25394438735E+03  0.10622376769E+04  0.10114938476E+04  0.14886088969E+04  0.10100000352E+00 0. -1.
</event>
<event>
 5   0  0.1648000E-07  0.3885491E+04  0.7818609E-02  0.8028054E-01
        1   -1    0    0  501    0  0.00000000000E+00  0.00000000000E+00  0.31103224701E+04  0.31103224701E+04  0.50400001928E-02 0.  1.
       -1   -1    0    0    0  501  0.00000000000E+00  0.00000000000E+00 -0.12134627595E+04  0.12134627595E+04  0.50400001928E-02 0. -1.
    10030    2    1    2    0    0  0.00000000000E+00  0.00000000000E+00  0.18968597106E+04  0.43237852296E+04  0.38854912109E+04 0.  0.
        2    1    3    3  502    0  0.12768435118E+04 -0.13045984361E+04  0.16882169380E+04  0.24864397967E+04  0.25500000920E-02 0.  1.
       -2    1    3    3    0  502 -0.12768435118E+04  0.13045984361E+04  0.20864277266E+03  0.18373454329E+04  0.25500000920E-02 0. -1.
</event>
<event>
 5   0  0.1656617E-07  0.3823273E+04  0.7818609E-02  0.8041179E-01
        1   -1    0    0  501    0  0.00000000000E+00  0.00000000000E+00  0.21613053575E+04  0.21613053575E+04  0.50400001928E-02 0.  1.
       -1   -1    0    0    0  501  0.00000000000E+00  0.00000000000E+00 -0.16908091306E+04  0.16908091306E+04  0.50400001928E-02 0. -1.
    10030    2    1    2    0    0  0.00000000000E+00  0.00000000000E+00  0.47049622684E+03  0.38521144881E+04  0.38232733789E+04 0.  0.
        5    1    3    3  502    0  0.73262957486E+03 -0.95104609503E+03  0.17341187567E+04  0.21091289010E+04  0.46999998093E+01 0.  1.
       -5    1    3    3    0  502 -0.73262957486E+03  0.95104609503E+03 -0.12636225299E+04  0.17429855871E+04  0.46999998093E+01 0. -1.
</event>
<event>
 5   0  0.5132561E-07  0.3166817E+04  0.7818609E-02  0.8197636E-01
       -2   -1    0    0    0  501  0.00000000000E+00  0.00000000000E+00  0.10959581644E+04  0.10959581644E+04  0.25500000920E-02 0.  1.
        2   -1    0    0  501    0  0.00000000000E+00  0.00000000000E+00 -0.22876622124E+04  0.22876622124E+04  0.25500000920E-02 0. -1.
    10030    2    1    2    0    0  0.00000000000E+00  0.00000000000E+00 -0.11917040480E+04  0.33836203767E+04  0.31668167481E+04 0.  0.
        3    1    3    3  502    0  0.15454520699E+04 -0.27436890378E+02 -0.22881242244E+03  0.15625396053E+04  0.10100000352E+00 0.  1.
       -3    1    3    3    0  502 -0.15454520699E+04  0.27436890378E+02 -0.96289162553E+03  0.18210807714E+04  0.10100000352E+00 0. -1.
</event>
<event>
 5   0  0.5132561E-07  0.3790287E+04  0.7818609E-02  0.8048243E-01
        2   -1    0    0  501    0  0.00000000000E+00  0.00000000000E+00  0.17804380237E+04  0.17804380237E+04  0.25500000920E-02 0. -1.
       -2   -1    0    0    0  501  0.00000000000E+00  0.00000000000E+00 -0.20172385252E+04  0.20172385252E+04  0.25500000920E-02 0.  1.
    10030    2    1    2    0    0  0.00000000000E+00  0.00000000000E+00 -0.23680050149E+03  0.37976765489E+04  0.37902866241E+04 0.  0.
        3    1    3    3  502    0 -0.17929120682E+04 -0.61008117956E+03 -0.48727395964E+02  0.18944938900E+04  0.10100000352E+00 0.  1.
       -3    1    3    3    0  502  0.17929120682E+04  0.61008117956E+03 -0.18807310553E+03  0.19031826589E+04  0.10100000352E+00 0. -1.
</event>
<event>
 5   0  0.5158266E-07  0.3680788E+04  0.7818609E-02  0.8072233E-01
       -2   -1    0    0    0  501  0.00000000000E+00  0.00000000000E+00  0.18622004936E+04  0.18622004936E+04  0.25500000920E-02 0.  1.
        2   -1    0    0  501    0  0.00000000000E+00  0.00000000000E+00 -0.18188426585E+04  0.18188426585E+04  0.25500000920E-02 0. -1.
    10030    2    1    2    0    0  0.00000000000E+00  0.00000000000E+00  0.43357835014E+02  0.36810431521E+04  0.36807877942E+04 0.  0.
        2    1    3    3  502    0  0.11787650076E+04 -0.14133493400E+04  0.19149588646E+02  0.18404917839E+04  0.25500000920E-02 0. -1.
       -2    1    3    3    0  502 -0.11787650076E+04  0.14133493400E+04  0.24208246368E+02  0.18405513682E+04  0.25500000920E-02 0.  1.
</event>
<event>
 5   0  0.1648000E-07  0.3839158E+04  0.7818609E-02  0.8037804E-01
        1   -1    0    0  501    0  0.00000000000E+00  0.00000000000E+00  0.28928495583E+04  0.28928495583E+04  0.50400001928E-02 0. -1.
       -1   -1    0    0    0  501  0.00000000000E+00  0.00000000000E+00 -0.12737556476E+04  0.12737556476E+04  0.50400001928E-02 0.  1.
    10030    2    1    2    0    0  0.00000000000E+00  0.00000000000E+00  0.16190939107E+04  0.41666052060E+04  0.38391579612E+04 0.  0.
        1    1    3    3  502    0  0.56912222549E+03 -0.68096947899E+03 -0.10377337966E+04  0.13654709705E+04  0.50400001928E-02 0.  1.
       -1    1    3    3    0  502 -0.56912222549E+03  0.68096947899E+03  0.26568277072E+04  0.28011342354E+04  0.50400001928E-02 0. -1.
</event>
<event>
 5   0  0.5325362E-07  0.2832481E+04  0.7818609E-02  0.8293255E-01
       -2   -1    0    0    0  501  0.00000000000E+00  0.00000000000E+00  0.94412393958E+03  0.94412393958E+03  0.25500000920E-02 0.  1.
        2   -1    0    0  501    0  0.00000000000E+00  0.00000000000E+00 -0.21244429160E+04  0.21244429160E+04  0.25500000920E-02 0. -1.
    10030    2    1    2    0    0  0.00000000000E+00  0.00000000000E+00 -0.11803189764E+04  0.30685668556E+04  0.28324811846E+04 0.  0.
        4    1    3    3  502    0  0.11267078247E+03 -0.56742720895E+03  0.81028386721E+03  0.99560529380E+03  0.12699999809E+01 0.  1.
       -4    1    3    3    0  502 -0.11267078247E+03  0.56742720895E+03 -0.19906028436E+04  0.20729615618E+04  0.12699999809E+01 0. -1.
</event>
<event>
 5   0  0.5132561E-07  0.3748311E+04  0.7818609E-02  0.8057339E-01
       -2   -1    0    0    0  501  0.00000000000E+00  0.00000000000E+00  0.13019307603E+04  0.13019307603E+04  0.25500000920E-02 0. -1.
        2   -1    0    0  501    0  0.00000000000E+00  0.00000000000E+00 -0.26978848054E+04  0.26978848054E+04  0.25500000920E-02 0.  1.
    10030    2    1    2    0    0  0.00000000000E+00  0.00000000000E+00 -0.13959540451E+04  0.39998155658E+04  0.37483112016E+04 0.  0.
        3    1    3    3  502    0  0.12590821473E+03  0.13387533863E+03  0.12922920656E+04  0.13052947092E+04  0.10100000352E+00 0. -1.
       -3    1    3    3    0  502 -0.12590821473E+03 -0.13387533863E+03 -0.26882461107E+04  0.26945208566E+04  0.10100000352E+00 0.  1.
</event>
<event>
 5   0  0.1648000E-07  0.3644350E+04  0.7818609E-02  0.8080408E-01
        1   -1    0    0  501    0  0.00000000000E+00  0.00000000000E+00  0.22687502197E+04  0.22687502197E+04  0.50400001928E-02 0.  1.
       -1   -1    0    0    0  501  0.00000000000E+00  0.00000000000E+00 -0.14635024790E+04  0.14635024790E+04  0.50400001928E-02 0. -1.
    10030    2    1    2    0    0  0.00000000000E+00  0.00000000000E+00  0.80524774075E+03  0.37322526987E+04  0.36443499122E+04 0.  0.
        2    1    3    3  502    0 -0.47822134483E+03 -0.16180739970E+04  0.11073067901E+04  0.20181643743E+04  0.25500000920E-02 0.  1.
       -2    1    3    3    0  502  0.47822134483E+03  0.16180739970E+04 -0.30205904932E+03  0.17140883244E+04  0.25500000920E-02 0. -1.
</event>
<event>
 5   0  0.1648000E-07  0.3817228E+04  0.7818609E-02  0.8042468E-01
       -1   -1    0    0    0  501  0.00000000000E+00  0.00000000000E+00  0.14655964162E+04  0.14655964162E+04  0.50400001928E-02 0.  1.
        1   -1    0    0  501    0  0.00000000000E+00  0.00000000000E+00 -0.24855465488E+04  0.24855465488E+04  0.50400001928E-02 0. -1.
    10030    2    1    2    0    0  0.00000000000E+00  0.00000000000E+00 -0.10199501326E+04  0.39511429650E+04  0.38172283736E+04 0.  0.
        1    1    3    3  502    0 -0.20285053956E+03 -0.16375236970E+04  0.48293526948E+03  0.17192610838E+04  0.50400001928E-02 0.  1.
       -1    1    3    3    0  502  0.20285053956E+03  0.16375236970E+04 -0.15028854021E+04  0.22318818812E+04  0.50400001928E-02 0. -1.
</event>
<event>
 5   0  0.5202788E-07  0.3773096E+04  0.7818609E-02  0.8051953E-01
       -2   -1    0    0    0  501  0.00000000000E+00  0.00000000000E+00  0.24327338059E+04  0.24327338059E+04  0.25500000920E-02 0. -1.
        2   -1    0    0  501    0  0.00000000000E+00  0.00000000000E+00 -0.14629895130E+04  0.14629895130E+04  0.25500000920E-02 0.  1.
    10030    2    1    2    0    0  0.00000000000E+00  0.00000000000E+00  0.96974429286E+03  0.38957233189E+04  0.37730963655E+04 0.  0.
        1    1    3    3  502    0 -0.13715693816E+04  0.29110494894E+03 -0.81833774871E+03  0.16234596794E+04  0.50400001928E-02 0.  1.
       -1    1    3    3    0  502  0.13715693816E+04 -0.29110494894E+03  0.17880820416E+04  0.22722636394E+04  0.50400001928E-02 0. -1.
</event>
<event>
 5   0  0.1656617E-07  0.3830747E+04  0.7818609E-02  0.8039589E-01
        1   -1    0    0  501    0  0.00000000000E+00  0.00000000000E+00  0.26540110455E+04  0.26540110455E+04  0.50400001928E-02 0. -1.
       -1   -1    0    0    0  501  0.00000000000E+00  0.00000000000E+00 -0.13823060709E+04  0.13823060709E+04  0.50400001928E-02 0.  1.
    10030    2    1    2    0    0  0.00000000000E+00  0.00000000000E+00  0.12717049746E+04  0.40363171164E+04  0.38307469666E+04 0.  0.
        5    1    3    3  502    0  0.14827464469E+04  0.10589706699E+04  0.12580293090E+04  0.22141851182E+04  0.46999998093E+01 0.  1.
       -5    1    3    3    0  502 -0.14827464469E+04 -0.10589706699E+04  0.13675665651E+02  0.18221319983E+04  0.46999998093E+01 0. -1.
</event>
<event>
 5   0  0.1648000E-07  0.3666559E+04  0.7818609E-02  0.8075413E-01
       -1   -1    0    0    0  501  0.00000000000E+00  0.00000000000E+00  0.18515275271E+04  0.18515275271E+04  0.50400001928E-02 0.  1.
        1   -1    0    0  501    0  0.00000000000E+00  0.00000000000E+00 -0.18152110732E+04  0.18152110732E+04  0.50400001928E-02 0. -1.
    10030    2    1    2    0    0  0.00000000000E+00  0.00000000000E+00  0.36316453985E+02  0.36667386003E+04  0.36665587515E+04 0.  0.
        1    1    3    3  502    0 -0.64357191325E+03  0.54158912705E+03 -0.16108506715E+04  0.18172351185E+04  0.50400001928E-02 0. -1.
       -1    1    3    3    0  502  0.64357191325E+03 -0.54158912705E+03  0.16471671255E+04  0.18495034818E+04  0.50400001928E-02 0.  1.
</event>
<event>
 5   0  0.5132561E-07  0.3754126E+04  0.7818609E-02  0.8056072E-01
       -2   -1    0    0    0  501  0.00000000000E+00  0.00000000000E+00  0.15046853674E+04  0.15046853674E+04  0.25500000920E-02 0.  1.
        2   -1    0    0  501    0  0.00000000000E+00  0.00000000000E+00 -0.23415962352E+04  0.23415962352E+04  0.25500000920E-02 0. -1.
    10030    2    1    2    0    0  0.00000000000E+00  0.00000000000E+00 -0.83691086783E+03  0.38462816027E+04  0.37541260456E+04 0.  0.
        3    1    3    3  502    0  0.71147492376E+03 -0.10263831243E+04  0.10172671705E+04  0.16107424969E+04  0.10100000352E+00 0.  1.
       -3    1    3    3    0  502 -0.71147492376E+03  0.10263831243E+04 -0.18541780384E+04  0.22355391057E+04  0.10100000352E+00 0. -1.
</event>
<event>
 5   0  0.1648000E-07  0.3033543E+04  0.7818609E-02  0.8234217E-01
       -1   -1    0    0    0  501  0.00000000000E+00  0.00000000000E+00  0.28781386473E+04  0.28781386473E+04  0.50400001928E-02 0.  1.
        1   -1    0    0  501    0  0.00000000000E+00  0.00000000000E+00 -0.79933433779E+03  0.79933433780E+03  0.50400001928E-02 0. -1.
    10030    2    1    2    0    0  0.00000000000E+00  0.00000000000E+00  0.20788043095E+04  0.36774729851E+04  0.30335425164E+04 0.  0.
        1    1    3    3  502    0 -0.78446558622E+03  0.48242405597E+03  0.25004144175E+04  0.26646184502E+04  0.50400001928E-02 0.  1.
       -1    1    3    3    0  502  0.78446558622E+03 -0.48242405597E+03 -0.42161010799E+03  0.10128545349E+04  0.50400001928E-02 0. -1.
</event>
<event>
 5   0  0.1648000E-07  0.3744399E+04  0.7818609E-02  0.8058193E-01
        1   -1    0    0  501    0  0.00000000000E+00  0.00000000000E+00  0.18725583333E+04  0.18725583333E+04  0.50400001928E-02 0. -1.
       -1   -1    0    0    0  501  0.00000000000E+00  0.00000000000E+00 -0.18718405439E+04  0.18718405439E+04  0.50400001928E-02 0.  1.
    10030    2    1    2    0    0  0.00000000000E+00  0.00000000000E+00  0.71778935178E+00  0.37443988772E+04  0.37443988084E+04 0.  0.
        1    1    3    3  502    0 -0.40145347437E+03  0.10601689021E+04 -0.14896101310E+04  0.18719138163E+04  0.50400001928E-02 0.  1.
       -1    1    3    3    0  502  0.40145347437E+03 -0.10601689021E+04  0.14903279204E+04  0.18724850609E+04  0.50400001928E-02 0. -1.
</event>
<event>
 5   0  0.1648000E-07  0.3809980E+04  0.7818609E-02  0.8044017E-01
        1   -1    0    0  501    0  0.00000000000E+00  0.00000000000E+00  0.22649837419E+04  0.22649837419E+04  0.50400001928E-02 0. -1.
       -1   -1    0    0    0  501  0.00000000000E+00  0.00000000000E+00 -0.16022128576E+04  0.16022128576E+04  0.50400001928E-02 0.  1.
    10030    2    1    2    0    0  0.00000000000E+00  0.00000000000E+00  0.66277088433E+03  0.38671965996E+04  0.38099795662E+04 0.  0.
        2    1    3    3  502    0 -0.75842311900E+03 -0.55011180531E+03 -0.13521851363E+04  0.16450633023E+04  0.25500000920E-02 0.  1.
       -2    1    3    3    0  502  0.75842311900E+03  0.55011180531E+03  0.20149560206E+04  0.22221332973E+04  0.25500000920E-02 0. -1.
</event>
<event>
 5   0  0.5202788E-07  0.3630564E+04  0.7818609E-02  0.8083526E-01
       -2   -1    0    0    0  501  0.00000000000E+00  0.00000000000E+00  0.23488900539E+04  0.23488900539E+04  0.25500000920E-02 0. -1.
        2   -1    0    0  501    0  0.00000000000E+00  0.00000000000E+00 -0.14028962207E+04  0.14028962207E+04  0.25500000920E-02 0.  1.
    10030    2    1    2    0    0  0.00000000000E+00  0.00000000000E+00  0.94599383319E+03  0.37517862746E+04  0.36305641322E+04 0.  0.
        1    1    3    3  502    0  0.38082424222E+03 -0.15448713469E+03  0.23001846236E+04  0.23366092273E+04  0.50400001928E-02 0. -1.
       -1    1    3    3    0  502 -0.38082424222E+03  0.15448713469E+03 -0.13541907904E+04  0.14151770473E+04  0.50400001928E-02 0.  1.
</event>
<event>
 5   0  0.5132561E-07  0.3715085E+04  0.7818609E-02  0.8064627E-01
        2   -1    0    0  501    0  0.00000000000E+00  0.00000000000E+00  0.14670278525E+04  0.14670278525E+04  0.25500000920E-02 0.  1.
       -2   -1    0    0    0  501  0.00000000000E+00  0.00000000000E+00 -0.23520105602E+04  0.23520105602E+04  0.25500000920E-02 0. -1.
    10030    2    1    2    0    0  0.00000000000E+00  0.00000000000E+00 -0.88498270765E+03  0.38190384127E+04  0.37150854640E+04 0.  0.
        3    1    3    3  502    0 -0.79102151812E+03 -0.15689032799E+04  0.17711148960E+03  0.17659391365E+04  0.10100000352E+00 0.  1.
       -3    1    3    3    0  502  0.79102151812E+03  0.15689032799E+04 -0.10620941972E+04  0.20530992762E+04  0.10100000352E+00 0. -1.
</event>
<event>
 5   0  0.5158266E-07  0.3770245E+04  0.7818609E-02  0.8052571E-01
       -2   -1    0    0    0  501  0.00000000000E+00  0.00000000000E+00  0.20755086008E+04  0.20755086008E+04  0.25500000920E-02 0.  1.
        2   -1    0    0  501    0  0.00000000000E+00  0.00000000000E+00 -0.17122000913E+04  0.17122000913E+04  0.25500000920E-02 0. -1.
    10030    2    1    2    0    0  0.00000000000E+00  0.00000000000E+00  0.36330850954E+03  0.37877086921E+04  0.37702445628E+04 0.  0.
        2    1    3    3  502    0  0.25481337669E+02 -0.28199024305E+03  0.20540249656E+04  0.20734479388E+04  0.25500000920E-02 0.  1.
       -2    1    3    3    0  502 -0.25481337669E+02  0.28199024305E+03 -0.16907164560E+04  0.17142607533E+04  0.25500000920E-02 0. -1.
</event>
<event>
 5   0  0.5202788E-07  0.3468028E+04  0.7818609E-02  0.8121409E-01
        2   -1    0    0  501    0  0.00000000000E+00  0.00000000000E+00  0.23584614011E+04  0.23584614011E+04  0.25500000920E-02 0. -1.
       -2   -1    0    0    0  501  0.00000000000E+00  0.00000000000E+00 -0.12749005474E+04  0.12749005474E+04  0.25500000920E-02 0.  1.
    10030    2    1    2    0    0  0.00000000000E+00  0.00000000000E+00  0.10835608537E+04  0.36333619485E+04  0.34680275266E+04 0.  0.
        1    1    3    3  502    0 -0.53360353584E+03 -0.96856953336E+03 -0.85753861243E+03  0.13993684812E+04  0.50400001928E-02 0.  1.
       -1    1    3    3    0  502  0.53360353584E+03  0.96856953336E+03  0.19410994662E+04  0.22339934673E+04  0.50400001928E-02 0. -1.
</event>
<event>
 5   0  0.5132561E-07  0.3386873E+04  0.7818609E-02  0.8141136E-01
       -2   -1    0    0    0  501  0.00000000000E+00  0.00000000000E+00  0.11797502750E+04  0.11797502750E+04  0.25500000920E-02 0.  1.
        2   -1    0    0  501    0  0.00000000000E+00  0.00000000000E+00 -0.24307913225E+04  0.24307913225E+04  0.25500000920E-02 0. -1.
    10030    2    1    2    0    0  0.00000000000E+00  0.00000000000E+00 -0.12510410475E+04  0.36105415975E+04  0.33868727353E+04 0.  0.
        3    1    3    3  502    0  0.86782124820E+03  0.38969270109E+03 -0.21190240617E+04  0.23227649696E+04  0.10100000352E+00 0. -1.
       -3    1    3    3    0  502 -0.86782124820E+03 -0.38969270109E+03  0.86798301420E+03  0.12877766279E+04  0.10100000352E+00 0.  1.
</event>
<event>
 5   0  0.1648000E-07  0.3878397E+04  0.7818609E-02  0.8029537E-01
       -1   -1    0    0    0  501  0.00000000000E+00  0.00000000000E+00  0.15432785767E+04  0.15432785767E+04  0.50400001928E-02 0. -1.
        1   -1    0    0  501    0  0.00000000000E+00  0.00000000000E+00 -0.24366894419E+04  0.24366894419E+04  0.50400001928E-02 0.  1.
    10030    2    1    2    0    0  0.00000000000E+00  0.00000000000E+00 -0.89341086518E+03  0.39799680186E+04  0.38783968924E+04 0.  0.
        1    1    3    3  502    0  0.87481730039E+03 -0.14686376547E+04 -0.13862646326E+04  0.22008933417E+04  0.50400001928E-02 0.  1.
       -1    1    3    3    0  502 -0.87481730039E+03  0.14686376547E+04  0.49285376743E+03  0.17790746769E+04  0.50400001928E-02 0. -1.
</event>
<event>
 5   0  0.1648000E-07  0.3791585E+04  0.7818609E-02  0.8047963E-01
        3   -1    0    0  501    0  0.00000000000E+00  0.00000000000E+00  0.25633520051E+04  0.25633520071E+04  0.10100000352E+00 0.  1.
       -3   -1    0    0    0  501  0.00000000000E+00  0.00000000000E+00 -0.14020819347E+04  0.14020819384E+04  0.10100000352E+00 0. -1.
    10030    2    1    2    0    0  0.00000000000E+00  0.00000000000E+00  0.11612700704E+04  0.39654339455E+04  0.37915851830E+04 0.  0.
        5    1    3    3  502    0 -0.12327858091E+04 -0.67069552173E+03  0.19135986083E+04  0.23730729145E+04  0.46999998093E+01 0.  1.
       -5    1    3    3    0  502  0.12327858091E+04  0.67069552173E+03 -0.75232853790E+03  0.15923610310E+04  0.46999998093E+01 0. -1.
</event>
<event>
 5   0  0.5325362E-07  0.3697071E+04  0.7818609E-02  0.8068611E-01
        2   -1    0    0  501    0  0.00000000000E+00  0.00000000000E+00  0.28722145501E+04  0.28722145501E+04  0.25500000920E-02 0. -1.
       -2   -1    0    0    0  501  0.00000000000E+00  0.00000000000E+00 -0.11897034292E+04  0.11897034292E+04  0.25500000920E-02 0.  1.
    10030    2    1    2    0    0  0.00000000000E+00  0.00000000000E+00  0.16825111209E+04  0.40619179793E+04  0.36970710026E+04 0.  0.
        4    1    3    3  502    0 -0.10427815734E+04  0.10571628051E+04  0.20508554497E+04  0.25319945290E+04  0.12699999809E+01 0. -1.
       -4    1    3    3    0  502  0.10427815734E+04 -0.10571628051E+04 -0.36834432877E+03  0.15299234503E+04  0.12699999809E+01 0.  1.
</event>
<event>
 5   0  0.5158266E-07  0.3675947E+04  0.7818609E-02  0.8073313E-01
       -2   -1    0    0    0  501  0.00000000000E+00  0.00000000000E+00  0.23808425170E+04  0.23808425170E+04  0.25500000920E-02 0.  1.
        2   -1    0    0  501    0  0.00000000000E+00  0.00000000000E+00 -0.14188867658E+04  0.14188867658E+04  0.25500000920E-02 0. -1.
    10030    2    1    2    0    0  0.00000000000E+00  0.00000000000E+00  0.96195575124E+03  0.37997292828E+04  0.36759466475E+04 0.  0.
        2    1    3    3  502    0  0.69645802914E+03 -0.12246994713E+04 -0.73910887935E+03  0.15909822491E+04  0.25500000920E-02 0. -1.
       -2    1    3    3    0  502 -0.69645802914E+03  0.12246994713E+04  0.17010646306E+04  0.22087470337E+04  0.25500000920E-02 0.  1.
</event>
<event>
 5   0  0.1648000E-07  0.3854463E+04  0.7818609E-02  0.8034567E-01
       -1   -1    0    0    0  501  0.00000000000E+00  0.00000000000E+00  0.15582442183E+04  0.15582442183E+04  0.50400001928E-02 0.  1.
        1   -1    0    0  501    0  0.00000000000E+00  0.00000000000E+00 -0.23835933081E+04  0.23835933081E+04  0.50400001928E-02 0. -1.
    10030    2    1    2    0    0  0.00000000000E+00  0.00000000000E+00 -0.82534908988E+03  0.39418375264E+04  0.38544626039E+04 0.  0.
        2    1    3    3  502    0  0.10875319376E+04 -0.60533084175E+03  0.10920977581E+04  0.16558468095E+04  0.25500000920E-02 0.  1.
       -2    1    3    3    0  502 -0.10875319376E+04  0.60533084175E+03 -0.19174468480E+04  0.22859907169E+04  0.25500000920E-02 0. -1.
</event>
<event>
 5   0  0.1648000E-07  0.3792487E+04  0.7818609E-02  0.8047769E-01
       -1   -1    0    0    0  501  0.00000000000E+00  0.00000000000E+00  0.15105621689E+04  0.15105621689E+04  0.50400001928E-02 0. -1.
        1   -1    0    0  501    0  0.00000000000E+00  0.00000000000E+00 -0.23803981856E+04  0.23803981856E+04  0.50400001928E-02 0.  1.
    10030    2    1    2    0    0  0.00000000000E+00  0.00000000000E+00 -0.86983601667E+03  0.38909603545E+04  0.37924870183E+04 0.  0.
        2    1    3    3  502    0 -0.15498946862E+04  0.15252231904E+03 -0.15448128530E+04  0.21936005441E+04  0.25500000920E-02 0.  1.
       -2    1    3    3    0  502  0.15498946862E+04 -0.15252231904E+03  0.67497683635E+03  0.16973598104E+04  0.25500000920E-02 0. -1.
</event>
<event>
 5   0  0.5202788E-07  0.3825759E+04  0.7818609E-02  0.8040650E-01
        2   -1    0    0  501    0  0.00000000000E+00  0.00000000000E+00  0.23213693376E+04  0.23213693376E+04  0.25500000920E-02 0. -1.
       -2   -1    0    0    0  501  0.00000000000E+00  0.00000000000E+00 -0.15762711110E+04  0.15762711110E+04  0.25500000920E-02 0.  1.
    10030    2    1    2    0    0  0.00000000000E+00  0.00000000000E+00  0.74509822666E+03  0.38976404486E+04  0.38257587089E+04 0.  0.
        1    1    3    3  502    0  0.62944367507E+03 -0.35243865936E+03 -0.14323742273E+04  0.16037793725E+04  0.50400001928E-02 0.  1.
       -1    1    3    3    0  502 -0.62944367507E+03  0.35243865936E+03  0.21774724539E+04  0.22938610761E+04  0.50400001928E-02 0. -1.
</event>
<event>
 5   0  0.1648000E-07  0.3794126E+04  0.7818609E-02  0.8047417E-01
       -1   -1    0    0    0  501  0.00000000000E+00  0.00000000000E+00  0.25499280722E+04  0.25499280722E+04  0.50400001928E-02 0. -1.
        1   -1    0    0  501    0  0.00000000000E+00  0.00000000000E+00 -0.14113524246E+04  0.14113524246E+04  0.50400001928E-02 0.  1.
    10030    2    1    2    0    0  0.00000000000E+00  0.00000000000E+00  0.11385756476E+04  0.39612804968E+04  0.37941255474E+04 0.  0.
        1    1    3    3  502    0 -0.61990770073E+03  0.14661248615E+04 -0.50818606855E+03  0.16709460635E+04  0.50400001928E-02 0.  1.
       -1    1    3    3    0  502  0.61990770073E+03 -0.14661248615E+04  0.16467617161E+04  0.22903344333E+04  0.50400001928E-02 0. -1.
</event>
<event>
 5   0  0.1656617E-07  0.3810509E+04  0.7818609E-02  0.8043903E-01
        1   -1    0    0  501    0  0.00000000000E+00  0.00000000000E+00  0.19671977664E+04  0.19671977664E+04  0.50400001928E-02 0. -1.
       -1   -1    0    0    0  501  0.00000000000E+00  0.00000000000E+00 -0.18452621075E+04  0.18452621075E+04  0.50400001928E-02 0.  1.
    10030    2    1    2    0    0  0.00000000000E+00  0.00000000000E+00  0.12193565888E+03  0.38124598739E+04  0.38105094128E+04 0.  0.
        5    1    3    3  502    0 -0.10625322019E+04  0.78346158891E+03  0.14354201290E+04  0.19501896775E+04  0.46999998093E+01 0. -1.
       -5    1    3    3    0  502  0.10625322019E+04 -0.78346158891E+03 -0.13134844701E+04  0.18622701964E+04  0.46999998093E+01 0.  1.
</event>
<event>
 5   0  0.1648000E-07  0.3784277E+04  0.7818609E-02  0.8049537E-01
        1   -1    0    0  501    0  0.00000000000E+00  0.00000000000E+00  0.10916475927E+04  0.10916475927E+04  0.50400001928E-02 0.  1.
       -1   -1    0    0    0  501  0.00000000000E+00  0.00000000000E+00 -0.32796188647E+04  0.32796188647E+04  0.50400001928E-02 0. -1.
    10030    2    1    2    0    0  0.00000000000E+00  0.00000000000E+00 -0.21879712721E+04  0.43712664574E+04  0.37842769659E+04 0.  0.
        1    1    3    3  502    0 -0.14412041823E+04 -0.73118534628E+03  0.42780582631E+02  0.16166421014E+04  0.50400001928E-02 0.  1.
       -1    1    3    3    0  502  0.14412041823E+04  0.73118534628E+03 -0.22307518547E+04  0.27546243560E+04  0.50400001928E-02 0. -1.
</event>
<event>
 5   0  0.1648000E-07  0.3652494E+04  0.7818609E-02  0.8078572E-01
        1   -1    0    0  501    0  0.00000000000E+00  0.00000000000E+00  0.29235572279E+04  0.29235572279E+04  0.50400001928E-02 0. -1.
       -1   -1    0    0    0  501  0.00000000000E+00  0.00000000000E+00 -0.11407946882E+04  0.11407946882E+04  0.50400001928E-02 0.  1.
    10030    2    1    2    0    0  0.00000000000E+00  0.00000000000E+00  0.17827625397E+04  0.40643519162E+04  0.36524942472E+04 0.  0.
        3    1    3    3  502    0  0.12931695362E+04  0.11155676239E+04  0.17160489398E+03  0.17164576378E+04  0.10100000352E+00 0.  1.
       -3    1    3    3    0  502 -0.12931695362E+04 -0.11155676239E+04  0.16111576457E+04  0.23478942783E+04  0.10100000352E+00 0. -1.
</event>
<event>
 5   0  0.5132561E-07  0.3752584E+04  0.7818609E-02  0.8056407E-01
       -2   -1    0    0    0  501  0.00000000000E+00  0.00000000000E+00  0.14750368876E+04  0.14750368876E+04  0.25500000920E-02 0. -1.
        2   -1    0    0  501    0  0.00000000000E+00  0.00000000000E+00 -0.23867005937E+04  0.23867005938E+04  0.25500000920E-02 0.  1.
    10030    2    1    2    0    0  0.00000000000E+00  0.00000000000E+00 -0.91166370612E+03  0.38617374814E+04  0.37525838648E+04 0.  0.
        3    1    3    3  502    0 -0.14409969087E+04  0.16156581322E+03 -0.16812223243E+04  0.22201540750E+04  0.10100000352E+00 0.  1.
       -3    1    3    3    0  502  0.14409969087E+04 -0.16156581322E+03  0.76955861818E+03  0.16415834064E+04  0.10100000352E+00 0. -1.
</event>
<event>
 5   0  0.5202788E-07  0.2912504E+04  0.7818609E-02  0.8269167E-01
       -2   -1    0    0    0  501  0.00000000000E+00  0.00000000000E+00  0.10486334624E+04  0.10486334624E+04  0.25500000920E-02 0. -1.
        2   -1    0    0  501    0  0.00000000000E+00  0.00000000000E+00 -0.20223172359E+04  0.20223172359E+04  0.25500000920E-02 0.  1.
    10030    2    1    2    0    0  0.00000000000E+00  0.00000000000E+00 -0.97368377346E+03  0.30709506984E+04  0.29125037512E+04 0.  0.
        1    1    3    3  502    0  0.10530688020E+04 -0.52341401149E+03 -0.13924951567E+04  0.18226241770E+04  0.50400001928E-02 0.  1.
       -1    1    3    3    0  502 -0.10530688020E+04  0.52341401149E+03  0.41881138322E+03  0.12483265214E+04  0.50400001928E-02 0. -1.
</event>
<event>
 5   0  0.5325362E-07  0.3800691E+04  0.7818609E-02  0.8046007E-01
        2   -1    0    0  501    0  0.00000000000E+00  0.00000000000E+00  0.26477830962E+04  0.26477830962E+04  0.25500000920E-02 0. -1.
       -2   -1    0    0    0  501  0.00000000000E+00  0.00000000000E+00 -0.13639005950E+04  0.13639005950E+04  0.25500000920E-02 0.  1.
    10030    2    1    2    0    0  0.00000000000E+00  0.00000000000E+00  0.12838825012E+04  0.40116836912E+04  0.38006909584E+04 0.  0.
        4    1    3    3  502    0 -0.87282464617E+02 -0.44501375564E+03  0.25898315970E+04  0.26292365403E+04  0.12699999809E+01 0. -1.
       -4    1    3    3    0  502  0.87282464617E+02  0.44501375564E+03 -0.13059490957E+04  0.13824471509E+04  0.12699999809E+01 0.  1.
</event>
<event>
 5   0  0.1648000E-07  0.3533115E+04  0.7818609E-02  0.8105987E-01
        1   -1    0    0  501    0  0.00000000000E+00  0.00000000000E+00  0.21286349708E+04  0.21286349708E+04  0.50400001928E-02 0.  1.
       -1   -1    0    0    0  501  0.00000000000E+00  0.00000000000E+00 -0.14660687230E+04  0.14660687230E+04  0.50400001928E-02 0. -1.
    10030    2    1    2    0    0  0.00000000000E+00  0.00000000000E+00  0.66256624775E+03  0.35947036938E+04  0.35331148599E+04 0.  0.
        2    1    3    3  502    0 -0.19999882789E+03 -0.93230608150E+03  0.18443281651E+04  0.20762322946E+04  0.25500000920E-02 0.  1.
       -2    1    3    3    0  502  0.19999882789E+03  0.93230608150E+03 -0.11817619173E+04  0.15184713991E+04  0.25500000920E-02 0. -1.
</event>
<event>
 5   0  0.5134434E-07  0.3802446E+04  0.7818609E-02  0.8045630E-01
        2   -1    0    0  501    0  0.00000000000E+00  0.00000000000E+00  0.22437167309E+04  0.22437167309E+04  0.25500000920E-02 0.  1.
       -2   -1    0    0    0  501  0.00000000000E+00  0.00000000000E+00 -0.16110091378E+04  0.16110091378E+04  0.25500000920E-02 0. -1.
    10030    2    1    2    0    0  0.00000000000E+00  0.00000000000E+00  0.63270759315E+03  0.38547258687E+04  0.38024456110E+04 0.  0.
        5    1    3    3  502    0 -0.41131649948E+03  0.37174362536E+02 -0.15649807177E+04  0.16185641577E+04  0.46999998093E+01 0. -1.
       -5    1    3    3    0  502  0.41131649948E+03 -0.37174362536E+02  0.21976883108E+04  0.22361617110E+04  0.46999998093E+01 0.  1.
</event>
<event>
 5   0  0.5134434E-07  0.3757797E+04  0.7818609E-02  0.8055273E-01
        2   -1    0    0  501    0  0.00000000000E+00  0.00000000000E+00  0.11778092130E+04  0.11778092130E+04  0.25500000920E-02 0. -1.
       -2   -1    0    0    0  501  0.00000000000E+00  0.00000000000E+00 -0.29973100360E+04  0.29973100360E+04  0.25500000920E-02 0.  1.
    10030    2    1    2    0    0  0.00000000000E+00  0.00000000000E+00 -0.18195008230E+04  0.41751192490E+04  0.37577968943E+04 0.  0.
        5    1    3    3  502    0  0.35240088025E+03 -0.12026710111E+04  0.64558117261E+03  0.14097521348E+04  0.46999998093E+01 0. -1.
       -5    1    3    3    0  502 -0.35240088025E+03  0.12026710111E+04 -0.24650819956E+04  0.27653671142E+04  0.46999998093E+01 0.  1.
</event>
<event>
 5   0  0.5132561E-07  0.3840268E+04  0.7818609E-02  0.8037568E-01
        2   -1    0    0  501    0  0.00000000000E+00  0.00000000000E+00  0.26958424398E+04  0.26958424398E+04  0.25500000920E-02 0. -1.
       -2   -1    0    0    0  501  0.00000000000E+00  0.00000000000E+00 -0.13676298025E+04  0.13676298025E+04  0.25500000920E-02 0.  1.
    10030    2    1    2    0    0  0.00000000000E+00  0.00000000000E+00  0.13282126372E+04  0.40634722423E+04  0.38402679404E+04 0.  0.
        3    1    3    3  502    0  0.16069645386E+03  0.16314355166E+04 -0.39375608187E+03  0.16859564222E+04  0.10100000352E+00 0.  1.
       -3    1    3    3    0  502 -0.16069645386E+03 -0.16314355166E+04  0.17219687191E+04  0.23775158201E+04  0.10100000352E+00 0. -1.
</event>
<event>
 5   0  0.5134434E-07  0.3782756E+04  0.7818609E-02  0.8049866E-01
       -2   -1    0    0    0  501  0.00000000000E+00  0.00000000000E+00  0.14159571578E+04  0.14159571578E+04  0.25500000920E-02 0. -1.
        2   -1    0    0  501    0  0.00000000000E+00  0.00000000000E+00 -0.25264254630E+04  0.25264254631E+04  0.25500000920E-02 0.  1.
    10030    2    1    2    0    0  0.00000000000E+00  0.00000000000E+00 -0.11104683053E+04  0.39423826208E+04  0.37827557246E+04 0.  0.
        5    1    3    3  502    0  0.13394876139E+02  0.82902705444E+03 -0.23269174250E+04  0.24702291538E+04  0.46999998093E+01 0.  1.
       -5    1    3    3    0  502 -0.13394876139E+02 -0.82902705444E+03  0.12164491197E+04  0.14721534670E+04  0.46999998093E+01 0. -1.
</event>
<event>
 5   0  0.5158266E-07  0.3809664E+04  0.7818609E-02  0.8044084E-01
        2   -1    0    0  501    0  0.00000000000E+00  0.00000000000E+00  0.28384407703E+04  0.28384407703E+04  0.25500000920E-02 0.  1.
       -2   -1    0    0    0  501  0.00000000000E+00  0.00000000000E+00 -0.12783021713E+04  0.12783021713E+04  0.25500000920E-02 0. -1.
    10030    2    1    2    0    0  0.00000000000E+00  0.00000000000E+00  0.15601385990E+04  0.41167429416E+04  0.38096640271E+04 0.  0.
        2    1    3    3  502    0  0.52140280803E+03  0.11712250686E+04 -0.74230214356E+03  0.14814322536E+04  0.25500000920E-02 0. -1.
       -2    1    3    3    0  502 -0.52140280803E+03 -0.11712250686E+04  0.23024407425E+04  0.26353106880E+04  0.25500000920E-02 0.  1.
</event>
<event>
 5   0  0.5134434E-07  0.3812426E+04  0.7818609E-02  0.8043494E-01
       -2   -1    0    0    0  501  0.00000000000E+00  0.00000000000E+00  0.15097359789E+04  0.15097359789E+04  0.25500000920E-02 0. -1.
        2   -1    0    0  501    0  0.00000000000E+00  0.00000000000E+00 -0.24068101252E+04  0.24068101252E+04  0.25500000920E-02 0.  1.
    10030    2    1    2    0    0  0.00000000000E+00  0.00000000000E+00 -0.89707414628E+03  0.39165461041E+04  0.38124259156E+04 0.  0.
        5    1    3    3  502    0  0.58844471182E+03 -0.14556879180E+04 -0.15589508159E+04  0.22126102752E+04  0.46999998093E+01 0.  1.
       -5    1    3    3    0  502 -0.58844471182E+03  0.14556879180E+04  0.66187666965E+03  0.17039358290E+04  0.46999998093E+01 0. -1.
</event>
<event>
 5   0  0.5158266E-07  0.3765456E+04  0.7818609E-02  0.8053609E-01
        2   -1    0    0  501    0  0.00000000000E+00  0.00000000000E+00  0.21625798193E+04  0.21625798193E+04  0.25500000920E-02 0.  1.
       -2   -1    0    0    0  501  0.00000000000E+00  0.00000000000E+00 -0.16390903995E+04  0.16390903995E+04  0.25500000920E-02 0. -1.
    10030    2    1    2    0    0  0.00000000000E+00  0.00000000000E+00  0.52348941977E+03  0.38016702188E+04  0.37654555209E+04 0.  0.
        2    1    3    3  502    0  0.51622648581E+03 -0.17733109267E+04 -0.10720442428E+03  0.18500308689E+04  0.25500000920E-02 0. -1.
       -2    1    3    3    0  502 -0.51622648581E+03  0.17733109267E+04  0.63069384404E+03  0.19516393499E+04  0.25500000920E-02 0.  1.
</event>
<event>
 5   0  0.5325362E-07  0.3829688E+04  0.7818609E-02  0.8039814E-01
        2   -1    0    0  501    0  0.00000000000E+00  0.00000000000E+00  0.25165619204E+04  0.25165619204E+04  0.25500000920E-02 0.  1.
       -2   -1    0    0    0  501  0.00000000000E+00  0.00000000000E+00 -0.14569987596E+04  0.14569987596E+04  0.25500000920E-02 0. -1.
    10030    2    1    2    0    0  0.00000000000E+00  0.00000000000E+00  0.10595631608E+04  0.39735606800E+04  0.38296880272E+04 0.  0.
        4    1    3    3  502    0 -0.10965061167E+03  0.50079293605E+03 -0.13844701745E+04  0.14763387478E+04  0.12699999809E+01 0. -1.
       -4    1    3    3    0  502  0.10965061167E+03 -0.50079293605E+03  0.24440333353E+04  0.24972219321E+04  0.12699999809E+01 0.  1.
</event>
<event>
 5   0  0.5202788E-07  0.3801862E+04  0.7818609E-02  0.8045755E-01
       -2   -1    0    0    0  501  0.00000000000E+00  0.00000000000E+00  0.19377745101E+04  0.19377745101E+04  0.25500000920E-02 0. -1.
        2   -1    0    0  501    0  0.00000000000E+00  0.00000000000E+00 -0.18647883799E+04  0.18647883799E+04  0.25500000920E-02 0.  1.
    10030    2    1    2    0    0  0.00000000000E+00  0.00000000000E+00  0.72986130224E+02  0.38025628900E+04  0.38018623801E+04 0.  0.
        1    1    3    3  502    0  0.17688590304E+04 -0.93319399401E+01  0.73274634289E+03  0.19146452825E+04  0.50400001928E-02 0. -1.
       -1    1    3    3    0  502 -0.17688590304E+04  0.93319399401E+01 -0.65976021267E+03  0.18879176075E+04  0.50400001928E-02 0.  1.
</event>
<event>
 5   0  0.1648000E-07  0.3605751E+04  0.7818609E-02  0.8089176E-01
        1   -1    0    0  501    0  0.00000000000E+00  0.00000000000E+00  0.19403560402E+04  0.19403560402E+04  0.50400001928E-02 0.  1.
       -1   -1    0    0    0  501  0.00000000000E+00  0.00000000000E+00 -0.16751357550E+04  0.16751357550E+04  0.50400001928E-02 0. -1.
    10030    2    1    2    0    0  0.00000000000E+00  0.00000000000E+00  0.26522028523E+03  0.36154917953E+04  0.36057508402E+04 0.  0.
        1    1    3    3  502    0  0.10290216240E+04 -0.14067804156E+04 -0.32955056873E+03  0.17738433464E+04  0.50400001928E-02 0. -1.
       -1    1    3    3    0  502 -0.10290216240E+04  0.14067804156E+04  0.59477085395E+03  0.18416484488E+04  0.50400001928E-02 0.  1.
</event>
<event>
 5   0  0.1656617E-07  0.3802654E+04  0.7818609E-02  0.8045586E-01
       -1   -1    0    0    0  501  0.00000000000E+00  0.00000000000E+00  0.11975453090E+04  0.11975453090E+04  0.50400001928E-02 0.  1.
        1   -1    0    0  501    0  0.00000000000E+00  0.00000000000E+00 -0.30187112168E+04  0.30187112168E+04  0.50400001928E-02 0. -1.
    10030    2    1    2    0    0  0.00000000000E+00  0.00000000000E+00 -0.18211659077E+04  0.42162565258E+04  0.38026535246E+04 0.  0.
        5    1    3    3  502    0  0.14342622989E+04 -0.31426137024E+03 -0.22499223954E+04  0.26866412909E+04  0.46999998093E+01 0. -1.
       -5    1    3    3    0  502 -0.14342622989E+04  0.31426137024E+03  0.42875648765E+03  0.15296152349E+04  0.46999998093E+01 0.  1.
</event>
<event>
 5   0  0.1648000E-07  0.3820042E+04  0.7818609E-02  0.8041868E-01
        1   -1    0    0  501    0  0.00000000000E+00  0.00000000000E+00  0.21695922450E+04  0.21695922450E+04  0.50400001928E-02 0.  1.
       -1   -1    0    0    0  501  0.00000000000E+00  0.00000000000E+00 -0.16815047689E+04  0.16815047689E+04  0.50400001928E-02 0. -1.
    10030    2    1    2    0    0  0.00000000000E+00  0.00000000000E+00  0.48808747608E+03  0.38510970139E+04  0.38200417309E+04 0.  0.
        2    1    3    3  502    0 -0.15782772505E+04 -0.98581715793E+03 -0.19002032674E+03  0.18705352904E+04  0.25500000920E-02 0. -1.
       -2    1    3    3    0  502  0.15782772505E+04  0.98581715793E+03  0.67810780282E+03  0.19805617235E+04  0.25500000920E-02 0.  1.
</event>
<event>
 5   0  0.1656617E-07  0.3577089E+04  0.7818609E-02  0.8095760E-01
        1   -1    0    0  501    0  0.00000000000E+00  0.00000000000E+00  0.19830390634E+04  0.19830390634E+04  0.50400001928E-02 0. -1.
       -1   -1    0    0    0  501  0.00000000000E+00  0.00000000000E+00 -0.16131257765E+04  0.16131257765E+04  0.50400001928E-02 0.  1.
    10030    2    1    2    0    0  0.00000000000E+00  0.00000000000E+00  0.36991328694E+03  0.35961648399E+04  0.35770890003E+04 0.  0.
        5    1    3    3  502    0 -0.11754067786E+03  0.17230523154E+04 -0.28243579777E+03  0.17500049035E+04  0.46999998093E+01 0.  1.
       -5    1    3    3    0  502  0.11754067786E+03 -0.17230523154E+04  0.65234908471E+03  0.18461599364E+04  0.46999998093E+01 0. -1.
</event>
<event>
 5   0  0.5202788E-07  0.3797507E+04  0.7818609E-02  0.8046690E-01
        2   -1    0    0  501    0  0.00000000000E+00  0.00000000000E+00  0.19721421373E+04  0.19721421373E+04  0.25500000920E-02 0.  1.
       -2   -1    0    0    0  501  0.00000000000E+00  0.00000000000E+00 -0.18280959640E+04  0.18280959640E+04  0.25500000920E-02 0. -1.
    10030    2    1    2    0    0  0.00000000000E+00  0.00000000000E+00  0.14404617336E+03  0.38002381013E+04  0.37975071200E+04 0.  0.
        1    1    3    3  502    0 -0.18322159614E+04 -0.27913792588E+03  0.48503258711E+03  0.19157739745E+04  0.50400001928E-02 0.  1.
       -1    1    3    3    0  502  0.18322159614E+04  0.27913792588E+03 -0.34098641375E+03  0.18844641268E+04  0.50400001928E-02 0. -1.
</event>
<event>
 5   0  0.5325362E-07  0.3178399E+04  0.7818609E-02  0.8194545E-01
       -2   -1    0    0    0  501  0.00000000000E+00  0.00000000000E+00  0.10914754945E+04  0.10914754945E+04  0.25500000920E-02 0.  1.
        2   -1    0    0  501    0  0.00000000000E+00  0.00000000000E+00 -0.23138904786E+04  0.23138904786E+04  0.25500000920E-02 0. -1.
    10030    2    1    2    0    0  0.00000000000E+00  0.00000000000E+00 -0.12224149841E+04  0.34053659731E+04  0.31783988135E+04 0.  0.
        4    1    3    3  502    0 -0.59712984313E+03  0.12561275332E+04 -0.14349621793E+04  0.19983839717E+04  0.12699999809E+01 0.  1.
       -4    1    3    3    0  502  0.59712984313E+03 -0.12561275332E+04  0.21254719521E+03  0.14069820014E+04  0.12699999809E+01 0. -1.
</event>
<event>
 5   0  0.1648000E-07  0.3766154E+04  0.7818609E-02  0.8053457E-01
        1   -1    0    0  501    0  0.00000000000E+00  0.00000000000E+00  0.19575110319E+04  0.19575110320E+04  0.50400001928E-02 0.  1.
       -1   -1    0    0    0  501  0.00000000000E+00  0.00000000000E+00 -0.18114730527E+04  0.18114730527E+04  0.50400001928E-02 0. -1.
    10030    2    1    2    0    0  0.00000000000E+00  0.00000000000E+00  0.14603797925E+03  0.37689840847E+04  0.37661537328E+04 0.  0.
        4    1    3    3  502    0 -0.76120430307E+03 -0.11632746714E+04  0.13441455574E+04  0.19337447723E+04  0.12699999809E+01 0.  1.
       -4    1    3    3    0  502  0.76120430307E+03  0.11632746714E+04 -0.11981075781E+04  0.18352393124E+04  0.12699999809E+01 0. -1.
</event>
<event>
 5   0  0.1648000E-07  0.2769288E+04  0.7818609E-02  0.8312867E-01
        1   -1    0    0  501    0  0.00000000000E+00  0.00000000000E+00  0.11809288965E+04  0.11809288965E+04  0.50400001928E-02 0. -1.
       -1   -1    0    0    0  501  0.00000000000E+00  0.00000000000E+00 -0.16235004391E+04  0.16235004392E+04  0.50400001928E-02 0.  1.
    10030    2    1    2    0    0  0.00000000000E+00  0.00000000000E+00 -0.44257154268E+03  0.28044293356E+04  0.27692876933E+04 0.  0.
        2    1    3    3  502    0 -0.50742351307E+03 -0.74605372541E+03 -0.12849300947E+04  0.15700701039E+04  0.25500000920E-02 0.  1.
       -2    1    3    3    0  502  0.50742351307E+03  0.74605372541E+03  0.84235855203E+03  0.12343592317E+04  0.25500000920E-02 0. -1.
</event>
<event>
 5   0  0.1648000E-07  0.3835357E+04  0.7818609E-02  0.8038610E-01
        1   -1    0    0  501    0  0.00000000000E+00  0.00000000000E+00  0.25449610447E+04  0.25449610447E+04  0.50400001928E-02 0.  1.
       -1   -1    0    0    0  501  0.00000000000E+00  0.00000000000E+00 -0.14450086163E+04  0.14450086163E+04  0.50400001928E-02 0. -1.
    10030    2    1    2    0    0  0.00000000000E+00  0.00000000000E+00  0.10999524284E+04  0.39899696611E+04  0.38353569002E+04 0.  0.
        2    1    3    3  502    0 -0.13017719500E+04  0.53097418504E+03 -0.80680299693E+03  0.16209487564E+04  0.25500000920E-02 0. -1.
       -2    1    3    3    0  502  0.13017719500E+04 -0.53097418504E+03  0.19067554253E+04  0.23690209047E+04  0.25500000920E-02 0.  1.
</event>
<event>
 5   0  0.5158266E-07  0.3783866E+04  0.7818609E-02  0.8049626E-01
       -2   -1    0    0    0  501  0.00000000000E+00  0.00000000000E+00  0.23428084215E+04  0.23428084215E+04  0.25500000920E-02 0. -1.
        2   -1    0    0  501    0  0.00000000000E+00  0.00000000000E+00 -0.15278291515E+04  0.15278291515E+04  0.25500000920E-02 0.  1.
    10030    2    1    2    0    0  0.00000000000E+00  0.00000000000E+00  0.81497926993E+03  0.38706375730E+04  0.37838662782E+04 0.  0.
        2    1    3    3  502    0 -0.10797019933E+04  0.14916749043E+04  0.85168312599E+03  0.20288456229E+04  0.25500000920E-02 0.  1.
       -2    1    3    3    0  502  0.10797019933E+04 -0.14916749043E+04 -0.36703856058E+02  0.18417919501E+04  0.25500000920E-02 0. -1.
</event>
<event>
 5   0  0.1648000E-07  0.3779750E+04  0.7818609E-02  0.8050515E-01
        1   -1    0    0  501    0  0.00000000000E+00  0.00000000000E+00  0.19139697319E+04  0.19139697319E+04  0.50400001928E-02 0. -1.
       -1   -1    0    0    0  501  0.00000000000E+00  0.00000000000E+00 -0.18660834642E+04  0.18660834642E+04  0.50400001928E-02 0.  1.
    10030    2    1    2    0    0  0.00000000000E+00  0.00000000000E+00  0.47886267717E+02  0.37800531961E+04  0.37797498688E+04 0.  0.
        1    1    3    3  502    0 -0.67808046373E+03 -0.12363484799E+04 -0.12344410351E+04  0.18740852030E+04  0.50400001928E-02 0.  1.
       -1    1    3    3    0  502  0.67808046373E+03  0.12363484799E+04  0.12823273028E+04  0.19059679931E+04  0.50400001928E-02 0. -1.
</event>
<event>
 5   0  0.1648000E-07  0.2829265E+04  0.7818609E-02  0.8294240E-01
       -1   -1    0    0    0  501  0.00000000000E+00  0.00000000000E+00  0.84672781675E+03  0.84672781676E+03  0.50400001928E-02 0.  1.
        1   -1    0    0  501    0  0.00000000000E+00  0.00000000000E+00 -0.23634335705E+04  0.23634335705E+04  0.50400001928E-02 0. -1.
    10030    2    1    2    0    0  0.00000000000E+00  0.00000000000E+00 -0.15167057538E+04  0.32101613873E+04  0.28292648849E+04 0.  0.
        4    1    3    3  502    0 -0.82060646577E+03 -0.72636651157E+02  0.54647466115E+03  0.98858850031E+03  0.12699999809E+01 0.  1.
       -4    1    3    3    0  502  0.82060646577E+03  0.72636651157E+02 -0.20631804149E+04  0.22215728870E+04  0.12699999809E+01 0. -1.
</event>
<event>
 5   0  0.1648000E-07  0.3437080E+04  0.7818609E-02  0.8128865E-01
        1   -1    0    0  501    0  0.00000000000E+00  0.00000000000E+00  0.18830622989E+04  0.18830622989E+04  0.50400001928E-02 0.  1.
       -1   -1    0    0    0  501  0.00000000000E+00  0.00000000000E+00 -0.15683917425E+04  0.15683917425E+04  0.50400001928E-02 0. -1.
    10030    2    1    2    0    0  0.00000000000E+00  0.00000000000E+00  0.31467055644E+03  0.34514540414E+04  0.34370797839E+04 0.  0.
        3    1    3    3  502    0 -0.10882977534E+04  0.19003648603E+03  0.14792270813E+04  0.18462444676E+04  0.10100000352E+00 0.  1.
       -3    1    3    3    0  502  0.10882977534E+04 -0.19003648603E+03 -0.11645565248E+04  0.16052095738E+04  0.10100000352E+00 0. -1.
</event>
<event>
 5   0  0.1648000E-07  0.3133143E+04  0.7818609E-02  0.8206701E-01
       -1   -1    0    0    0  501  0.00000000000E+00  0.00000000000E+00  0.18147677446E+04  0.18147677446E+04  0.50400001928E-02 0. -1.
        1   -1    0    0  501    0  0.00000000000E+00  0.00000000000E+00 -0.13523195016E+04  0.13523195016E+04  0.50400001928E-02 0.  1.
    10030    2    1    2    0    0  0.00000000000E+00  0.00000000000E+00  0.46244824306E+03  0.31670872462E+04  0.31331427110E+04 0.  0.
        4    1    3    3  502    0  0.24961622264E+03 -0.11873273239E+04 -0.77051686457E+03  0.14372725156E+04  0.12699999809E+01 0.  1.
       -4    1    3    3    0  502 -0.24961622264E+03  0.11873273239E+04  0.12329651076E+04  0.17298147306E+04  0.12699999809E+01 0. -1.
</event>
<event>
 5   0  0.5325362E-07  0.3772641E+04  0.7818609E-02  0.8052052E-01
       -2   -1    0    0    0  501  0.00000000000E+00  0.00000000000E+00  0.17958547455E+04  0.17958547455E+04  0.25500000920E-02 0. -1.
        2   -1    0    0  501    0  0.00000000000E+00  0.00000000000E+00 -0.19813437264E+04  0.19813437264E+04  0.25500000920E-02 0.  1.
    10030    2    1    2    0    0  0.00000000000E+00  0.00000000000E+00 -0.18548898091E+03  0.37771984719E+04  0.37726412676E+04 0.  0.
        4    1    3    3  502    0  0.59547955235E+03 -0.16451901083E+04  0.61305921232E+03  0.18539389419E+04  0.12699999809E+01 0. -1.
       -4    1    3    3    0  502 -0.59547955235E+03  0.16451901083E+04 -0.79854819322E+03  0.19232595299E+04  0.12699999809E+01 0.  1.
</event>
<event>
 5   0  0.5158266E-07  0.3658137E+04  0.7818609E-02  0.8077303E-01
        2   -1    0    0  501    0  0.00000000000E+00  0.00000000000E+00  0.15457136611E+04  0.15457136611E+04  0.25500000920E-02 0.  1.
       -2   -1    0    0    0  501  0.00000000000E+00  0.00000000000E+00 -0.21643670489E+04  0.21643670489E+04  0.25500000920E-02 0. -1.
    10030    2    1    2    0    0  0.00000000000E+00  0.00000000000E+00 -0.61865338779E+03  0.37100807101E+04  0.36581370752E+04 0.  0.
        2    1    3    3  502    0  0.93305769176E+03 -0.11280368164E+04  0.80279656281E+03  0.16695945725E+04  0.25500000920E-02 0.  1.
       -2    1    3    3    0  502 -0.93305769176E+03  0.11280368164E+04 -0.14214499506E+04  0.20404861375E+04  0.25500000920E-02 0. -1.
</event>
<event>
 5   0  0.5134434E-07  0.3736441E+04  0.7818609E-02  0.8059934E-01
        2   -1    0    0  501    0  0.00000000000E+00  0.00000000000E+00  0.10956510936E+04  0.10956510936E+04  0.25500000920E-02 0.  1.
       -2   -1    0    0    0  501  0.00000000000E+00  0.00000000000E+00 -0.31855463796E+04  0.31855463796E+04  0.25500000920E-02 0. -1.
    10030    2    1    2    0    0  0.00000000000E+00  0.00000000000E+00 -0.20898952861E+04  0.42811974732E+04  0.37364407526E+04 0.  0.
        5    1    3    3  502    0 -0.18613179294E+04 -0.13395988179E+03 -0.94391211296E+03  0.20912775643E+04  0.46999998093E+01 0. -1.
       -5    1    3    3    0  502  0.18613179294E+04  0.13395988179E+03 -0.11459831731E+04  0.21899199089E+04  0.46999998093E+01 0.  1.
</event>
<event>
 5   0  0.5132561E-07  0.3772822E+04  0.7818609E-02  0.8052013E-01
       -2   -1    0    0    0  501  0.00000000000E+00  0.00000000000E+00  0.26706962391E+04  0.26706962391E+04  0.25500000920E-02 0.  1.
        2   -1    0    0  501    0  0.00000000000E+00  0.00000000000E+00 -0.13324413327E+04  0.13324413327E+04  0.25500000920E-02 0. -1.
    10030    2    1    2    0    0  0.00000000000E+00  0.00000000000E+00  0.13382549064E+04  0.40031375718E+04  0.37728217854E+04 0.  0.
        3    1    3    3  502    0 -0.13609711986E+04 -0.11225469473E+03 -0.71174245669E+03  0.15399418998E+04  0.10100000352E+00 0. -1.
       -3    1    3    3    0  502  0.13609711986E+04  0.11225469473E+03  0.20499973631E+04  0.24631956720E+04  0.10100000352E+00 0.  1.
</event>
<event>
 5   0  0.5202788E-07  0.3821115E+04  0.7818609E-02  0.8041639E-01
       -2   -1    0    0    0  501  0.00000000000E+00  0.00000000000E+00  0.13395901994E+04  0.13395901995E+04  0.25500000920E-02 0. -1.
        2   -1    0    0  501    0  0.00000000000E+00  0.00000000000E+00 -0.27248857200E+04  0.27248857200E+04  0.25500000920E-02 0.  1.
    10030    2    1    2    0    0  0.00000000000E+00  0.00000000000E+00 -0.13852955206E+04  0.40644759195E+04  0.38211151279E+04 0.  0.
        1    1    3    3  502    0 -0.14746927847E+03  0.18661819151E+04 -0.28642450175E+03  0.18937848672E+04  0.50400001928E-02 0.  1.
       -1    1    3    3    0  502  0.14746927847E+03 -0.18661819151E+04 -0.10988710188E+04  0.21706910522E+04  0.50400001928E-02 0. -1.
</event>
<event>
 5   0  0.1648000E-07  0.3675101E+04  0.7818609E-02  0.8073502E-01
        1   -1    0    0  501    0  0.00000000000E+00  0.00000000000E+00  0.21453782364E+04  0.21453782364E+04  0.50400001928E-02 0. -1.
       -1   -1    0    0    0  501  0.00000000000E+00  0.00000000000E+00 -0.15738913942E+04  0.15738913942E+04  0.50400001928E-02 0.  1.
    10030    2    1    2    0    0  0.00000000000E+00  0.00000000000E+00  0.57148684226E+03  0.37192696306E+04  0.36751012740E+04 0.  0.
        3    1    3    3  502    0  0.16569013866E+03 -0.18232448658E+04  0.44549258266E+03  0.18841811787E+04  0.10100000352E+00 0.  1.
       -3    1    3    3    0  502 -0.16569013866E+03  0.18232448658E+04  0.12599425960E+03  0.18350884519E+04  0.10100000352E+00 0. -1.
</event>
<event>
 5   0  0.1648000E-07  0.3815121E+04  0.7818609E-02  0.8042918E-01
        1   -1    0    0  501    0  0.00000000000E+00  0.00000000000E+00  0.18681283591E+04  0.18681283591E+04  0.50400001928E-02 0. -1.
       -1   -1    0    0    0  501  0.00000000000E+00  0.00000000000E+00 -0.19478251477E+04  0.19478251477E+04  0.50400001928E-02 0.  1.
    10030    2    1    2    0    0  0.00000000000E+00  0.00000000000E+00 -0.79696788631E+02  0.38159535068E+04  0.38151211760E+04 0.  0.
        3    1    3    3  502    0  0.14591363127E+04 -0.11118496774E+04  0.48323692569E+03  0.18970520343E+04  0.10100000352E+00 0. -1.
       -3    1    3    3    0  502 -0.14591363127E+04  0.11118496774E+04 -0.56293371432E+03  0.19189014725E+04  0.10100000352E+00 0.  1.
</event>
<event>
 5   0  0.5134434E-07  0.3768237E+04  0.7818609E-02  0.8053006E-01
        2   -1    0    0  501    0  0.00000000000E+00  0.00000000000E+00  0.26332866430E+04  0.26332866430E+04  0.25500000920E-02 0.  1.
       -2   -1    0    0    0  501  0.00000000000E+00  0.00000000000E+00 -0.13480880941E+04  0.13480880941E+04  0.25500000920E-02 0. -1.
    10030    2    1    2    0    0  0.00000000000E+00  0.00000000000E+00  0.12851985489E+04  0.39813747372E+04  0.37682369203E+04 0.  0.
        5    1    3    3  502    0  0.13671931110E+04 -0.12243013205E+04  0.19216489053E+03  0.18452859294E+04  0.46999998093E+01 0.  1.
       -5    1    3    3    0  502 -0.13671931110E+04  0.12243013205E+04  0.10930336584E+04  0.21360888077E+04  0.46999998093E+01 0. -1.
</event>
<event>
 5   0  0.1648000E-07  0.4021419E+04  0.7818609E-02  0.8000240E-01
       -1   -1    0    0    0  501  0.00000000000E+00  0.00000000000E+00  0.26665537772E+04  0.26665537772E+04  0.50400001928E-02 0. -1.
        1   -1    0    0  501    0  0.00000000000E+00  0.00000000000E+00 -0.15161710784E+04  0.15161710784E+04  0.50400001928E-02 0.  1.
    10030    2    1    2    0    0  0.00000000000E+00  0.00000000000E+00  0.11503826988E+04  0.41827248556E+04  0.40214185139E+04 0.  0.
        4    1    3    3  502    0 -0.18200367457E+04 -0.85405552542E+03  0.54220968686E+03  0.20822914190E+04  0.12699999809E+01 0. -1.
       -4    1    3    3    0  502  0.18200367457E+04  0.85405552542E+03  0.60817301192E+03  0.21004334366E+04  0.12699999809E+01 0.  1.
</event>
<event>
 5   0  0.5202788E-07  0.3781855E+04  0.7818609E-02  0.8050060E-01
       -2   -1    0    0    0  501  0.00000000000E+00  0.00000000000E+00  0.15831810320E+04  0.15831810320E+04  0.25500000920E-02 0.  1.
        2   -1    0    0  501    0  0.00000000000E+00  0.00000000000E+00 -0.22584958089E+04  0.22584958089E+04  0.25500000920E-02 0. -1.
    10030    2    1    2    0    0  0.00000000000E+00  0.00000000000E+00 -0.67531477689E+03  0.38416768408E+04  0.37818554840E+04 0.  0.
        1    1    3    3  502    0 -0.17152008284E+04  0.11239750121E+03 -0.11381971464E+04  0.20615624715E+04  0.50400001928E-02 0. -1.
       -1    1    3    3    0  502  0.17152008284E+04 -0.11239750121E+03  0.46288236947E+03  0.17801143693E+04  0.50400001928E-02 0.  1.
</event>
<event>
 5   0  0.5132561E-07  0.3810497E+04  0.7818609E-02  0.8043906E-01
       -2   -1    0    0    0  501  0.00000000000E+00  0.00000000000E+00  0.24151263351E+04  0.24151263351E+04  0.25500000920E-02 0.  1.
        2   -1    0    0  501    0  0.00000000000E+00  0.00000000000E+00 -0.15030150176E+04  0.15030150176E+04  0.25500000920E-02 0. -1.
    10030    2    1    2    0    0  0.00000000000E+00  0.00000000000E+00  0.91211131755E+03  0.39181413527E+04  0.38104966348E+04 0.  0.
        3    1    3    3  502    0 -0.11292164647E+04 -0.13628118239E+04 -0.26926870556E+03  0.17902210862E+04  0.10100000352E+00 0. -1.
       -3    1    3    3    0  502  0.11292164647E+04  0.13628118239E+04  0.11813800231E+04  0.21279202665E+04  0.10100000352E+00 0.  1.
</event>
<event>
 5   0  0.1648000E-07  0.3651890E+04  0.7818609E-02  0.8078708E-01
       -1   -1    0    0    0  501  0.00000000000E+00  0.00000000000E+00  0.21855029772E+04  0.21855029772E+04  0.50400001928E-02 0. -1.
        1   -1    0    0  501    0  0.00000000000E+00  0.00000000000E+00 -0.15255413718E+04  0.15255413718E+04  0.50400001928E-02 0.  1.
    10030    2    1    2    0    0  0.00000000000E+00  0.00000000000E+00  0.65996160544E+03  0.37110443490E+04  0.36518900366E+04 0.  0.
        3    1    3    3  502    0 -0.38584805002E+02  0.13189535764E+04  0.16125453623E+04  0.20836098194E+04  0.10100000352E+00 0. -1.
       -3    1    3    3    0  502  0.38584805002E+02 -0.13189535764E+04 -0.95258375691E+03  0.16274345296E+04  0.10100000352E+00 0.  1.
</event>
<event>
 5   0  0.5132561E-07  0.3670483E+04  0.7818609E-02  0.8074535E-01
       -2   -1    0    0    0  501  0.00000000000E+00  0.00000000000E+00  0.20090252607E+04  0.20090252607E+04  0.25500000920E-02 0.  1.
        2   -1    0    0  501    0  0.00000000000E+00  0.00000000000E+00 -0.16764903419E+04  0.16764903419E+04  0.25500000920E-02 0. -1.
    10030    2    1    2    0    0  0.00000000000E+00  0.00000000000E+00  0.33253491881E+03  0.36855156025E+04  0.36704830451E+04 0.  0.
        3    1    3    3  502    0 -0.17030628111E+04 -0.64395441759E+03  0.39745204400E+03  0.18636170121E+04  0.10100000352E+00 0.  1.
       -3    1    3    3    0  502  0.17030628111E+04  0.64395441759E+03 -0.64917125187E+02  0.18218985904E+04  0.10100000352E+00 0. -1.
</event>
<event>
 5   0  0.5202788E-07  0.3817163E+04  0.7818609E-02  0.8042482E-01
       -2   -1    0    0    0  501  0.00000000000E+00  0.00000000000E+00  0.14224691414E+04  0.14224691414E+04  0.25500000920E-02 0.  1.
        2   -1    0    0  501    0  0.00000000000E+00  0.00000000000E+00 -0.25608166589E+04  0.25608166589E+04  0.25500000920E-02 0. -1.
    10030    2    1    2    0    0  0.00000000000E+00  0.00000000000E+00 -0.11383475174E+04  0.39832858003E+04  0.38171626500E+04 0.  0.
        1    1    3    3  502    0 -0.57457409029E+03 -0.13676920149E+04  0.68390477043E+03  0.16335368278E+04  0.50400001928E-02 0. -1.
       -1    1    3    3    0  502  0.57457409029E+03  0.13676920149E+04 -0.18222522879E+04  0.23497489725E+04  0.50400001928E-02 0.  1.
</event>
<event>
 5   0  0.1648000E-07  0.3815317E+04  0.7818609E-02  0.8042876E-01
        1   -1    0    0  501    0  0.00000000000E+00  0.00000000000E+00  0.19523462184E+04  0.19523462184E+04  0.50400001928E-02 0. -1.
       -1   -1    0    0    0  501  0.00000000000E+00  0.00000000000E+00 -0.18639934743E+04  0.18639934743E+04  0.50400001928E-02 0.  1.
    10030    2    1    2    0    0  0.00000000000E+00  0.00000000000E+00  0.88352744073E+02  0.38163396927E+04  0.38153168207E+04 0.  0.
        2    1    3    3  502    0  0.27694329305E+03 -0.32910833958E+03  0.19032092016E+04  0.19512086388E+04  0.25500000920E-02 0. -1.
       -2    1    3    3    0  502 -0.27694329305E+03  0.32910833958E+03 -0.18148564576E+04  0.18651310539E+04  0.25500000920E-02 0.  1.
</event>
<event>
 5   0  0.5325362E-07  0.3962581E+04  0.7818609E-02  0.8012138E-01
       -2   -1    0    0    0  501  0.00000000000E+00  0.00000000000E+00  0.16241185911E+04  0.16241185911E+04  0.25500000920E-02 0.  1.
        2   -1    0    0  501    0  0.00000000000E+00  0.00000000000E+00 -0.24170112434E+04  0.24170112434E+04  0.25500000920E-02 0. -1.
    10030    2    1    2    0    0  0.00000000000E+00  0.00000000000E+00 -0.79289265226E+03  0.40411298346E+04  0.39625814290E+04 0.  0.
        4    1    3    3  502    0 -0.25891318883E+03 -0.46940711168E+03 -0.23416444517E+04  0.24022238503E+04  0.12699999809E+01 0. -1.
       -4    1    3    3    0  502  0.25891318883E+03  0.46940711168E+03  0.15487517995E+04  0.16389059842E+04  0.12699999809E+01 0.  1.
</event>
<event>
 5   0  0.5158266E-07  0.3824751E+04  0.7818609E-02  0.8040864E-01
       -2   -1    0    0    0  501  0.00000000000E+00  0.00000000000E+00  0.20828595047E+04  0.20828595047E+04  0.25500000920E-02 0.  1.
        2   -1    0    0  501    0  0.00000000000E+00  0.00000000000E+00 -0.17558461094E+04  0.17558461094E+04  0.25500000920E-02 0. -1.
    10030    2    1    2    0    0  0.00000000000E+00  0.00000000000E+00  0.32701339532E+03  0.38387056142E+04  0.38247513686E+04 0.  0.
        2    1    3    3  502    0 -0.11146013810E+04 -0.10655758757E+04  0.12987357888E+04  0.20160612179E+04  0.25500000920E-02 0.  1.
       -2    1    3    3    0  502  0.11146013810E+04  0.10655758757E+04 -0.97172239347E+03  0.18226443963E+04  0.25500000920E-02 0. -1.
</event>
<event>
 5   0  0.1648000E-07  0.3688856E+04  0.7818609E-02  0.8070436E-01
        1   -1    0    0  501    0  0.00000000000E+00  0.00000000000E+00  0.23931340386E+04  0.23931340386E+04  0.50400001928E-02 0.  1.
       -1   -1    0    0    0  501  0.00000000000E+00  0.00000000000E+00 -0.14215308129E+04  0.14215308129E+04  0.50400001928E-02 0. -1.
    10030    2    1    2    0    0  0.00000000000E+00  0.00000000000E+00  0.97160322575E+03  0.38146648515E+04  0.36888555272E+04 0.  0.
        3    1    3    3  502    0 -0.12738406976E+04  0.16096727348E+02  0.18650764965E+04  0.22586366630E+04  0.10100000352E+00 0.  1.
       -3    1    3    3    0  502  0.12738406976E+04 -0.16096727348E+02 -0.89347327077E+03  0.15560281885E+04  0.10100000352E+00 0. -1.
</event>
<event>
 5   0  0.1648000E-07  0.3412695E+04  0.7818609E-02  0.8134798E-01
       -1   -1    0    0    0  501  0.00000000000E+00  0.00000000000E+00  0.15611980460E+04  0.15611980461E+04  0.50400001928E-02 0. -1.
        1   -1    0    0  501    0  0.00000000000E+00  0.00000000000E+00 -0.18649914277E+04  0.18649914277E+04  0.50400001928E-02 0.  1.
    10030    2    1    2    0    0  0.00000000000E+00  0.00000000000E+00 -0.30379338169E+03  0.34261894738E+04  0.34126945207E+04 0.  0.
        4    1    3    3  502    0 -0.11628907755E+04  0.87727708411E+03  0.74026196640E+03  0.16339888096E+04  0.12699999809E+01 0. -1.
       -4    1    3    3    0  502  0.11628907755E+04 -0.87727708411E+03 -0.10440553481E+04  0.17922006642E+04  0.12699999809E+01 0.  1.
</event>
<event>
 5   0  0.1656617E-07  0.3765992E+04  0.7818609E-02  0.8053492E-01
       -1   -1    0    0    0  501  0.00000000000E+00  0.00000000000E+00  0.11684794474E+04  0.11684794474E+04  0.50400001928E-02 0.  1.
        1   -1    0    0  501    0  0.00000000000E+00  0.00000000000E+00 -0.30344346976E+04  0.30344346976E+04  0.50400001928E-02 0. -1.
    10030    2    1    2    0    0  0.00000000000E+00  0.00000000000E+00 -0.18659552502E+04  0.42029141450E+04  0.37659923413E+04 0.  0.
        5    1    3    3  502    0  0.10032523132E+04 -0.12117724232E+04  0.22184182281E+03  0.15887553285E+04  0.46999998093E+01 0.  1.
       -5    1    3    3    0  502 -0.10032523132E+04  0.12117724232E+04 -0.20877970730E+04  0.26141588165E+04  0.46999998093E+01 0. -1.
</event>
<event>
 5   0  0.1648000E-07  0.4145149E+04  0.7818609E-02  0.7975889E-01
        1   -1    0    0  501    0  0.00000000000E+00  0.00000000000E+00  0.20521208739E+04  0.20521208739E+04  0.50400001928E-02 0. -1.
       -1   -1    0    0    0  501  0.00000000000E+00  0.00000000000E+00 -0.20932320543E+04  0.20932320543E+04  0.50400001928E-02 0.  1.
    10030    2    1    2    0    0  0.00000000000E+00  0.00000000000E+00 -0.41111180423E+02  0.41453529282E+04  0.41451490649E+04 0.  0.
        4    1    3    3  502    0  0.17507740182E+03 -0.20331234493E+04 -0.38295514896E+03  0.20762705305E+04  0.12699999809E+01 0.  1.
       -4    1    3    3    0  502 -0.17507740182E+03  0.20331234493E+04  0.34184396854E+03  0.20690823977E+04  0.12699999809E+01 0. -1.
</event>
<event>
 5   0  0.1648000E-07  0.3738307E+04  0.7818609E-02  0.8059525E-01
       -1   -1    0    0    0  501  0.00000000000E+00  0.00000000000E+00  0.25329288149E+04  0.25329288149E+04  0.50400001928E-02 0.  1.
        1   -1    0    0  501    0  0.00000000000E+00  0.00000000000E+00 -0.13793259866E+04  0.13793259866E+04  0.50400001928E-02 0. -1.
    10030    2    1    2    0    0  0.00000000000E+00  0.00000000000E+00  0.11536028283E+04  0.39122548015E+04  0.37383068556E+04 0.  0.
        1    1    3    3  502    0 -0.14944823127E+04  0.29446372715E+03 -0.55691037630E+03  0.16218308904E+04  0.50400001928E-02 0. -1.
       -1    1    3    3    0  502  0.14944823127E+04 -0.29446372715E+03  0.17105132046E+04  0.22904239112E+04  0.50400001928E-02 0.  1.
</event>
<event>
 5   0  0.5134434E-07  0.4155834E+04  0.7818609E-02  0.7973827E-01
       -2   -1    0    0    0  501  0.00000000000E+00  0.00000000000E+00  0.14352574150E+04  0.14352574150E+04  0.25500000920E-02 0.  1.
        2   -1    0    0  501    0  0.00000000000E+00  0.00000000000E+00 -0.30083382833E+04  0.30083382833E+04  0.25500000920E-02 0. -1.
    10030    2    1    2    0    0  0.00000000000E+00  0.00000000000E+00 -0.15730808683E+04  0.44435956983E+04  0.41558343701E+04 0.  0.
        5    1    3    3  502    0  0.15625377902E+04  0.11471252314E+04 -0.15869006502E+04  0.25051340096E+04  0.46999998093E+01 0. -1.
       -5    1    3    3    0  502 -0.15625377902E+04 -0.11471252314E+04  0.13819781853E+02  0.19384616888E+04  0.46999998093E+01 0.  1.
</event>
<event>
 5   0  0.1648000E-07  0.3811078E+04  0.7818609E-02  0.8043782E-01
       -1   -1    0    0    0  501  0.00000000000E+00  0.00000000000E+00  0.14605984871E+04  0.14605984871E+04  0.50400001928E-02 0.  1.
        1   -1    0    0  501    0  0.00000000000E+00  0.00000000000E+00 -0.24860210688E+04  0.24860210688E+04  0.50400001928E-02 0. -1.
    10030    2    1    2    0    0  0.00000000000E+00  0.00000000000E+00 -0.10254225817E+04  0.39466195559E+04  0.38110778590E+04 0.  0.
        4    1    3    3  502    0  0.15994397093E+04  0.60902751685E+03  0.35491381167E+03  0.17478808102E+04  0.12699999809E+01 0.  1.
       -4    1    3    3    0  502 -0.15994397093E+04 -0.60902751685E+03 -0.13803363934E+04  0.21987387457E+04  0.12699999809E+01 0. -1.
</event>
<event>
 5   0  0.5134434E-07  0.3802130E+04  0.7818609E-02  0.8045698E-01
        2   -1    0    0  501    0  0.00000000000E+00  0.00000000000E+00  0.13858284681E+04  0.13858284681E+04  0.25500000920E-02 0. -1.
       -2   -1    0    0    0  501  0.00000000000E+00  0.00000000000E+00 -0.26078607449E+04  0.26078607449E+04  0.25500000920E-02 0.  1.
    10030    2    1    2    0    0  0.00000000000E+00  0.00000000000E+00 -0.12220322768E+04  0.39936892130E+04  0.38021297512E+04 0.  0.
        5    1    3    3  502    0  0.96860881683E+03 -0.77364827913E+03 -0.21249119522E+04  0.24600828430E+04  0.46999998093E+01 0.  1.
       -5    1    3    3    0  502 -0.96860881683E+03  0.77364827913E+03  0.90287967541E+03  0.15336063700E+04  0.46999998093E+01 0. -1.
</event>
<event>
 5   0  0.5132561E-07  0.3699331E+04  0.7818609E-02  0.8068110E-01
        2   -1    0    0  501    0  0.00000000000E+00  0.00000000000E+00  0.15545009572E+04  0.15545009572E+04  0.25500000920E-02 0. -1.
       -2   -1    0    0    0  501  0.00000000000E+00  0.00000000000E+00 -0.22008750628E+04  0.22008750628E+04  0.25500000920E-02 0.  1.
    10030    2    1    2    0    0  0.00000000000E+00  0.00000000000E+00 -0.64637410561E+03  0.37553760199E+04  0.36993309620E+04 0.  0.
        3    1    3    3  502    0 -0.15880620811E+04 -0.82310554845E+03  0.15492433550E+03  0.17953956325E+04  0.10100000352E+00 0. -1.
       -3    1    3    3    0  502  0.15880620811E+04  0.82310554845E+03 -0.80129844110E+03  0.19599803874E+04  0.10100000352E+00 0.  1.
</event>
<event>
 5   0  0.5132561E-07  0.3777344E+04  0.7818609E-02  0.8051034E-01
        2   -1    0    0  501    0  0.00000000000E+00  0.00000000000E+00  0.17596706468E+04  0.17596706468E+04  0.25500000920E-02 0.  1.
       -2   -1    0    0    0  501  0.00000000000E+00  0.00000000000E+00 -0.20271302227E+04  0.20271302227E+04  0.25500000920E-02 0. -1.
    10030    2    1    2    0    0  0.00000000000E+00  0.00000000000E+00 -0.26745957590E+03  0.37868008695E+04  0.37773438022E+04 0.  0.
        3    1    3    3  502    0  0.64064364518E+03  0.24264640515E+03  0.16307278574E+04  0.17687778021E+04  0.10100000352E+00 0.  1.
       -3    1    3    3    0  502 -0.64064364518E+03 -0.24264640515E+03 -0.18981874333E+04  0.20180230673E+04  0.10100000352E+00 0. -1.
</event>
<event>
 5   0  0.1656617E-07  0.3879980E+04  0.7818609E-02  0.8029206E-01
       -1   -1    0    0    0  501  0.00000000000E+00  0.00000000000E+00  0.30062836830E+04  0.30062836830E+04  0.50400001928E-02 0.  1.
        1   -1    0    0  501    0  0.00000000000E+00  0.00000000000E+00 -0.12518984476E+04  0.12518984476E+04  0.50400001928E-02 0. -1.
    10030    2    1    2    0    0  0.00000000000E+00  0.00000000000E+00  0.17543852354E+04  0.42581821306E+04  0.38799803482E+04 0.  0.
        5    1    3    3  502    0  0.13327299642E+04 -0.10510031750E+04  0.19083305344E+04  0.25539233250E+04  0.46999998093E+01 0.  1.
       -5    1    3    3    0  502 -0.13327299642E+04  0.10510031750E+04 -0.15394529900E+03  0.17042588056E+04  0.46999998093E+01 0. -1.
</event>
<event>
 5   0  0.5134434E-07  0.3759431E+04  0.7818609E-02  0.8054917E-01
       -2   -1    0    0    0  501  0.00000000000E+00  0.00000000000E+00  0.18920427519E+04  0.18920427519E+04  0.25500000920E-02 0.  1.
        2   -1    0    0  501    0  0.00000000000E+00  0.00000000000E+00 -0.18674684125E+04  0.18674684125E+04  0.25500000920E-02 0. -1.
    10030    2    1    2    0    0  0.00000000000E+00  0.00000000000E+00  0.24574339430E+02  0.37595111645E+04  0.37594308476E+04 0.  0.
        5    1    3    3  502    0  0.27825062915E+03 -0.71146979839E+03  0.17297915611E+04  0.18909821843E+04  0.46999998093E+01 0.  1.
       -5    1    3    3    0  502 -0.27825062915E+03  0.71146979839E+03 -0.17052172216E+04  0.18685289801E+04  0.46999998093E+01 0. -1.
</event>
<event>
 5   0  0.5132561E-07  0.2926400E+04  0.7818609E-02  0.8265066E-01
       -2   -1    0    0    0  501  0.00000000000E+00  0.00000000000E+00  0.80732394721E+03  0.80732394721E+03  0.25500000920E-02 0. -1.
        2   -1    0    0  501    0  0.00000000000E+00  0.00000000000E+00 -0.26519139251E+04  0.26519139251E+04  0.25500000920E-02 0.  1.
    10030    2    1    2    0    0  0.00000000000E+00  0.00000000000E+00 -0.18445899779E+04  0.34592378723E+04  0.29263995747E+04 0.  0.
        3    1    3    3  502    0 -0.10648242626E+03 -0.17974712212E+03  0.78960231971E+03  0.81677375601E+03  0.10100000352E+00 0. -1.
       -3    1    3    3    0  502  0.10648242626E+03  0.17974712212E+03 -0.26341922976E+04  0.26424641163E+04  0.10100000352E+00 0.  1.
</event>
<event>
 5   0  0.1648000E-07  0.3423363E+04  0.7818609E-02  0.8132196E-01
        1   -1    0    0  501    0  0.00000000000E+00  0.00000000000E+00  0.24407430105E+04  0.24407430105E+04  0.50400001928E-02 0. -1.
       -1   -1    0    0    0  501  0.00000000000E+00  0.00000000000E+00 -0.12003938276E+04  0.12003938277E+04  0.50400001928E-02 0.  1.
    10030    2    1    2    0    0  0.00000000000E+00  0.00000000000E+00  0.12403491829E+04  0.36411368382E+04  0.34233625836E+04 0.  0.
        3    1    3    3  502    0 -0.68925276532E+03 -0.25733476793E+03 -0.10236383130E+04  0.12606053956E+04  0.10100000352E+00 0.  1.
       -3    1    3    3    0  502  0.68925276532E+03  0.25733476793E+03  0.22639874959E+04  0.23805314426E+04  0.10100000352E+00 0. -1.
</event>
<event>
 5   0  0.1648000E-07  0.2905255E+04  0.7818609E-02  0.8271316E-01
       -1   -1    0    0    0  501  0.00000000000E+00  0.00000000000E+00  0.10047083750E+04  0.10047083750E+04  0.50400001928E-02 0. -1.
        1   -1    0    0  501    0  0.00000000000E+00  0.00000000000E+00 -0.21002376670E+04  0.21002376670E+04  0.50400001928E-02 0.  1.
    10030    2    1    2    0    0  0.00000000000E+00  0.00000000000E+00 -0.10955292920E+04  0.31049460421E+04  0.29052548072E+04 0.  0.
        3    1    3    3  502    0  0.64205227967E+03 -0.13022394404E+04 -0.49916749413E+03  0.15353263130E+04  0.10100000352E+00 0.  1.
       -3    1    3    3    0  502 -0.64205227967E+03  0.13022394404E+04 -0.59636179786E+03  0.15696197291E+04  0.10100000352E+00 0. -1.
</event>
<event>
 5   0  0.1648000E-07  0.3791670E+04  0.7818609E-02  0.8047945E-01
       -1   -1    0    0    0  501  0.00000000000E+00  0.00000000000E+00  0.25364271692E+04  0.25364271692E+04  0.50400001928E-02 0. -1.
        1   -1    0    0  501    0  0.00000000000E+00  0.00000000000E+00 -0.14170288468E+04  0.14170288469E+04  0.50400001928E-02 0.  1.
    10030    2    1    2    0    0  0.00000000000E+00  0.00000000000E+00  0.11193983224E+04  0.39534560161E+04  0.37916700630E+04 0.  0.
        4    1    3    3  502    0  0.12136192672E+04 -0.12450191486E+04  0.13477556835E+04  0.21998616778E+04  0.12699999809E+01 0. -1.
       -4    1    3    3    0  502 -0.12136192672E+04  0.12450191486E+04 -0.22835736111E+03  0.17535943383E+04  0.12699999809E+01 0.  1.
</event>
<event>
 5   0  0.5202788E-07  0.3883774E+04  0.7818609E-02  0.8028412E-01
        2   -1    0    0  501    0  0.00000000000E+00  0.00000000000E+00  0.18751846223E+04  0.18751846223E+04  0.25500000920E-02 0.  1.
       -2   -1    0    0    0  501  0.00000000000E+00  0.00000000000E+00 -0.20109615935E+04  0.20109615935E+04  0.25500000920E-02 0. -1.
    10030    2    1    2    0    0  0.00000000000E+00  0.00000000000E+00 -0.13577697122E+03  0.38861462158E+04  0.38837735548E+04 0.  0.
        1    1    3    3  502    0  0.39302891267E+03  0.84988209940E+02  0.18330693667E+04  0.18766560754E+04  0.50400001928E-02 0.  1.
       -1    1    3    3    0  502 -0.39302891267E+03 -0.84988209940E+02 -0.19688463379E+04  0.20094901404E+04  0.50400001928E-02 0. -1.
</event>
<event>
 5   0  0.5134434E-07  0.3674691E+04  0.7818609E-02  0.8073594E-01
       -2   -1    0    0    0  501  0.00000000000E+00  0.00000000000E+00  0.10771550746E+04  0.10771550746E+04  0.25500000920E-02 0. -1.
        2   -1    0    0  501    0  0.00000000000E+00  0.00000000000E+00 -0.31340322388E+04  0.31340322388E+04  0.25500000920E-02 0.  1.
    10030    2    1    2    0    0  0.00000000000E+00  0.00000000000E+00 -0.20568771642E+04  0.42111873134E+04  0.36746911326E+04 0.  0.
        5    1    3    3  502    0 -0.44931042990E+03  0.15320105935E+04  0.13650978962E+02  0.15966041339E+04  0.46999998093E+01 0. -1.
       -5    1    3    3    0  502  0.44931042990E+03 -0.15320105935E+04 -0.20705281431E+04  0.26145831795E+04  0.46999998093E+01 0.  1.
</event>
<event>
 5   0  0.5158266E-07  0.3773241E+04  0.7818609E-02  0.8051922E-01
       -2   -1    0    0    0  501  0.00000000000E+00  0.00000000000E+00  0.17571197255E+04  0.17571197255E+04  0.25500000920E-02 0. -1.
        2   -1    0    0  501    0  0.00000000000E+00  0.00000000000E+00 -0.20256655188E+04  0.20256655188E+04  0.25500000920E-02 0.  1.
    10030    2    1    2    0    0  0.00000000000E+00  0.00000000000E+00 -0.26854579339E+03  0.37827852443E+04  0.37732409625E+04 0.  0.
        2    1    3    3  502    0 -0.64686493589E+03 -0.17716944639E+04 -0.17912218826E+03  0.18945765429E+04  0.25500000920E-02 0. -1.
       -2    1    3    3    0  502  0.64686493589E+03  0.17716944639E+04 -0.89423605127E+02  0.18882087014E+04  0.25500000920E-02 0.  1.
</event>
<event>
 5   0  0.5132561E-07  0.3768981E+04  0.7818609E-02  0.8052844E-01
       -2   -1    0    0    0  501  0.00000000000E+00  0.00000000000E+00  0.17906215269E+04  0.17906215269E+04  0.25500000920E-02 0. -1.
        2   -1    0    0  501    0  0.00000000000E+00  0.00000000000E+00 -0.19832806384E+04  0.19832806384E+04  0.25500000920E-02 0.  1.
    10030    2    1    2    0    0  0.00000000000E+00  0.00000000000E+00 -0.19265911145E+03  0.37739021653E+04  0.37689812974E+04 0.  0.
        3    1    3    3  502    0  0.36941367587E+03  0.17328672491E+04 -0.73904736992E+03  0.19197620665E+04  0.10100000352E+00 0.  1.
       -3    1    3    3    0  502 -0.36941367587E+03 -0.17328672491E+04  0.54638825847E+03  0.18541400988E+04  0.10100000352E+00 0. -1.
</event>
<event>
 5   0  0.1648000E-07  0.3358302E+04  0.7818609E-02  0.8148217E-01
       -1   -1    0    0    0  501  0.00000000000E+00  0.00000000000E+00  0.13533514344E+04  0.13533514344E+04  0.50400001928E-02 0.  1.
        1   -1    0    0  501    0  0.00000000000E+00  0.00000000000E+00 -0.20833816746E+04  0.20833816746E+04  0.50400001928E-02 0. -1.
    10030    2    1    2    0    0  0.00000000000E+00  0.00000000000E+00 -0.73003024013E+03  0.34367331090E+04  0.33583017004E+04 0.  0.
        2    1    3    3  502    0  0.71912450231E+03 -0.19277333704E+03 -0.19052387449E+04  0.20455405849E+04  0.25500000920E-02 0. -1.
       -2    1    3    3    0  502 -0.71912450231E+03  0.19277333704E+03  0.11752085048E+04  0.13911925241E+04  0.25500000920E-02 0.  1.
</event>
<event>
 5   0  0.1648000E-07  0.4143019E+04  0.7818609E-02  0.7976301E-01
       -1   -1    0    0    0  501  0.00000000000E+00  0.00000000000E+00  0.20053907193E+04  0.20053907193E+04  0.50400001928E-02 0.  1.
        1   -1    0    0  501    0  0.00000000000E+00  0.00000000000E+00 -0.21398078486E+04  0.21398078486E+04  0.50400001928E-02 0. -1.
    10030    2    1    2    0    0  0.00000000000E+00  0.00000000000E+00 -0.13441712933E+03  0.41451985679E+04  0.41430186100E+04 0.  0.
        1    1    3    3  502    0 -0.88103679614E+02 -0.32707519500E+03  0.19774935093E+04  0.20062953473E+04  0.50400001928E-02 0.  1.
       -1    1    3    3    0  502  0.88103679614E+02  0.32707519500E+03 -0.21119106386E+04  0.21389032206E+04  0.50400001928E-02 0. -1.
</event>
<event>
 5   0  0.5132561E-07  0.4054328E+04  0.7818609E-02  0.7993676E-01
       -2   -1    0    0    0  501  0.00000000000E+00  0.00000000000E+00  0.18630721238E+04  0.18630721238E+04  0.25500000920E-02 0. -1.
        2   -1    0    0  501    0  0.00000000000E+00  0.00000000000E+00 -0.22057086664E+04  0.22057086664E+04  0.25500000920E-02 0.  1.
    10030    2    1    2    0    0  0.00000000000E+00  0.00000000000E+00 -0.34263654258E+03  0.40687807902E+04  0.40543282203E+04 0.  0.
        3    1    3    3  502    0 -0.82056496565E+03 -0.95734469618E+03  0.14216518096E+04  0.19002446180E+04  0.10100000352E+00 0. -1.
       -3    1    3    3    0  502  0.82056496565E+03  0.95734469618E+03 -0.17642883522E+04  0.21685361722E+04  0.10100000352E+00 0.  1.
</event>
<event>
 5   0  0.5134434E-07  0.3813930E+04  0.7818609E-02  0.8043172E-01
        2   -1    0    0  501    0  0.00000000000E+00  0.00000000000E+00  0.13510943009E+04  0.13510943009E+04  0.25500000920E-02 0.  1.
       -2   -1    0    0    0  501  0.00000000000E+00  0.00000000000E+00 -0.26915338286E+04  0.26915338286E+04  0.25500000920E-02 0. -1.
    10030    2    1    2    0    0  0.00000000000E+00  0.00000000000E+00 -0.13404395277E+04  0.40426281294E+04  0.38139302649E+04 0.  0.
        5    1    3    3  502    0 -0.17941884103E+04 -0.62625266111E+03 -0.50199085089E+03  0.19655333504E+04  0.46999998093E+01 0. -1.
       -5    1    3    3    0  502  0.17941884103E+04  0.62625266111E+03 -0.83844867679E+03  0.20770947790E+04  0.46999998093E+01 0.  1.
</event>
<event>
 5   0  0.1648000E-07  0.3826922E+04  0.7818609E-02  0.8040402E-01
       -1   -1    0    0    0  501  0.00000000000E+00  0.00000000000E+00  0.24328273389E+04  0.24328273389E+04  0.50400001928E-02 0.  1.
        1   -1    0    0  501    0  0.00000000000E+00  0.00000000000E+00 -0.15049701139E+04  0.15049701139E+04  0.50400001928E-02 0. -1.
    10030    2    1    2    0    0  0.00000000000E+00  0.00000000000E+00  0.92785722504E+03  0.39377974528E+04  0.38269217067E+04 0.  0.
        3    1    3    3  502    0  0.16397008180E+04  0.84716099191E+03 -0.55709572075E+02  0.18464571712E+04  0.10100000352E+00 0. -1.
       -3    1    3    3    0  502 -0.16397008180E+04 -0.84716099191E+03  0.98356679712E+03  0.20913402815E+04  0.10100000352E+00 0.  1.
</event>
<event>
 5   0  0.1648000E-07  0.3699784E+04  0.7818609E-02  0.8068010E-01
       -1   -1    0    0    0  501  0.00000000000E+00  0.00000000000E+00  0.35968992389E+04  0.35968992389E+04  0.50400001928E-02 0. -1.
        1   -1    0    0  501    0  0.00000000000E+00  0.00000000000E+00 -0.95140285190E+03  0.95140285191E+03  0.50400001928E-02 0.  1.
    10030    2    1    2    0    0  0.00000000000E+00  0.00000000000E+00  0.26454963870E+04  0.45483020908E+04  0.36997838823E+04 0.  0.
        4    1    3    3  502    0 -0.94401468423E+03 -0.15868789636E+04  0.14615605864E+04  0.23548905558E+04  0.12699999809E+01 0. -1.
       -4    1    3    3    0  502  0.94401468423E+03  0.15868789636E+04  0.11839358005E+04  0.21934115350E+04  0.12699999809E+01 0.  1.
</event>
<event>
 5   0  0.1648000E-07  0.3813595E+04  0.7818609E-02  0.8043244E-01
       -1   -1    0    0    0  501  0.00000000000E+00  0.00000000000E+00  0.16271351149E+04  0.16271351149E+04  0.50400001928E-02 0.  1.
        1   -1    0    0  501    0  0.00000000000E+00  0.00000000000E+00 -0.22345260262E+04  0.22345260262E+04  0.50400001928E-02 0. -1.
    10030    2    1    2    0    0  0.00000000000E+00  0.00000000000E+00 -0.60739091132E+03  0.38616611411E+04  0.38135945051E+04 0.  0.
        2    1    3    3  502    0  0.17846063459E+04 -0.43140259488E+03  0.21752298153E+03  0.18488494412E+04  0.25500000920E-02 0.  1.
       -2    1    3    3    0  502 -0.17846063459E+04  0.43140259488E+03 -0.82491389285E+03  0.20128116999E+04  0.25500000920E-02 0. -1.
</event>
<event>
 5   0  0.5325362E-07  0.3847606E+04  0.7818609E-02  0.8036015E-01
       -2   -1    0    0    0  501  0.00000000000E+00  0.00000000000E+00  0.20571457987E+04  0.20571457987E+04  0.25500000920E-02 0. -1.
        2   -1    0    0  501    0  0.00000000000E+00  0.00000000000E+00 -0.17991036503E+04  0.17991036503E+04  0.25500000920E-02 0.  1.
    10030    2    1    2    0    0  0.00000000000E+00  0.00000000000E+00  0.25804214837E+03  0.38562494491E+04  0.38476062770E+04 0.  0.
        4    1    3    3  502    0 -0.15689258080E+04 -0.85524342429E+03 -0.58535452189E+03  0.18803220562E+04  0.12699999809E+01 0.  1.
       -4    1    3    3    0  502  0.15689258080E+04  0.85524342429E+03  0.84339667025E+03  0.19759273929E+04  0.12699999809E+01 0. -1.
</event>
<event>
 5   0  0.1656617E-07  0.3751222E+04  0.7818609E-02  0.8056704E-01
       -1   -1    0    0    0  501  0.00000000000E+00  0.00000000000E+00  0.20977003266E+04  0.20977003266E+04  0.50400001928E-02 0. -1.
        1   -1    0    0  501    0  0.00000000000E+00  0.00000000000E+00 -0.16770352421E+04  0.16770352421E+04  0.50400001928E-02 0.  1.
    10030    2    1    2    0    0  0.00000000000E+00  0.00000000000E+00  0.42066508449E+03  0.37747355688E+04  0.37512224009E+04 0.  0.
        5    1    3    3  502    0  0.15033819129E+04  0.46933810043E+03  0.12352747330E+04  0.20015896644E+04  0.46999998093E+01 0. -1.
       -5    1    3    3    0  502 -0.15033819129E+04 -0.46933810043E+03 -0.81460964853E+03  0.17731459044E+04  0.46999998093E+01 0.  1.
</event>
<event>
 5   0  0.5134434E-07  0.3717970E+04  0.7818609E-02  0.8063991E-01
        2   -1    0    0  501    0  0.00000000000E+00  0.00000000000E+00  0.29248914984E+04  0.29248914984E+04  0.25500000920E-02 0.  1.
       -2   -1    0    0    0  501  0.00000000000E+00  0.00000000000E+00 -0.11815225971E+04  0.11815225971E+04  0.25500000920E-02 0. -1.
    10030    2    1    2    0    0  0.00000000000E+00  0.00000000000E+00  0.17433689013E+04  0.41064140955E+04  0.37179700911E+04 0.  0.
        5    1    3    3  502    0 -0.82031190268E+03  0.47357551999E+03 -0.89500236787E+03  0.13031641183E+04  0.46999998093E+01 0. -1.
       -5    1    3    3    0  502  0.82031190268E+03 -0.47357551999E+03  0.26383712691E+04  0.28032499772E+04  0.46999998093E+01 0.  1.
</event>
<event>
 5   0  0.1648000E-07  0.3757957E+04  0.7818609E-02  0.8055238E-01
        1   -1    0    0  501    0  0.00000000000E+00  0.00000000000E+00  0.22629849842E+04  0.22629849842E+04  0.50400001928E-02 0.  1.
       -1   -1    0    0    0  501  0.00000000000E+00  0.00000000000E+00 -0.15601343455E+04  0.15601343455E+04  0.50400001928E-02 0. -1.
    10030    2    1    2    0    0  0.00000000000E+00  0.00000000000E+00  0.70285063872E+03  0.38231193297E+04  0.37579572096E+04 0.  0.
        2    1    3    3  502    0 -0.22834691002E+03  0.56338965761E+03 -0.14573265127E+04  0.15790347629E+04  0.25500000920E-02 0. -1.
       -2    1    3    3    0  502  0.22834691002E+03 -0.56338965761E+03  0.21601771514E+04  0.22440845669E+04  0.25500000920E-02 0.  1.
</event>
<event>
 5   0  0.5202788E-07  0.3851619E+04  0.7818609E-02  0.8035168E-01
       -2   -1    0    0    0  501  0.00000000000E+00  0.00000000000E+00  0.17467484370E+04  0.17467484370E+04  0.25500000920E-02 0. -1.
        2   -1    0    0  501    0  0.00000000000E+00  0.00000000000E+00 -0.21232258945E+04  0.21232258945E+04  0.25500000920E-02 0.  1.
    10030    2    1    2    0    0  0.00000000000E+00  0.00000000000E+00 -0.37647745748E+03  0.38699743314E+04  0.38516186273E+04 0.  0.
        1    1    3    3  502    0 -0.21751962335E+03  0.18797540420E+04  0.17116902458E+03  0.19000233893E+04  0.50400001928E-02 0. -1.
       -1    1    3    3    0  502  0.21751962335E+03 -0.18797540420E+04 -0.54764648206E+03  0.19699509421E+04  0.50400001928E-02 0.  1.
</event>
<event>
 5   0  0.1656617E-07  0.3750817E+04  0.7818609E-02  0.8056792E-01
       -1   -1    0    0    0  501  0.00000000000E+00  0.00000000000E+00  0.14409111208E+04  0.14409111208E+04  0.50400001928E-02 0. -1.
        1   -1    0    0  501    0  0.00000000000E+00  0.00000000000E+00 -0.24409262921E+04  0.24409262921E+04  0.50400001928E-02 0.  1.
    10030    2    1    2    0    0  0.00000000000E+00  0.00000000000E+00 -0.10000151714E+04  0.38818374129E+04  0.37508174252E+04 0.  0.
        5    1    3    3  502    0  0.15781909112E+04  0.10103502793E+04 -0.42227392754E+03  0.19208934377E+04  0.46999998093E+01 0.  1.
       -5    1    3    3    0  502 -0.15781909112E+04 -0.10103502793E+04 -0.57774124385E+03  0.19609439752E+04  0.46999998093E+01 0. -1.
</event>
<event>
 5   0  0.1648000E-07  0.3647429E+04  0.7818609E-02  0.8079713E-01
       -1   -1    0    0    0  501  0.00000000000E+00  0.00000000000E+00  0.18964647751E+04  0.18964647752E+04  0.50400001928E-02 0.  1.
        1   -1    0    0  501    0  0.00000000000E+00  0.00000000000E+00 -0.17537545465E+04  0.17537545465E+04  0.50400001928E-02 0. -1.
    10030    2    1    2    0    0  0.00000000000E+00  0.00000000000E+00  0.14271022869E+03  0.36502193216E+04  0.36474285307E+04 0.  0.
        2    1    3    3  502    0 -0.67337018713E+03 -0.53570657165E+03 -0.15378319067E+04  0.17621963322E+04  0.25500000920E-02 0. -1.
       -2    1    3    3    0  502  0.67337018713E+03  0.53570657165E+03  0.16805421354E+04  0.18880229894E+04  0.25500000920E-02 0.  1.
</event>
<event>
 5   0  0.5158266E-07  0.3797139E+04  0.7818609E-02  0.8046769E-01
        2   -1    0    0  501    0  0.00000000000E+00  0.00000000000E+00  0.28356425181E+04  0.28356425181E+04  0.25500000920E-02 0.  1.
       -2   -1    0    0    0  501  0.00000000000E+00  0.00000000000E+00 -0.12711635318E+04  0.12711635318E+04  0.25500000920E-02 0. -1.
    10030    2    1    2    0    0  0.00000000000E+00  0.00000000000E+00  0.15644789863E+04  0.41068060499E+04  0.37971385849E+04 0.  0.
        2    1    3    3  502    0  0.11884911872E+04  0.94200330600E+03  0.20176189771E+04  0.25240181987E+04  0.25500000920E-02 0.  1.
       -2    1    3    3    0  502 -0.11884911872E+04 -0.94200330600E+03 -0.45313999079E+03  0.15827878512E+04  0.25500000920E-02 0. -1.
</event>
<event>
 5   0  0.5158266E-07  0.3799540E+04  0.7818609E-02  0.8046254E-01
       -2   -1    0    0    0  501  0.00000000000E+00  0.00000000000E+00  0.14706530764E+04  0.14706530764E+04  0.25500000920E-02 0.  1.
        2   -1    0    0  501    0  0.00000000000E+00  0.00000000000E+00 -0.24540980000E+04  0.24540980000E+04  0.25500000920E-02 0. -1.
    10030    2    1    2    0    0  0.00000000000E+00  0.00000000000E+00 -0.98344492353E+03  0.39247510764E+04  0.37995403793E+04 0.  0.
        2    1    3    3  502    0  0.78128980486E+02 -0.84682993493E+03  0.12630540788E+04  0.15226722176E+04  0.25500000920E-02 0.  1.
       -2    1    3    3    0  502 -0.78128980486E+02  0.84682993493E+03 -0.22464990023E+04  0.24020788588E+04  0.25500000920E-02 0. -1.
</event>
<event>
 5   0  0.5325362E-07  0.3780770E+04  0.7818609E-02  0.8050294E-01
       -2   -1    0    0    0  501  0.00000000000E+00  0.00000000000E+00  0.19391251857E+04  0.19391251857E+04  0.25500000920E-02 0. -1.
        2   -1    0    0  501    0  0.00000000000E+00  0.00000000000E+00 -0.18428697536E+04  0.18428697536E+04  0.25500000920E-02 0.  1.
    10030    2    1    2    0    0  0.00000000000E+00  0.00000000000E+00  0.96255432053E+02  0.37819949393E+04  0.37807698439E+04 0.  0.
        4    1    3    3  502    0  0.13359152024E+04 -0.13322920736E+04  0.16598755101E+03  0.18939971165E+04  0.12699999809E+01 0. -1.
       -4    1    3    3    0  502 -0.13359152024E+04  0.13322920736E+04 -0.69732118957E+02  0.18879978228E+04  0.12699999809E+01 0.  1.
</event>
<event>
 5   0  0.5158266E-07  0.3814130E+04  0.7818609E-02  0.8043130E-01
        2   -1    0    0  501    0  0.00000000000E+00  0.00000000000E+00  0.17152353180E+04  0.17152353180E+04  0.25500000920E-02 0. -1.
       -2   -1    0    0    0  501  0.00000000000E+00  0.00000000000E+00 -0.21203481781E+04  0.21203481781E+04  0.25500000920E-02 0.  1.
    10030    2    1    2    0    0  0.00000000000E+00  0.00000000000E+00 -0.40511286006E+03  0.38355834961E+04  0.38141295634E+04 0.  0.
        2    1    3    3  502    0  0.36723524716E+02  0.74499034088E+03  0.15624618359E+04  0.17313711947E+04  0.25500000920E-02 0. -1.
       -2    1    3    3    0  502 -0.36723524716E+02 -0.74499034088E+03 -0.19675746959E+04  0.21042123014E+04  0.25500000920E-02 0.  1.
</event>
<event>
 5   0  0.5158266E-07  0.3782891E+04  0.7818609E-02  0.8049836E-01
        2   -1    0    0  501    0  0.00000000000E+00  0.00000000000E+00  0.22190921939E+04  0.22190921939E+04  0.25500000920E-02 0.  1.
       -2   -1    0    0    0  501  0.00000000000E+00  0.00000000000E+00 -0.16121756014E+04  0.16121756014E+04  0.25500000920E-02 0. -1.
    10030    2    1    2    0    0  0.00000000000E+00  0.00000000000E+00  0.60691659248E+03  0.38312677952E+04  0.37828911124E+04 0.  0.
        2    1    3    3  502    0  0.17400945561E+04 -0.48756174764E+03 -0.26218261834E+03  0.18260299141E+04  0.25500000920E-02 0. -1.
       -2    1    3    3    0  502 -0.17400945561E+04  0.48756174764E+03  0.86909921082E+03  0.20052378812E+04  0.25500000920E-02 0.  1.
</event>
<event>
 5   0  0.5132561E-07  0.2929643E+04  0.7818609E-02  0.8264112E-01
       -2   -1    0    0    0  501  0.00000000000E+00  0.00000000000E+00  0.12128594925E+04  0.12128594925E+04  0.25500000920E-02 0. -1.
        2   -1    0    0  501    0  0.00000000000E+00  0.00000000000E+00 -0.17691264831E+04  0.17691264831E+04  0.25500000920E-02 0.  1.
    10030    2    1    2    0    0  0.00000000000E+00  0.00000000000E+00 -0.55626699055E+03  0.29819859756E+04  0.29296428782E+04 0.  0.
        3    1    3    3  502    0 -0.96450495526E+03 -0.10572077477E+04 -0.59635940733E+03  0.15503556313E+04  0.10100000352E+00 0.  1.
       -3    1    3    3    0  502  0.96450495526E+03  0.10572077477E+04  0.40092416779E+02  0.14316303443E+04  0.10100000352E+00 0. -1.
</event>
<event>
 5   0  0.1648000E-07  0.3620227E+04  0.7818609E-02  0.8085874E-01
       -1   -1    0    0    0  501  0.00000000000E+00  0.00000000000E+00  0.16822009164E+04  0.16822009164E+04  0.50400001928E-02 0. -1.
        1   -1    0    0  501    0  0.00000000000E+00  0.00000000000E+00 -0.19477518932E+04  0.19477518932E+04  0.50400001928E-02 0.  1.
    10030    2    1    2    0    0  0.00000000000E+00  0.00000000000E+00 -0.26555097685E+03  0.36299528096E+04  0.36202265231E+04 0.  0.
        4    1    3    3  502    0  0.38529105544E+01  0.10183586183E+04  0.13677206415E+04  0.17052068750E+04  0.12699999809E+01 0. -1.
       -4    1    3    3    0  502 -0.38529105544E+01 -0.10183586183E+04 -0.16332716184E+04  0.19247459346E+04  0.12699999809E+01 0.  1.
</event>
<event>
 5   0  0.1648000E-07  0.3756103E+04  0.7818609E-02  0.8055641E-01
        1   -1    0    0  501    0  0.00000000000E+00  0.00000000000E+00  0.26826396182E+04  0.26826396182E+04  0.50400001928E-02 0.  1.
       -1   -1    0    0    0  501  0.00000000000E+00  0.00000000000E+00 -0.13147788200E+04  0.13147788200E+04  0.50400001928E-02 0. -1.
    10030    2    1    2    0    0  0.00000000000E+00  0.00000000000E+00  0.13678607982E+04  0.39974184382E+04  0.37561031678E+04 0.  0.
        1    1    3    3  502    0 -0.44608308895E+03 -0.12829830641E+04 -0.69632841145E+03  0.15264039182E+04  0.50400001928E-02 0. -1.
       -1    1    3    3    0  502  0.44608308895E+03  0.12829830641E+04  0.20641892096E+04  0.24710145200E+04  0.50400001928E-02 0.  1.
</event>
<event>
 5   0  0.1648000E-07  0.3825013E+04  0.7818609E-02  0.8040808E-01
       -1   -1    0    0    0  501  0.00000000000E+00  0.00000000000E+00  0.16436393255E+04  0.16436393255E+04  0.50400001928E-02 0. -1.
        1   -1    0    0  501    0  0.00000000000E+00  0.00000000000E+00 -0.22253556488E+04  0.22253556488E+04  0.50400001928E-02 0.  1.
    10030    2    1    2    0    0  0.00000000000E+00  0.00000000000E+00 -0.58171632326E+03  0.38689949744E+04  0.38250134942E+04 0.  0.
        3    1    3    3  502    0 -0.11957354834E+04 -0.14122418018E+04  0.19788692543E+03  0.18610130301E+04  0.10100000352E+00 0. -1.
       -3    1    3    3    0  502  0.11957354834E+04  0.14122418018E+04 -0.77960324870E+03  0.20079819442E+04  0.10100000352E+00 0.  1.
</event>
<event>
 5   0  0.1648000E-07  0.3755171E+04  0.7818609E-02  0.8055844E-01
        1   -1    0    0  501    0  0.00000000000E+00  0.00000000000E+00  0.28065027009E+04  0.28065027009E+04  0.50400001928E-02 0.  1.
       -1   -1    0    0    0  501  0.00000000000E+00  0.00000000000E+00 -0.12561284846E+04  0.12561284846E+04  0.50400001928E-02 0. -1.
    10030    2    1    2    0    0  0.00000000000E+00  0.00000000000E+00  0.15503742163E+04  0.40626311855E+04  0.37551713595E+04 0.  0.
        2    1    3    3  502    0  0.13173050815E+03  0.31982758970E+03 -0.12213615546E+04  0.12693961797E+04  0.25500000920E-02 0. -1.
       -2    1    3    3    0  502 -0.13173050815E+03 -0.31982758970E+03  0.27717357709E+04  0.27932350058E+04  0.25500000920E-02 0.  1.
</event>
<event>
 5   0  0.1648000E-07  0.3553745E+04  0.7818609E-02  0.8101170E-01
       -1   -1    0    0    0  501  0.00000000000E+00  0.00000000000E+00  0.20235001468E+04  0.20235001468E+04  0.50400001928E-02 0. -1.
        1   -1    0    0  501    0  0.00000000000E+00  0.00000000000E+00 -0.15603041029E+04  0.15603041029E+04  0.50400001928E-02 0.  1.
    10030    2    1    2    0    0  0.00000000000E+00  0.00000000000E+00  0.46319604391E+03  0.35838042496E+04  0.35537448311E+04 0.  0.
        3    1    3    3  502    0 -0.50937518381E+03  0.16862738609E+04 -0.33813806961E+01  0.17615317357E+04  0.10100000352E+00 0. -1.
       -3    1    3    3    0  502  0.50937518381E+03 -0.16862738609E+04  0.46657742460E+03  0.18222725140E+04  0.10100000352E+00 0.  1.
</event>
<event>
 5   0  0.5325362E-07  0.4072872E+04  0.7818609E-02  0.7990005E-01
        2   -1    0    0  501    0  0.00000000000E+00  0.00000000000E+00  0.23642509252E+04  0.23642509252E+04  0.25500000920E-02 0. -1.
       -2   -1    0    0    0  501  0.00000000000E+00  0.00000000000E+00 -0.17540743882E+04  0.17540743882E+04  0.25500000920E-02 0.  1.
    10030    2    1    2    0    0  0.00000000000E+00  0.00000000000E+00  0.61017653703E+03  0.41183253134E+04  0.40728722029E+04 0.  0.
        4    1    3    3  502    0  0.19197279204E+04 -0.51135978229E+03  0.75754847692E+03  0.21261997609E+04  0.12699999809E+01 0. -1.
       -4    1    3    3    0  502 -0.19197279204E+04  0.51135978229E+03 -0.14737193989E+03  0.19921255525E+04  0.12699999809E+01 0.  1.
</event>
<event>
 5   0  0.5325362E-07  0.3815169E+04  0.7818609E-02  0.8042907E-01
        2   -1    0    0  501    0  0.00000000000E+00  0.00000000000E+00  0.25267340301E+04  0.25267340301E+04  0.25500000920E-02 0.  1.
       -2   -1    0    0    0  501  0.00000000000E+00  0.00000000000E+00 -0.14401510790E+04  0.14401510790E+04  0.25500000920E-02 0. -1.
    10030    2    1    2    0    0  0.00000000000E+00  0.00000000000E+00  0.10865829511E+04  0.39668851091E+04  0.38151690604E+04 0.  0.
        4    1    3    3  502    0  0.15732021473E+04 -0.11423711380E+03 -0.57215173031E+03  0.16779077238E+04  0.12699999809E+01 0. -1.
       -4    1    3    3    0  502 -0.15732021473E+04  0.11423711380E+03  0.16587346814E+04  0.22889773853E+04  0.12699999809E+01 0.  1.
</event>
<event>
 5   0  0.5158266E-07  0.2813751E+04  0.7818609E-02  0.8299012E-01
        2   -1    0    0  501    0  0.00000000000E+00  0.00000000000E+00  0.87099946115E+03  0.87099946115E+03  0.25500000920E-02 0. -1.
       -2   -1    0    0    0  501  0.00000000000E+00  0.00000000000E+00 -0.22724461314E+04  0.22724461314E+04  0.25500000920E-02 0.  1.
    10030    2    1    2    0    0  0.00000000000E+00  0.00000000000E+00 -0.14014466702E+04  0.31434455925E+04  0.28137514858E+04 0.  0.
        2    1    3    3  502    0 -0.60147258000E+03  0.11681502628E+04 -0.12626011592E+04  0.18222255591E+04  0.25500000920E-02 0.  1.
       -2    1    3    3    0  502  0.60147258000E+03 -0.11681502628E+04 -0.13884551105E+03  0.13212200335E+04  0.25500000920E-02 0. -1.
</event>
<event>
 5   0  0.1648000E-07  0.3807254E+04  0.7818609E-02  0.8044600E-01
       -3   -1    0    0    0  501  0.00000000000E+00  0.00000000000E+00  0.23679132118E+04  0.23679132139E+04  0.10100000352E+00 0. -1.
        3   -1    0    0  501    0  0.00000000000E+00  0.00000000000E+00 -0.15303751061E+04  0.15303751094E+04  0.10100000352E+00 0.  1.
    10030    2    1    2    0    0  0.00000000000E+00  0.00000000000E+00  0.83753810566E+03  0.38982883234E+04  0.38072538363E+04 0.  0.
        5    1    3    3  502    0 -0.73016045150E+03  0.96171766886E+03 -0.10880638747E+04  0.16254046404E+04  0.46999998093E+01 0. -1.
       -5    1    3    3    0  502  0.73016045150E+03 -0.96171766886E+03  0.19256019804E+04  0.22728836830E+04  0.46999998093E+01 0.  1.
</event>
<event>
 5   0  0.1648000E-07  0.3122932E+04  0.7818609E-02  0.8209472E-01
       -1   -1    0    0    0  501  0.00000000000E+00  0.00000000000E+00  0.14361929266E+04  0.14361929266E+04  0.50400001928E-02 0.  1.
        1   -1    0    0  501    0  0.00000000000E+00  0.00000000000E+00 -0.16976662285E+04  0.16976662285E+04  0.50400001928E-02 0. -1.
    10030    2    1    2    0    0  0.00000000000E+00  0.00000000000E+00 -0.26147330191E+03  0.31338591551E+04  0.31229321024E+04 0.  0.
        4    1    3    3  502    0 -0.87209041815E+03 -0.92417326106E+03 -0.10414011604E+04  0.16429108021E+04  0.12699999809E+01 0. -1.
       -4    1    3    3    0  502  0.87209041815E+03  0.92417326106E+03  0.77992785850E+03  0.14909483530E+04  0.12699999809E+01 0.  1.
</event>
<event>
 5   0  0.1648000E-07  0.3818765E+04  0.7818609E-02  0.8042140E-01
       -1   -1    0    0    0  501  0.00000000000E+00  0.00000000000E+00  0.11113960870E+04  0.11113960870E+04  0.50400001928E-02 0. -1.
        1   -1    0    0  501    0  0.00000000000E+00  0.00000000000E+00 -0.32803253130E+04  0.32803253130E+04  0.50400001928E-02 0.  1.
    10030    2    1    2    0    0  0.00000000000E+00  0.00000000000E+00 -0.21689292260E+04  0.43917214001E+04  0.38187645736E+04 0.  0.
        3    1    3    3  502    0 -0.96505570779E+03  0.21131496085E+03 -0.29635544078E+04  0.31238824034E+04  0.10100000352E+00 0.  1.
       -3    1    3    3    0  502  0.96505570779E+03 -0.21131496085E+03  0.79462518181E+03  0.12678389967E+04  0.10100000352E+00 0. -1.
</event>
<event>
 5   0  0.1648000E-07  0.3773877E+04  0.7818609E-02  0.8051784E-01
       -1   -1    0    0    0  501  0.00000000000E+00  0.00000000000E+00  0.21110545475E+04  0.21110545475E+04  0.50400001928E-02 0. -1.
        1   -1    0    0  501    0  0.00000000000E+00  0.00000000000E+00 -0.16866149421E+04  0.16866149421E+04  0.50400001928E-02 0.  1.
    10030    2    1    2    0    0  0.00000000000E+00  0.00000000000E+00  0.42443960545E+03  0.37976694896E+04  0.37738765976E+04 0.  0.
        4    1    3    3  502    0 -0.20470752522E+02  0.17223133433E+04  0.98763104970E+03  0.19854971689E+04  0.12699999809E+01 0. -1.
       -4    1    3    3    0  502  0.20470752522E+02 -0.17223133433E+04 -0.56319144425E+03  0.18121723208E+04  0.12699999809E+01 0.  1.
</event>
<event>
 5   0  0.1648000E-07  0.3803180E+04  0.7818609E-02  0.8045473E-01
        1   -1    0    0  501    0  0.00000000000E+00  0.00000000000E+00  0.19663291248E+04  0.19663291248E+04  0.50400001928E-02 0.  1.
       -1   -1    0    0    0  501  0.00000000000E+00  0.00000000000E+00 -0.18389819633E+04  0.18389819633E+04  0.50400001928E-02 0. -1.
    10030    2    1    2    0    0  0.00000000000E+00  0.00000000000E+00  0.12734716149E+03  0.38053110881E+04  0.38031796142E+04 0.  0.
        4    1    3    3  502    0 -0.10698500214E+04 -0.12967489657E+04  0.95293781504E+03  0.19324153386E+04  0.12699999809E+01 0. -1.
       -4    1    3    3    0  502  0.10698500214E+04  0.12967489657E+04 -0.82559065355E+03  0.18728957495E+04  0.12699999809E+01 0.  1.
</event>
<event>
 5   0  0.5202788E-07  0.3819847E+04  0.7818609E-02  0.8041909E-01
       -2   -1    0    0    0  501  0.00000000000E+00  0.00000000000E+00  0.18319387658E+04  0.18319387658E+04  0.25500000920E-02 0.  1.
        2   -1    0    0  501    0  0.00000000000E+00  0.00000000000E+00 -0.19912284800E+04  0.19912284800E+04  0.25500000920E-02 0. -1.
    10030    2    1    2    0    0  0.00000000000E+00  0.00000000000E+00 -0.15928971417E+03  0.38231672458E+04  0.38198474546E+04 0.  0.
        1    1    3    3  502    0  0.79352937153E+03 -0.28415806904E+03  0.16357215398E+04  0.18401140257E+04  0.50400001928E-02 0.  1.
       -1    1    3    3    0  502 -0.79352937153E+03  0.28415806904E+03 -0.17950112540E+04  0.19830532201E+04  0.50400001928E-02 0. -1.
</event>
<event>
 5   0  0.5158266E-07  0.3858909E+04  0.7818609E-02  0.8033630E-01
       -2   -1    0    0    0  501  0.00000000000E+00  0.00000000000E+00  0.19550973302E+04  0.19550973302E+04  0.25500000920E-02 0.  1.
        2   -1    0    0  501    0  0.00000000000E+00  0.00000000000E+00 -0.19041479494E+04  0.19041479494E+04  0.25500000920E-02 0. -1.
    10030    2    1    2    0    0  0.00000000000E+00  0.00000000000E+00  0.50949380813E+02  0.38592452796E+04  0.38589089506E+04 0.  0.
        2    1    3    3  502    0 -0.68045059318E+03 -0.37924223965E+03 -0.17398864799E+04  0.19063165134E+04  0.25500000920E-02 0. -1.
       -2    1    3    3    0  502  0.68045059318E+03  0.37924223965E+03  0.17908358607E+04  0.19529287663E+04  0.25500000920E-02 0.  1.
</event>
<event>
 5   0  0.5132561E-07  0.3780709E+04  0.7818609E-02  0.8050307E-01
        2   -1    0    0  501    0  0.00000000000E+00  0.00000000000E+00  0.20410462941E+04  0.20410462941E+04  0.25500000920E-02 0. -1.
       -2   -1    0    0    0  501  0.00000000000E+00  0.00000000000E+00 -0.17507880253E+04  0.17507880253E+04  0.25500000920E-02 0.  1.
    10030    2    1    2    0    0  0.00000000000E+00  0.00000000000E+00  0.29025826874E+03  0.37918343194E+04  0.37807086165E+04 0.  0.
        3    1    3    3  502    0  0.81745478677E+03  0.15102484940E+04 -0.64735848273E+03  0.18352536221E+04  0.10100000352E+00 0.  1.
       -3    1    3    3    0  502 -0.81745478677E+03 -0.15102484940E+04  0.93761675147E+03  0.19565806973E+04  0.10100000352E+00 0. -1.
</event>
<event>
 5   0  0.5134434E-07  0.3758396E+04  0.7818609E-02  0.8055142E-01
       -2   -1    0    0    0  501  0.00000000000E+00  0.00000000000E+00  0.18182307954E+04  0.18182307954E+04  0.25500000920E-02 0. -1.
        2   -1    0    0  501    0  0.00000000000E+00  0.00000000000E+00 -0.19422092591E+04  0.19422092591E+04  0.25500000920E-02 0.  1.
    10030    2    1    2    0    0  0.00000000000E+00  0.00000000000E+00 -0.12397846375E+03  0.37604400545E+04  0.37583957673E+04 0.  0.
        5    1    3    3  502    0 -0.75674015093E+03 -0.63621301559E+03  0.15369851270E+04  0.18275032224E+04  0.46999998093E+01 0. -1.
       -5    1    3    3    0  502  0.75674015093E+03  0.63621301559E+03 -0.16609635907E+04  0.19329368321E+04  0.46999998093E+01 0.  1.
</event>
<event>
 5   0  0.1656617E-07  0.3775177E+04  0.7818609E-02  0.8051503E-01
        1   -1    0    0  501    0  0.00000000000E+00  0.00000000000E+00  0.17529799322E+04  0.17529799322E+04  0.50400001928E-02 0.  1.
       -1   -1    0    0    0  501  0.00000000000E+00  0.00000000000E+00 -0.20325330092E+04  0.20325330092E+04  0.50400001928E-02 0. -1.
    10030    2    1    2    0    0  0.00000000000E+00  0.00000000000E+00 -0.27955307694E+03  0.37855129414E+04  0.37751765928E+04 0.  0.
        5    1    3    3  502    0  0.16779198402E+04 -0.74187475719E+03 -0.58503549349E+03  0.19256380148E+04  0.46999998093E+01 0. -1.
       -5    1    3    3    0  502 -0.16779198402E+04  0.74187475719E+03  0.30548241655E+03  0.18598749265E+04  0.46999998093E+01 0.  1.
</event>
<event>
 5   0  0.1648000E-07  0.3822807E+04  0.7818609E-02  0.8041278E-01
       -1   -1    0    0    0  501  0.00000000000E+00  0.00000000000E+00  0.21213573874E+04  0.21213573874E+04  0.50400001928E-02 0. -1.
        1   -1    0    0  501    0  0.00000000000E+00  0.00000000000E+00 -0.17222292393E+04  0.17222292394E+04  0.50400001928E-02 0.  1.
    10030    2    1    2    0    0  0.00000000000E+00  0.00000000000E+00  0.39912814805E+03  0.38435866267E+04  0.38228071987E+04 0.  0.
        2    1    3    3  502    0 -0.60065320618E+03  0.12124289096E+04 -0.11578468791E+04  0.17808361886E+04  0.25500000920E-02 0.  1.
       -2    1    3    3    0  502  0.60065320618E+03 -0.12124289096E+04  0.15569750272E+04  0.20627504382E+04  0.25500000920E-02 0. -1.
</event>
<event>
 5   0  0.1656617E-07  0.3802535E+04  0.7818609E-02  0.8045611E-01
        1   -1    0    0  501    0  0.00000000000E+00  0.00000000000E+00  0.17497679523E+04  0.17497679523E+04  0.50400001928E-02 0. -1.
       -1   -1    0    0    0  501  0.00000000000E+00  0.00000000000E+00 -0.20658839425E+04  0.20658839425E+04  0.50400001928E-02 0.  1.
    10030    2    1    2    0    0  0.00000000000E+00  0.00000000000E+00 -0.31611599020E+03  0.38156518948E+04  0.38025346893E+04 0.  0.
        5    1    3    3  502    0 -0.45673922691E+03 -0.12318231233E+04 -0.15371338235E+04  0.20220784875E+04  0.46999998093E+01 0.  1.
       -5    1    3    3    0  502  0.45673922691E+03  0.12318231233E+04  0.12210178333E+04  0.17935734073E+04  0.46999998093E+01 0. -1.
</event>
<event>
 5   0  0.5158266E-07  0.3375034E+04  0.7818609E-02  0.8144061E-01
       -2   -1    0    0    0  501  0.00000000000E+00  0.00000000000E+00  0.16175753225E+04  0.16175753225E+04  0.25500000920E-02 0. -1.
        2   -1    0    0  501    0  0.00000000000E+00  0.00000000000E+00 -0.17604828420E+04  0.17604828420E+04  0.25500000920E-02 0.  1.
    10030    2    1    2    0    0  0.00000000000E+00  0.00000000000E+00 -0.14290751952E+03  0.33780581644E+04  0.33750339855E+04 0.  0.
        2    1    3    3  502    0  0.10555086298E+04  0.75275510501E+03 -0.11526878434E+04  0.17347702961E+04  0.25500000920E-02 0.  1.
       -2    1    3    3    0  502 -0.10555086298E+04 -0.75275510501E+03  0.10097803239E+04  0.16432878684E+04  0.25500000920E-02 0. -1.
</event>
<event>
 5   0  0.5202788E-07  0.3689475E+04  0.7818609E-02  0.8070298E-01
       -2   -1    0    0    0  501  0.00000000000E+00  0.00000000000E+00  0.20648131575E+04  0.20648131575E+04  0.25500000920E-02 0.  1.
        2   -1    0    0  501    0  0.00000000000E+00  0.00000000000E+00 -0.16481180912E+04  0.16481180912E+04  0.25500000920E-02 0. -1.
    10030    2    1    2    0    0  0.00000000000E+00  0.00000000000E+00  0.41669506635E+03  0.37129312487E+04  0.36894747159E+04 0.  0.
        1    1    3    3  502    0  0.58060828391E+03 -0.40359078649E+03 -0.15063230828E+04  0.16640314697E+04  0.50400001928E-02 0. -1.
       -1    1    3    3    0  502 -0.58060828391E+03  0.40359078649E+03  0.19230181492E+04  0.20488997790E+04  0.50400001928E-02 0.  1.
</event>
<event>
 5   0  0.5202788E-07  0.3785384E+04  0.7818609E-02  0.8049299E-01
       -2   -1    0    0    0  501  0.00000000000E+00  0.00000000000E+00  0.17684993987E+04  0.17684993987E+04  0.25500000920E-02 0.  1.
        2   -1    0    0  501    0  0.00000000000E+00  0.00000000000E+00 -0.20256058589E+04  0.20256058589E+04  0.25500000920E-02 0. -1.
    10030    2    1    2    0    0  0.00000000000E+00  0.00000000000E+00 -0.25710646014E+03  0.37941052576E+04  0.37853838609E+04 0.  0.
        1    1    3    3  502    0  0.16208757733E+04  0.88308748958E+03  0.29098127494E+03  0.18686229928E+04  0.50400001928E-02 0. -1.
       -1    1    3    3    0  502 -0.16208757733E+04 -0.88308748958E+03 -0.54808773508E+03  0.19254822648E+04  0.50400001928E-02 0.  1.
</event>
<event>
 5   0  0.5132561E-07  0.3486782E+04  0.7818609E-02  0.8116930E-01
        2   -1    0    0  501    0  0.00000000000E+00  0.00000000000E+00  0.26156034067E+04  0.26156034067E+04  0.25500000920E-02 0.  1.
       -2   -1    0    0    0  501  0.00000000000E+00  0.00000000000E+00 -0.11620310685E+04  0.11620310685E+04  0.25500000920E-02 0. -1.
    10030    2    1    2    0    0  0.00000000000E+00  0.00000000000E+00  0.14535723383E+04  0.37776344752E+04  0.34867821391E+04 0.  0.
        3    1    3    3  502    0  0.14227691063E+04  0.38222954775E+03 -0.28319962948E+03  0.15001911202E+04  0.10100000352E+00 0. -1.
       -3    1    3    3    0  502 -0.14227691063E+04 -0.38222954775E+03  0.17367719677E+04  0.22774433550E+04  0.10100000352E+00 0.  1.
</event>
<event>
 5   0  0.1648000E-07  0.3545602E+04  0.7818609E-02  0.8103067E-01
        1   -1    0    0  501    0  0.00000000000E+00  0.00000000000E+00  0.23847562085E+04  0.23847562085E+04  0.50400001928E-02 0.  1.
       -1   -1    0    0    0  501  0.00000000000E+00  0.00000000000E+00 -0.13178805860E+04  0.13178805860E+04  0.50400001928E-02 0. -1.
    10030    2    1    2    0    0  0.00000000000E+00  0.00000000000E+00  0.10668756225E+04  0.37026367944E+04  0.35456022955E+04 0.  0.
        4    1    3    3  502    0 -0.98839577011E+03 -0.12992214159E+04  0.12553736623E+04  0.20593365754E+04  0.12699999809E+01 0. -1.
       -4    1    3    3    0  502  0.98839577011E+03  0.12992214159E+04 -0.18849803979E+03  0.16433002190E+04  0.12699999809E+01 0.  1.
</event>
<event>
 5   0  0.5132561E-07  0.3760872E+04  0.7818609E-02  0.8054604E-01
       -2   -1    0    0    0  501  0.00000000000E+00  0.00000000000E+00  0.17790076433E+04  0.17790076433E+04  0.25500000920E-02 0. -1.
        2   -1    0    0  501    0  0.00000000000E+00  0.00000000000E+00 -0.19876469237E+04  0.19876469237E+04  0.25500000920E-02 0.  1.
    10030    2    1    2    0    0  0.00000000000E+00  0.00000000000E+00 -0.20863928038E+03  0.37666545670E+04  0.37608717444E+04 0.  0.
        3    1    3    3  502    0  0.14346340624E+03 -0.10011926753E+04  0.14833846192E+04  0.17953825388E+04  0.10100000352E+00 0. -1.
       -3    1    3    3    0  502 -0.14346340624E+03  0.10011926753E+04 -0.16920238996E+04  0.19712720282E+04  0.10100000352E+00 0.  1.
</event>
<event>
 5   0  0.1648000E-07  0.3816825E+04  0.7818609E-02  0.8042554E-01
        1   -1    0    0  501    0  0.00000000000E+00  0.00000000000E+00  0.23436719562E+04  0.23436719562E+04  0.50400001928E-02 0. -1.
       -1   -1    0    0    0  501  0.00000000000E+00  0.00000000000E+00 -0.15539881424E+04  0.15539881424E+04  0.50400001928E-02 0.  1.
    10030    2    1    2    0    0  0.00000000000E+00  0.00000000000E+00  0.78968381384E+03  0.38976600986E+04  0.38168250835E+04 0.  0.
        2    1    3    3  502    0 -0.75241204260E+03 -0.52524323569E+03 -0.13139271260E+04  0.16026256054E+04  0.25500000920E-02 0.  1.
       -2    1    3    3    0  502  0.75241204260E+03  0.52524323569E+03  0.21036109399E+04  0.22950344932E+04  0.25500000920E-02 0. -1.
</event>
<event>
 5   0  0.5134434E-07  0.3781428E+04  0.7818609E-02  0.8050152E-01
        2   -1    0    0  501    0  0.00000000000E+00  0.00000000000E+00  0.22622033484E+04  0.22622033484E+04  0.25500000920E-02 0. -1.
       -2   -1    0    0    0  501  0.00000000000E+00  0.00000000000E+00 -0.15802293427E+04  0.15802293427E+04  0.25500000920E-02 0.  1.
    10030    2    1    2    0    0  0.00000000000E+00  0.00000000000E+00  0.68197400571E+03  0.38424326911E+04  0.37814283599E+04 0.  0.
        5    1    3    3  502    0  0.14556008296E+04 -0.14806391173E+03  0.15578376613E+04  0.21371890338E+04  0.46999998093E+01 0. -1.
       -5    1    3    3    0  502 -0.14556008296E+04  0.14806391173E+03 -0.87586365564E+03  0.17052436572E+04  0.46999998093E+01 0.  1.
</event>
<event>
 5   0  0.5132561E-07  0.3667650E+04  0.7818609E-02  0.8075169E-01
        2   -1    0    0  501    0  0.00000000000E+00  0.00000000000E+00  0.22949352446E+04  0.22949352446E+04  0.25500000920E-02 0.  1.
       -2   -1    0    0    0  501  0.00000000000E+00  0.00000000000E+00 -0.14653632451E+04  0.14653632451E+04  0.25500000920E-02 0. -1.
    10030    2    1    2    0    0  0.00000000000E+00  0.00000000000E+00  0.82957199950E+03  0.37602984898E+04  0.36676497965E+04 0.  0.
        3    1    3    3  502    0  0.11715943958E+04  0.13631040182E+04  0.41968945128E+02  0.17979008302E+04  0.10100000352E+00 0. -1.
       -3    1    3    3    0  502 -0.11715943958E+04 -0.13631040182E+04  0.78760305437E+03  0.19623976596E+04  0.10100000352E+00 0.  1.
</event>
<event>
 5   0  0.1648000E-07  0.3782205E+04  0.7818609E-02  0.8049984E-01
        1   -1    0    0  501    0  0.00000000000E+00  0.00000000000E+00  0.27797168840E+04  0.27797168840E+04  0.50400001928E-02 0. -1.
       -1   -1    0    0    0  501  0.00000000000E+00  0.00000000000E+00 -0.12865589125E+04  0.12865589126E+04  0.50400001928E-02 0.  1.
    10030    2    1    2    0    0  0.00000000000E+00  0.00000000000E+00  0.14931579715E+04  0.40662757966E+04  0.37822054580E+04 0.  0.
        2    1    3    3  502    0  0.28359687507E+03  0.73587368857E+03  0.25944913987E+04  0.27117011065E+04  0.25500000920E-02 0. -1.
       -2    1    3    3    0  502 -0.28359687507E+03 -0.73587368857E+03 -0.11013334272E+04  0.13545746901E+04  0.25500000920E-02 0.  1.
</event>
<event>
 5   0  0.1648000E-07  0.3781275E+04  0.7818609E-02  0.8050185E-01
       -1   -1    0    0    0  501  0.00000000000E+00  0.00000000000E+00  0.25470762170E+04  0.25470762170E+04  0.50400001928E-02 0.  1.
        1   -1    0    0  501    0  0.00000000000E+00  0.00000000000E+00 -0.14033775263E+04  0.14033775263E+04  0.50400001928E-02 0. -1.
    10030    2    1    2    0    0  0.00000000000E+00  0.00000000000E+00  0.11436986907E+04  0.39504537433E+04  0.37812746637E+04 0.  0.
        2    1    3    3  502    0 -0.61372476699E+02 -0.16209115594E+04  0.15865877120E+04  0.22690045024E+04  0.25500000920E-02 0. -1.
       -2    1    3    3    0  502  0.61372476699E+02  0.16209115594E+04 -0.44288902132E+03  0.16814492408E+04  0.25500000920E-02 0.  1.
</event>
<event>
 5   0  0.1648000E-07  0.3757803E+04  0.7818609E-02  0.8055271E-01
        3   -1    0    0  501    0  0.00000000000E+00  0.00000000000E+00  0.26436859769E+04  0.26436859789E+04  0.10100000352E+00 0. -1.
       -3   -1    0    0    0  501  0.00000000000E+00  0.00000000000E+00 -0.13353592492E+04  0.13353592530E+04  0.10100000352E+00 0.  1.
    10030    2    1    2    0    0  0.00000000000E+00  0.00000000000E+00  0.13083267278E+04  0.39790452319E+04  0.37578028329E+04 0.  0.
        2    1    3    3  502    0 -0.39044718710E+03  0.16456621586E+04 -0.21231617581E+03  0.17046205164E+04  0.25500000920E-02 0.  1.
       -2    1    3    3    0  502  0.39044718710E+03 -0.16456621586E+04  0.15206429036E+04  0.22744247155E+04  0.25500000920E-02 0. -1.
</event>
<event>
 5   0  0.5158266E-07  0.3820144E+04  0.7818609E-02  0.8041846E-01
        2   -1    0    0  501    0  0.00000000000E+00  0.00000000000E+00  0.33865584603E+04  0.33865584603E+04  0.25500000920E-02 0.  1.
       -2   -1    0    0    0  501  0.00000000000E+00  0.00000000000E+00 -0.10773104584E+04  0.10773104584E+04  0.25500000920E-02 0. -1.
    10030    2    1    2    0    0  0.00000000000E+00  0.00000000000E+00  0.23092480019E+04  0.44638689187E+04  0.38201438964E+04 0.  0.
        2    1    3    3  502    0 -0.45096388805E+03 -0.21699535170E+03 -0.99933905314E+03  0.11176466142E+04  0.25500000920E-02 0. -1.
       -2    1    3    3    0  502  0.45096388805E+03  0.21699535170E+03  0.33085870550E+04  0.33462223046E+04  0.25500000920E-02 0.  1.
</event>
<event>
 5   0  0.5158266E-07  0.3798455E+04  0.7818609E-02  0.8046487E-01
        2   -1    0    0  501    0  0.00000000000E+00  0.00000000000E+00  0.24522393098E+04  0.24522393098E+04  0.25500000920E-02 0.  1.
       -2   -1    0    0    0  501  0.00000000000E+00  0.00000000000E+00 -0.14709269242E+04  0.14709269242E+04  0.25500000920E-02 0. -1.
    10030    2    1    2    0    0  0.00000000000E+00  0.00000000000E+00  0.98131238559E+03  0.39231662340E+04  0.37984548571E+04 0.  0.
        2    1    3    3  502    0 -0.61663050951E+03  0.49728750646E+03  0.22734623132E+04  0.24075213268E+04  0.25500000920E-02 0.  1.
       -2    1    3    3    0  502  0.61663050951E+03 -0.49728750646E+03 -0.12921499276E+04  0.15156449072E+04  0.25500000920E-02 0. -1.
</event>
<event>
 5   0  0.1648000E-07  0.3760730E+04  0.7818609E-02  0.8054635E-01
       -1   -1    0    0    0  501  0.00000000000E+00  0.00000000000E+00  0.18116475194E+04  0.18116475194E+04  0.50400001928E-02 0. -1.
        1   -1    0    0  501    0  0.00000000000E+00  0.00000000000E+00 -0.19516888369E+04  0.19516888369E+04  0.50400001928E-02 0.  1.
    10030    2    1    2    0    0  0.00000000000E+00  0.00000000000E+00 -0.14004131752E+03  0.37633363563E+04  0.37607298441E+04 0.  0.
        3    1    3    3  502    0  0.67679120828E+03  0.11537294945E+04 -0.13925395134E+04  0.19308817656E+04  0.10100000352E+00 0.  1.
       -3    1    3    3    0  502 -0.67679120828E+03 -0.11537294945E+04  0.12524981959E+04  0.18324545907E+04  0.10100000352E+00 0. -1.
</event>
<event>
 5   0  0.5325362E-07  0.3095819E+04  0.7818609E-02  0.8216886E-01
        2   -1    0    0  501    0  0.00000000000E+00  0.00000000000E+00  0.12317870471E+04  0.12317870471E+04  0.25500000920E-02 0.  1.
       -2   -1    0    0    0  501  0.00000000000E+00  0.00000000000E+00 -0.19451612408E+04  0.19451612408E+04  0.25500000920E-02 0. -1.
    10030    2    1    2    0    0  0.00000000000E+00  0.00000000000E+00 -0.71337419375E+03  0.31769482879E+04  0.30958193881E+04 0.  0.
        4    1    3    3  502    0 -0.15392411409E+04  0.13332213834E+03 -0.25941530077E+03  0.15666320543E+04  0.12699999809E+01 0. -1.
       -4    1    3    3    0  502  0.15392411409E+04 -0.13332213834E+03 -0.45395889299E+03  0.16103162335E+04  0.12699999809E+01 0.  1.
</event>
<event>
 5   0  0.1648000E-07  0.3454730E+04  0.7818609E-02  0.8124603E-01
       -1   -1    0    0    0  501  0.00000000000E+00  0.00000000000E+00  0.14256316393E+04  0.14256316393E+04  0.50400001928E-02 0. -1.
        1   -1    0    0  501    0  0.00000000000E+00  0.00000000000E+00 -0.20929603932E+04  0.20929603932E+04  0.50400001928E-02 0.  1.
    10030    2    1    2    0    0  0.00000000000E+00  0.00000000000E+00 -0.66732875385E+03  0.35185920325E+04  0.34547304129E+04 0.  0.
        1    1    3    3  502    0  0.14129209528E+04  0.85326254204E+03  0.18505165212E+03  0.16609174267E+04  0.50400001928E-02 0. -1.
       -1    1    3    3    0  502 -0.14129209528E+04 -0.85326254204E+03 -0.85238040597E+03  0.18576746058E+04  0.50400001928E-02 0.  1.
</event>
<event>
 5   0  0.5158266E-07  0.3851377E+04  0.7818609E-02  0.8035219E-01
       -2   -1    0    0    0  501  0.00000000000E+00  0.00000000000E+00  0.14386306356E+04  0.14386306356E+04  0.25500000920E-02 0. -1.
        2   -1    0    0  501    0  0.00000000000E+00  0.00000000000E+00 -0.25776426260E+04  0.25776426260E+04  0.25500000920E-02 0.  1.
    10030    2    1    2    0    0  0.00000000000E+00  0.00000000000E+00 -0.11390119904E+04  0.40162732616E+04  0.38513767145E+04 0.  0.
        2    1    3    3  502    0  0.31896571984E+03  0.70700069079E+03  0.12685382931E+04  0.14868686923E+04  0.25500000920E-02 0. -1.
       -2    1    3    3    0  502 -0.31896571984E+03 -0.70700069079E+03 -0.24075502835E+04  0.25294045692E+04  0.25500000920E-02 0.  1.
</event>
<event>
 5   0  0.1656617E-07  0.3890048E+04  0.7818609E-02  0.8027102E-01
       -1   -1    0    0    0  501  0.00000000000E+00  0.00000000000E+00  0.12675733544E+04  0.12675733544E+04  0.50400001928E-02 0. -1.
        1   -1    0    0  501    0  0.00000000000E+00  0.00000000000E+00 -0.29845359196E+04  0.29845359196E+04  0.50400001928E-02 0.  1.
    10030    2    1    2    0    0  0.00000000000E+00  0.00000000000E+00 -0.17169625652E+04  0.42521092741E+04  0.38900479211E+04 0.  0.
        5    1    3    3  502    0 -0.87180773327E+03 -0.97086717393E+03  0.71814804886E+03  0.14894262329E+04  0.46999998093E+01 0. -1.
       -5    1    3    3    0  502  0.87180773327E+03  0.97086717393E+03 -0.24351106141E+04  0.27626830412E+04  0.46999998093E+01 0.  1.
</event>
<event>
 5   0  0.5202788E-07  0.3769622E+04  0.7818609E-02  0.8052706E-01
        2   -1    0    0  501    0  0.00000000000E+00  0.00000000000E+00  0.15349470934E+04  0.15349470934E+04  0.25500000920E-02 0. -1.
       -2   -1    0    0    0  501  0.00000000000E+00  0.00000000000E+00 -0.23144196998E+04  0.23144196998E+04  0.25500000920E-02 0.  1.
    10030    2    1    2    0    0  0.00000000000E+00  0.00000000000E+00 -0.77947260637E+03  0.38493667932E+04  0.37696216208E+04 0.  0.
        1    1    3    3  502    0  0.45916584283E+03  0.73997326067E+03 -0.20966592414E+04  0.22703245742E+04  0.50400001928E-02 0.  1.
       -1    1    3    3    0  502 -0.45916584283E+03 -0.73997326067E+03  0.13171866350E+04  0.15790422190E+04  0.50400001928E-02 0. -1.
</event>
<event>
 5   0  0.5134434E-07  0.3739172E+04  0.7818609E-02  0.8059336E-01
       -2   -1    0    0    0  501  0.00000000000E+00  0.00000000000E+00  0.13001972652E+04  0.13001972652E+04  0.25500000920E-02 0.  1.
        2   -1    0    0  501    0  0.00000000000E+00  0.00000000000E+00 -0.26883239557E+04  0.26883239557E+04  0.25500000920E-02 0. -1.
    10030    2    1    2    0    0  0.00000000000E+00  0.00000000000E+00 -0.13881266905E+04  0.39885212209E+04  0.37391718095E+04 0.  0.
        5    1    3    3  502    0 -0.12964427602E+04 -0.76853016350E+02 -0.21286105745E+04  0.24935266761E+04  0.46999998093E+01 0. -1.
       -5    1    3    3    0  502  0.12964427602E+04  0.76853016350E+02  0.74048388400E+03  0.14949945448E+04  0.46999998093E+01 0.  1.
</event>
<event>
 5   0  0.1648000E-07  0.3809438E+04  0.7818609E-02  0.8044133E-01
       -1   -1    0    0    0  501  0.00000000000E+00  0.00000000000E+00  0.17941170196E+04  0.17941170196E+04  0.50400001928E-02 0. -1.
        1   -1    0    0  501    0  0.00000000000E+00  0.00000000000E+00 -0.20221390725E+04  0.20221390725E+04  0.50400001928E-02 0.  1.
    10030    2    1    2    0    0  0.00000000000E+00  0.00000000000E+00 -0.22802205291E+03  0.38162560922E+04  0.38094378200E+04 0.  0.
        1    1    3    3  502    0  0.23099842436E+02 -0.17188995607E+04 -0.93572594098E+03  0.19572256740E+04  0.50400001928E-02 0.  1.
       -1    1    3    3    0  502 -0.23099842436E+02  0.17188995607E+04  0.70770388807E+03  0.18590304182E+04  0.50400001928E-02 0. -1.
</event>
<event>
 5   0  0.1648000E-07  0.3784761E+04  0.7818609E-02  0.8049433E-01
        1   -1    0    0  501    0  0.00000000000E+00  0.00000000000E+00  0.12122747650E+04  0.12122747651E+04  0.50400001928E-02 0.  1.
       -1   -1    0    0    0  501  0.00000000000E+00  0.00000000000E+00 -0.29540365271E+04  0.29540365271E+04  0.50400001928E-02 0. -1.
    10030    2    1    2    0    0  0.00000000000E+00  0.00000000000E+00 -0.17417617620E+04  0.41663112921E+04  0.37847609895E+04 0.  0.
        4    1    3    3  502    0  0.14539150857E+04 -0.24907735727E+03  0.43403151530E+03  0.15376259544E+04  0.12699999809E+01 0.  1.
       -4    1    3    3    0  502 -0.14539150857E+04  0.24907735727E+03 -0.21757932773E+04  0.26286853378E+04  0.12699999809E+01 0. -1.
</event>
<event>
 5   0  0.1648000E-07  0.3535985E+04  0.7818609E-02  0.8105315E-01
       -1   -1    0    0    0  501  0.00000000000E+00  0.00000000000E+00  0.10800287837E+04  0.10800287837E+04  0.50400001928E-02 0. -1.
        1   -1    0    0  501    0  0.00000000000E+00  0.00000000000E+00 -0.28941796861E+04  0.28941796861E+04  0.50400001928E-02 0.  1.
    10030    2    1    2    0    0  0.00000000000E+00  0.00000000000E+00 -0.18141509024E+04  0.39742084698E+04  0.35359849355E+04 0.  0.
        4    1    3    3  502    0  0.71909770687E+03 -0.19344701439E+03  0.89517146240E+03  0.11644126500E+04  0.12699999809E+01 0. -1.
       -4    1    3    3    0  502 -0.71909770687E+03  0.19344701439E+03 -0.27093223649E+04  0.28097958198E+04  0.12699999809E+01 0.  1.
</event>
<event>
 5   0  0.5158266E-07  0.3790195E+04  0.7818609E-02  0.8048262E-01
       -2   -1    0    0    0  501  0.00000000000E+00  0.00000000000E+00  0.18493001039E+04  0.18493001039E+04  0.25500000920E-02 0.  1.
        2   -1    0    0  501    0  0.00000000000E+00  0.00000000000E+00 -0.19420286751E+04  0.19420286751E+04  0.25500000920E-02 0. -1.
    10030    2    1    2    0    0  0.00000000000E+00  0.00000000000E+00 -0.92728571182E+02  0.37913287789E+04  0.37901946285E+04 0.  0.
        2    1    3    3  502    0 -0.13615455030E+04 -0.83689543090E+03 -0.10650961095E+04  0.19205806001E+04  0.25500000920E-02 0.  1.
       -2    1    3    3    0  502  0.13615455030E+04  0.83689543090E+03  0.97236753836E+03  0.18707481788E+04  0.25500000920E-02 0. -1.
</event>
<event>
 5   0  0.5158266E-07  0.3662022E+04  0.7818609E-02  0.8076431E-01
       -2   -1    0    0    0  501  0.00000000000E+00  0.00000000000E+00  0.15136562365E+04  0.15136562365E+04  0.25500000920E-02 0.  1.
        2   -1    0    0  501    0  0.00000000000E+00  0.00000000000E+00 -0.22149021366E+04  0.22149021366E+04  0.25500000920E-02 0. -1.
    10030    2    1    2    0    0  0.00000000000E+00  0.00000000000E+00 -0.70124590011E+03  0.37285583730E+04  0.36620215358E+04 0.  0.
        2    1    3    3  502    0 -0.11536114093E+04  0.44805856203E+03 -0.17245952201E+04  0.21226880204E+04  0.25500000920E-02 0. -1.
       -2    1    3    3    0  502  0.11536114093E+04 -0.44805856203E+03  0.10233493200E+04  0.16058703526E+04  0.25500000920E-02 0.  1.
</event>
<event>
 5   0  0.5325362E-07  0.3794602E+04  0.7818609E-02  0.8047314E-01
       -2   -1    0    0    0  501  0.00000000000E+00  0.00000000000E+00  0.13142326155E+04  0.13142326155E+04  0.25500000920E-02 0. -1.
        2   -1    0    0  501    0  0.00000000000E+00  0.00000000000E+00 -0.27390515622E+04  0.27390515622E+04  0.25500000920E-02 0.  1.
    10030    2    1    2    0    0  0.00000000000E+00  0.00000000000E+00 -0.14248189466E+04  0.40532841777E+04  0.37946019020E+04 0.  0.
        4    1    3    3  502    0  0.14598534916E+04 -0.10368889710E+04 -0.13824162073E+04  0.22621642598E+04  0.12699999809E+01 0. -1.
       -4    1    3    3    0  502 -0.14598534916E+04  0.10368889710E+04 -0.42402739345E+02  0.17911199179E+04  0.12699999809E+01 0.  1.
</event>
<event>
 5   0  0.5134434E-07  0.4000691E+04  0.7818609E-02  0.8004407E-01
        2   -1    0    0  501    0  0.00000000000E+00  0.00000000000E+00  0.23083151471E+04  0.23083151471E+04  0.25500000920E-02 0.  1.
       -2   -1    0    0    0  501  0.00000000000E+00  0.00000000000E+00 -0.17334645086E+04  0.17334645086E+04  0.25500000920E-02 0. -1.
    10030    2    1    2    0    0  0.00000000000E+00  0.00000000000E+00  0.57485063858E+03  0.40417796557E+04  0.40006911314E+04 0.  0.
        5    1    3    3  502    0  0.90718420023E+03 -0.16644545737E+04 -0.35785840070E+03  0.19291129894E+04  0.46999998093E+01 0. -1.
       -5    1    3    3    0  502 -0.90718420023E+03  0.16644545737E+04  0.93270903928E+03  0.21126666663E+04  0.46999998093E+01 0.  1.
</event>
<event>
 5   0  0.5158266E-07  0.3641831E+04  0.7818609E-02  0.8080976E-01
       -2   -1    0    0    0  501  0.00000000000E+00  0.00000000000E+00  0.15074814533E+04  0.15074814533E+04  0.25500000920E-02 0. -1.
        2   -1    0    0  501    0  0.00000000000E+00  0.00000000000E+00 -0.21995183739E+04  0.21995183739E+04  0.25500000920E-02 0.  1.
    10030    2    1    2    0    0  0.00000000000E+00  0.00000000000E+00 -0.69203692060E+03  0.37069998272E+04  0.36418309433E+04 0.  0.
        2    1    3    3  502    0  0.37047193691E+03  0.13682812410E+04  0.81736426083E+03  0.16363151730E+04  0.25500000920E-02 0. -1.
       -2    1    3    3    0  502 -0.37047193691E+03 -0.13682812410E+04 -0.15094011814E+04  0.20706846542E+04  0.25500000920E-02 0.  1.
</event>
<event>
 5   0  0.5202788E-07  0.3731184E+04  0.7818609E-02  0.8061086E-01
       -2   -1    0    0    0  501  0.00000000000E+00  0.00000000000E+00  0.19869081275E+04  0.19869081275E+04  0.25500000920E-02 0.  1.
        2   -1    0    0  501    0  0.00000000000E+00  0.00000000000E+00 -0.17516832194E+04  0.17516832194E+04  0.25500000920E-02 0. -1.
    10030    2    1    2    0    0  0.00000000000E+00  0.00000000000E+00  0.23522490814E+03  0.37385913469E+04  0.37311840617E+04 0.  0.
        1    1    3    3  502    0  0.15500318593E+04 -0.42967916494E+02  0.11569704505E+04  0.19346900604E+04  0.50400001928E-02 0.  1.
       -1    1    3    3    0  502 -0.15500318593E+04  0.42967916494E+02 -0.92174554232E+03  0.18039012865E+04  0.50400001928E-02 0. -1.
</event>
<event>
 5   0  0.5325362E-07  0.3783156E+04  0.7818609E-02  0.8049779E-01
       -2   -1    0    0    0  501  0.00000000000E+00  0.00000000000E+00  0.21667036869E+04  0.21667036869E+04  0.25500000920E-02 0. -1.
        2   -1    0    0  501    0  0.00000000000E+00  0.00000000000E+00 -0.16513874092E+04  0.16513874092E+04  0.25500000920E-02 0.  1.
    10030    2    1    2    0    0  0.00000000000E+00  0.00000000000E+00  0.51531627771E+03  0.38180910960E+04  0.37831559248E+04 0.  0.
        4    1    3    3  502    0 -0.17150290019E+04  0.35281930283E+03  0.97999056874E+03  0.20065365847E+04  0.12699999809E+01 0. -1.
       -4    1    3    3    0  502  0.17150290019E+04 -0.35281930283E+03 -0.46467429103E+03  0.18115545113E+04  0.12699999809E+01 0.  1.
</event>
<event>
 5   0  0.5325362E-07  0.3711874E+04  0.7818609E-02  0.8065335E-01
        2   -1    0    0  501    0  0.00000000000E+00  0.00000000000E+00  0.18876553591E+04  0.18876553591E+04  0.25500000920E-02 0. -1.
       -2   -1    0    0    0  501  0.00000000000E+00  0.00000000000E+00 -0.18247516475E+04  0.18247516475E+04  0.25500000920E-02 0.  1.
    10030    2    1    2    0    0  0.00000000000E+00  0.00000000000E+00  0.62903711624E+02  0.37124070066E+04  0.37118740423E+04 0.  0.
        4    1    3    3  502    0 -0.12921551542E+03  0.18379709622E+04 -0.19144042760E+03  0.18524267752E+04  0.12699999809E+01 0.  1.
       -4    1    3    3    0  502  0.12921551542E+03 -0.18379709622E+04  0.25434413922E+03  0.18599802314E+04  0.12699999809E+01 0. -1.
</event>
<event>
 5   0  0.5134434E-07  0.3741008E+04  0.7818609E-02  0.8058934E-01
       -2   -1    0    0    0  501  0.00000000000E+00  0.00000000000E+00  0.16057598451E+04  0.16057598451E+04  0.25500000920E-02 0.  1.
        2   -1    0    0  501    0  0.00000000000E+00  0.00000000000E+00 -0.21788968883E+04  0.21788968883E+04  0.25500000920E-02 0. -1.
    10030    2    1    2    0    0  0.00000000000E+00  0.00000000000E+00 -0.57313704320E+03  0.37846567334E+04  0.37410079550E+04 0.  0.
        5    1    3    3  502    0  0.11135180494E+04 -0.14961517581E+04 -0.43095908733E+03  0.19141944401E+04  0.46999998093E+01 0. -1.
       -5    1    3    3    0  502 -0.11135180494E+04  0.14961517581E+04 -0.14217795587E+03  0.18704622933E+04  0.46999998093E+01 0.  1.
</event>
<event>
 5   0  0.1648000E-07  0.3809837E+04  0.7818609E-02  0.8044047E-01
       -1   -1    0    0    0  501  0.00000000000E+00  0.00000000000E+00  0.20700639173E+04  0.20700639173E+04  0.50400001928E-02 0. -1.
        1   -1    0    0  501    0  0.00000000000E+00  0.00000000000E+00 -0.17529479573E+04  0.17529479573E+04  0.50400001928E-02 0.  1.
    10030    2    1    2    0    0  0.00000000000E+00  0.00000000000E+00  0.31711595997E+03  0.38230118746E+04  0.38098369075E+04 0.  0.
        4    1    3    3  502    0 -0.15844635349E+04 -0.56296231914E+03  0.10567855538E+04  0.19860132391E+04  0.12699999809E+01 0.  1.
       -4    1    3    3    0  502  0.15844635349E+04  0.56296231914E+03 -0.73966959387E+03  0.18369986356E+04  0.12699999809E+01 0. -1.
</event>
<event>
 5   0  0.5134434E-07  0.3921704E+04  0.7818609E-02  0.8020530E-01
       -2   -1    0    0    0  501  0.00000000000E+00  0.00000000000E+00  0.29002026598E+04  0.29002026598E+04  0.25500000920E-02 0. -1.
        2   -1    0    0  501    0  0.00000000000E+00  0.00000000000E+00 -0.13257490817E+04  0.13257490817E+04  0.25500000920E-02 0.  1.
    10030    2    1    2    0    0  0.00000000000E+00  0.00000000000E+00  0.15744535782E+04  0.42259517415E+04  0.39217042280E+04 0.  0.
        5    1    3    3  502    0  0.13179730812E+04  0.10380842488E+02  0.23516710062E+04  0.26958374239E+04  0.46999998093E+01 0. -1.
       -5    1    3    3    0  502 -0.13179730812E+04 -0.10380842488E+02 -0.77721742798E+03  0.15301143176E+04  0.46999998093E+01 0.  1.
</event>
<event>
 5   0  0.5132561E-07  0.3623050E+04  0.7818609E-02  0.8085232E-01
       -2   -1    0    0    0  501  0.00000000000E+00  0.00000000000E+00  0.21845209258E+04  0.21845209258E+04  0.25500000920E-02 0. -1.
        2   -1    0    0  501    0  0.00000000000E+00  0.00000000000E+00 -0.15022159322E+04  0.15022159322E+04  0.25500000920E-02 0.  1.
    10030    2    1    2    0    0  0.00000000000E+00  0.00000000000E+00  0.68230499359E+03  0.36867368579E+04  0.36230496209E+04 0.  0.
        3    1    3    3  502    0  0.13259537510E+04  0.11005938315E+04  0.90968837125E+03  0.19485874563E+04  0.10100000352E+00 0. -1.
       -3    1    3    3    0  502 -0.13259537510E+04 -0.11005938315E+04 -0.22738337767E+03  0.17381494017E+04  0.10100000352E+00 0.  1.
</event>
<event>
 5   0  0.5134434E-07  0.3761093E+04  0.7818609E-02  0.8054556E-01
       -2   -1    0    0    0  501  0.00000000000E+00  0.00000000000E+00  0.16758762496E+04  0.16758762496E+04  0.25500000920E-02 0. -1.
        2   -1    0    0  501    0  0.00000000000E+00  0.00000000000E+00 -0.21102124321E+04  0.21102124321E+04  0.25500000920E-02 0.  1.
    10030    2    1    2    0    0  0.00000000000E+00  0.00000000000E+00 -0.43433618254E+03  0.37860886817E+04  0.37610928712E+04 0.  0.
        5    1    3    3  502    0 -0.12541368914E+04  0.13486909107E+04 -0.59996667230E+03  0.19369585986E+04  0.46999998093E+01 0. -1.
       -5    1    3    3    0  502  0.12541368914E+04 -0.13486909107E+04  0.16563048976E+03  0.18491300831E+04  0.46999998093E+01 0.  1.
</event>
<event>
 5   0  0.1648000E-07  0.3821504E+04  0.7818609E-02  0.8041556E-01
        1   -1    0    0  501    0  0.00000000000E+00  0.00000000000E+00  0.20274351152E+04  0.20274351152E+04  0.50400001928E-02 0. -1.
       -1   -1    0    0    0  501  0.00000000000E+00  0.00000000000E+00 -0.18007846811E+04  0.18007846811E+04  0.50400001928E-02 0.  1.
    10030    2    1    2    0    0  0.00000000000E+00  0.00000000000E+00  0.22665043410E+03  0.38282197963E+04  0.38215044667E+04 0.  0.
        1    1    3    3  502    0 -0.17751359773E+04 -0.41984552633E+03  0.68317990851E+03  0.19478482465E+04  0.50400001928E-02 0. -1.
       -1    1    3    3    0  502  0.17751359773E+04  0.41984552633E+03 -0.45652947441E+03  0.18803715497E+04  0.50400001928E-02 0.  1.
</event>
<event>
 5   0  0.1656617E-07  0.3770563E+04  0.7818609E-02  0.8052502E-01
        1   -1    0    0  501    0  0.00000000000E+00  0.00000000000E+00  0.20501614069E+04  0.20501614069E+04  0.50400001928E-02 0.  1.
       -1   -1    0    0    0  501  0.00000000000E+00  0.00000000000E+00 -0.17336614687E+04  0.17336614687E+04  0.50400001928E-02 0. -1.
    10030    2    1    2    0    0  0.00000000000E+00  0.00000000000E+00  0.31649993826E+03  0.37838228756E+04  0.37705627356E+04 0.  0.
        5    1    3    3  502    0 -0.20452318893E+03  0.18464523270E+04  0.48038949938E+03  0.19188569754E+04  0.46999998093E+01 0. -1.
       -5    1    3    3    0  502  0.20452318893E+03 -0.18464523270E+04 -0.16388956112E+03  0.18649659002E+04  0.46999998093E+01 0.  1.
</event>
<event>
 5   0  0.1656617E-07  0.3634045E+04  0.7818609E-02  0.8082737E-01
        1   -1    0    0  501    0  0.00000000000E+00  0.00000000000E+00  0.25974887069E+04  0.25974887069E+04  0.50400001928E-02 0.  1.
       -1   -1    0    0    0  501  0.00000000000E+00  0.00000000000E+00 -0.12710627552E+04  0.12710627552E+04  0.50400001928E-02 0. -1.
    10030    2    1    2    0    0  0.00000000000E+00  0.00000000000E+00  0.13264259517E+04  0.38685514621E+04  0.36340452130E+04 0.  0.
        5    1    3    3  502    0 -0.37023102487E+03 -0.15323026309E+04 -0.29871653141E+03  0.16044550541E+04  0.46999998093E+01 0. -1.
       -5    1    3    3    0  502  0.37023102487E+03  0.15323026309E+04  0.16251424831E+04  0.22640964080E+04  0.46999998093E+01 0.  1.
</event>
<event>
 5   0  0.5202788E-07  0.3115855E+04  0.7818609E-02  0.8211400E-01
        2   -1    0    0  501    0  0.00000000000E+00  0.00000000000E+00  0.10566531887E+04  0.10566531887E+04  0.25500000920E-02 0.  1.
       -2   -1    0    0    0  501  0.00000000000E+00  0.00000000000E+00 -0.22970059695E+04  0.22970059695E+04  0.25500000920E-02 0. -1.
    10030    2    1    2    0    0  0.00000000000E+00  0.00000000000E+00 -0.12403527808E+04  0.33536591582E+04  0.31158553767E+04 0.  0.
        1    1    3    3  502    0  0.57416630029E+03  0.12662200244E+04 -0.13767911441E+04  0.19566639837E+04  0.50400001928E-02 0. -1.
       -1    1    3    3    0  502 -0.57416630029E+03 -0.12662200244E+04  0.13643836331E+03  0.13969951745E+04  0.50400001928E-02 0.  1.
</event>
<event>
 5   0  0.5202788E-07  0.2721430E+04  0.7818609E-02  0.8328085E-01
        2   -1    0    0  501    0  0.00000000000E+00  0.00000000000E+00  0.12703126215E+04  0.12703126215E+04  0.25500000920E-02 0.  1.
       -2   -1    0    0    0  501  0.00000000000E+00  0.00000000000E+00 -0.14575514105E+04  0.14575514105E+04  0.25500000920E-02 0. -1.
    10030    2    1    2    0    0  0.00000000000E+00  0.00000000000E+00 -0.18723878896E+03  0.27278640320E+04  0.27214304718E+04 0.  0.
        1    1    3    3  502    0 -0.10415470234E+04 -0.86839953275E+03  0.18931415067E+02  0.13562066026E+04  0.50400001928E-02 0. -1.
       -1    1    3    3    0  502  0.10415470234E+04  0.86839953275E+03 -0.20617020403E+03  0.13716574294E+04  0.50400001928E-02 0.  1.
</event>
<event>
 5   0  0.1648000E-07  0.3804388E+04  0.7818609E-02  0.8045214E-01
        1   -1    0    0  501    0  0.00000000000E+00  0.00000000000E+00  0.20851595028E+04  0.20851595028E+04  0.50400001928E-02 0. -1.
       -1   -1    0    0    0  501  0.00000000000E+00  0.00000000000E+00 -0.17352834554E+04  0.17352834555E+04  0.50400001928E-02 0.  1.
    10030    2    1    2    0    0  0.00000000000E+00  0.00000000000E+00  0.34987604736E+03  0.38204429583E+04  0.38043884067E+04 0.  0.
        4    1    3    3  502    0  0.18648522758E+04 -0.35158452342E+03  0.30608579936E+03  0.19222319883E+04  0.12699999809E+01 0.  1.
       -4    1    3    3    0  502 -0.18648522758E+04  0.35158452342E+03  0.43790247996E+02  0.18982109699E+04  0.12699999809E+01 0. -1.
</event>
<event>
 5   0  0.5158266E-07  0.3785131E+04  0.7818609E-02  0.8049353E-01
       -2   -1    0    0    0  501  0.00000000000E+00  0.00000000000E+00  0.16219267036E+04  0.16219267036E+04  0.25500000920E-02 0. -1.
        2   -1    0    0  501    0  0.00000000000E+00  0.00000000000E+00 -0.22083632303E+04  0.22083632303E+04  0.25500000920E-02 0.  1.
    10030    2    1    2    0    0  0.00000000000E+00  0.00000000000E+00 -0.58643652670E+03  0.38302899340E+04  0.37851305365E+04 0.  0.
        2    1    3    3  502    0 -0.16359184007E+04 -0.58922758192E+03 -0.10493852503E+04  0.20309179108E+04  0.25500000920E-02 0.  1.
       -2    1    3    3    0  502  0.16359184007E+04  0.58922758192E+03  0.46294872361E+03  0.17993720231E+04  0.25500000920E-02 0. -1.
</event>
<event>
 5   0  0.5134434E-07  0.3781732E+04  0.7818609E-02  0.8050087E-01
       -2   -1    0    0    0  501  0.00000000000E+00  0.00000000000E+00  0.12602588122E+04  0.12602588122E+04  0.25500000920E-02 0.  1.
        2   -1    0    0  501    0  0.00000000000E+00  0.00000000000E+00 -0.28370161018E+04  0.28370161018E+04  0.25500000920E-02 0. -1.
    10030    2    1    2    0    0  0.00000000000E+00  0.00000000000E+00 -0.15767572896E+04  0.40972749140E+04  0.37817321653E+04 0.  0.
        5    1    3    3  502    0 -0.91983281865E+03 -0.16320562011E+04 -0.51077172645E+03  0.19418057844E+04  0.46999998093E+01 0.  1.
       -5    1    3    3    0  502  0.91983281865E+03  0.16320562011E+04 -0.10659855631E+04  0.21554691296E+04  0.46999998093E+01 0. -1.
</event>
<event>
 5   0  0.5134434E-07  0.3767302E+04  0.7818609E-02  0.8053208E-01
       -2   -1    0    0    0  501  0.00000000000E+00  0.00000000000E+00  0.13485173041E+04  0.13485173041E+04  0.25500000920E-02 0.  1.
        2   -1    0    0  501    0  0.00000000000E+00  0.00000000000E+00 -0.26311419414E+04  0.26311419414E+04  0.25500000920E-02 0. -1.
    10030    2    1    2    0    0  0.00000000000E+00  0.00000000000E+00 -0.12826246373E+04  0.39796592455E+04  0.37673016537E+04 0.  0.
        5    1    3    3  502    0 -0.17690304076E+04 -0.55145461253E+03 -0.28378565131E+03  0.18746005331E+04  0.46999998093E+01 0.  1.
       -5    1    3    3    0  502  0.17690304076E+04  0.55145461253E+03 -0.99883898600E+03  0.21050587124E+04  0.46999998093E+01 0. -1.
</event>
<event>
 5   0  0.1648000E-07  0.3803874E+04  0.7818609E-02  0.8045324E-01
        1   -1    0    0  501    0  0.00000000000E+00  0.00000000000E+00  0.10387094285E+04  0.10387094285E+04  0.50400001928E-02 0.  1.
       -1   -1    0    0    0  501  0.00000000000E+00  0.00000000000E+00 -0.34825562291E+04  0.34825562291E+04  0.50400001928E-02 0. -1.
    10030    2    1    2    0    0  0.00000000000E+00  0.00000000000E+00 -0.24438468005E+04  0.45212656576E+04  0.38038738099E+04 0.  0.
        1    1    3    3  502    0 -0.13362373205E+04  0.16563112426E+03  0.37469213681E+03  0.13976258596E+04  0.50400001928E-02 0.  1.
       -1    1    3    3    0  502  0.13362373205E+04 -0.16563112426E+03 -0.28185389374E+04  0.31236397980E+04  0.50400001928E-02 0. -1.
</event>
<event>
 5   0  0.1648000E-07  0.3765819E+04  0.7818609E-02  0.8053530E-01
       -1   -1    0    0    0  501  0.00000000000E+00  0.00000000000E+00  0.15711112179E+04  0.15711112179E+04  0.50400001928E-02 0.  1.
        1   -1    0    0  501    0  0.00000000000E+00  0.00000000000E+00 -0.22565859553E+04  0.22565859553E+04  0.50400001928E-02 0. -1.
    10030    2    1    2    0    0  0.00000000000E+00  0.00000000000E+00 -0.68547473737E+03  0.38276971732E+04  0.37658186407E+04 0.  0.
        4    1    3    3  502    0 -0.14698666316E+04  0.11253251555E+04 -0.69260440891E+03  0.19765037567E+04  0.12699999809E+01 0. -1.
       -4    1    3    3    0  502  0.14698666316E+04 -0.11253251555E+04  0.71296715386E+01  0.18511934165E+04  0.12699999809E+01 0.  1.
</event>
<event>
 5   0  0.5132561E-07  0.3833218E+04  0.7818609E-02  0.8039064E-01
       -2   -1    0    0    0  501  0.00000000000E+00  0.00000000000E+00  0.32397288084E+04  0.32397288084E+04  0.25500000920E-02 0. -1.
        2   -1    0    0  501    0  0.00000000000E+00  0.00000000000E+00 -0.11338574170E+04  0.11338574170E+04  0.25500000920E-02 0.  1.
    10030    2    1    2    0    0  0.00000000000E+00  0.00000000000E+00  0.21058713913E+04  0.43735862254E+04  0.38332182503E+04 0.  0.
        3    1    3    3  502    0 -0.14032642066E+04 -0.87087089541E+03 -0.56697155913E+02  0.16525075272E+04  0.10100000352E+00 0.  1.
       -3    1    3    3    0  502  0.14032642066E+04  0.87087089541E+03  0.21625685472E+04  0.27210786982E+04  0.10100000352E+00 0. -1.
</event>
<event>
 5   0  0.5202788E-07  0.3817778E+04  0.7818609E-02  0.8042350E-01
        2   -1    0    0  501    0  0.00000000000E+00  0.00000000000E+00  0.22809530954E+04  0.22809530954E+04  0.25500000920E-02 0. -1.
       -2   -1    0    0    0  501  0.00000000000E+00  0.00000000000E+00 -0.15975153092E+04  0.15975153092E+04  0.25500000920E-02 0.  1.
    10030    2    1    2    0    0  0.00000000000E+00  0.00000000000E+00  0.68343778613E+03  0.38784684046E+04  0.38177781442E+04 0.  0.
        1    1    3    3  502    0 -0.17112985121E+04 -0.63075555934E+02 -0.51509613763E+03  0.17882519829E+04  0.50400001928E-02 0.  1.
       -1    1    3    3    0  502  0.17112985121E+04  0.63075555934E+02  0.11985339238E+04  0.20902164217E+04  0.50400001928E-02 0. -1.
</event>
<event>
 5   0  0.5134434E-07  0.3959047E+04  0.7818609E-02  0.8012859E-01
        2   -1    0    0  501    0  0.00000000000E+00  0.00000000000E+00  0.15180314862E+04  0.15180314862E+04  0.25500000920E-02 0.  1.
       -2   -1    0    0    0  501  0.00000000000E+00  0.00000000000E+00 -0.25813128643E+04  0.25813128643E+04  0.25500000920E-02 0. -1.
    10030    2    1    2    0    0  0.00000000000E+00  0.00000000000E+00 -0.10632813782E+04  0.40993443505E+04  0.39590474631E+04 0.  0.
        5    1    3    3  502    0 -0.11092446440E+04 -0.16295502904E+04 -0.34458938446E+03  0.20011551072E+04  0.46999998093E+01 0. -1.
       -5    1    3    3    0  502  0.11092446440E+04  0.16295502904E+04 -0.71869199371E+03  0.20981892433E+04  0.46999998093E+01 0.  1.
</event>
<event>
 5   0  0.1648000E-07  0.2973592E+04  0.7818609E-02  0.8251312E-01
        1   -1    0    0  501    0  0.00000000000E+00  0.00000000000E+00  0.17262804146E+04  0.17262804146E+04  0.50400001928E-02 0. -1.
       -1   -1    0    0    0  501  0.00000000000E+00  0.00000000000E+00 -0.12805353385E+04  0.12805353385E+04  0.50400001928E-02 0.  1.
    10030    2    1    2    0    0  0.00000000000E+00  0.00000000000E+00  0.44574507612E+03  0.30068157531E+04  0.29735924906E+04 0.  0.
        2    1    3    3  502    0  0.97966719432E+03 -0.32602568290E+03 -0.85890394572E+03  0.13430400387E+04  0.25500000920E-02 0.  1.
       -2    1    3    3    0  502 -0.97966719432E+03  0.32602568290E+03  0.13046490218E+04  0.16637757144E+04  0.25500000920E-02 0. -1.
</event>
<event>
 5   0  0.5132561E-07  0.3857088E+04  0.7818609E-02  0.8034014E-01
       -2   -1    0    0    0  501  0.00000000000E+00  0.00000000000E+00  0.16050335725E+04  0.16050335725E+04  0.25500000920E-02 0.  1.
        2   -1    0    0  501    0  0.00000000000E+00  0.00000000000E+00 -0.23172611013E+04  0.23172611013E+04  0.25500000920E-02 0. -1.
    10030    2    1    2    0    0  0.00000000000E+00  0.00000000000E+00 -0.71222752881E+03  0.39222946739E+04  0.38570879502E+04 0.  0.
        3    1    3    3  502    0 -0.49950483258E+03 -0.52211289971E+03  0.14621792635E+04  0.16309736867E+04  0.10100000352E+00 0.  1.
       -3    1    3    3    0  502  0.49950483258E+03  0.52211289971E+03 -0.21744067923E+04  0.22913209872E+04  0.10100000352E+00 0. -1.
</event>
<event>
 5   0  0.5325362E-07  0.3762535E+04  0.7818609E-02  0.8054243E-01
       -2   -1    0    0    0  501  0.00000000000E+00  0.00000000000E+00  0.16929135853E+04  0.16929135853E+04  0.25500000920E-02 0.  1.
        2   -1    0    0  501    0  0.00000000000E+00  0.00000000000E+00 -0.20905775961E+04  0.20905775961E+04  0.25500000920E-02 0. -1.
    10030    2    1    2    0    0  0.00000000000E+00  0.00000000000E+00 -0.39766401084E+03  0.37834911814E+04  0.37625348974E+04 0.  0.
        4    1    3    3  502    0 -0.91678922894E+03 -0.11841110054E+04  0.94616897607E+03  0.17714002110E+04  0.12699999809E+01 0.  1.
       -4    1    3    3    0  502  0.91678922894E+03  0.11841110054E+04 -0.13438329869E+04  0.20120909704E+04  0.12699999809E+01 0. -1.
</event>
<event>
 5   0  0.1648000E-07  0.3766414E+04  0.7818609E-02  0.8053401E-01
        3   -1    0    0  501    0  0.00000000000E+00  0.00000000000E+00  0.25350733375E+04  0.25350733395E+04  0.10100000352E+00 0.  1.
       -3   -1    0    0    0  501  0.00000000000E+00  0.00000000000E+00 -0.13989609639E+04  0.13989609676E+04  0.10100000352E+00 0. -1.
    10030    2    1    2    0    0  0.00000000000E+00  0.00000000000E+00  0.11361123736E+04  0.39340343071E+04  0.37664140245E+04 0.  0.
        3    1    3    3  502    0  0.91558481811E+03  0.16452418196E+04  0.60646833181E+03  0.19781102224E+04  0.10100000352E+00 0.  1.
       -3    1    3    3    0  502 -0.91558481811E+03 -0.16452418196E+04  0.52964404176E+03  0.19559240847E+04  0.10100000352E+00 0. -1.
</event>
<event>
 5   0  0.5132561E-07  0.3865535E+04  0.7818609E-02  0.8032236E-01
        2   -1    0    0  501    0  0.00000000000E+00  0.00000000000E+00  0.21137929000E+04  0.21137929000E+04  0.25500000920E-02 0. -1.
       -2   -1    0    0    0  501  0.00000000000E+00  0.00000000000E+00 -0.17672449944E+04  0.17672449944E+04  0.25500000920E-02 0.  1.
    10030    2    1    2    0    0  0.00000000000E+00  0.00000000000E+00  0.34654790558E+03  0.38810378944E+04  0.38655348513E+04 0.  0.
        3    1    3    3  502    0 -0.26684511092E+03 -0.71963185240E+03  0.19542295686E+04  0.20995450777E+04  0.10100000352E+00 0. -1.
       -3    1    3    3    0  502  0.26684511092E+03  0.71963185240E+03 -0.16076816630E+04  0.17814928167E+04  0.10100000352E+00 0.  1.
</event>
<event>
 5   0  0.5325362E-07  0.3466698E+04  0.7818609E-02  0.8121728E-01
        2   -1    0    0  501    0  0.00000000000E+00  0.00000000000E+00  0.26832421704E+04  0.26832421704E+04  0.25500000920E-02 0. -1.
       -2   -1    0    0    0  501  0.00000000000E+00  0.00000000000E+00 -0.11197272363E+04  0.11197272363E+04  0.25500000920E-02 0.  1.
    10030    2    1    2    0    0  0.00000000000E+00  0.00000000000E+00  0.15635149342E+04  0.38029694067E+04  0.34666983369E+04 0.  0.
        4    1    3    3  502    0  0.88667061344E+03 -0.10836268488E+04 -0.33915245933E+03  0.14406449694E+04  0.12699999809E+01 0.  1.
       -4    1    3    3    0  502 -0.88667061344E+03  0.10836268488E+04  0.19026673935E+04  0.23623244374E+04  0.12699999809E+01 0. -1.
</event>
<event>
 5   0  0.5202788E-07  0.3799037E+04  0.7818609E-02  0.8046362E-01
        2   -1    0    0  501    0  0.00000000000E+00  0.00000000000E+00  0.23940119483E+04  0.23940119483E+04  0.25500000920E-02 0.  1.
       -2   -1    0    0    0  501  0.00000000000E+00  0.00000000000E+00 -0.15071646770E+04  0.15071646770E+04  0.25500000920E-02 0. -1.
    10030    2    1    2    0    0  0.00000000000E+00  0.00000000000E+00  0.88684727128E+03  0.39011766253E+04  0.37990368489E+04 0.  0.
        1    1    3    3  502    0 -0.73709608966E+03  0.92570938599E+03  0.19692810223E+04  0.22974586520E+04  0.50400001928E-02 0.  1.
       -1    1    3    3    0  502  0.73709608966E+03 -0.92570938599E+03 -0.10824337510E+04  0.16037179734E+04  0.50400001928E-02 0. -1.
</event>
<event>
 5   0  0.1648000E-07  0.3800488E+04  0.7818609E-02  0.8046050E-01
       -1   -1    0    0    0  501  0.00000000000E+00  0.00000000000E+00  0.14320439704E+04  0.14320439704E+04  0.50400001928E-02 0. -1.
        1   -1    0    0  501    0  0.00000000000E+00  0.00000000000E+00 -0.25215191842E+04  0.25215191842E+04  0.50400001928E-02 0.  1.
    10030    2    1    2    0    0  0.00000000000E+00  0.00000000000E+00 -0.10894752138E+04  0.39535631546E+04  0.38004875182E+04 0.  0.
        4    1    3    3  502    0 -0.15622659283E+04 -0.83666753482E+03  0.16862103144E+03  0.17802028142E+04  0.12699999809E+01 0. -1.
       -4    1    3    3    0  502  0.15622659283E+04  0.83666753482E+03 -0.12580962452E+04  0.21733603405E+04  0.12699999809E+01 0.  1.
</event>
<event>
 5   0  0.5132561E-07  0.3250238E+04  0.7818609E-02  0.8175674E-01
       -2   -1    0    0    0  501  0.00000000000E+00  0.00000000000E+00  0.15449941660E+04  0.15449941660E+04  0.25500000920E-02 0. -1.
        2   -1    0    0  501    0  0.00000000000E+00  0.00000000000E+00 -0.17093994271E+04  0.17093994271E+04  0.25500000920E-02 0.  1.
    10030    2    1    2    0    0  0.00000000000E+00  0.00000000000E+00 -0.16440526118E+03  0.32543935931E+04  0.32502382326E+04 0.  0.
        3    1    3    3  502    0 -0.44317929434E+03 -0.11304460127E+04 -0.11637206178E+04  0.16818328576E+04  0.10100000352E+00 0.  1.
       -3    1    3    3    0  502  0.44317929434E+03  0.11304460127E+04  0.99931535658E+03  0.15725607355E+04  0.10100000352E+00 0. -1.
</event>
<event>
 5   0  0.5134434E-07  0.3833994E+04  0.7818609E-02  0.8038899E-01
        2   -1    0    0  501    0  0.00000000000E+00  0.00000000000E+00  0.19614460411E+04  0.19614460411E+04  0.25500000920E-02 0. -1.
       -2   -1    0    0    0  501  0.00000000000E+00  0.00000000000E+00 -0.18735551006E+04  0.18735551006E+04  0.25500000920E-02 0.  1.
    10030    2    1    2    0    0  0.00000000000E+00  0.00000000000E+00  0.87890940528E+02  0.38350011417E+04  0.38339938627E+04 0.  0.
        5    1    3    3  502    0  0.63037416824E+03  0.39113616043E+01 -0.17669080892E+04  0.18759992475E+04  0.46999998093E+01 0.  1.
       -5    1    3    3    0  502 -0.63037416824E+03 -0.39113616043E+01  0.18547990298E+04  0.19590018942E+04  0.46999998093E+01 0. -1.
</event>
<event>
 5   0  0.1648000E-07  0.3740742E+04  0.7818609E-02  0.8058992E-01
       -1   -1    0    0    0  501  0.00000000000E+00  0.00000000000E+00  0.14982621639E+04  0.14982621639E+04  0.50400001928E-02 0. -1.
        1   -1    0    0  501    0  0.00000000000E+00  0.00000000000E+00 -0.23348970578E+04  0.23348970578E+04  0.50400001928E-02 0.  1.
    10030    2    1    2    0    0  0.00000000000E+00  0.00000000000E+00 -0.83663489385E+03  0.38331592217E+04  0.37407421287E+04 0.  0.
        3    1    3    3  502    0  0.22472402878E+03  0.13738199825E+04 -0.16983406703E+04  0.21959606727E+04  0.10100000352E+00 0.  1.
       -3    1    3    3    0  502 -0.22472402878E+03 -0.13738199825E+04  0.86170577646E+03  0.16371985490E+04  0.10100000352E+00 0. -1.
</event>
<event>
 5   0  0.1648000E-07  0.3838590E+04  0.7818609E-02  0.8037924E-01
       -1   -1    0    0    0  501  0.00000000000E+00  0.00000000000E+00  0.27960908541E+04  0.27960908541E+04  0.50400001928E-02 0. -1.
        1   -1    0    0  501    0  0.00000000000E+00  0.00000000000E+00 -0.13174439875E+04  0.13174439875E+04  0.50400001928E-02 0.  1.
    10030    2    1    2    0    0  0.00000000000E+00  0.00000000000E+00  0.14786468666E+04  0.41135348416E+04  0.38385898892E+04 0.  0.
        4    1    3    3  502    0  0.43229592203E+02 -0.11655491385E+04 -0.89409624140E+03  0.14696201188E+04  0.12699999809E+01 0.  1.
       -4    1    3    3    0  502 -0.43229592203E+02  0.11655491385E+04  0.23727431080E+04  0.26439147228E+04  0.12699999809E+01 0. -1.
</event>
<event>
 5   0  0.5325362E-07  0.3932970E+04  0.7818609E-02  0.8018207E-01
        2   -1    0    0  501    0  0.00000000000E+00  0.00000000000E+00  0.20397984871E+04  0.20397984871E+04  0.25500000920E-02 0.  1.
       -2   -1    0    0    0  501  0.00000000000E+00  0.00000000000E+00 -0.18958065258E+04  0.18958065258E+04  0.25500000920E-02 0. -1.
    10030    2    1    2    0    0  0.00000000000E+00  0.00000000000E+00  0.14399196125E+03  0.39356050129E+04  0.39329700142E+04 0.  0.
        4    1    3    3  502    0 -0.54593653350E+03 -0.37312027400E+03  0.19252076631E+04  0.20356059532E+04  0.12699999809E+01 0.  1.
       -4    1    3    3    0  502  0.54593653350E+03  0.37312027400E+03 -0.17812157019E+04  0.18999990597E+04  0.12699999809E+01 0. -1.
</event>
<event>
 5   0  0.1648000E-07  0.2854948E+04  0.7818609E-02  0.8286409E-01
       -1   -1    0    0    0  501  0.00000000000E+00  0.00000000000E+00  0.11411500572E+04  0.11411500572E+04  0.50400001928E-02 0.  1.
        1   -1    0    0  501    0  0.00000000000E+00  0.00000000000E+00 -0.17856392667E+04  0.17856392667E+04  0.50400001928E-02 0. -1.
    10030    2    1    2    0    0  0.00000000000E+00  0.00000000000E+00 -0.64448920944E+03  0.29267893239E+04  0.28549482316E+04 0.  0.
        3    1    3    3  502    0 -0.13087423302E+04  0.56873317761E+03 -0.28363487991E+03  0.14548926660E+04  0.10100000352E+00 0. -1.
       -3    1    3    3    0  502  0.13087423302E+04 -0.56873317761E+03 -0.36085432953E+03  0.14718966579E+04  0.10100000352E+00 0.  1.
</event>
<event>
 5   0  0.5134434E-07  0.3773145E+04  0.7818609E-02  0.8051943E-01
       -2   -1    0    0    0  501  0.00000000000E+00  0.00000000000E+00  0.23608470319E+04  0.23608470319E+04  0.25500000920E-02 0.  1.
        2   -1    0    0  501    0  0.00000000000E+00  0.00000000000E+00 -0.15075758944E+04  0.15075758944E+04  0.25500000920E-02 0. -1.
    10030    2    1    2    0    0  0.00000000000E+00  0.00000000000E+00  0.85327113751E+03  0.38684229262E+04  0.37731451472E+04 0.  0.
        5    1    3    3  502    0 -0.13433098397E+04 -0.62787385969E+03 -0.76919064625E+03  0.16704440276E+04  0.46999998093E+01 0. -1.
       -5    1    3    3    0  502  0.13433098397E+04  0.62787385969E+03  0.16224617838E+04  0.21979788986E+04  0.46999998093E+01 0.  1.
</event>
<event>
 5   0  0.5158266E-07  0.3446935E+04  0.7818609E-02  0.8126482E-01
       -2   -1    0    0    0  501  0.00000000000E+00  0.00000000000E+00  0.93451576893E+03  0.93451576893E+03  0.25500000920E-02 0.  1.
        2   -1    0    0  501    0  0.00000000000E+00  0.00000000000E+00 -0.31784809266E+04  0.31784809266E+04  0.25500000920E-02 0. -1.
    10030    2    1    2    0    0  0.00000000000E+00  0.00000000000E+00 -0.22439651576E+04  0.41129966955E+04  0.34469351877E+04 0.  0.
        2    1    3    3  502    0  0.64652568167E+03  0.14648261688E+04 -0.36108776658E+03  0.16413700183E+04  0.25500000920E-02 0.  1.
       -2    1    3    3    0  502 -0.64652568167E+03 -0.14648261688E+04 -0.18828773910E+04  0.24716266772E+04  0.25500000920E-02 0. -1.
</event>
<event>
 5   0  0.5134434E-07  0.3803012E+04  0.7818609E-02  0.8045509E-01
        2   -1    0    0  501    0  0.00000000000E+00  0.00000000000E+00  0.12393818668E+04  0.12393818669E+04  0.25500000920E-02 0. -1.
       -2   -1    0    0    0  501  0.00000000000E+00  0.00000000000E+00 -0.29173611499E+04  0.29173611499E+04  0.25500000920E-02 0.  1.
    10030    2    1    2    0    0  0.00000000000E+00  0.00000000000E+00 -0.16779792830E+04  0.41567430167E+04  0.38030117056E+04 0.  0.
        5    1    3    3  502    0  0.15273674711E+04  0.94611906106E+03 -0.15841012441E+03  0.18036375819E+04  0.46999998093E+01 0. -1.
       -5    1    3    3    0  502 -0.15273674711E+04 -0.94611906106E+03 -0.15195691586E+04  0.23531054348E+04  0.46999998093E+01 0.  1.
</event>
<event>
 5   0  0.1656617E-07  0.3806071E+04  0.7818609E-02  0.8044853E-01
        1   -1    0    0  501    0  0.00000000000E+00  0.00000000000E+00  0.18113723561E+04  0.18113723561E+04  0.50400001928E-02 0. -1.
       -1   -1    0    0    0  501  0.00000000000E+00  0.00000000000E+00 -0.19993369816E+04  0.19993369816E+04  0.50400001928E-02 0.  1.
    10030    2    1    2    0    0  0.00000000000E+00  0.00000000000E+00 -0.18796462559E+03  0.38107093377E+04  0.38060708028E+04 0.  0.
        5    1    3    3  502    0 -0.37342211648E+03 -0.60550294673E+02  0.17733405889E+04  0.18132482868E+04  0.46999998093E+01 0. -1.
       -5    1    3    3    0  502  0.37342211648E+03  0.60550294673E+02 -0.19613052145E+04  0.19974610509E+04  0.46999998093E+01 0.  1.
</event>
<event>
 5   0  0.1648000E-07  0.3794842E+04  0.7818609E-02  0.8047263E-01
        1   -1    0    0  501    0  0.00000000000E+00  0.00000000000E+00  0.15257095634E+04  0.15257095634E+04  0.50400001928E-02 0. -1.
       -1   -1    0    0    0  501  0.00000000000E+00  0.00000000000E+00 -0.23596932893E+04  0.23596932893E+04  0.50400001928E-02 0.  1.
    10030    2    1    2    0    0  0.00000000000E+00  0.00000000000E+00 -0.83398372586E+03  0.38854028527E+04  0.37948420880E+04 0.  0.
        4    1    3    3  502    0  0.11850079319E+04  0.12427307054E+03 -0.19288885849E+04  0.22672230549E+04  0.12699999809E+01 0.  1.
       -4    1    3    3    0  502 -0.11850079319E+04 -0.12427307054E+03  0.10949048591E+04  0.16181797978E+04  0.12699999809E+01 0. -1.
</event>
<event>
 5   0  0.5132561E-07  0.3111740E+04  0.7818609E-02  0.8212523E-01
        2   -1    0    0  501    0  0.00000000000E+00  0.00000000000E+00  0.15603850017E+04  0.15603850017E+04  0.25500000920E-02 0. -1.
       -2   -1    0    0    0  501  0.00000000000E+00  0.00000000000E+00 -0.15513681751E+04  0.15513681751E+04  0.25500000920E-02 0.  1.
    10030    2    1    2    0    0  0.00000000000E+00  0.00000000000E+00  0.90168265882E+01  0.31117531768E+04  0.31117401129E+04 0.  0.
        3    1    3    3  502    0  0.58464248328E+03 -0.24275194211E+03  0.14257801131E+04  0.15599949614E+04  0.10100000352E+00 0. -1.
       -3    1    3    3    0  502 -0.58464248328E+03  0.24275194211E+03 -0.14167632865E+04  0.15517582153E+04  0.10100000352E+00 0.  1.
</event>
<event>
 5   0  0.1648000E-07  0.3815501E+04  0.7818609E-02  0.8042837E-01
       -1   -1    0    0    0  501  0.00000000000E+00  0.00000000000E+00  0.21302692429E+04  0.21302692429E+04  0.50400001928E-02 0. -1.
        1   -1    0    0  501    0  0.00000000000E+00  0.00000000000E+00 -0.17084750655E+04  0.17084750655E+04  0.50400001928E-02 0.  1.
    10030    2    1    2    0    0  0.00000000000E+00  0.00000000000E+00  0.42179417735E+03  0.38387443084E+04  0.38155009549E+04 0.  0.
        2    1    3    3  502    0  0.75439251221E+02 -0.17728047559E+04 -0.49407404355E+03  0.18419112204E+04  0.25500000920E-02 0.  1.
       -2    1    3    3    0  502 -0.75439251221E+02  0.17728047559E+04  0.91586822090E+03  0.19968330880E+04  0.25500000920E-02 0. -1.
</event>
<event>
 5   0  0.5325362E-07  0.3776249E+04  0.7818609E-02  0.8051271E-01
        2   -1    0    0  501    0  0.00000000000E+00  0.00000000000E+00  0.22302173871E+04  0.22302173871E+04  0.25500000920E-02 0.  1.
       -2   -1    0    0    0  501  0.00000000000E+00  0.00000000000E+00 -0.15985054102E+04  0.15985054102E+04  0.25500000920E-02 0. -1.
    10030    2    1    2    0    0  0.00000000000E+00  0.00000000000E+00  0.63171197686E+03  0.38287227973E+04  0.37762492287E+04 0.  0.
        4    1    3    3  502    0 -0.10672839667E+04 -0.22944749954E+02  0.18948634891E+04  0.21748863838E+04  0.12699999809E+01 0.  1.
       -4    1    3    3    0  502  0.10672839667E+04  0.22944749954E+02 -0.12631515122E+04  0.16538364136E+04  0.12699999809E+01 0. -1.
</event>
<event>
 5   0  0.1648000E-07  0.3857423E+04  0.7818609E-02  0.8033943E-01
       -1   -1    0    0    0  501  0.00000000000E+00  0.00000000000E+00  0.30646599121E+04  0.30646599121E+04  0.50400001928E-02 0.  1.
        1   -1    0    0  501    0  0.00000000000E+00  0.00000000000E+00 -0.12138140804E+04  0.12138140804E+04  0.50400001928E-02 0. -1.
    10030    2    1    2    0    0  0.00000000000E+00  0.00000000000E+00  0.18508458318E+04  0.42784739925E+04  0.38574226385E+04 0.  0.
        4    1    3    3  502    0 -0.30981521686E+03 -0.17130845284E+04  0.18462753411E+04  0.25375930166E+04  0.12699999809E+01 0.  1.
       -4    1    3    3    0  502  0.30981521686E+03  0.17130845284E+04  0.45704906681E+01  0.17408809759E+04  0.12699999809E+01 0. -1.
</event>
<event>
 5   0  0.1648000E-07  0.3806647E+04  0.7818609E-02  0.8044730E-01
       -1   -1    0    0    0  501  0.00000000000E+00  0.00000000000E+00  0.20946522723E+04  0.20946522723E+04  0.50400001928E-02 0.  1.
        1   -1    0    0  501    0  0.00000000000E+00  0.00000000000E+00 -0.17294714002E+04  0.17294714003E+04  0.50400001928E-02 0. -1.
    10030    2    1    2    0    0  0.00000000000E+00  0.00000000000E+00  0.36518087206E+03  0.38241236726E+04  0.38066474481E+04 0.  0.
        1    1    3    3  502    0 -0.11195689649E+04  0.14951582843E+04 -0.18474967435E+03  0.18769830592E+04  0.50400001928E-02 0.  1.
       -1    1    3    3    0  502  0.11195689649E+04 -0.14951582843E+04  0.54993054640E+03  0.19471406134E+04  0.50400001928E-02 0. -1.
</event>
<event>
 5   0  0.1656617E-07  0.3781403E+04  0.7818609E-02  0.8050158E-01
       -1   -1    0    0    0  501  0.00000000000E+00  0.00000000000E+00  0.15244734198E+04  0.15244734198E+04  0.50400001928E-02 0.  1.
        1   -1    0    0  501    0  0.00000000000E+00  0.00000000000E+00 -0.23449093962E+04  0.23449093962E+04  0.50400001928E-02 0. -1.
    10030    2    1    2    0    0  0.00000000000E+00  0.00000000000E+00 -0.82043597635E+03  0.38693828160E+04  0.37814029388E+04 0.  0.
        5    1    3    3  502    0 -0.11417577644E+04 -0.13161881477E+03  0.11259758173E+04  0.16089679724E+04  0.46999998093E+01 0.  1.
       -5    1    3    3    0  502  0.11417577644E+04  0.13161881477E+03 -0.19464117936E+04  0.22604148436E+04  0.46999998093E+01 0. -1.
</event>
<event>
 5   0  0.1648000E-07  0.3861387E+04  0.7818609E-02  0.8033108E-01
       -1   -1    0    0    0  501  0.00000000000E+00  0.00000000000E+00  0.20541251629E+04  0.20541251629E+04  0.50400001928E-02 0. -1.
        1   -1    0    0  501    0  0.00000000000E+00  0.00000000000E+00 -0.18146792419E+04  0.18146792419E+04  0.50400001928E-02 0.  1.
    10030    2    1    2    0    0  0.00000000000E+00  0.00000000000E+00  0.23944592099E+03  0.38688044048E+04  0.38613874674E+04 0.  0.
        3    1    3    3  502    0  0.13854036492E+04 -0.31141898047E+03 -0.11909385064E+04  0.18532834615E+04  0.10100000352E+00 0.  1.
       -3    1    3    3    0  502 -0.13854036492E+04  0.31141898047E+03  0.14303844274E+04  0.20155209433E+04  0.10100000352E+00 0. -1.
</event>
<event>
 5   0  0.5158266E-07  0.3640806E+04  0.7818609E-02  0.8081208E-01
       -2   -1    0    0    0  501  0.00000000000E+00  0.00000000000E+00  0.19879966400E+04  0.19879966400E+04  0.25500000920E-02 0.  1.
        2   -1    0    0  501    0  0.00000000000E+00  0.00000000000E+00 -0.16669378617E+04  0.16669378617E+04  0.25500000920E-02 0. -1.
    10030    2    1    2    0    0  0.00000000000E+00  0.00000000000E+00  0.32105877830E+03  0.36549345017E+04  0.36408058823E+04 0.  0.
        2    1    3    3  502    0  0.11855526965E+04  0.11032468435E+03  0.15428843657E+04  0.19488968414E+04  0.25500000920E-02 0.  1.
       -2    1    3    3    0  502 -0.11855526965E+04 -0.11032468435E+03 -0.12218255874E+04  0.17060376603E+04  0.25500000920E-02 0. -1.
</event>
<event>
 5   0  0.1648000E-07  0.3799980E+04  0.7818609E-02  0.8046159E-01
       -1   -1    0    0    0  501  0.00000000000E+00  0.00000000000E+00  0.14340842091E+04  0.14340842091E+04  0.50400001928E-02 0. -1.
        1   -1    0    0  501    0  0.00000000000E+00  0.00000000000E+00 -0.25172594101E+04  0.25172594101E+04  0.50400001928E-02 0.  1.
    10030    2    1    2    0    0  0.00000000000E+00  0.00000000000E+00 -0.10831752010E+04  0.39513436192E+04  0.37999799843E+04 0.  0.
        4    1    3    3  502    0 -0.49383481656E+03 -0.17860848542E+04 -0.10536763216E+03  0.18560915611E+04  0.12699999809E+01 0.  1.
       -4    1    3    3    0  502  0.49383481656E+03  0.17860848542E+04 -0.97780756881E+03  0.20952520581E+04  0.12699999809E+01 0. -1.
</event>
<event>
 5   0  0.5132561E-07  0.3934235E+04  0.7818609E-02  0.8017946E-01
        2   -1    0    0  501    0  0.00000000000E+00  0.00000000000E+00  0.14341800669E+04  0.14341800669E+04  0.25500000920E-02 0. -1.
       -2   -1    0    0    0  501  0.00000000000E+00  0.00000000000E+00 -0.26980926434E+04  0.26980926434E+04  0.25500000920E-02 0.  1.
    10030    2    1    2    0    0  0.00000000000E+00  0.00000000000E+00 -0.12639125765E+04  0.41322727102E+04  0.39342347097E+04 0.  0.
        3    1    3    3  502    0  0.19174921368E+04  0.34159086125E+03 -0.92168615160E+03  0.21547542281E+04  0.10100000352E+00 0.  1.
       -3    1    3    3    0  502 -0.19174921368E+04 -0.34159086125E+03 -0.34222642489E+03  0.19775184822E+04  0.10100000352E+00 0. -1.
</event>
<event>
 5   0  0.5325362E-07  0.3776329E+04  0.7818609E-02  0.8051254E-01
       -2   -1    0    0    0  501  0.00000000000E+00  0.00000000000E+00  0.18668837425E+04  0.18668837425E+04  0.25500000920E-02 0.  1.
        2   -1    0    0  501    0  0.00000000000E+00  0.00000000000E+00 -0.19096874674E+04  0.19096874674E+04  0.25500000920E-02 0. -1.
    10030    2    1    2    0    0  0.00000000000E+00  0.00000000000E+00 -0.42803724917E+02  0.37765712100E+04  0.37763286331E+04 0.  0.
        4    1    3    3  502    0  0.69599506657E+03  0.17260980481E+04  0.29695687980E+03  0.18846773214E+04  0.12699999809E+01 0.  1.
       -4    1    3    3    0  502 -0.69599506657E+03 -0.17260980481E+04 -0.33976060472E+03  0.18918938886E+04  0.12699999809E+01 0. -1.
</event>
<event>
 5   0  0.1648000E-07  0.3812277E+04  0.7818609E-02  0.8043525E-01
        1   -1    0    0  501    0  0.00000000000E+00  0.00000000000E+00  0.21096738045E+04  0.21096738045E+04  0.50400001928E-02 0. -1.
       -1   -1    0    0    0  501  0.00000000000E+00  0.00000000000E+00 -0.17222397305E+04  0.17222397305E+04  0.50400001928E-02 0.  1.
    10030    2    1    2    0    0  0.00000000000E+00  0.00000000000E+00  0.38743407401E+03  0.38319135351E+04  0.38122770333E+04 0.  0.
        1    1    3    3  502    0  0.18152112190E+04  0.11244349030E+03  0.76738326772E+03  0.19739585577E+04  0.50400001928E-02 0.  1.
       -1    1    3    3    0  502 -0.18152112190E+04 -0.11244349030E+03 -0.37994919371E+03  0.18579549774E+04  0.50400001928E-02 0. -1.
</event>
<event>
 5   0  0.5134434E-07  0.3942437E+04  0.7818609E-02  0.8016260E-01
        2   -1    0    0  501    0  0.00000000000E+00  0.00000000000E+00  0.23265207540E+04  0.23265207540E+04  0.25500000920E-02 0. -1.
       -2   -1    0    0    0  501  0.00000000000E+00  0.00000000000E+00 -0.16701776774E+04  0.16701776774E+04  0.25500000920E-02 0.  1.
    10030    2    1    2    0    0  0.00000000000E+00  0.00000000000E+00  0.65634307666E+03  0.39966984314E+04  0.39424373320E+04 0.  0.
        5    1    3    3  502    0 -0.58025287558E+03 -0.35947217530E+03  0.22028848308E+04  0.23062171000E+04  0.46999998093E+01 0. -1.
       -5    1    3    3    0  502  0.58025287558E+03  0.35947217530E+03 -0.15465417542E+04  0.16904813314E+04  0.46999998093E+01 0.  1.
</event>
<event>
 5   0  0.5202788E-07  0.3825240E+04  0.7818609E-02  0.8040760E-01
       -2   -1    0    0    0  501  0.00000000000E+00  0.00000000000E+00  0.23334093166E+04  0.23334093166E+04  0.25500000920E-02 0. -1.
        2   -1    0    0  501    0  0.00000000000E+00  0.00000000000E+00 -0.15677124659E+04  0.15677124659E+04  0.25500000920E-02 0.  1.
    10030    2    1    2    0    0  0.00000000000E+00  0.00000000000E+00  0.76569685071E+03  0.39011217825E+04  0.38252397957E+04 0.  0.
        1    1    3    3  502    0  0.68301800895E+03  0.10496633519E+04  0.18571422587E+04  0.22399294904E+04  0.50400001928E-02 0. -1.
       -1    1    3    3    0  502 -0.68301800895E+03 -0.10496633519E+04 -0.10914454080E+04  0.16611922921E+04  0.50400001928E-02 0.  1.
</event>
<event>
 5   0  0.5132561E-07  0.3735441E+04  0.7818609E-02  0.8060153E-01
       -2   -1    0    0    0  501  0.00000000000E+00  0.00000000000E+00  0.21378290566E+04  0.21378290566E+04  0.25500000920E-02 0.  1.
        2   -1    0    0  501    0  0.00000000000E+00  0.00000000000E+00 -0.16317393103E+04  0.16317393103E+04  0.25500000920E-02 0. -1.
    10030    2    1    2    0    0  0.00000000000E+00  0.00000000000E+00  0.50608974631E+03  0.37695683669E+04  0.37354409166E+04 0.  0.
        3    1    3    3  502    0 -0.10816268857E+04  0.14023896085E+04 -0.34547270367E+03  0.18044291987E+04  0.10100000352E+00 0. -1.
       -3    1    3    3    0  502  0.10816268857E+04 -0.14023896085E+04  0.85156244998E+03  0.19651391682E+04  0.10100000352E+00 0.  1.
</event>
<event>
 5   0  0.1648000E-07  0.2954981E+04  0.7818609E-02  0.8256704E-01
        1   -1    0    0  501    0  0.00000000000E+00  0.00000000000E+00  0.18718207773E+04  0.18718207773E+04  0.50400001928E-02 0.  1.
       -1   -1    0    0    0  501  0.00000000000E+00  0.00000000000E+00 -0.11662324879E+04  0.11662324879E+04  0.50400001928E-02 0. -1.
    10030    2    1    2    0    0  0.00000000000E+00  0.00000000000E+00  0.70558828939E+03  0.30380532653E+04  0.29549810166E+04 0.  0.
        1    1    3    3  502    0 -0.10722573555E+04 -0.65533217183E+03 -0.44608449489E+03  0.13334869585E+04  0.50400001928E-02 0. -1.
       -1    1    3    3    0  502  0.10722573555E+04  0.65533217183E+03  0.11516727843E+04  0.17045663067E+04  0.50400001928E-02 0.  1.
</event>
<event>
 5   0  0.1648000E-07  0.2792818E+04  0.7818609E-02  0.8305502E-01
       -1   -1    0    0    0  501  0.00000000000E+00  0.00000000000E+00  0.18472598990E+04  0.18472598990E+04  0.50400001928E-02 0. -1.
        1   -1    0    0  501    0  0.00000000000E+00  0.00000000000E+00 -0.10555949434E+04  0.10555949434E+04  0.50400001928E-02 0.  1.
    10030    2    1    2    0    0  0.00000000000E+00  0.00000000000E+00  0.79166495563E+03  0.29028548424E+04  0.27928180811E+04 0.  0.
        2    1    3    3  502    0 -0.92876616466E+03 -0.41508893771E+03  0.13901057101E+04  0.17225850633E+04  0.25500000920E-02 0. -1.
       -2    1    3    3    0  502  0.92876616466E+03  0.41508893771E+03 -0.59844075451E+03  0.11802697791E+04  0.25500000920E-02 0.  1.
</event>
<event>
 5   0  0.5202788E-07  0.3722974E+04  0.7818609E-02  0.8062889E-01
        2   -1    0    0  501    0  0.00000000000E+00  0.00000000000E+00  0.13039900800E+04  0.13039900800E+04  0.25500000920E-02 0. -1.
       -2   -1    0    0    0  501  0.00000000000E+00  0.00000000000E+00 -0.26573321594E+04  0.26573321594E+04  0.25500000920E-02 0.  1.
    10030    2    1    2    0    0  0.00000000000E+00  0.00000000000E+00 -0.13533420793E+04  0.39613222394E+04  0.37229744964E+04 0.  0.
        1    1    3    3  502    0 -0.16147787826E+04 -0.28885012604E+03  0.25954020122E+03  0.16608148687E+04  0.50400001928E-02 0. -1.
       -1    1    3    3    0  502  0.16147787826E+04  0.28885012604E+03 -0.16128822805E+04  0.23005073707E+04  0.50400001928E-02 0.  1.
</event>
<event>
 5   0  0.5132561E-07  0.2924501E+04  0.7818609E-02  0.8265625E-01
       -2   -1    0    0    0  501  0.00000000000E+00  0.00000000000E+00  0.13146751434E+04  0.13146751434E+04  0.25500000920E-02 0.  1.
        2   -1    0    0  501    0  0.00000000000E+00  0.00000000000E+00 -0.16263916178E+04  0.16263916178E+04  0.25500000920E-02 0. -1.
    10030    2    1    2    0    0  0.00000000000E+00  0.00000000000E+00 -0.31171647447E+03  0.29410667612E+04  0.29245010743E+04 0.  0.
        3    1    3    3  502    0  0.13280453101E+04  0.39779794107E+03 -0.62349661309E+03  0.15200972286E+04  0.10100000352E+00 0. -1.
       -3    1    3    3    0  502 -0.13280453101E+04 -0.39779794107E+03  0.31178013862E+03  0.14209695326E+04  0.10100000352E+00 0.  1.
</event>
<event>
 5   0  0.1656617E-07  0.3799584E+04  0.7818609E-02  0.8046244E-01
        1   -1    0    0  501    0  0.00000000000E+00  0.00000000000E+00  0.26934133905E+04  0.26934133905E+04  0.50400001928E-02 0. -1.
       -1   -1    0    0    0  501  0.00000000000E+00  0.00000000000E+00 -0.13400130921E+04  0.13400130921E+04  0.50400001928E-02 0.  1.
    10030    2    1    2    0    0  0.00000000000E+00  0.00000000000E+00  0.13534002984E+04  0.40334264827E+04  0.37995837697E+04 0.  0.
        5    1    3    3  502    0  0.11189871400E+03  0.17872397011E+04  0.13501243442E+04  0.22426780656E+04  0.46999998093E+01 0. -1.
       -5    1    3    3    0  502 -0.11189871400E+03 -0.17872397011E+04  0.32759542178E+01  0.17907484170E+04  0.46999998093E+01 0.  1.
</event>
<event>
 5   0  0.5132561E-07  0.3760522E+04  0.7818609E-02  0.8054680E-01
       -2   -1    0    0    0  501  0.00000000000E+00  0.00000000000E+00  0.17643021155E+04  0.17643021155E+04  0.25500000920E-02 0. -1.
        2   -1    0    0  501    0  0.00000000000E+00  0.00000000000E+00 -0.20038409270E+04  0.20038409270E+04  0.25500000920E-02 0.  1.
    10030    2    1    2    0    0  0.00000000000E+00  0.00000000000E+00 -0.23953881149E+03  0.37681430424E+04  0.37605216588E+04 0.  0.
        3    1    3    3  502    0 -0.70220300204E+03 -0.13971477553E+04 -0.11660454736E+04  0.19505827239E+04  0.10100000352E+00 0.  1.
       -3    1    3    3    0  502  0.70220300204E+03  0.13971477553E+04  0.92650666209E+03  0.18175603185E+04  0.10100000352E+00 0. -1.
</event>
<event>
 5   0  0.1648000E-07  0.3748232E+04  0.7818609E-02  0.8057356E-01
        1   -1    0    0  501    0  0.00000000000E+00  0.00000000000E+00  0.18506925606E+04  0.18506925606E+04  0.50400001928E-02 0. -1.
       -1   -1    0    0    0  501  0.00000000000E+00  0.00000000000E+00 -0.18978356767E+04  0.18978356767E+04  0.50400001928E-02 0.  1.
    10030    2    1    2    0    0  0.00000000000E+00  0.00000000000E+00 -0.47143116031E+02  0.37485282373E+04  0.37482317794E+04 0.  0.
        4    1    3    3  502    0  0.58313125425E+03  0.39165994655E+03  0.17140551976E+04  0.18524109713E+04  0.12699999809E+01 0. -1.
       -4    1    3    3    0  502 -0.58313125425E+03 -0.39165994655E+03 -0.17611983136E+04  0.18961172660E+04  0.12699999809E+01 0.  1.
</event>
<event>
 5   0  0.1648000E-07  0.3667759E+04  0.7818609E-02  0.8075145E-01
        1   -1    0    0  501    0  0.00000000000E+00  0.00000000000E+00  0.16375555516E+04  0.16375555516E+04  0.50400001928E-02 0. -1.
       -1   -1    0    0    0  501  0.00000000000E+00  0.00000000000E+00 -0.20537398567E+04  0.20537398567E+04  0.50400001928E-02 0.  1.
    10030    2    1    2    0    0  0.00000000000E+00  0.00000000000E+00 -0.41618430510E+03  0.36912954084E+04  0.36677585002E+04 0.  0.
        4    1    3    3  502    0  0.73586595287E+03 -0.98721009013E+03 -0.15758680004E+04  0.19998610027E+04  0.12699999809E+01 0.  1.
       -4    1    3    3    0  502 -0.73586595287E+03  0.98721009013E+03  0.11596836953E+04  0.16914344057E+04  0.12699999809E+01 0. -1.
</event>
<event>
 5   0  0.5132561E-07  0.3801035E+04  0.7818609E-02  0.8045933E-01
       -2   -1    0    0    0  501  0.00000000000E+00  0.00000000000E+00  0.14629012627E+04  0.14629012627E+04  0.25500000920E-02 0. -1.
        2   -1    0    0  501    0  0.00000000000E+00  0.00000000000E+00 -0.24690435615E+04  0.24690435615E+04  0.25500000920E-02 0.  1.
    10030    2    1    2    0    0  0.00000000000E+00  0.00000000000E+00 -0.10061422988E+04  0.39319448242E+04  0.38010350926E+04 0.  0.
        3    1    3    3  502    0  0.13843785264E+04 -0.28206235091E+03 -0.18180334283E+04  0.23024570856E+04  0.10100000352E+00 0.  1.
       -3    1    3    3    0  502 -0.13843785264E+04  0.28206235091E+03  0.81189112951E+03  0.16294877387E+04  0.10100000352E+00 0. -1.
</event>
<event>
 5   0  0.1656617E-07  0.3802826E+04  0.7818609E-02  0.8045549E-01
       -1   -1    0    0    0  501  0.00000000000E+00  0.00000000000E+00  0.34861081751E+04  0.34861081751E+04  0.50400001928E-02 0.  1.
        1   -1    0    0  501    0  0.00000000000E+00  0.00000000000E+00 -0.10370794652E+04  0.10370794652E+04  0.50400001928E-02 0. -1.
    10030    2    1    2    0    0  0.00000000000E+00  0.00000000000E+00  0.24490287099E+04  0.45231876403E+04  0.38028258976E+04 0.  0.
        5    1    3    3  502    0  0.14344908135E+04 -0.70389763543E+03  0.24503255764E+04  0.29252954202E+04  0.46999998093E+01 0.  1.
       -5    1    3    3    0  502 -0.14344908135E+04  0.70389763543E+03 -0.12968665054E+01  0.15978922201E+04  0.46999998093E+01 0. -1.
</event>
<event>
 5   0  0.1648000E-07  0.3994272E+04  0.7818609E-02  0.8005703E-01
        1   -1    0    0  501    0  0.00000000000E+00  0.00000000000E+00  0.23584800686E+04  0.23584800686E+04  0.50400001928E-02 0.  1.
       -1   -1    0    0    0  501  0.00000000000E+00  0.00000000000E+00 -0.16911533396E+04  0.16911533396E+04  0.50400001928E-02 0. -1.
    10030    2    1    2    0    0  0.00000000000E+00  0.00000000000E+00  0.66732672896E+03  0.40496334083E+04  0.39942716205E+04 0.  0.
        1    1    3    3  502    0 -0.10381120649E+04 -0.14725117520E+04  0.12073403344E+04  0.21687872653E+04  0.50400001928E-02 0.  1.
       -1    1    3    3    0  502  0.10381120649E+04  0.14725117520E+04 -0.54001360543E+03  0.18808461429E+04  0.50400001928E-02 0. -1.
</event>
<event>
 5   0  0.1648000E-07  0.3313257E+04  0.7818609E-02  0.8159530E-01
        1   -1    0    0  501    0  0.00000000000E+00  0.00000000000E+00  0.29814661338E+04  0.29814661338E+04  0.50400001928E-02 0. -1.
       -1   -1    0    0    0  501  0.00000000000E+00  0.00000000000E+00 -0.92049252541E+03  0.92049252542E+03  0.50400001928E-02 0.  1.
    10030    2    1    2    0    0  0.00000000000E+00  0.00000000000E+00  0.20609736084E+04  0.39019586593E+04  0.33132565799E+04 0.  0.
        4    1    3    3  502    0  0.40245498589E+03 -0.80141794943E+03  0.26708803024E+04  0.28174179576E+04  0.12699999809E+01 0. -1.
       -4    1    3    3    0  502 -0.40245498589E+03  0.80141794943E+03 -0.60990669394E+03  0.10845407017E+04  0.12699999809E+01 0.  1.
</event>
<event>
 5   0  0.5158266E-07  0.3774483E+04  0.7818609E-02  0.8051653E-01
       -2   -1    0    0    0  501  0.00000000000E+00  0.00000000000E+00  0.12210146061E+04  0.12210146061E+04  0.25500000920E-02 0. -1.
        2   -1    0    0  501    0  0.00000000000E+00  0.00000000000E+00 -0.29169838444E+04  0.29169838444E+04  0.25500000920E-02 0.  1.
    10030    2    1    2    0    0  0.00000000000E+00  0.00000000000E+00 -0.16959692383E+04  0.41379984506E+04  0.37744826824E+04 0.  0.
        2    1    3    3  502    0 -0.84902409364E+03 -0.40550631189E+03  0.94554522659E+03  0.13339164352E+04  0.25500000920E-02 0. -1.
       -2    1    3    3    0  502  0.84902409364E+03  0.40550631189E+03 -0.26415144649E+04  0.28040820154E+04  0.25500000920E-02 0.  1.
</event>
<event>
 5   0  0.5158266E-07  0.3783617E+04  0.7818609E-02  0.8049680E-01
       -2   -1    0    0    0  501  0.00000000000E+00  0.00000000000E+00  0.17287568666E+04  0.17287568666E+04  0.25500000920E-02 0.  1.
        2   -1    0    0  501    0  0.00000000000E+00  0.00000000000E+00 -0.20702381831E+04  0.20702381831E+04  0.25500000920E-02 0. -1.
    10030    2    1    2    0    0  0.00000000000E+00  0.00000000000E+00 -0.34148131656E+03  0.37989950497E+04  0.37836165104E+04 0.  0.
        2    1    3    3  502    0 -0.44506368205E+03 -0.47374780597E+02 -0.20163118525E+04  0.20653908921E+04  0.25500000920E-02 0. -1.
       -2    1    3    3    0  502  0.44506368205E+03  0.47374780597E+02  0.16748305359E+04  0.17336041575E+04  0.25500000920E-02 0.  1.
</event>
<event>
 5   0  0.5158266E-07  0.3822276E+04  0.7818609E-02  0.8041391E-01
       -2   -1    0    0    0  501  0.00000000000E+00  0.00000000000E+00  0.20331627951E+04  0.20331627951E+04  0.25500000920E-02 0. -1.
        2   -1    0    0  501    0  0.00000000000E+00  0.00000000000E+00 -0.17964363359E+04  0.17964363359E+04  0.25500000920E-02 0.  1.
    10030    2    1    2    0    0  0.00000000000E+00  0.00000000000E+00  0.23672645911E+03  0.38295991310E+04  0.38222755117E+04 0.  0.
        2    1    3    3  502    0  0.91559834843E+03  0.14348446763E+04 -0.75240956665E+03  0.18609727931E+04  0.25500000920E-02 0.  1.
       -2    1    3    3    0  502 -0.91559834843E+03 -0.14348446763E+04  0.98913602576E+03  0.19686263379E+04  0.25500000920E-02 0. -1.
</event>
<event>
 5   0  0.1648000E-07  0.3805789E+04  0.7818609E-02  0.8044914E-01
       -1   -1    0    0    0  501  0.00000000000E+00  0.00000000000E+00  0.15728490995E+04  0.15728490995E+04  0.50400001928E-02 0.  1.
        1   -1    0    0  501    0  0.00000000000E+00  0.00000000000E+00 -0.23021968903E+04  0.23021968903E+04  0.50400001928E-02 0. -1.
    10030    2    1    2    0    0  0.00000000000E+00  0.00000000000E+00 -0.72934779081E+03  0.38750459898E+04  0.38057894349E+04 0.  0.
        2    1    3    3  502    0  0.79290964785E+03 -0.11010077759E+04  0.99380348365E+03  0.16818350681E+04  0.25500000920E-02 0.  1.
       -2    1    3    3    0  502 -0.79290964785E+03  0.11010077759E+04 -0.17231512745E+04  0.21932109217E+04  0.25500000920E-02 0. -1.
</event>
<event>
 5   0  0.1648000E-07  0.3765078E+04  0.7818609E-02  0.8053691E-01
        1   -1    0    0  501    0  0.00000000000E+00  0.00000000000E+00  0.26743157625E+04  0.26743157625E+04  0.50400001928E-02 0.  1.
       -1   -1    0    0    0  501  0.00000000000E+00  0.00000000000E+00 -0.13251811190E+04  0.13251811190E+04  0.50400001928E-02 0. -1.
    10030    2    1    2    0    0  0.00000000000E+00  0.00000000000E+00  0.13491346436E+04  0.39994968815E+04  0.37650778237E+04 0.  0.
        4    1    3    3  502    0  0.10841631779E+03 -0.17738200412E+04  0.14801637799E+02  0.17771922625E+04  0.12699999809E+01 0. -1.
       -4    1    3    3    0  502 -0.10841631779E+03  0.17738200412E+04  0.13343330058E+04  0.22223046190E+04  0.12699999809E+01 0.  1.
</event>
<event>
 5   0  0.1648000E-07  0.3742797E+04  0.7818609E-02  0.8058543E-01
       -1   -1    0    0    0  501  0.00000000000E+00  0.00000000000E+00  0.16250346379E+04  0.16250346379E+04  0.50400001928E-02 0. -1.
        1   -1    0    0  501    0  0.00000000000E+00  0.00000000000E+00 -0.21551124903E+04  0.21551124903E+04  0.50400001928E-02 0.  1.
    10030    2    1    2    0    0  0.00000000000E+00  0.00000000000E+00 -0.53007785241E+03  0.37801471281E+04  0.37427970531E+04 0.  0.
        3    1    3    3  502    0 -0.36303441638E+03  0.13312963824E+04  0.10116915767E+04  0.17110417592E+04  0.10100000352E+00 0. -1.
       -3    1    3    3    0  502  0.36303441638E+03 -0.13312963824E+04 -0.15417694291E+04  0.20691053690E+04  0.10100000352E+00 0.  1.
</event>
<event>
 5   0  0.5134434E-07  0.3825861E+04  0.7818609E-02  0.8040628E-01
        2   -1    0    0  501    0  0.00000000000E+00  0.00000000000E+00  0.12530947747E+04  0.12530947747E+04  0.25500000920E-02 0.  1.
       -2   -1    0    0    0  501  0.00000000000E+00  0.00000000000E+00 -0.29202123491E+04  0.29202123491E+04  0.25500000920E-02 0. -1.
    10030    2    1    2    0    0  0.00000000000E+00  0.00000000000E+00 -0.16671175744E+04  0.41733071239E+04  0.38258608630E+04 0.  0.
        5    1    3    3  502    0 -0.15038838702E+02 -0.17045630298E+04  0.11332877121E+03  0.17083988966E+04  0.46999998093E+01 0.  1.
       -5    1    3    3    0  502  0.15038838702E+02  0.17045630298E+04 -0.17804463456E+04  0.24649082273E+04  0.46999998093E+01 0. -1.
</event>
<event>
 5   0  0.1648000E-07  0.3705627E+04  0.7818609E-02  0.8066716E-01
       -1   -1    0    0    0  501  0.00000000000E+00  0.00000000000E+00  0.19675132214E+04  0.19675132214E+04  0.50400001928E-02 0. -1.
        1   -1    0    0  501    0  0.00000000000E+00  0.00000000000E+00 -0.17448004986E+04  0.17448004986E+04  0.50400001928E-02 0.  1.
    10030    2    1    2    0    0  0.00000000000E+00  0.00000000000E+00  0.22271272288E+03  0.37123137200E+04  0.37056270993E+04 0.  0.
        4    1    3    3  502    0  0.86778639777E+03  0.11574901592E+04  0.12710633566E+04  0.19257311261E+04  0.12699999809E+01 0. -1.
       -4    1    3    3    0  502 -0.86778639777E+03 -0.11574901592E+04 -0.10483506337E+04  0.17865825939E+04  0.12699999809E+01 0.  1.
</event>
<event>
 5   0  0.5134434E-07  0.3170426E+04  0.7818609E-02  0.8196672E-01
       -2   -1    0    0    0  501  0.00000000000E+00  0.00000000000E+00  0.26177571828E+04  0.26177571828E+04  0.25500000920E-02 0. -1.
        2   -1    0    0  501    0  0.00000000000E+00  0.00000000000E+00 -0.95994380434E+03  0.95994380434E+03  0.25500000920E-02 0.  1.
    10030    2    1    2    0    0  0.00000000000E+00  0.00000000000E+00  0.16578133785E+04  0.35777009872E+04  0.31704257057E+04 0.  0.
        5    1    3    3  502    0  0.16099557981E+03  0.19282932980E+03  0.25951460421E+04  0.26072797696E+04  0.46999998093E+01 0. -1.
       -5    1    3    3    0  502 -0.16099557981E+03 -0.19282932980E+03 -0.93733266363E+03  0.97042121754E+03  0.46999998093E+01 0.  1.
</event>
<event>
 5   0  0.1648000E-07  0.3863353E+04  0.7818609E-02  0.8032695E-01
        1   -1    0    0  501    0  0.00000000000E+00  0.00000000000E+00  0.23112038557E+04  0.23112038557E+04  0.50400001928E-02 0. -1.
       -1   -1    0    0    0  501  0.00000000000E+00  0.00000000000E+00 -0.16144721766E+04  0.16144721766E+04  0.50400001928E-02 0.  1.
    10030    2    1    2    0    0  0.00000000000E+00  0.00000000000E+00  0.69673167908E+03  0.39256760323E+04  0.38633531133E+04 0.  0.
        4    1    3    3  502    0 -0.47659214737E+03  0.56339324801E+03 -0.14655990010E+04  0.16408942901E+04  0.12699999809E+01 0.  1.
       -4    1    3    3    0  502  0.47659214737E+03 -0.56339324801E+03  0.21623306800E+04  0.22847817422E+04  0.12699999809E+01 0. -1.
</event>
<event>
 5   0  0.1648000E-07  0.3857422E+04  0.7818609E-02  0.8033943E-01
       -3   -1    0    0    0  501  0.00000000000E+00  0.00000000000E+00  0.26065506719E+04  0.26065506739E+04  0.10100000352E+00 0. -1.
        3   -1    0    0  501    0  0.00000000000E+00  0.00000000000E+00 -0.14271451662E+04  0.14271451698E+04  0.10100000352E+00 0.  1.
    10030    2    1    2    0    0  0.00000000000E+00  0.00000000000E+00  0.11794055057E+04  0.40336958437E+04  0.38574220423E+04 0.  0.
        4    1    3    3  502    0  0.81989127022E+03  0.16206320952E+04 -0.88997904948E+02  0.18184037844E+04  0.12699999809E+01 0.  1.
       -4    1    3    3    0  502 -0.81989127022E+03 -0.16206320952E+04  0.12684034106E+04  0.22152920593E+04  0.12699999809E+01 0. -1.
</event>
<event>
 5   0  0.1648000E-07  0.3797582E+04  0.7818609E-02  0.8046674E-01
       -1   -1    0    0    0  501  0.00000000000E+00  0.00000000000E+00  0.15131443982E+04  0.15131443982E+04  0.50400001928E-02 0. -1.
        1   -1    0    0  501    0  0.00000000000E+00  0.00000000000E+00 -0.23827257436E+04  0.23827257436E+04  0.50400001928E-02 0.  1.
    10030    2    1    2    0    0  0.00000000000E+00  0.00000000000E+00 -0.86958134542E+03  0.38958701418E+04  0.37975824475E+04 0.  0.
        3    1    3    3  502    0 -0.12570678646E+04  0.62957006343E+03 -0.17440785402E+04  0.22401758962E+04  0.10100000352E+00 0.  1.
       -3    1    3    3    0  502  0.12570678646E+04 -0.62957006343E+03  0.87449719483E+03  0.16556942456E+04  0.10100000352E+00 0. -1.
</event>
<event>
 5   0  0.1648000E-07  0.3647455E+04  0.7818609E-02  0.8079707E-01
       -1   -1    0    0    0  501  0.00000000000E+00  0.00000000000E+00  0.17743447054E+04  0.17743447054E+04  0.50400001928E-02 0. -1.
        1   -1    0    0  501    0  0.00000000000E+00  0.00000000000E+00 -0.18744850030E+04  0.18744850030E+04  0.50400001928E-02 0.  1.
    10030    2    1    2    0    0  0.00000000000E+00  0.00000000000E+00 -0.10014029760E+03  0.36488297084E+04  0.36474552994E+04 0.  0.
        3    1    3    3  502    0  0.11469247999E+04 -0.49583250317E+03 -0.13789893842E+04  0.18608863747E+04  0.10100000352E+00 0.  1.
       -3    1    3    3    0  502 -0.11469247999E+04  0.49583250317E+03  0.12788490866E+04  0.17879433336E+04  0.10100000352E+00 0. -1.
</event>
<event>
 5   0  0.5325362E-07  0.4039939E+04  0.7818609E-02  0.7996538E-01
        2   -1    0    0  501    0  0.00000000000E+00  0.00000000000E+00  0.28067141226E+04  0.28067141226E+04  0.25500000920E-02 0. -1.
       -2   -1    0    0    0  501  0.00000000000E+00  0.00000000000E+00 -0.14537555445E+04  0.14537555445E+04  0.25500000920E-02 0.  1.
    10030    2    1    2    0    0  0.00000000000E+00  0.00000000000E+00  0.13529585781E+04  0.42604696671E+04  0.40399387211E+04 0.  0.
        4    1    3    3  502    0  0.10024278578E+04 -0.31485885270E+03  0.24958423239E+04  0.27079933947E+04  0.12699999809E+01 0. -1.
       -4    1    3    3    0  502 -0.10024278578E+04  0.31485885270E+03 -0.11428837458E+04  0.15524762724E+04  0.12699999809E+01 0.  1.
</event>
<event>
 5   0  0.5158266E-07  0.3295431E+04  0.7818609E-02  0.8164059E-01
       -2   -1    0    0    0  501  0.00000000000E+00  0.00000000000E+00  0.14171772556E+04  0.14171772556E+04  0.25500000920E-02 0.  1.
        2   -1    0    0  501    0  0.00000000000E+00  0.00000000000E+00 -0.19157563499E+04  0.19157563499E+04  0.25500000920E-02 0. -1.
    10030    2    1    2    0    0  0.00000000000E+00  0.00000000000E+00 -0.49857909430E+03  0.33329336055E+04  0.32954309741E+04 0.  0.
        2    1    3    3  502    0  0.50000466606E+03 -0.13599768634E+04  0.54412811842E+03  0.15477781315E+04  0.25500000920E-02 0.  1.
       -2    1    3    3    0  502 -0.50000466606E+03  0.13599768634E+04 -0.10427072127E+04  0.17851554740E+04  0.25500000920E-02 0. -1.
</event>
<event>
 5   0  0.1648000E-07  0.3820069E+04  0.7818609E-02  0.8041862E-01
        1   -1    0    0  501    0  0.00000000000E+00  0.00000000000E+00  0.32945578657E+04  0.32945578657E+04  0.50400001928E-02 0.  1.
       -1   -1    0    0    0  501  0.00000000000E+00  0.00000000000E+00 -0.11073510248E+04  0.11073510248E+04  0.50400001928E-02 0. -1.
    10030    2    1    2    0    0  0.00000000000E+00  0.00000000000E+00  0.21872068409E+04  0.44019088905E+04  0.38200691244E+04 0.  0.
        3    1    3    3  502    0  0.14428426721E+04 -0.12001326248E+04  0.68438081715E+03  0.19976211869E+04  0.10100000352E+00 0. -1.
       -3    1    3    3    0  502 -0.14428426721E+04  0.12001326248E+04  0.15028260238E+04  0.24042877035E+04  0.10100000352E+00 0.  1.
</event>
<event>
 5   0  0.5132561E-07  0.3761738E+04  0.7818609E-02  0.8054416E-01
        2   -1    0    0  501    0  0.00000000000E+00  0.00000000000E+00  0.16745063589E+04  0.16745063589E+04  0.25500000920E-02 0. -1.
       -2   -1    0    0    0  501  0.00000000000E+00  0.00000000000E+00 -0.21126637147E+04  0.21126637147E+04  0.25500000920E-02 0.  1.
    10030    2    1    2    0    0  0.00000000000E+00  0.00000000000E+00 -0.43815735580E+03  0.37871700735E+04  0.37617383345E+04 0.  0.
        3    1    3    3  502    0 -0.86627403402E+03  0.22217692446E+03 -0.18849178710E+04  0.20863146163E+04  0.10100000352E+00 0.  1.
       -3    1    3    3    0  502  0.86627403402E+03 -0.22217692446E+03  0.14467605152E+04  0.17008554572E+04  0.10100000352E+00 0. -1.
</event>
<event>
 5   0  0.1648000E-07  0.3785146E+04  0.7818609E-02  0.8049350E-01
        1   -1    0    0  501    0  0.00000000000E+00  0.00000000000E+00  0.22777627724E+04  0.22777627724E+04  0.50400001928E-02 0. -1.
       -1   -1    0    0    0  501  0.00000000000E+00  0.00000000000E+00 -0.15725222401E+04  0.15725222401E+04  0.50400001928E-02 0.  1.
    10030    2    1    2    0    0  0.00000000000E+00  0.00000000000E+00  0.70524053235E+03  0.38502850125E+04  0.37851460300E+04 0.  0.
        1    1    3    3  502    0 -0.79891165541E+03 -0.40173040686E+03 -0.13440727737E+04  0.16143663692E+04  0.50400001928E-02 0.  1.
       -1    1    3    3    0  502  0.79891165541E+03  0.40173040686E+03  0.20493133061E+04  0.22359186433E+04  0.50400001928E-02 0. -1.
</event>
<event>
 5   0  0.1648000E-07  0.3723709E+04  0.7818609E-02  0.8062728E-01
        1   -1    0    0  501    0  0.00000000000E+00  0.00000000000E+00  0.14523505371E+04  0.14523505371E+04  0.50400001928E-02 0.  1.
       -1   -1    0    0    0  501  0.00000000000E+00  0.00000000000E+00 -0.23868216477E+04  0.23868216477E+04  0.50400001928E-02 0. -1.
    10030    2    1    2    0    0  0.00000000000E+00  0.00000000000E+00 -0.93447111058E+03  0.38391721848E+04  0.37237087437E+04 0.  0.
        4    1    3    3  502    0  0.74099346974E+03 -0.17080257721E+04 -0.45820446189E+03  0.19173878852E+04  0.12699999809E+01 0.  1.
       -4    1    3    3    0  502 -0.74099346974E+03  0.17080257721E+04 -0.47626664868E+03  0.19217842996E+04  0.12699999809E+01 0. -1.
</event>
<event>
 5   0  0.1656617E-07  0.3851157E+04  0.7818609E-02  0.8035265E-01
       -1   -1    0    0    0  501  0.00000000000E+00  0.00000000000E+00  0.14544957228E+04  0.14544957228E+04  0.50400001928E-02 0. -1.
        1   -1    0    0  501    0  0.00000000000E+00  0.00000000000E+00 -0.25492355288E+04  0.25492355288E+04  0.50400001928E-02 0.  1.
    10030    2    1    2    0    0  0.00000000000E+00  0.00000000000E+00 -0.10947398060E+04  0.40037312517E+04  0.38511567993E+04 0.  0.
        5    1    3    3  502    0 -0.78244223014E+03 -0.30918021398E+03 -0.23480473476E+04  0.24942246660E+04  0.46999998093E+01 0.  1.
       -5    1    3    3    0  502  0.78244223014E+03  0.30918021398E+03  0.12533075416E+04  0.15095065856E+04  0.46999998093E+01 0. -1.
</event>
<event>
 5   0  0.5132561E-07  0.3892227E+04  0.7818609E-02  0.8026648E-01
       -2   -1    0    0    0  501  0.00000000000E+00  0.00000000000E+00  0.23539289264E+04  0.23539289264E+04  0.25500000920E-02 0.  1.
        2   -1    0    0  501    0  0.00000000000E+00  0.00000000000E+00 -0.16089519408E+04  0.16089519408E+04  0.25500000920E-02 0. -1.
    10030    2    1    2    0    0  0.00000000000E+00  0.00000000000E+00  0.74497698562E+03  0.39628808671E+04  0.38922273903E+04 0.  0.
        3    1    3    3  502    0 -0.53350811189E+03  0.15271006989E+04 -0.72913696096E+03  0.17743472513E+04  0.10100000352E+00 0. -1.
       -3    1    3    3    0  502  0.53350811189E+03 -0.15271006989E+04  0.14741139466E+04  0.21885336159E+04  0.10100000352E+00 0.  1.
</event>
<event>
 5   0  0.1648000E-07  0.3803427E+04  0.7818609E-02  0.8045420E-01
        1   -1    0    0  501    0  0.00000000000E+00  0.00000000000E+00  0.12871958420E+04  0.12871958420E+04  0.50400001928E-02 0. -1.
       -1   -1    0    0    0  501  0.00000000000E+00  0.00000000000E+00 -0.28096061246E+04  0.28096061246E+04  0.50400001928E-02 0.  1.
    10030    2    1    2    0    0  0.00000000000E+00  0.00000000000E+00 -0.15224102826E+04  0.40968019666E+04  0.38034265190E+04 0.  0.
        1    1    3    3  502    0 -0.16072346378E+04 -0.97044446063E+03 -0.43529818202E+03  0.19272908808E+04  0.50400001928E-02 0. -1.
       -1    1    3    3    0  502  0.16072346378E+04  0.97044446063E+03 -0.10871121006E+04  0.21695110858E+04  0.50400001928E-02 0.  1.
</event>
<event>
 5   0  0.5202788E-07  0.3933812E+04  0.7818609E-02  0.8018033E-01
        2   -1    0    0  501    0  0.00000000000E+00  0.00000000000E+00  0.27172797425E+04  0.27172797425E+04  0.25500000920E-02 0. -1.
       -2   -1    0    0    0  501  0.00000000000E+00  0.00000000000E+00 -0.14237470893E+04  0.14237470893E+04  0.25500000920E-02 0.  1.
    10030    2    1    2    0    0  0.00000000000E+00  0.00000000000E+00  0.12935326532E+04  0.41410268318E+04  0.39338119550E+04 0.  0.
        1    1    3    3  502    0  0.21503048343E+03  0.15783809797E+04 -0.56778313487E+03  0.16911245708E+04  0.50400001928E-02 0.  1.
       -1    1    3    3    0  502 -0.21503048343E+03 -0.15783809797E+04  0.18613157880E+04  0.24499022610E+04  0.50400001928E-02 0. -1.
</event>
<event>
 5   0  0.1648000E-07  0.3735978E+04  0.7818609E-02  0.8060035E-01
        1   -1    0    0  501    0  0.00000000000E+00  0.00000000000E+00  0.17443887937E+04  0.17443887937E+04  0.50400001928E-02 0. -1.
       -1   -1    0    0    0  501  0.00000000000E+00  0.00000000000E+00 -0.20003466388E+04  0.20003466388E+04  0.50400001928E-02 0.  1.
    10030    2    1    2    0    0  0.00000000000E+00  0.00000000000E+00 -0.25595784513E+03  0.37447354325E+04  0.37359776553E+04 0.  0.
        4    1    3    3  502    0  0.12026544361E+04  0.78464650059E+03 -0.13254898815E+04  0.19542192462E+04  0.12699999809E+01 0.  1.
       -4    1    3    3    0  502 -0.12026544361E+04 -0.78464650059E+03  0.10695320363E+04  0.17905161862E+04  0.12699999809E+01 0. -1.
</event>
<event>
 5   0  0.1656617E-07  0.3768231E+04  0.7818609E-02  0.8053007E-01
        1   -1    0    0  501    0  0.00000000000E+00  0.00000000000E+00  0.23755577646E+04  0.23755577646E+04  0.50400001928E-02 0.  1.
       -1   -1    0    0    0  501  0.00000000000E+00  0.00000000000E+00 -0.14943403372E+04  0.14943403372E+04  0.50400001928E-02 0. -1.
    10030    2    1    2    0    0  0.00000000000E+00  0.00000000000E+00  0.88121742742E+03  0.38698981018E+04  0.37682313045E+04 0.  0.
        5    1    3    3  502    0  0.97945290093E+02 -0.18088066635E+04  0.97275370289E+03  0.20561241894E+04  0.46999998093E+01 0.  1.
       -5    1    3    3    0  502 -0.97945290093E+02  0.18088066635E+04 -0.91536275478E+02  0.18137739124E+04  0.46999998093E+01 0. -1.
</event>
<event>
 5   0  0.1648000E-07  0.3755656E+04  0.7818609E-02  0.8055739E-01
        1   -1    0    0  501    0  0.00000000000E+00  0.00000000000E+00  0.16273578928E+04  0.16273578928E+04  0.50400001928E-02 0. -1.
       -1   -1    0    0    0  501  0.00000000000E+00  0.00000000000E+00 -0.21668480951E+04  0.21668480951E+04  0.50400001928E-02 0.  1.
    10030    2    1    2    0    0  0.00000000000E+00  0.00000000000E+00 -0.53949020226E+03  0.37942059879E+04  0.37556556552E+04 0.  0.
        2    1    3    3  502    0 -0.73832533830E+03  0.21663092483E+03 -0.20002738462E+04  0.21431632515E+04  0.25500000920E-02 0.  1.
       -2    1    3    3    0  502  0.73832533830E+03 -0.21663092483E+03  0.14607836440E+04  0.16510427364E+04  0.25500000920E-02 0. -1.
</event>
<event>
 5   0  0.1648000E-07  0.2733253E+04  0.7818609E-02  0.8324296E-01
       -1   -1    0    0    0  501  0.00000000000E+00  0.00000000000E+00  0.14795965834E+04  0.14795965834E+04  0.50400001928E-02 0. -1.
        1   -1    0    0  501    0  0.00000000000E+00  0.00000000000E+00 -0.12622818741E+04  0.12622818741E+04  0.50400001928E-02 0.  1.
    10030    2    1    2    0    0  0.00000000000E+00  0.00000000000E+00  0.21731470932E+03  0.27418784575E+04  0.27332529690E+04 0.  0.
        4    1    3    3  502    0  0.10883994733E+04 -0.50946020686E+03  0.76148228179E+03  0.14226805665E+04  0.12699999809E+01 0. -1.
       -4    1    3    3    0  502 -0.10883994733E+04  0.50946020686E+03 -0.54416757247E+03  0.13191978910E+04  0.12699999809E+01 0.  1.
</event>
<event>
 5   0  0.1656617E-07  0.3827514E+04  0.7818609E-02  0.8040276E-01
        1   -1    0    0  501    0  0.00000000000E+00  0.00000000000E+00  0.20214681086E+04  0.20214681086E+04  0.50400001928E-02 0. -1.
       -1   -1    0    0    0  501  0.00000000000E+00  0.00000000000E+00 -0.18117852165E+04  0.18117852166E+04  0.50400001928E-02 0.  1.
    10030    2    1    2    0    0  0.00000000000E+00  0.00000000000E+00  0.20968289203E+03  0.38332533251E+04  0.38275140940E+04 0.  0.
        5    1    3    3  502    0  0.16879312702E+04  0.11290981781E+03 -0.79125343837E+03  0.18676093525E+04  0.46999998093E+01 0. -1.
       -5    1    3    3    0  502 -0.16879312702E+04 -0.11290981781E+03  0.10009363304E+04  0.19656439727E+04  0.46999998093E+01 0.  1.
</event>
<event>
 5   0  0.5158266E-07  0.3743665E+04  0.7818609E-02  0.8058353E-01
        2   -1    0    0  501    0  0.00000000000E+00  0.00000000000E+00  0.12399749433E+04  0.12399749433E+04  0.25500000920E-02 0. -1.
       -2   -1    0    0    0  501  0.00000000000E+00  0.00000000000E+00 -0.28256681090E+04  0.28256681090E+04  0.25500000920E-02 0.  1.
    10030    2    1    2    0    0  0.00000000000E+00  0.00000000000E+00 -0.15856931657E+04  0.40656430523E+04  0.37436653981E+04 0.  0.
        2    1    3    3  502    0 -0.12240125740E+04  0.88937100139E+03  0.40401385850E+03  0.15660187602E+04  0.25500000920E-02 0. -1.
       -2    1    3    3    0  502  0.12240125740E+04 -0.88937100139E+03 -0.19897070242E+04  0.24996242921E+04  0.25500000920E-02 0.  1.
</event>
<event>
 5   0  0.1648000E-07  0.3772296E+04  0.7818609E-02  0.8052126E-01
        1   -1    0    0  501    0  0.00000000000E+00  0.00000000000E+00  0.25022327466E+04  0.25022327466E+04  0.50400001928E-02 0. -1.
       -1   -1    0    0    0  501  0.00000000000E+00  0.00000000000E+00 -0.14217522316E+04  0.14217522317E+04  0.50400001928E-02 0.  1.
    10030    2    1    2    0    0  0.00000000000E+00  0.00000000000E+00  0.10804805150E+04  0.39239849783E+04  0.37722963784E+04 0.  0.
        1    1    3    3  502    0 -0.17484108014E+04  0.33782837224E+03 -0.10643877409E+03  0.17839275636E+04  0.50400001928E-02 0. -1.
       -1    1    3    3    0  502  0.17484108014E+04 -0.33782837224E+03  0.11869192891E+04  0.21400574147E+04  0.50400001928E-02 0.  1.
</event>
<event>
 5   0  0.1648000E-07  0.3794805E+04  0.7818609E-02  0.8047271E-01
       -1   -1    0    0    0  501  0.00000000000E+00  0.00000000000E+00  0.17519432970E+04  0.17519432970E+04  0.50400001928E-02 0.  1.
        1   -1    0    0  501    0  0.00000000000E+00  0.00000000000E+00 -0.20549388761E+04  0.20549388761E+04  0.50400001928E-02 0. -1.
    10030    2    1    2    0    0  0.00000000000E+00  0.00000000000E+00 -0.30299557908E+03  0.38068821731E+04  0.37948050752E+04 0.  0.
        1    1    3    3  502    0  0.10328927847E+04 -0.99722011852E+03  0.10929423284E+04  0.18043941928E+04  0.50400001928E-02 0.  1.
       -1    1    3    3    0  502 -0.10328927847E+04  0.99722011852E+03 -0.13959379075E+04  0.20024879803E+04  0.50400001928E-02 0. -1.
</event>
<event>
 5   0  0.1648000E-07  0.3724149E+04  0.7818609E-02  0.8062631E-01
        1   -1    0    0  501    0  0.00000000000E+00  0.00000000000E+00  0.26618306202E+04  0.26618306202E+04  0.50400001928E-02 0. -1.
       -1   -1    0    0    0  501  0.00000000000E+00  0.00000000000E+00 -0.13026078835E+04  0.13026078835E+04  0.50400001928E-02 0.  1.
    10030    2    1    2    0    0  0.00000000000E+00  0.00000000000E+00  0.13592227367E+04  0.39644385037E+04  0.37241490574E+04 0.  0.
        1    1    3    3  502    0 -0.99003882569E+03 -0.11768393433E+04 -0.43798149281E+03  0.15990483121E+04  0.50400001928E-02 0.  1.
       -1    1    3    3    0  502  0.99003882569E+03  0.11768393433E+04  0.17972042295E+04  0.23653901917E+04  0.50400001928E-02 0. -1.
</event>
<event>
 5   0  0.5325362E-07  0.3765457E+04  0.7818609E-02  0.8053609E-01
       -2   -1    0    0    0  501  0.00000000000E+00  0.00000000000E+00  0.12343197246E+04  0.12343197246E+04  0.25500000920E-02 0. -1.
        2   -1    0    0  501    0  0.00000000000E+00  0.00000000000E+00 -0.28717567210E+04  0.28717567210E+04  0.25500000920E-02 0.  1.
    10030    2    1    2    0    0  0.00000000000E+00  0.00000000000E+00 -0.16374369964E+04  0.41060764457E+04  0.37654566603E+04 0.  0.
        4    1    3    3  502    0  0.15619043631E+04 -0.96792783382E+03 -0.12659859786E+04  0.22314012731E+04  0.12699999809E+01 0. -1.
       -4    1    3    3    0  502 -0.15619043631E+04  0.96792783382E+03 -0.37145101787E+03  0.18746751725E+04  0.12699999809E+01 0.  1.
</event>
<event>
 5   0  0.1648000E-07  0.3842012E+04  0.7818609E-02  0.8037199E-01
        1   -1    0    0  501    0  0.00000000000E+00  0.00000000000E+00  0.19453121721E+04  0.19453121721E+04  0.50400001928E-02 0. -1.
       -1   -1    0    0    0  501  0.00000000000E+00  0.00000000000E+00 -0.18970036050E+04  0.18970036050E+04  0.50400001928E-02 0.  1.
    10030    2    1    2    0    0  0.00000000000E+00  0.00000000000E+00  0.48308567117E+02  0.38423157771E+04  0.38420120788E+04 0.  0.
        3    1    3    3  502    0  0.21733899667E+03  0.18806083056E+04 -0.30197018217E+03  0.19170575994E+04  0.10100000352E+00 0. -1.
       -3    1    3    3    0  502 -0.21733899667E+03 -0.18806083056E+04  0.35027874929E+03  0.19252581777E+04  0.10100000352E+00 0.  1.
</event>
<event>
 5   0  0.5325362E-07  0.3760522E+04  0.7818609E-02  0.8054680E-01
       -2   -1    0    0    0  501  0.00000000000E+00  0.00000000000E+00  0.13564544776E+04  0.13564544777E+04  0.25500000920E-02 0. -1.
        2   -1    0    0  501    0  0.00000000000E+00  0.00000000000E+00 -0.26063405634E+04  0.26063405634E+04  0.25500000920E-02 0.  1.
    10030    2    1    2    0    0  0.00000000000E+00  0.00000000000E+00 -0.12498860858E+04  0.39627950411E+04  0.37605224784E+04 0.  0.
        4    1    3    3  502    0 -0.26142737415E+03  0.11842714189E+04 -0.21390788340E+04  0.24589637933E+04  0.12699999809E+01 0.  1.
       -4    1    3    3    0  502  0.26142737415E+03 -0.11842714189E+04  0.88919274825E+03  0.15038312478E+04  0.12699999809E+01 0. -1.
</event>
<event>
 5   0  0.5132561E-07  0.3926564E+04  0.7818609E-02  0.8019527E-01
        2   -1    0    0  501    0  0.00000000000E+00  0.00000000000E+00  0.17288866738E+04  0.17288866738E+04  0.25500000920E-02 0.  1.
       -2   -1    0    0    0  501  0.00000000000E+00  0.00000000000E+00 -0.22294557162E+04  0.22294557162E+04  0.25500000920E-02 0. -1.
    10030    2    1    2    0    0  0.00000000000E+00  0.00000000000E+00 -0.50056904240E+03  0.39583423900E+04  0.39265640336E+04 0.  0.
        3    1    3    3  502    0 -0.14314383446E+04  0.86449953045E+03  0.78668085292E+03  0.18480373230E+04  0.10100000352E+00 0.  1.
       -3    1    3    3    0  502  0.14314383446E+04 -0.86449953045E+03 -0.12872498953E+04  0.21103050670E+04  0.10100000352E+00 0. -1.
</event>
<event>
 5   0  0.5202788E-07  0.3775678E+04  0.7818609E-02  0.8051394E-01
        2   -1    0    0  501    0  0.00000000000E+00  0.00000000000E+00  0.11530483029E+04  0.11530483029E+04  0.25500000920E-02 0. -1.
       -2   -1    0    0    0  501  0.00000000000E+00  0.00000000000E+00 -0.30908823570E+04  0.30908823570E+04  0.25500000920E-02 0.  1.
    10030    2    1    2    0    0  0.00000000000E+00  0.00000000000E+00 -0.19378340541E+04  0.42439306599E+04  0.37756783000E+04 0.  0.
        1    1    3    3  502    0  0.10246019816E+03  0.19658372465E+03 -0.30762016443E+04  0.30841789522E+04  0.50400001928E-02 0.  1.
       -1    1    3    3    0  502 -0.10246019816E+03 -0.19658372465E+03  0.11383675902E+04  0.11597517077E+04  0.50400001928E-02 0. -1.
</event>
<event>
 5   0  0.5325362E-07  0.3824425E+04  0.7818609E-02  0.8040934E-01
        2   -1    0    0  501    0  0.00000000000E+00  0.00000000000E+00  0.23504673717E+04  0.23504673717E+04  0.25500000920E-02 0. -1.
       -2   -1    0    0    0  501  0.00000000000E+00  0.00000000000E+00 -0.15556718496E+04  0.15556718496E+04  0.25500000920E-02 0.  1.
    10030    2    1    2    0    0  0.00000000000E+00  0.00000000000E+00  0.79479552208E+03  0.39061392213E+04  0.38244246227E+04 0.  0.
        4    1    3    3  502    0 -0.97079365595E+03  0.27080320819E+03  0.20571669245E+04  0.22907885255E+04  0.12699999809E+01 0. -1.
       -4    1    3    3    0  502  0.97079365595E+03 -0.27080320819E+03 -0.12623714025E+04  0.16153506959E+04  0.12699999809E+01 0.  1.
</event>
<event>
 5   0  0.1648000E-07  0.3812561E+04  0.7818609E-02  0.8043465E-01
        1   -1    0    0  501    0  0.00000000000E+00  0.00000000000E+00  0.24741247684E+04  0.24741247684E+04  0.50400001928E-02 0. -1.
       -1   -1    0    0    0  501  0.00000000000E+00  0.00000000000E+00 -0.14687637489E+04  0.14687637490E+04  0.50400001928E-02 0.  1.
    10030    2    1    2    0    0  0.00000000000E+00  0.00000000000E+00  0.10053610195E+04  0.39428885174E+04  0.38125606987E+04 0.  0.
        3    1    3    3  502    0 -0.97169641281E+03 -0.16156034728E+04  0.79434282204E+03  0.20458125596E+04  0.10100000352E+00 0.  1.
       -3    1    3    3    0  502  0.97169641281E+03  0.16156034728E+04  0.21101819744E+03  0.18970759578E+04  0.10100000352E+00 0. -1.
</event>
<event>
 5   0  0.5132561E-07  0.3775962E+04  0.7818609E-02  0.8051333E-01
       -2   -1    0    0    0  501  0.00000000000E+00  0.00000000000E+00  0.10803003228E+04  0.10803003229E+04  0.25500000920E-02 0.  1.
        2   -1    0    0  501    0  0.00000000000E+00  0.00000000000E+00 -0.32995199004E+04  0.32995199004E+04  0.25500000920E-02 0. -1.
    10030    2    1    2    0    0  0.00000000000E+00  0.00000000000E+00 -0.22192195776E+04  0.43798202233E+04  0.37759620833E+04 0.  0.
        3    1    3    3  502    0  0.12922520543E+04  0.98065281317E+03 -0.22299266546E+04  0.27575656306E+04  0.10100000352E+00 0. -1.
       -3    1    3    3    0  502 -0.12922520543E+04 -0.98065281317E+03  0.10707077050E+02  0.16222545927E+04  0.10100000352E+00 0.  1.
</event>
<event>
 5   0  0.1648000E-07  0.3656355E+04  0.7818609E-02  0.8077703E-01
        1   -1    0    0  501    0  0.00000000000E+00  0.00000000000E+00  0.22802556071E+04  0.22802556071E+04  0.50400001928E-02 0.  1.
       -1   -1    0    0    0  501  0.00000000000E+00  0.00000000000E+00 -0.14657276808E+04  0.14657276808E+04  0.50400001928E-02 0. -1.
    10030    2    1    2    0    0  0.00000000000E+00  0.00000000000E+00  0.81452792633E+03  0.37459832879E+04  0.36563554327E+04 0.  0.
        3    1    3    3  502    0 -0.15630272909E+04 -0.52663614124E+03  0.12151583605E+04  0.20486604864E+04  0.10100000352E+00 0.  1.
       -3    1    3    3    0  502  0.15630272909E+04  0.52663614124E+03 -0.40063043419E+03  0.16973228015E+04  0.10100000352E+00 0. -1.
</event>
<event>
 5   0  0.5325362E-07  0.3560741E+04  0.7818609E-02  0.8099544E-01
       -2   -1    0    0    0  501  0.00000000000E+00  0.00000000000E+00  0.15668997742E+04  0.15668997742E+04  0.25500000920E-02 0. -1.
        2   -1    0    0  501    0  0.00000000000E+00  0.00000000000E+00 -0.20229239053E+04  0.20229239053E+04  0.25500000920E-02 0.  1.
    10030    2    1    2    0    0  0.00000000000E+00  0.00000000000E+00 -0.45602413115E+03  0.35898236795E+04  0.35607409400E+04 0.  0.
        4    1    3    3  502    0  0.34971262440E+02 -0.16690139618E+04  0.39582035204E+03  0.17156648734E+04  0.12699999809E+01 0.  1.
       -4    1    3    3    0  502 -0.34971262440E+02  0.16690139618E+04 -0.85184448319E+03  0.18741588061E+04  0.12699999809E+01 0. -1.
</event>
<event>
 5   0  0.5158266E-07  0.3807413E+04  0.7818609E-02  0.8044566E-01
       -2   -1    0    0    0  501  0.00000000000E+00  0.00000000000E+00  0.12811627065E+04  0.12811627066E+04  0.25500000920E-02 0.  1.
        2   -1    0    0  501    0  0.00000000000E+00  0.00000000000E+00 -0.28287577843E+04  0.28287577843E+04  0.25500000920E-02 0. -1.
    10030    2    1    2    0    0  0.00000000000E+00  0.00000000000E+00 -0.15475950778E+04  0.41099204909E+04  0.38074132842E+04 0.  0.
        2    1    3    3  502    0  0.99404339603E+03  0.11126310827E+04  0.50252798799E+03  0.15743584656E+04  0.25500000920E-02 0.  1.
       -2    1    3    3    0  502 -0.99404339603E+03 -0.11126310827E+04 -0.20501230658E+04  0.25355620253E+04  0.25500000920E-02 0. -1.
</event>
<event>
 5   0  0.5202788E-07  0.3808501E+04  0.7818609E-02  0.8044333E-01
       -2   -1    0    0    0  501  0.00000000000E+00  0.00000000000E+00  0.14357010214E+04  0.14357010214E+04  0.25500000920E-02 0.  1.
        2   -1    0    0  501    0  0.00000000000E+00  0.00000000000E+00 -0.25257140238E+04  0.25257140238E+04  0.25500000920E-02 0. -1.
    10030    2    1    2    0    0  0.00000000000E+00  0.00000000000E+00 -0.10900130024E+04  0.39614150451E+04  0.38085011244E+04 0.  0.
        1    1    3    3  502    0 -0.17824754081E+03  0.18743745701E+04 -0.24875889816E+03  0.18991927771E+04  0.50400001928E-02 0.  1.
       -1    1    3    3    0  502  0.17824754081E+03 -0.18743745701E+04 -0.84125410425E+03  0.20622222681E+04  0.50400001928E-02 0. -1.
</event>
<event>
 5   0  0.5132561E-07  0.3818475E+04  0.7818609E-02  0.8042202E-01
        2   -1    0    0  501    0  0.00000000000E+00  0.00000000000E+00  0.24345978285E+04  0.24345978285E+04  0.25500000920E-02 0.  1.
       -2   -1    0    0    0  501  0.00000000000E+00  0.00000000000E+00 -0.14972444630E+04  0.14972444630E+04  0.25500000920E-02 0. -1.
    10030    2    1    2    0    0  0.00000000000E+00  0.00000000000E+00  0.93735336550E+03  0.39318422914E+04  0.38184751502E+04 0.  0.
        3    1    3    3  502    0 -0.12519465959E+04 -0.88212361428E+03  0.16425564852E+04  0.22457747365E+04  0.10100000352E+00 0.  1.
       -3    1    3    3    0  502  0.12519465959E+04  0.88212361428E+03 -0.70520311966E+03  0.16860675550E+04  0.10100000352E+00 0. -1.
</event>
<event>
 5   0  0.5158266E-07  0.3608617E+04  0.7818609E-02  0.8088521E-01
       -2   -1    0    0    0  501  0.00000000000E+00  0.00000000000E+00  0.15586062363E+04  0.15586062363E+04  0.25500000920E-02 0.  1.
        2   -1    0    0  501    0  0.00000000000E+00  0.00000000000E+00 -0.20887437869E+04  0.20887437869E+04  0.25500000920E-02 0. -1.
    10030    2    1    2    0    0  0.00000000000E+00  0.00000000000E+00 -0.53013755060E+03  0.36473500231E+04  0.36086169606E+04 0.  0.
        2    1    3    3  502    0  0.13372509320E+04  0.10902090234E+04 -0.79868755181E+03  0.19012358021E+04  0.25500000920E-02 0. -1.
       -2    1    3    3    0  502 -0.13372509320E+04 -0.10902090234E+04  0.26855000121E+03  0.17461142210E+04  0.25500000920E-02 0.  1.
</event>
<event>
 5   0  0.1648000E-07  0.3394428E+04  0.7818609E-02  0.8139275E-01
        1   -1    0    0  501    0  0.00000000000E+00  0.00000000000E+00  0.18619816773E+04  0.18619816773E+04  0.50400001928E-02 0.  1.
       -1   -1    0    0    0  501  0.00000000000E+00  0.00000000000E+00 -0.15470262832E+04  0.15470262832E+04  0.50400001928E-02 0. -1.
    10030    2    1    2    0    0  0.00000000000E+00  0.00000000000E+00  0.31495539407E+03  0.34090079605E+04  0.33944275474E+04 0.  0.
        2    1    3    3  502    0 -0.26976954156E+03  0.10685456720E+04  0.14537461375E+04  0.18242651372E+04  0.25500000920E-02 0.  1.
       -2    1    3    3    0  502  0.26976954156E+03 -0.10685456720E+04 -0.11387907434E+04  0.15847428233E+04  0.25500000920E-02 0. -1.
</event>
<event>
 5   0  0.1648000E-07  0.3786691E+04  0.7818609E-02  0.8049017E-01
       -1   -1    0    0    0  501  0.00000000000E+00  0.00000000000E+00  0.31166183754E+04  0.31166183754E+04  0.50400001928E-02 0.  1.
        1   -1    0    0  501    0  0.00000000000E+00  0.00000000000E+00 -0.11502071499E+04  0.11502071500E+04  0.50400001928E-02 0. -1.
    10030    2    1    2    0    0  0.00000000000E+00  0.00000000000E+00  0.19664112255E+04  0.42668255254E+04  0.37866907659E+04 0.  0.
        2    1    3    3  502    0  0.14880739507E+04  0.11445657682E+04  0.12600440222E+04  0.22609966427E+04  0.25500000920E-02 0. -1.
       -2    1    3    3    0  502 -0.14880739507E+04 -0.11445657682E+04  0.70636720329E+03  0.20058288827E+04  0.25500000920E-02 0.  1.
</event>
<event>
 5   0  0.1648000E-07  0.3813774E+04  0.7818609E-02  0.8043205E-01
        1   -1    0    0  501    0  0.00000000000E+00  0.00000000000E+00  0.23286481777E+04  0.23286481777E+04  0.50400001928E-02 0. -1.
       -1   -1    0    0    0  501  0.00000000000E+00  0.00000000000E+00 -0.15615148040E+04  0.15615148040E+04  0.50400001928E-02 0.  1.
    10030    2    1    2    0    0  0.00000000000E+00  0.00000000000E+00  0.76713337369E+03  0.38901629817E+04  0.38137743000E+04 0.  0.
        4    1    3    3  502    0 -0.11401225767E+04  0.20771358767E+03 -0.11610939222E+04  0.16404771055E+04  0.12699999809E+01 0.  1.
       -4    1    3    3    0  502  0.11401225767E+04 -0.20771358767E+03  0.19282272959E+04  0.22496858763E+04  0.12699999809E+01 0. -1.
</event>
<event>
 5   0  0.1656617E-07  0.3755585E+04  0.7818609E-02  0.8055754E-01
        1   -1    0    0  501    0  0.00000000000E+00  0.00000000000E+00  0.22366346947E+04  0.22366346947E+04  0.50400001928E-02 0. -1.
       -1   -1    0    0    0  501  0.00000000000E+00  0.00000000000E+00 -0.15765227324E+04  0.15765227324E+04  0.50400001928E-02 0.  1.
    10030    2    1    2    0    0  0.00000000000E+00  0.00000000000E+00  0.66011196234E+03  0.38131574271E+04  0.37555854086E+04 0.  0.
        5    1    3    3  502    0 -0.10439021935E+04 -0.12430373544E+04  0.12885668549E+04  0.20725106232E+04  0.46999998093E+01 0. -1.
       -5    1    3    3    0  502  0.10439021935E+04  0.12430373544E+04 -0.62845489256E+03  0.17406468039E+04  0.46999998093E+01 0.  1.
</event>
<event>
 5   0  0.1656617E-07  0.3810615E+04  0.7818609E-02  0.8043881E-01
       -1   -1    0    0    0  501  0.00000000000E+00  0.00000000000E+00  0.20111795923E+04  0.20111795923E+04  0.50400001928E-02 0.  1.
        1   -1    0    0  501    0  0.00000000000E+00  0.00000000000E+00 -0.18050089562E+04  0.18050089562E+04  0.50400001928E-02 0. -1.
    10030    2    1    2    0    0  0.00000000000E+00  0.00000000000E+00  0.20617063615E+03  0.38161885485E+04  0.38106152661E+04 0.  0.
        5    1    3    3  502    0 -0.40647703588E+03  0.17178682417E+04  0.82098815153E+03  0.19468791723E+04  0.46999998093E+01 0.  1.
       -5    1    3    3    0  502  0.40647703588E+03 -0.17178682417E+04 -0.61481751538E+03  0.18693093762E+04  0.46999998093E+01 0. -1.
</event>
<event>
 5   0  0.5132561E-07  0.3676867E+04  0.7818609E-02  0.8073108E-01
        2   -1    0    0  501    0  0.00000000000E+00  0.00000000000E+00  0.27502666124E+04  0.27502666125E+04  0.25500000920E-02 0. -1.
       -2   -1    0    0    0  501  0.00000000000E+00  0.00000000000E+00 -0.12289128028E+04  0.12289128028E+04  0.25500000920E-02 0.  1.
    10030    2    1    2    0    0  0.00000000000E+00  0.00000000000E+00  0.15213538096E+04  0.39791794153E+04  0.36768670638E+04 0.  0.
        3    1    3    3  502    0 -0.63299768208E+03 -0.17183290804E+04  0.58451438597E+03  0.19222377511E+04  0.10100000352E+00 0.  1.
       -3    1    3    3    0  502  0.63299768208E+03  0.17183290804E+04  0.93683942367E+03  0.20569416642E+04  0.10100000352E+00 0. -1.
</event>
<event>
 5   0  0.5132561E-07  0.3979179E+04  0.7818609E-02  0.8008760E-01
       -2   -1    0    0    0  501  0.00000000000E+00  0.00000000000E+00  0.16782402964E+04  0.16782402964E+04  0.25500000920E-02 0.  1.
        2   -1    0    0  501    0  0.00000000000E+00  0.00000000000E+00 -0.23587007628E+04  0.23587007628E+04  0.25500000920E-02 0. -1.
    10030    2    1    2    0    0  0.00000000000E+00  0.00000000000E+00 -0.68046046641E+03  0.40369410592E+04  0.39791791451E+04 0.  0.
        3    1    3    3  502    0  0.54914681481E+03  0.11386903331E+04  0.12183942206E+04  0.17557512312E+04  0.10100000352E+00 0.  1.
       -3    1    3    3    0  502 -0.54914681481E+03 -0.11386903331E+04 -0.18988546870E+04  0.22811898280E+04  0.10100000352E+00 0. -1.
</event>
<event>
 5   0  0.1648000E-07  0.3805089E+04  0.7818609E-02  0.8045064E-01
        3   -1    0    0  501    0  0.00000000000E+00  0.00000000000E+00  0.23186128776E+04  0.23186128798E+04  0.10100000352E+00 0. -1.
       -3   -1    0    0    0  501  0.00000000000E+00  0.00000000000E+00 -0.15611380999E+04  0.15611381032E+04  0.10100000352E+00 0.  1.
    10030    2    1    2    0    0  0.00000000000E+00  0.00000000000E+00  0.75747477768E+03  0.38797509829E+04  0.38050886521E+04 0.  0.
        4    1    3    3  502    0  0.46985669561E+03  0.13116210313E+04 -0.94227618895E+03  0.16819634578E+04  0.12699999809E+01 0.  1.
       -4    1    3    3    0  502 -0.46985669561E+03 -0.13116210313E+04  0.16997509666E+04  0.21977875251E+04  0.12699999809E+01 0. -1.
</event>
<event>
 5   0  0.5202788E-07  0.3737869E+04  0.7818609E-02  0.8059621E-01
       -2   -1    0    0    0  501  0.00000000000E+00  0.00000000000E+00  0.15738061636E+04  0.15738061637E+04  0.25500000920E-02 0. -1.
        2   -1    0    0  501    0  0.00000000000E+00  0.00000000000E+00 -0.22194070818E+04  0.22194070818E+04  0.25500000920E-02 0.  1.
    10030    2    1    2    0    0  0.00000000000E+00  0.00000000000E+00 -0.64560091815E+03  0.37932132455E+04  0.37378692032E+04 0.  0.
        1    1    3    3  502    0  0.67416082386E+03  0.25774009395E+03  0.14266719822E+04  0.15988482471E+04  0.50400001928E-02 0. -1.
       -1    1    3    3    0  502 -0.67416082386E+03 -0.25774009395E+03 -0.20722729003E+04  0.21943649984E+04  0.50400001928E-02 0.  1.
</event>
<event>
 5   0  0.1648000E-07  0.3772398E+04  0.7818609E-02  0.8052104E-01
       -1   -1    0    0    0  501  0.00000000000E+00  0.00000000000E+00  0.21911878932E+04  0.21911878932E+04  0.50400001928E-02 0.  1.
        1   -1    0    0  501    0  0.00000000000E+00  0.00000000000E+00 -0.16236615501E+04  0.16236615501E+04  0.50400001928E-02 0. -1.
    10030    2    1    2    0    0  0.00000000000E+00  0.00000000000E+00  0.56752634308E+03  0.38148494434E+04  0.37723984579E+04 0.  0.
        2    1    3    3  502    0  0.28549550769E+03  0.18619805786E+04  0.18640848347E+03  0.18929414895E+04  0.25500000920E-02 0.  1.
       -2    1    3    3    0  502 -0.28549550769E+03 -0.18619805786E+04  0.38111785961E+03  0.19219079538E+04  0.25500000920E-02 0. -1.
</event>
<event>
 5   0  0.5132561E-07  0.3145801E+04  0.7818609E-02  0.8203279E-01
        2   -1    0    0  501    0  0.00000000000E+00  0.00000000000E+00  0.15076345786E+04  0.15076345787E+04  0.25500000920E-02 0. -1.
       -2   -1    0    0    0  501  0.00000000000E+00  0.00000000000E+00 -0.16409916760E+04  0.16409916760E+04  0.25500000920E-02 0.  1.
    10030    2    1    2    0    0  0.00000000000E+00  0.00000000000E+00 -0.13335709735E+03  0.31486262547E+04  0.31458008799E+04 0.  0.
        3    1    3    3  502    0 -0.54076214971E+03 -0.11876429030E+04 -0.94558818336E+03  0.16115385165E+04  0.10100000352E+00 0.  1.
       -3    1    3    3    0  502  0.54076214971E+03  0.11876429030E+04  0.81223108600E+03  0.15370877381E+04  0.10100000352E+00 0. -1.
</event>
<event>
 5   0  0.5325362E-07  0.3752226E+04  0.7818609E-02  0.8056485E-01
        2   -1    0    0  501    0  0.00000000000E+00  0.00000000000E+00  0.23113577164E+04  0.23113577164E+04  0.25500000920E-02 0.  1.
       -2   -1    0    0    0  501  0.00000000000E+00  0.00000000000E+00 -0.15228277919E+04  0.15228277919E+04  0.25500000920E-02 0. -1.
    10030    2    1    2    0    0  0.00000000000E+00  0.00000000000E+00  0.78852992453E+03  0.38341855083E+04  0.37522258821E+04 0.  0.
        4    1    3    3  502    0 -0.98004596406E+03  0.83271439279E+03 -0.10015495975E+04  0.16300326870E+04  0.12699999809E+01 0. -1.
       -4    1    3    3    0  502  0.98004596406E+03 -0.83271439279E+03  0.17900795220E+04  0.22041528213E+04  0.12699999809E+01 0.  1.
</event>
<event>
 5   0  0.5134434E-07  0.3813448E+04  0.7818609E-02  0.8043275E-01
        2   -1    0    0  501    0  0.00000000000E+00  0.00000000000E+00  0.19385124680E+04  0.19385124680E+04  0.25500000920E-02 0.  1.
       -2   -1    0    0    0  501  0.00000000000E+00  0.00000000000E+00 -0.18754564932E+04  0.18754564932E+04  0.25500000920E-02 0. -1.
    10030    2    1    2    0    0  0.00000000000E+00  0.00000000000E+00  0.63055974798E+02  0.38139689612E+04  0.38134476765E+04 0.  0.
        5    1    3    3  502    0 -0.88450354074E+03 -0.70538786431E+03  0.15665521618E+04  0.19323628848E+04  0.46999998093E+01 0.  1.
       -5    1    3    3    0  502  0.88450354074E+03  0.70538786431E+03 -0.15034961870E+04  0.18816060765E+04  0.46999998093E+01 0. -1.
</event>
<event>
 5   0  0.1648000E-07  0.3759969E+04  0.7818609E-02  0.8054800E-01
       -1   -1    0    0    0  501  0.00000000000E+00  0.00000000000E+00  0.21001146961E+04  0.21001146961E+04  0.50400001928E-02 0.  1.
        1   -1    0    0  501    0  0.00000000000E+00  0.00000000000E+00 -0.16829279141E+04  0.16829279141E+04  0.50400001928E-02 0. -1.
    10030    2    1    2    0    0  0.00000000000E+00  0.00000000000E+00  0.41718678197E+03  0.37830426102E+04  0.37599689599E+04 0.  0.
        1    1    3    3  502    0  0.17696153323E+04 -0.63436771342E+03  0.22822787888E+03  0.18936865593E+04  0.50400001928E-02 0. -1.
       -1    1    3    3    0  502 -0.17696153323E+04  0.63436771342E+03  0.18895890309E+03  0.18893560509E+04  0.50400001928E-02 0.  1.
</event>
<event>
 5   0  0.1648000E-07  0.3888770E+04  0.7818609E-02  0.8027369E-01
        1   -1    0    0  501    0  0.00000000000E+00  0.00000000000E+00  0.21047030231E+04  0.21047030231E+04  0.50400001928E-02 0. -1.
       -1   -1    0    0    0  501  0.00000000000E+00  0.00000000000E+00 -0.17962787540E+04  0.17962787540E+04  0.50400001928E-02 0.  1.
    10030    2    1    2    0    0  0.00000000000E+00  0.00000000000E+00  0.30842426912E+03  0.39009817771E+04  0.38887701521E+04 0.  0.
        3    1    3    3  502    0  0.22901699202E+03  0.14085425251E+04  0.14790381646E+04  0.20552359305E+04  0.10100000352E+00 0. -1.
       -3    1    3    3    0  502 -0.22901699202E+03 -0.14085425251E+04 -0.11706138954E+04  0.18457458466E+04  0.10100000352E+00 0.  1.
</event>
<event>
 5   0  0.1648000E-07  0.3822169E+04  0.7818609E-02  0.8041414E-01
       -1   -1    0    0    0  501  0.00000000000E+00  0.00000000000E+00  0.15756283875E+04  0.15756283875E+04  0.50400001928E-02 0.  1.
        1   -1    0    0  501    0  0.00000000000E+00  0.00000000000E+00 -0.23179608341E+04  0.23179608341E+04  0.50400001928E-02 0. -1.
    10030    2    1    2    0    0  0.00000000000E+00  0.00000000000E+00 -0.74233244655E+03  0.38935892216E+04  0.38221694841E+04 0.  0.
        4    1    3    3  502    0  0.18195087229E+04  0.44076876087E+03  0.19873996202E+02  0.18722408183E+04  0.12699999809E+01 0.  1.
       -4    1    3    3    0  502 -0.18195087229E+04 -0.44076876087E+03 -0.76220644276E+03  0.20213484033E+04  0.12699999809E+01 0. -1.
</event>
<event>
 5   0  0.1656617E-07  0.3235472E+04  0.7818609E-02  0.8179511E-01
        1   -1    0    0  501    0  0.00000000000E+00  0.00000000000E+00  0.16235194844E+04  0.16235194844E+04  0.50400001928E-02 0.  1.
       -1   -1    0    0    0  501  0.00000000000E+00  0.00000000000E+00 -0.16119734107E+04  0.16119734107E+04  0.50400001928E-02 0. -1.
    10030    2    1    2    0    0  0.00000000000E+00  0.00000000000E+00  0.11546073689E+02  0.32354928951E+04  0.32354722935E+04 0.  0.
        5    1    3    3  502    0 -0.92217026402E+03  0.10185027306E+04  0.85977047826E+03  0.16207939948E+04  0.46999998093E+01 0.  1.
       -5    1    3    3    0  502  0.92217026402E+03 -0.10185027306E+04 -0.84822440457E+03  0.16146989003E+04  0.46999998093E+01 0. -1.
</event>
<event>
 5   0  0.5132561E-07  0.2998254E+04  0.7818609E-02  0.8244230E-01
       -2   -1    0    0    0  501  0.00000000000E+00  0.00000000000E+00  0.10467110090E+04  0.10467110090E+04  0.25500000920E-02 0.  1.
        2   -1    0    0  501    0  0.00000000000E+00  0.00000000000E+00 -0.21470890280E+04  0.21470890280E+04  0.25500000920E-02 0. -1.
    10030    2    1    2    0    0  0.00000000000E+00  0.00000000000E+00 -0.11003780190E+04  0.31938000370E+04  0.29982539738E+04 0.  0.
        3    1    3    3  502    0  0.54883845755E+03  0.13939933229E+04 -0.49242426100E+03  0.15769980025E+04  0.10100000352E+00 0. -1.
       -3    1    3    3    0  502 -0.54883845755E+03 -0.13939933229E+04 -0.60795375800E+03  0.16168020345E+04  0.10100000352E+00 0.  1.
</event>
<event>
 5   0  0.1648000E-07  0.2965558E+04  0.7818609E-02  0.8253635E-01
       -1   -1    0    0    0  501  0.00000000000E+00  0.00000000000E+00  0.14680773146E+04  0.14680773146E+04  0.50400001928E-02 0. -1.
        1   -1    0    0  501    0  0.00000000000E+00  0.00000000000E+00 -0.14976281966E+04  0.14976281966E+04  0.50400001928E-02 0.  1.
    10030    2    1    2    0    0  0.00000000000E+00  0.00000000000E+00 -0.29550882016E+02  0.29657055112E+04  0.29655582821E+04 0.  0.
        2    1    3    3  502    0  0.91808082150E+03 -0.10705140062E+04  0.44324440268E+03  0.14782889544E+04  0.25500000920E-02 0. -1.
       -2    1    3    3    0  502 -0.91808082150E+03  0.10705140062E+04 -0.47279528470E+03  0.14874165568E+04  0.25500000920E-02 0.  1.
</event>
<event>
 5   0  0.1648000E-07  0.3706405E+04  0.7818609E-02  0.8066544E-01
        1   -1    0    0  501    0  0.00000000000E+00  0.00000000000E+00  0.19254016563E+04  0.19254016563E+04  0.50400001928E-02 0.  1.
       -1   -1    0    0    0  501  0.00000000000E+00  0.00000000000E+00 -0.17837103919E+04  0.17837103919E+04  0.50400001928E-02 0. -1.
    10030    2    1    2    0    0  0.00000000000E+00  0.00000000000E+00  0.14169126437E+03  0.37091120483E+04  0.37064046962E+04 0.  0.
        4    1    3    3  502    0 -0.13296173414E+04  0.14231487425E+03 -0.12131432242E+04  0.18055065476E+04  0.12699999809E+01 0. -1.
       -4    1    3    3    0  502  0.13296173414E+04 -0.14231487425E+03  0.13548344886E+04  0.19036055007E+04  0.12699999809E+01 0.  1.
</event>
<event>
 5   0  0.1648000E-07  0.3827738E+04  0.7818609E-02  0.8040228E-01
        1   -1    0    0  501    0  0.00000000000E+00  0.00000000000E+00  0.13217767209E+04  0.13217767209E+04  0.50400001928E-02 0.  1.
       -1   -1    0    0    0  501  0.00000000000E+00  0.00000000000E+00 -0.27711907780E+04  0.27711907780E+04  0.50400001928E-02 0. -1.
    10030    2    1    2    0    0  0.00000000000E+00  0.00000000000E+00 -0.14494140571E+04  0.40929674988E+04  0.38277384756E+04 0.  0.
        3    1    3    3  502    0  0.16405082578E+03 -0.47866244004E+03 -0.26983723191E+04  0.27454040846E+04  0.10100000352E+00 0. -1.
       -3    1    3    3    0  502 -0.16405082578E+03  0.47866244004E+03  0.12489582620E+04  0.13475634142E+04  0.10100000352E+00 0.  1.
</event>
<event>
 5   0  0.1648000E-07  0.3753195E+04  0.7818609E-02  0.8056274E-01
       -1   -1    0    0    0  501  0.00000000000E+00  0.00000000000E+00  0.24713710268E+04  0.24713710268E+04  0.50400001928E-02 0. -1.
        1   -1    0    0  501    0  0.00000000000E+00  0.00000000000E+00 -0.14249657246E+04  0.14249657247E+04  0.50400001928E-02 0.  1.
    10030    2    1    2    0    0  0.00000000000E+00  0.00000000000E+00  0.10464053022E+04  0.38963367515E+04  0.37531954418E+04 0.  0.
        4    1    3    3  502    0  0.75244466690E+03  0.15371168458E+04  0.13224454101E+04  0.21628140581E+04  0.12699999809E+01 0. -1.
       -4    1    3    3    0  502 -0.75244466690E+03 -0.15371168458E+04 -0.27604010788E+03  0.17335226934E+04  0.12699999809E+01 0.  1.
</event>
<event>
 5   0  0.5158266E-07  0.3840429E+04  0.7818609E-02  0.8037534E-01
       -2   -1    0    0    0  501  0.00000000000E+00  0.00000000000E+00  0.14989011454E+04  0.14989011455E+04  0.25500000920E-02 0.  1.
        2   -1    0    0  501    0  0.00000000000E+00  0.00000000000E+00 -0.24599512813E+04  0.24599512813E+04  0.25500000920E-02 0. -1.
    10030    2    1    2    0    0  0.00000000000E+00  0.00000000000E+00 -0.96105013586E+03  0.39588524268E+04  0.38404290351E+04 0.  0.
        2    1    3    3  502    0  0.36696351001E+03 -0.27119749518E+03  0.14422019329E+04  0.15126654337E+04  0.25500000920E-02 0.  1.
       -2    1    3    3    0  502 -0.36696351001E+03  0.27119749518E+03 -0.24032520688E+04  0.24461869931E+04  0.25500000920E-02 0. -1.
</event>
<event>
 5   0  0.5134434E-07  0.3828657E+04  0.7818609E-02  0.8040033E-01
        2   -1    0    0  501    0  0.00000000000E+00  0.00000000000E+00  0.17982499565E+04  0.17982499565E+04  0.25500000920E-02 0. -1.
       -2   -1    0    0    0  501  0.00000000000E+00  0.00000000000E+00 -0.20379005025E+04  0.20379005025E+04  0.25500000920E-02 0.  1.
    10030    2    1    2    0    0  0.00000000000E+00  0.00000000000E+00 -0.23965054608E+03  0.38361504590E+04  0.38286574618E+04 0.  0.
        5    1    3    3  502    0 -0.23297509987E+03  0.15046418556E+04  0.10427937996E+04  0.18454445289E+04  0.46999998093E+01 0.  1.
       -5    1    3    3    0  502  0.23297509987E+03 -0.15046418556E+04 -0.12824443456E+04  0.19907059302E+04  0.46999998093E+01 0. -1.
</event>
<event>
 5   0  0.5132561E-07  0.3771246E+04  0.7818609E-02  0.8052354E-01
        2   -1    0    0  501    0  0.00000000000E+00  0.00000000000E+00  0.27828669932E+04  0.27828669932E+04  0.25500000920E-02 0.  1.
       -2   -1    0    0    0  501  0.00000000000E+00  0.00000000000E+00 -0.12776656706E+04  0.12776656706E+04  0.25500000920E-02 0. -1.
    10030    2    1    2    0    0  0.00000000000E+00  0.00000000000E+00  0.15052013225E+04  0.40605326638E+04  0.37712457481E+04 0.  0.
        3    1    3    3  502    0  0.63073245093E+03  0.51610679539E+03 -0.10782421489E+04  0.13515900972E+04  0.10100000352E+00 0. -1.
       -3    1    3    3    0  502 -0.63073245093E+03 -0.51610679539E+03  0.25834434715E+04  0.27089425666E+04  0.10100000352E+00 0.  1.
</event>
<event>
 5   0  0.5134434E-07  0.3770869E+04  0.7818609E-02  0.8052435E-01
       -2   -1    0    0    0  501  0.00000000000E+00  0.00000000000E+00  0.11884595726E+04  0.11884595726E+04  0.25500000920E-02 0.  1.
        2   -1    0    0  501    0  0.00000000000E+00  0.00000000000E+00 -0.29911520868E+04  0.29911520868E+04  0.25500000920E-02 0. -1.
    10030    2    1    2    0    0  0.00000000000E+00  0.00000000000E+00 -0.18026925141E+04  0.41796116594E+04  0.37708690408E+04 0.  0.
        5    1    3    3  502    0  0.13300251612E+04  0.81733836042E+03 -0.20732253666E+04  0.25952445810E+04  0.46999998093E+01 0. -1.
       -5    1    3    3    0  502 -0.13300251612E+04 -0.81733836042E+03  0.27053285243E+03  0.15843670784E+04  0.46999998093E+01 0.  1.
</event>
<event>
 5   0  0.1648000E-07  0.3805330E+04  0.7818609E-02  0.8045012E-01
       -1   -1    0    0    0  501  0.00000000000E+00  0.00000000000E+00  0.22644198247E+04  0.22644198247E+04  0.50400001928E-02 0.  1.
        1   -1    0    0  501    0  0.00000000000E+00  0.00000000000E+00 -0.15987029565E+04  0.15987029565E+04  0.50400001928E-02 0. -1.
    10030    2    1    2    0    0  0.00000000000E+00  0.00000000000E+00  0.66571686818E+03  0.38631227812E+04  0.38053302976E+04 0.  0.
        4    1    3    3  502    0 -0.82735486146E+03 -0.21718636612E+03 -0.13924961397E+04  0.16342377723E+04  0.12699999809E+01 0. -1.
       -4    1    3    3    0  502  0.82735486146E+03  0.21718636612E+03  0.20582130078E+04  0.22288850089E+04  0.12699999809E+01 0.  1.
</event>
<event>
 5   0  0.1656617E-07  0.3784309E+04  0.7818609E-02  0.8049531E-01
       -1   -1    0    0    0  501  0.00000000000E+00  0.00000000000E+00  0.26760502216E+04  0.26760502216E+04  0.50400001928E-02 0.  1.
        1   -1    0    0  501    0  0.00000000000E+00  0.00000000000E+00 -0.13378852188E+04  0.13378852189E+04  0.50400001928E-02 0. -1.
    10030    2    1    2    0    0  0.00000000000E+00  0.00000000000E+00  0.13381650028E+04  0.40139354405E+04  0.37843086747E+04 0.  0.
        5    1    3    3  502    0  0.17027645286E+04 -0.66966069989E+03  0.11803840240E+04  0.21774253207E+04  0.46999998093E+01 0.  1.
       -5    1    3    3    0  502 -0.17027645286E+04  0.66966069989E+03  0.15778097882E+03  0.18365101198E+04  0.46999998093E+01 0. -1.
</event>
<event>
 5   0  0.1648000E-07  0.3714630E+04  0.7818609E-02  0.8064727E-01
        1   -1    0    0  501    0  0.00000000000E+00  0.00000000000E+00  0.23352987629E+04  0.23352987629E+04  0.50400001928E-02 0. -1.
       -1   -1    0    0    0  501  0.00000000000E+00  0.00000000000E+00 -0.14771638277E+04  0.14771638277E+04  0.50400001928E-02 0.  1.
    10030    2    1    2    0    0  0.00000000000E+00  0.00000000000E+00  0.85813493522E+03  0.38124625906E+04  0.37146299194E+04 0.  0.
        3    1    3    3  502    0  0.27789147174E+03  0.85073278620E+03 -0.12412623556E+04  0.15302621309E+04  0.10100000352E+00 0.  1.
       -3    1    3    3    0  502 -0.27789147174E+03 -0.85073278620E+03  0.20993972908E+04  0.22822004597E+04  0.10100000352E+00 0. -1.
</event>
<event>
 5   0  0.1656617E-07  0.3778919E+04  0.7818609E-02  0.8050694E-01
       -1   -1    0    0    0  501  0.00000000000E+00  0.00000000000E+00  0.13419071865E+04  0.13419071865E+04  0.50400001928E-02 0.  1.
        1   -1    0    0  501    0  0.00000000000E+00  0.00000000000E+00 -0.26604358430E+04  0.26604358430E+04  0.50400001928E-02 0. -1.
    10030    2    1    2    0    0  0.00000000000E+00  0.00000000000E+00 -0.13185286565E+04  0.40023430295E+04  0.37789194101E+04 0.  0.
        5    1    3    3  502    0 -0.11024642563E+04 -0.11266311239E+04  0.44411217808E+03  0.16376760493E+04  0.46999998093E+01 0.  1.
       -5    1    3    3    0  502  0.11024642563E+04  0.11266311239E+04 -0.17626408346E+04  0.23646669802E+04  0.46999998093E+01 0. -1.
</event>
<event>
 5   0  0.5158266E-07  0.3675551E+04  0.7818609E-02  0.8073402E-01
        2   -1    0    0  501    0  0.00000000000E+00  0.00000000000E+00  0.23770837025E+04  0.23770837025E+04  0.25500000920E-02 0. -1.
       -2   -1    0    0    0  501  0.00000000000E+00  0.00000000000E+00 -0.14208242058E+04  0.14208242058E+04  0.25500000920E-02 0.  1.
    10030    2    1    2    0    0  0.00000000000E+00  0.00000000000E+00  0.95625949662E+03  0.37979079083E+04  0.36755506057E+04 0.  0.
        2    1    3    3  502    0  0.14039241876E+04 -0.86970544996E+03 -0.35495243151E+03  0.16891956437E+04  0.25500000920E-02 0. -1.
       -2    1    3    3    0  502 -0.14039241876E+04  0.86970544996E+03  0.13112119281E+04  0.21087122645E+04  0.25500000920E-02 0.  1.
</event>
<event>
 5   0  0.5132561E-07  0.3800537E+04  0.7818609E-02  0.8046040E-01
        2   -1    0    0  501    0  0.00000000000E+00  0.00000000000E+00  0.19559782467E+04  0.19559782467E+04  0.25500000920E-02 0. -1.
       -2   -1    0    0    0  501  0.00000000000E+00  0.00000000000E+00 -0.18461452535E+04  0.18461452535E+04  0.25500000920E-02 0.  1.
    10030    2    1    2    0    0  0.00000000000E+00  0.00000000000E+00  0.10983299325E+03  0.38021235002E+04  0.38005367811E+04 0.  0.
        3    1    3    3  502    0  0.12761419481E+04 -0.11132689466E+04  0.91731695724E+03  0.19259741508E+04  0.10100000352E+00 0. -1.
       -3    1    3    3    0  502 -0.12761419481E+04  0.11132689466E+04 -0.80748396399E+03  0.18761493494E+04  0.10100000352E+00 0.  1.
</event>
<event>
 5   0  0.5132561E-07  0.3809282E+04  0.7818609E-02  0.8044166E-01
        2   -1    0    0  501    0  0.00000000000E+00  0.00000000000E+00  0.16446401346E+04  0.16446401346E+04  0.25500000920E-02 0. -1.
       -2   -1    0    0    0  501  0.00000000000E+00  0.00000000000E+00 -0.22057458889E+04  0.22057458889E+04  0.25500000920E-02 0.  1.
    10030    2    1    2    0    0  0.00000000000E+00  0.00000000000E+00 -0.56110575429E+03  0.38503860235E+04  0.38092824604E+04 0.  0.
        3    1    3    3  502    0  0.15039315522E+04  0.10440324381E+04  0.25032319305E+03  0.18478299588E+04  0.10100000352E+00 0. -1.
       -3    1    3    3    0  502 -0.15039315522E+04 -0.10440324381E+04 -0.81142894734E+03  0.20025560647E+04  0.10100000352E+00 0.  1.
</event>
<event>
 5   0  0.1648000E-07  0.3779514E+04  0.7818609E-02  0.8050566E-01
        1   -1    0    0  501    0  0.00000000000E+00  0.00000000000E+00  0.28839325375E+04  0.28839325375E+04  0.50400001928E-02 0. -1.
       -1   -1    0    0    0  501  0.00000000000E+00  0.00000000000E+00 -0.12383024496E+04  0.12383024496E+04  0.50400001928E-02 0.  1.
    10030    2    1    2    0    0  0.00000000000E+00  0.00000000000E+00  0.16456300879E+04  0.41222349871E+04  0.37795135802E+04 0.  0.
        2    1    3    3  502    0  0.94654211933E+03 -0.27800635425E+03  0.25807885681E+04  0.27629149733E+04  0.25500000920E-02 0. -1.
       -2    1    3    3    0  502 -0.94654211933E+03  0.27800635425E+03 -0.93515848020E+03  0.13593200137E+04  0.25500000920E-02 0.  1.
</event>
<event>
 5   0  0.5325362E-07  0.3865532E+04  0.7818609E-02  0.8032236E-01
        2   -1    0    0  501    0  0.00000000000E+00  0.00000000000E+00  0.17528021119E+04  0.17528021119E+04  0.25500000920E-02 0.  1.
       -2   -1    0    0    0  501  0.00000000000E+00  0.00000000000E+00 -0.21312076232E+04  0.21312076232E+04  0.25500000920E-02 0. -1.
    10030    2    1    2    0    0  0.00000000000E+00  0.00000000000E+00 -0.37840551135E+03  0.38840097351E+04  0.38655324202E+04 0.  0.
        4    1    3    3  502    0  0.17709191355E+04  0.40880879188E+03 -0.84984420186E+03  0.20063688577E+04  0.12699999809E+01 0. -1.
       -4    1    3    3    0  502 -0.17709191355E+04 -0.40880879188E+03  0.47143869051E+03  0.18776408774E+04  0.12699999809E+01 0.  1.
</event>
<event>
 5   0  0.5132561E-07  0.3870970E+04  0.7818609E-02  0.8031094E-01
        2   -1    0    0  501    0  0.00000000000E+00  0.00000000000E+00  0.20371222957E+04  0.20371222957E+04  0.25500000920E-02 0.  1.
       -2   -1    0    0    0  501  0.00000000000E+00  0.00000000000E+00 -0.18389189443E+04  0.18389189443E+04  0.25500000920E-02 0. -1.
    10030    2    1    2    0    0  0.00000000000E+00  0.00000000000E+00  0.19820335140E+03  0.38760412400E+04  0.38709703080E+04 0.  0.
        3    1    3    3  502    0  0.86578755312E+03 -0.10358100287E+04 -0.12896587049E+04  0.18670056476E+04  0.10100000352E+00 0. -1.
       -3    1    3    3    0  502 -0.86578755312E+03  0.10358100287E+04  0.14878620563E+04  0.20090355924E+04  0.10100000352E+00 0.  1.
</event>
<event>
 5   0  0.5132561E-07  0.3777397E+04  0.7818609E-02  0.8051023E-01
       -2   -1    0    0    0  501  0.00000000000E+00  0.00000000000E+00  0.24192415034E+04  0.24192415034E+04  0.25500000920E-02 0. -1.
        2   -1    0    0  501    0  0.00000000000E+00  0.00000000000E+00 -0.14745044225E+04  0.14745044225E+04  0.25500000920E-02 0.  1.
    10030    2    1    2    0    0  0.00000000000E+00  0.00000000000E+00  0.94473708089E+03  0.38937459259E+04  0.37773971440E+04 0.  0.
        3    1    3    3  502    0 -0.14845811492E+04 -0.66148735122E+03 -0.51936495634E+03  0.17062492996E+04  0.10100000352E+00 0.  1.
       -3    1    3    3    0  502  0.14845811492E+04  0.66148735122E+03  0.14641020372E+04  0.21874966263E+04  0.10100000352E+00 0. -1.
</event>
<event>
 5   0  0.5132561E-07  0.3770903E+04  0.7818609E-02  0.8052428E-01
       -2   -1    0    0    0  501  0.00000000000E+00  0.00000000000E+00  0.14540268902E+04  0.14540268902E+04  0.25500000920E-02 0. -1.
        2   -1    0    0  501    0  0.00000000000E+00  0.00000000000E+00 -0.24448835582E+04  0.24448835582E+04  0.25500000920E-02 0.  1.
    10030    2    1    2    0    0  0.00000000000E+00  0.00000000000E+00 -0.99085666806E+03  0.38989104484E+04  0.37709025111E+04 0.  0.
        3    1    3    3  502    0  0.42633630664E+03 -0.15580228725E+03  0.13966902867E+04  0.14685982317E+04  0.10100000352E+00 0. -1.
       -3    1    3    3    0  502 -0.42633630664E+03  0.15580228725E+03 -0.23875469548E+04  0.24303122167E+04  0.10100000352E+00 0.  1.
</event>
<event>
 5   0  0.5134434E-07  0.3771352E+04  0.7818609E-02  0.8052331E-01
        2   -1    0    0  501    0  0.00000000000E+00  0.00000000000E+00  0.22734404399E+04  0.22734404399E+04  0.25500000920E-02 0. -1.
       -2   -1    0    0    0  501  0.00000000000E+00  0.00000000000E+00 -0.15640496445E+04  0.15640496445E+04  0.25500000920E-02 0.  1.
    10030    2    1    2    0    0  0.00000000000E+00  0.00000000000E+00  0.70939079543E+03  0.38374900845E+04  0.37713518594E+04 0.  0.
        5    1    3    3  502    0 -0.10364855706E+04 -0.12024768275E+04 -0.68074476282E+03  0.17273356306E+04  0.46999998093E+01 0.  1.
       -5    1    3    3    0  502  0.10364855706E+04  0.12024768275E+04  0.13901355582E+04  0.21101544538E+04  0.46999998093E+01 0. -1.
</event>
<event>
 5   0  0.1648000E-07  0.3900947E+04  0.7818609E-02  0.8024832E-01
        1   -1    0    0  501    0  0.00000000000E+00  0.00000000000E+00  0.19766144082E+04  0.19766144082E+04  0.50400001928E-02 0.  1.
       -1   -1    0    0    0  501  0.00000000000E+00  0.00000000000E+00 -0.19246786614E+04  0.19246786614E+04  0.50400001928E-02 0. -1.
    10030    2    1    2    0    0  0.00000000000E+00  0.00000000000E+00  0.51935746795E+02  0.39012930696E+04  0.39009473584E+04 0.  0.
        3    1    3    3  502    0  0.53428345512E+03  0.95176234393E+03  0.16426002870E+04  0.19721678638E+04  0.10100000352E+00 0.  1.
       -3    1    3    3    0  502 -0.53428345512E+03 -0.95176234393E+03 -0.15906645403E+04  0.19291252058E+04  0.10100000352E+00 0. -1.
</event>
<event>
 5   0  0.1648000E-07  0.3802833E+04  0.7818609E-02  0.8045547E-01
       -1   -1    0    0    0  501  0.00000000000E+00  0.00000000000E+00  0.12894451969E+04  0.12894451969E+04  0.50400001928E-02 0. -1.
        1   -1    0    0  501    0  0.00000000000E+00  0.00000000000E+00 -0.28038293097E+04  0.28038293097E+04  0.50400001928E-02 0.  1.
    10030    2    1    2    0    0  0.00000000000E+00  0.00000000000E+00 -0.15143841127E+04  0.40932745066E+04  0.38028327528E+04 0.  0.
        2    1    3    3  502    0  0.10077667768E+04 -0.11024080741E+03  0.97427944713E+03  0.14060467109E+04  0.25500000920E-02 0. -1.
       -2    1    3    3    0  502 -0.10077667768E+04  0.11024080741E+03 -0.24886635599E+04  0.26872277957E+04  0.25500000920E-02 0.  1.
</event>
<event>
 5   0  0.1648000E-07  0.3653081E+04  0.7818609E-02  0.8078440E-01
       -1   -1    0    0    0  501  0.00000000000E+00  0.00000000000E+00  0.23686199577E+04  0.23686199578E+04  0.50400001928E-02 0. -1.
        1   -1    0    0  501    0  0.00000000000E+00  0.00000000000E+00 -0.14085210208E+04  0.14085210209E+04  0.50400001928E-02 0.  1.
    10030    2    1    2    0    0  0.00000000000E+00  0.00000000000E+00  0.96009893691E+03  0.37771409786E+04  0.36530814395E+04 0.  0.
        4    1    3    3  502    0 -0.11475758405E+03  0.73561437907E+03  0.22046107174E+04  0.23269309930E+04  0.12699999809E+01 0. -1.
       -4    1    3    3    0  502  0.11475758405E+03 -0.73561437907E+03 -0.12445117805E+04  0.14502099857E+04  0.12699999809E+01 0.  1.
</event>
<event>
 5   0  0.5132561E-07  0.3733291E+04  0.7818609E-02  0.8060624E-01
       -2   -1    0    0    0  501  0.00000000000E+00  0.00000000000E+00  0.14865334254E+04  0.14865334254E+04  0.25500000920E-02 0. -1.
        2   -1    0    0  501    0  0.00000000000E+00  0.00000000000E+00 -0.23439536151E+04  0.23439536151E+04  0.25500000920E-02 0.  1.
    10030    2    1    2    0    0  0.00000000000E+00  0.00000000000E+00 -0.85742018972E+03  0.38304870405E+04  0.37332909859E+04 0.  0.
        3    1    3    3  502    0 -0.56759663242E+03 -0.64702054411E+02  0.13946360317E+04  0.15071038333E+04  0.10100000352E+00 0. -1.
       -3    1    3    3    0  502  0.56759663242E+03  0.64702054411E+02 -0.22520562215E+04  0.23233832073E+04  0.10100000352E+00 0.  1.
</event>
<event>
 5   0  0.5132561E-07  0.3782178E+04  0.7818609E-02  0.8049990E-01
       -2   -1    0    0    0  501  0.00000000000E+00  0.00000000000E+00  0.14074502896E+04  0.14074502896E+04  0.25500000920E-02 0. -1.
        2   -1    0    0  501    0  0.00000000000E+00  0.00000000000E+00 -0.25409196680E+04  0.25409196680E+04  0.25500000920E-02 0.  1.
    10030    2    1    2    0    0  0.00000000000E+00  0.00000000000E+00 -0.11334693784E+04  0.39483699576E+04  0.37821782732E+04 0.  0.
        3    1    3    3  502    0  0.58472201285E+02 -0.52159775116E+03  0.13298889791E+04  0.14297160274E+04  0.10100000352E+00 0. -1.
       -3    1    3    3    0  502 -0.58472201285E+02  0.52159775116E+03 -0.24633583574E+04  0.25186539301E+04  0.10100000352E+00 0.  1.
</event>
<event>
 5   0  0.5202788E-07  0.3788001E+04  0.7818609E-02  0.8048735E-01
        2   -1    0    0  501    0  0.00000000000E+00  0.00000000000E+00  0.16846839336E+04  0.16846839336E+04  0.25500000920E-02 0. -1.
       -2   -1    0    0    0  501  0.00000000000E+00  0.00000000000E+00 -0.21293237370E+04  0.21293237370E+04  0.25500000920E-02 0.  1.
    10030    2    1    2    0    0  0.00000000000E+00  0.00000000000E+00 -0.44463980334E+03  0.38140076706E+04  0.37880007862E+04 0.  0.
        1    1    3    3  502    0 -0.69906347304E+03 -0.17553257863E+04 -0.35505493476E+03  0.19224781825E+04  0.50400001928E-02 0.  1.
       -1    1    3    3    0  502  0.69906347304E+03  0.17553257863E+04 -0.89584868573E+02  0.18915294881E+04  0.50400001928E-02 0. -1.
</event>
<event>
 5   0  0.1648000E-07  0.3794927E+04  0.7818609E-02  0.8047244E-01
       -1   -1    0    0    0  501  0.00000000000E+00  0.00000000000E+00  0.11983807203E+04  0.11983807204E+04  0.50400001928E-02 0.  1.
        1   -1    0    0  501    0  0.00000000000E+00  0.00000000000E+00 -0.30043599122E+04  0.30043599122E+04  0.50400001928E-02 0. -1.
    10030    2    1    2    0    0  0.00000000000E+00  0.00000000000E+00 -0.18059791918E+04  0.42027406325E+04  0.37949266110E+04 0.  0.
        1    1    3    3  502    0  0.16564652752E+04  0.62674051456E+03 -0.14886821705E+03  0.17773133169E+04  0.50400001928E-02 0.  1.
       -1    1    3    3    0  502 -0.16564652752E+04 -0.62674051456E+03 -0.16571109748E+04  0.24254273156E+04  0.50400001928E-02 0. -1.
</event>
<event>
 5   0  0.5158266E-07  0.3879447E+04  0.7818609E-02  0.8029317E-01
       -2   -1    0    0    0  501  0.00000000000E+00  0.00000000000E+00  0.16635038041E+04  0.16635038041E+04  0.25500000920E-02 0. -1.
        2   -1    0    0  501    0  0.00000000000E+00  0.00000000000E+00 -0.22618087854E+04  0.22618087854E+04  0.25500000920E-02 0.  1.
    10030    2    1    2    0    0  0.00000000000E+00  0.00000000000E+00 -0.59830498130E+03  0.39253125895E+04  0.38794471352E+04 0.  0.
        2    1    3    3  502    0 -0.16921202462E+04  0.85617563481E+02  0.65643152264E+03  0.18170040283E+04  0.25500000920E-02 0. -1.
       -2    1    3    3    0  502  0.16921202462E+04 -0.85617563481E+02 -0.12547365039E+04  0.21083085612E+04  0.25500000920E-02 0.  1.
</event>
<event>
 5   0  0.5132561E-07  0.3795103E+04  0.7818609E-02  0.8047207E-01
        2   -1    0    0  501    0  0.00000000000E+00  0.00000000000E+00  0.22455352029E+04  0.22455352029E+04  0.25500000920E-02 0.  1.
       -2   -1    0    0    0  501  0.00000000000E+00  0.00000000000E+00 -0.16034935097E+04  0.16034935097E+04  0.25500000920E-02 0. -1.
    10030    2    1    2    0    0  0.00000000000E+00  0.00000000000E+00  0.64204169323E+03  0.38490287125E+04  0.37951026988E+04 0.  0.
        3    1    3    3  502    0  0.18108778057E+04  0.54975298479E+03  0.18050858252E+03  0.19010760453E+04  0.10100000352E+00 0. -1.
       -3    1    3    3    0  502 -0.18108778057E+04 -0.54975298479E+03  0.46153311071E+03  0.19479526673E+04  0.10100000352E+00 0.  1.
</event>
<event>
 5   0  0.1648000E-07  0.3009495E+04  0.7818609E-02  0.8241025E-01
        1   -1    0    0  501    0  0.00000000000E+00  0.00000000000E+00  0.28191600347E+04  0.28191600347E+04  0.50400001928E-02 0.  1.
       -1   -1    0    0    0  501  0.00000000000E+00  0.00000000000E+00 -0.80316987149E+03  0.80316987150E+03  0.50400001928E-02 0. -1.
    10030    2    1    2    0    0  0.00000000000E+00  0.00000000000E+00  0.20159901632E+04  0.36223299062E+04  0.30094945774E+04 0.  0.
        1    1    3    3  502    0 -0.64814696502E+03  0.11756501732E+03  0.26363959154E+04  0.27174435494E+04  0.50400001928E-02 0.  1.
       -1    1    3    3    0  502  0.64814696502E+03 -0.11756501732E+03 -0.62040575211E+03  0.90488635686E+03  0.50400001928E-02 0. -1.
</event>
<event>
 5   0  0.5325362E-07  0.3833179E+04  0.7818609E-02  0.8039072E-01
       -2   -1    0    0    0  501  0.00000000000E+00  0.00000000000E+00  0.15305614600E+04  0.15305614600E+04  0.25500000920E-02 0. -1.
        2   -1    0    0  501    0  0.00000000000E+00  0.00000000000E+00 -0.23999793831E+04  0.23999793831E+04  0.25500000920E-02 0.  1.
    10030    2    1    2    0    0  0.00000000000E+00  0.00000000000E+00 -0.86941792315E+03  0.39305408431E+04  0.38331793323E+04 0.  0.
        4    1    3    3  502    0 -0.96076648727E+03 -0.15108591012E+04  0.26643266541E+03  0.18101810530E+04  0.12699999809E+01 0. -1.
       -4    1    3    3    0  502  0.96076648727E+03  0.15108591012E+04 -0.11358505886E+04  0.21203597900E+04  0.12699999809E+01 0.  1.
</event>
<event>
 5   0  0.1648000E-07  0.3693057E+04  0.7818609E-02  0.8069502E-01
       -3   -1    0    0    0  501  0.00000000000E+00  0.00000000000E+00  0.22436224572E+04  0.22436224595E+04  0.10100000352E+00 0.  1.
        3   -1    0    0  501    0  0.00000000000E+00  0.00000000000E+00 -0.15197150426E+04  0.15197150460E+04  0.10100000352E+00 0. -1.
    10030    2    1    2    0    0  0.00000000000E+00  0.00000000000E+00  0.72390741460E+03  0.37633375055E+04  0.36930566250E+04 0.  0.
        1    1    3    3  502    0 -0.16679563624E+04  0.66957424728E+03 -0.69493174469E+02  0.17986765693E+04  0.50400001928E-02 0. -1.
       -1    1    3    3    0  502  0.16679563624E+04 -0.66957424728E+03  0.79340058907E+03  0.19646609362E+04  0.50400001928E-02 0.  1.
</event>
<event>
 5   0  0.5134434E-07  0.3674827E+04  0.7818609E-02  0.8073564E-01
        2   -1    0    0  501    0  0.00000000000E+00  0.00000000000E+00  0.23115761385E+04  0.23115761385E+04  0.25500000920E-02 0.  1.
       -2   -1    0    0    0  501  0.00000000000E+00  0.00000000000E+00 -0.14605132097E+04  0.14605132097E+04  0.25500000920E-02 0. -1.
    10030    2    1    2    0    0  0.00000000000E+00  0.00000000000E+00  0.85106292879E+03  0.37720893482E+04  0.36748265186E+04 0.  0.
        5    1    3    3  502    0  0.92800284316E+03  0.13910499392E+03  0.20470658849E+04  0.22518970455E+04  0.46999998093E+01 0.  1.
       -5    1    3    3    0  502 -0.92800284316E+03 -0.13910499392E+03 -0.11960029561E+04  0.15201923027E+04  0.46999998093E+01 0. -1.
</event>
<event>
 5   0  0.5325362E-07  0.3762872E+04  0.7818609E-02  0.8054170E-01
       -2   -1    0    0    0  501  0.00000000000E+00  0.00000000000E+00  0.16556020144E+04  0.16556020144E+04  0.25500000920E-02 0. -1.
        2   -1    0    0  501    0  0.00000000000E+00  0.00000000000E+00 -0.21380750830E+04  0.21380750830E+04  0.25500000920E-02 0.  1.
    10030    2    1    2    0    0  0.00000000000E+00  0.00000000000E+00 -0.48247306864E+03  0.37936770974E+04  0.37628719959E+04 0.  0.
        4    1    3    3  502    0 -0.17950117966E+04 -0.45724446739E+03  0.91098147072E+02  0.18545728183E+04  0.12699999809E+01 0. -1.
       -4    1    3    3    0  502  0.17950117966E+04  0.45724446739E+03 -0.57357121571E+03  0.19391042791E+04  0.12699999809E+01 0.  1.
</event>
<event>
 5   0  0.5132561E-07  0.3801494E+04  0.7818609E-02  0.8045834E-01
        2   -1    0    0  501    0  0.00000000000E+00  0.00000000000E+00  0.26933980204E+04  0.26933980204E+04  0.25500000920E-02 0.  1.
       -2   -1    0    0    0  501  0.00000000000E+00  0.00000000000E+00 -0.13413684953E+04  0.13413684953E+04  0.25500000920E-02 0. -1.
    10030    2    1    2    0    0  0.00000000000E+00  0.00000000000E+00  0.13520295251E+04  0.40347665157E+04  0.38014940483E+04 0.  0.
        3    1    3    3  502    0  0.68590990073E+03  0.13524438466E+04 -0.54028287437E+03  0.16098081702E+04  0.10100000352E+00 0. -1.
       -3    1    3    3    0  502 -0.68590990073E+03 -0.13524438466E+04  0.18923123995E+04  0.24249583455E+04  0.10100000352E+00 0.  1.
</event>
<event>
 5   0  0.5132561E-07  0.4414349E+04  0.7818609E-02  0.7925806E-01
        2   -1    0    0  501    0  0.00000000000E+00  0.00000000000E+00  0.18525287481E+04  0.18525287481E+04  0.25500000920E-02 0. -1.
       -2   -1    0    0    0  501  0.00000000000E+00  0.00000000000E+00 -0.26297134842E+04  0.26297134842E+04  0.25500000920E-02 0.  1.
    10030    2    1    2    0    0  0.00000000000E+00  0.00000000000E+00 -0.77718473609E+03  0.44822422323E+04  0.44143492516E+04 0.  0.
        3    1    3    3  502    0  0.83732652421E+03  0.36505094314E+03  0.16515995359E+04  0.18873682567E+04  0.10100000352E+00 0. -1.
       -3    1    3    3    0  502 -0.83732652421E+03 -0.36505094314E+03 -0.24287842720E+04  0.25948739756E+04  0.10100000352E+00 0.  1.
</event>
<event>
 5   0  0.5325362E-07  0.3814258E+04  0.7818609E-02  0.8043102E-01
       -2   -1    0    0    0  501  0.00000000000E+00  0.00000000000E+00  0.19721391898E+04  0.19721391898E+04  0.25500000920E-02 0. -1.
        2   -1    0    0  501    0  0.00000000000E+00  0.00000000000E+00 -0.18442615411E+04  0.18442615411E+04  0.25500000920E-02 0.  1.
    10030    2    1    2    0    0  0.00000000000E+00  0.00000000000E+00  0.12787764868E+03  0.38164007309E+04  0.38142577057E+04 0.  0.
        4    1    3    3  502    0 -0.44639100226E+03  0.16520326912E+04  0.90623238962E+03  0.19364234291E+04  0.12699999809E+01 0. -1.
       -4    1    3    3    0  502  0.44639100226E+03 -0.16520326912E+04 -0.77835474094E+03  0.18799773018E+04  0.12699999809E+01 0.  1.
</event>
<event>
 5   0  0.5132561E-07  0.3795133E+04  0.7818609E-02  0.8047200E-01
        2   -1    0    0  501    0  0.00000000000E+00  0.00000000000E+00  0.23312166277E+04  0.23312166277E+04  0.25500000920E-02 0.  1.
       -2   -1    0    0    0  501  0.00000000000E+00  0.00000000000E+00 -0.15445831313E+04  0.15445831313E+04  0.25500000920E-02 0. -1.
    10030    2    1    2    0    0  0.00000000000E+00  0.00000000000E+00  0.78663349639E+03  0.38757997589E+04  0.37951326082E+04 0.  0.
        3    1    3    3  502    0 -0.11408548530E+04  0.99818006048E+03 -0.77236686444E+03  0.17013123794E+04  0.10100000352E+00 0. -1.
       -3    1    3    3    0  502  0.11408548530E+04 -0.99818006048E+03  0.15590003608E+04  0.21744873796E+04  0.10100000352E+00 0.  1.
</event>
<event>
 5   0  0.1656617E-07  0.3750511E+04  0.7818609E-02  0.8056859E-01
        1   -1    0    0  501    0  0.00000000000E+00  0.00000000000E+00  0.26034431941E+04  0.26034431941E+04  0.50400001928E-02 0.  1.
       -1   -1    0    0    0  501  0.00000000000E+00  0.00000000000E+00 -0.13507435155E+04  0.13507435155E+04  0.50400001928E-02 0. -1.
    10030    2    1    2    0    0  0.00000000000E+00  0.00000000000E+00  0.12526996786E+04  0.39541867097E+04  0.37505114385E+04 0.  0.
        5    1    3    3  502    0 -0.17262182371E+04  0.47821050572E+02  0.13971085794E+04  0.22212723218E+04  0.46999998093E+01 0.  1.
       -5    1    3    3    0  502  0.17262182371E+04 -0.47821050572E+02 -0.14440890082E+03  0.17329143879E+04  0.46999998093E+01 0. -1.
</event>
<event>
 5   0  0.5202788E-07  0.3837460E+04  0.7818609E-02  0.8038163E-01
        2   -1    0    0  501    0  0.00000000000E+00  0.00000000000E+00  0.15884219123E+04  0.15884219123E+04  0.25500000920E-02 0. -1.
       -2   -1    0    0    0  501  0.00000000000E+00  0.00000000000E+00 -0.23177251387E+04  0.23177251387E+04  0.25500000920E-02 0.  1.
    10030    2    1    2    0    0  0.00000000000E+00  0.00000000000E+00 -0.72930322640E+03  0.39061470511E+04  0.38374603045E+04 0.  0.
        1    1    3    3  502    0 -0.10463086669E+03  0.93846760903E+03 -0.20648343876E+04  0.22705087799E+04  0.50400001928E-02 0.  1.
       -1    1    3    3    0  502  0.10463086669E+03 -0.93846760903E+03  0.13355311612E+04  0.16356382711E+04  0.50400001928E-02 0. -1.
</event>
<event>
 5   0  0.1648000E-07  0.2869817E+04  0.7818609E-02  0.8281915E-01
       -1   -1    0    0    0  501  0.00000000000E+00  0.00000000000E+00  0.18900042603E+04  0.18900042603E+04  0.50400001928E-02 0. -1.
        1   -1    0    0  501    0  0.00000000000E+00  0.00000000000E+00 -0.10893952803E+04  0.10893952804E+04  0.50400001928E-02 0.  1.
    10030    2    1    2    0    0  0.00000000000E+00  0.00000000000E+00  0.80060897999E+03  0.29793995407E+04  0.28698165245E+04 0.  0.
        3    1    3    3  502    0 -0.25020371644E+03 -0.80939163469E+03 -0.80203931865E+03  0.11666121022E+04  0.10100000352E+00 0.  1.
       -3    1    3    3    0  502  0.25020371644E+03  0.80939163469E+03  0.16026482986E+04  0.18127874386E+04  0.10100000352E+00 0. -1.
</event>
<event>
 5   0  0.5325362E-07  0.3762292E+04  0.7818609E-02  0.8054296E-01
        2   -1    0    0  501    0  0.00000000000E+00  0.00000000000E+00  0.14622718436E+04  0.14622718436E+04  0.25500000920E-02 0.  1.
       -2   -1    0    0    0  501  0.00000000000E+00  0.00000000000E+00 -0.24200088743E+04  0.24200088743E+04  0.25500000920E-02 0. -1.
    10030    2    1    2    0    0  0.00000000000E+00  0.00000000000E+00 -0.95773703063E+03  0.38822807179E+04  0.37622923003E+04 0.  0.
        4    1    3    3  502    0  0.15615942891E+04  0.91570152349E+03  0.48935324734E+02  0.18109340912E+04  0.12699999809E+01 0.  1.
       -4    1    3    3    0  502 -0.15615942891E+04 -0.91570152349E+03 -0.10066723554E+04  0.20713466267E+04  0.12699999809E+01 0. -1.
</event>
<event>
 5   0  0.5325362E-07  0.3867001E+04  0.7818609E-02  0.8031928E-01
       -2   -1    0    0    0  501  0.00000000000E+00  0.00000000000E+00  0.20054410679E+04  0.20054410679E+04  0.25500000920E-02 0. -1.
        2   -1    0    0  501    0  0.00000000000E+00  0.00000000000E+00 -0.18641404633E+04  0.18641404633E+04  0.25500000920E-02 0.  1.
    10030    2    1    2    0    0  0.00000000000E+00  0.00000000000E+00  0.14130060461E+03  0.38695815312E+04  0.38670008231E+04 0.  0.
        4    1    3    3  502    0  0.14225068892E+02  0.10164712524E+04 -0.15751375748E+04  0.18746936155E+04  0.12699999809E+01 0.  1.
       -4    1    3    3    0  502 -0.14225068892E+02 -0.10164712524E+04  0.17164381794E+04  0.19948879157E+04  0.12699999809E+01 0. -1.
</event>
<event>
 5   0  0.5325362E-07  0.3841236E+04  0.7818609E-02  0.8037363E-01
        2   -1    0    0  501    0  0.00000000000E+00  0.00000000000E+00  0.26416893206E+04  0.26416893206E+04  0.25500000920E-02 0. -1.
       -2   -1    0    0    0  501  0.00000000000E+00  0.00000000000E+00 -0.13963690394E+04  0.13963690394E+04  0.25500000920E-02 0.  1.
    10030    2    1    2    0    0  0.00000000000E+00  0.00000000000E+00  0.12453202812E+04  0.40380583600E+04  0.38412358319E+04 0.  0.
        4    1    3    3  502    0  0.70788600749E+02 -0.25274767258E+03  0.26227460766E+04  0.26358473035E+04  0.12699999809E+01 0. -1.
       -4    1    3    3    0  502 -0.70788600749E+02  0.25274767258E+03 -0.13774257955E+04  0.14022110565E+04  0.12699999809E+01 0.  1.
</event>
<event>
 5   0  0.5202788E-07  0.3849977E+04  0.7818609E-02  0.8035514E-01
        2   -1    0    0  501    0  0.00000000000E+00  0.00000000000E+00  0.23842139137E+04  0.23842139137E+04  0.25500000920E-02 0. -1.
       -2   -1    0    0    0  501  0.00000000000E+00  0.00000000000E+00 -0.15542148368E+04  0.15542148368E+04  0.25500000920E-02 0.  1.
    10030    2    1    2    0    0  0.00000000000E+00  0.00000000000E+00  0.82999907690E+03  0.39384287505E+04  0.38499769551E+04 0.  0.
        1    1    3    3  502    0  0.87706624870E+03  0.17134866796E+04  0.43268347897E+03  0.19729411544E+04  0.50400001928E-02 0.  1.
       -1    1    3    3    0  502 -0.87706624870E+03 -0.17134866796E+04  0.39731559793E+03  0.19654875960E+04  0.50400001928E-02 0. -1.
</event>
<event>
 5   0  0.1648000E-07  0.3774099E+04  0.7818609E-02  0.8051736E-01
       -1   -1    0    0    0  501  0.00000000000E+00  0.00000000000E+00  0.24212654482E+04  0.24212654482E+04  0.50400001928E-02 0. -1.
        1   -1    0    0  501    0  0.00000000000E+00  0.00000000000E+00 -0.14707001622E+04  0.14707001622E+04  0.50400001928E-02 0.  1.
    10030    2    1    2    0    0  0.00000000000E+00  0.00000000000E+00  0.95056528596E+03  0.38919656104E+04  0.37740988261E+04 0.  0.
        4    1    3    3  502    0  0.12949700964E+03 -0.10146222545E+04  0.21105963197E+04  0.23453882903E+04  0.12699999809E+01 0. -1.
       -4    1    3    3    0  502 -0.12949700964E+03  0.10146222545E+04 -0.11600310337E+04  0.15465773200E+04  0.12699999809E+01 0.  1.
</event>
<event>
 5   0  0.1656617E-07  0.3068020E+04  0.7818609E-02  0.8224570E-01
       -1   -1    0    0    0  501  0.00000000000E+00  0.00000000000E+00  0.99732185726E+03  0.99732185727E+03  0.50400001928E-02 0.  1.
        1   -1    0    0  501    0  0.00000000000E+00  0.00000000000E+00 -0.23595061044E+04  0.23595061044E+04  0.50400001928E-02 0. -1.
    10030    2    1    2    0    0  0.00000000000E+00  0.00000000000E+00 -0.13621842472E+04  0.33568279617E+04  0.30680202152E+04 0.  0.
        5    1    3    3  502    0  0.15299127509E+04  0.66286436796E+02 -0.58238924956E+03  0.16383608409E+04  0.46999998093E+01 0. -1.
       -5    1    3    3    0  502 -0.15299127509E+04 -0.66286436796E+02 -0.77979499760E+03  0.17184671208E+04  0.46999998093E+01 0.  1.
</event>
<event>
 5   0  0.5325362E-07  0.3503686E+04  0.7818609E-02  0.8112917E-01
        2   -1    0    0  501    0  0.00000000000E+00  0.00000000000E+00  0.12931900094E+04  0.12931900094E+04  0.25500000920E-02 0.  1.
       -2   -1    0    0    0  501  0.00000000000E+00  0.00000000000E+00 -0.23731658649E+04  0.23731658649E+04  0.25500000920E-02 0. -1.
    10030    2    1    2    0    0  0.00000000000E+00  0.00000000000E+00 -0.10799758555E+04  0.36663558743E+04  0.35036862800E+04 0.  0.
        4    1    3    3  502    0 -0.13005844487E+04  0.68435032185E+03 -0.15377216183E+04  0.21270742017E+04  0.12699999809E+01 0. -1.
       -4    1    3    3    0  502  0.13005844487E+04 -0.68435032185E+03  0.45774576279E+03  0.15392816726E+04  0.12699999809E+01 0.  1.
</event>
<event>
 5   0  0.5202788E-07  0.3578601E+04  0.7818609E-02  0.8095411E-01
       -2   -1    0    0    0  501  0.00000000000E+00  0.00000000000E+00  0.16135904594E+04  0.16135904594E+04  0.25500000920E-02 0.  1.
        2   -1    0    0  501    0  0.00000000000E+00  0.00000000000E+00 -0.19841440214E+04  0.19841440214E+04  0.25500000920E-02 0. -1.
    10030    2    1    2    0    0  0.00000000000E+00  0.00000000000E+00 -0.37055356193E+03  0.35977344808E+04  0.35786007674E+04 0.  0.
        1    1    3    3  502    0 -0.47468337957E+03  0.12309605727E+04 -0.14004609369E+04  0.19240267873E+04  0.50400001928E-02 0. -1.
       -1    1    3    3    0  502  0.47468337957E+03 -0.12309605727E+04  0.10299073749E+04  0.16737076935E+04  0.50400001928E-02 0.  1.
</event>
<event>
 5   0  0.5158266E-07  0.3838335E+04  0.7818609E-02  0.8037978E-01
        2   -1    0    0  501    0  0.00000000000E+00  0.00000000000E+00  0.18337095634E+04  0.18337095634E+04  0.25500000920E-02 0.  1.
       -2   -1    0    0    0  501  0.00000000000E+00  0.00000000000E+00 -0.20086086222E+04  0.20086086222E+04  0.25500000920E-02 0. -1.
    10030    2    1    2    0    0  0.00000000000E+00  0.00000000000E+00 -0.17489905881E+03  0.38423181857E+04  0.38383354933E+04 0.  0.
        2    1    3    3  502    0 -0.37221532341E+03  0.30718033445E+03  0.17719763706E+04  0.18365196059E+04  0.25500000920E-02 0.  1.
       -2    1    3    3    0  502  0.37221532341E+03 -0.30718033445E+03 -0.19468754294E+04  0.20057985798E+04  0.25500000920E-02 0. -1.
</event>
<event>
 5   0  0.5134434E-07  0.3644665E+04  0.7818609E-02  0.8080337E-01
        2   -1    0    0  501    0  0.00000000000E+00  0.00000000000E+00  0.24104106515E+04  0.24104106515E+04  0.25500000920E-02 0.  1.
       -2   -1    0    0    0  501  0.00000000000E+00  0.00000000000E+00 -0.13777299740E+04  0.13777299740E+04  0.25500000920E-02 0. -1.
    10030    2    1    2    0    0  0.00000000000E+00  0.00000000000E+00  0.10326806775E+04  0.37881406254E+04  0.36446645959E+04 0.  0.
        5    1    3    3  502    0 -0.33757244432E+01 -0.35130823485E+03 -0.13421914812E+04  0.13874180818E+04  0.46999998093E+01 0. -1.
       -5    1    3    3    0  502  0.33757244432E+01  0.35130823485E+03  0.23748721587E+04  0.24007225437E+04  0.46999998093E+01 0.  1.
</event>
<event>
 5   0  0.5158266E-07  0.3812545E+04  0.7818609E-02  0.8043468E-01
        2   -1    0    0  501    0  0.00000000000E+00  0.00000000000E+00  0.18610757617E+04  0.18610757617E+04  0.25500000920E-02 0. -1.
       -2   -1    0    0    0  501  0.00000000000E+00  0.00000000000E+00 -0.19525667938E+04  0.19525667938E+04  0.25500000920E-02 0.  1.
    10030    2    1    2    0    0  0.00000000000E+00  0.00000000000E+00 -0.91491032146E+02  0.38136425555E+04  0.38125449416E+04 0.  0.
        2    1    3    3  502    0 -0.51848507242E+03  0.17445385460E+04  0.52154492464E+03  0.18932117202E+04  0.25500000920E-02 0. -1.
       -2    1    3    3    0  502  0.51848507242E+03 -0.17445385460E+04 -0.61303595679E+03  0.19204308353E+04  0.25500000920E-02 0.  1.
</event>
<event>
 5   0  0.1648000E-07  0.3773285E+04  0.7818609E-02  0.8051912E-01
       -1   -1    0    0    0  501  0.00000000000E+00  0.00000000000E+00  0.16537105699E+04  0.16537105699E+04  0.50400001928E-02 0.  1.
        1   -1    0    0  501    0  0.00000000000E+00  0.00000000000E+00 -0.21523832860E+04  0.21523832860E+04  0.50400001928E-02 0. -1.
    10030    2    1    2    0    0  0.00000000000E+00  0.00000000000E+00 -0.49867271611E+03  0.38060938560E+04  0.37732845059E+04 0.  0.
        3    1    3    3  502    0 -0.31812750956E+03 -0.39432657062E+03 -0.20824772583E+04  0.21432242295E+04  0.10100000352E+00 0. -1.
       -3    1    3    3    0  502  0.31812750956E+03  0.39432657062E+03  0.15838045421E+04  0.16628696264E+04  0.10100000352E+00 0.  1.
</event>
<event>
 5   0  0.5202788E-07  0.3892727E+04  0.7818609E-02  0.8026544E-01
        2   -1    0    0  501    0  0.00000000000E+00  0.00000000000E+00  0.14381036049E+04  0.14381036049E+04  0.25500000920E-02 0. -1.
       -2   -1    0    0    0  501  0.00000000000E+00  0.00000000000E+00 -0.26342543032E+04  0.26342543032E+04  0.25500000920E-02 0.  1.
    10030    2    1    2    0    0  0.00000000000E+00  0.00000000000E+00 -0.11961506983E+04  0.40723579081E+04  0.38927268642E+04 0.  0.
        1    1    3    3  502    0 -0.51377827013E+03  0.13974270473E+04  0.71339208599E+03  0.16509690281E+04  0.50400001928E-02 0. -1.
       -1    1    3    3    0  502  0.51377827013E+03 -0.13974270473E+04 -0.19095427843E+04  0.24213888800E+04  0.50400001928E-02 0.  1.
</event>
<event>
 5   0  0.1648000E-07  0.3613854E+04  0.7818609E-02  0.8087326E-01
       -1   -1    0    0    0  501  0.00000000000E+00  0.00000000000E+00  0.18487650473E+04  0.18487650473E+04  0.50400001928E-02 0.  1.
        1   -1    0    0  501    0  0.00000000000E+00  0.00000000000E+00 -0.17660352741E+04  0.17660352741E+04  0.50400001928E-02 0. -1.
    10030    2    1    2    0    0  0.00000000000E+00  0.00000000000E+00  0.82729773256E+02  0.36148003214E+04  0.36138535040E+04 0.  0.
        2    1    3    3  502    0  0.23969053681E+03  0.16687587119E+03 -0.17422694731E+04  0.17665791878E+04  0.25500000920E-02 0. -1.
       -2    1    3    3    0  502 -0.23969053681E+03 -0.16687587119E+03  0.18249992463E+04  0.18482211337E+04  0.25500000920E-02 0.  1.
</event>
<event>
 5   0  0.1648000E-07  0.3741625E+04  0.7818609E-02  0.8058799E-01
        1   -1    0    0  501    0  0.00000000000E+00  0.00000000000E+00  0.25487078368E+04  0.25487078368E+04  0.50400001928E-02 0.  1.
       -1   -1    0    0    0  501  0.00000000000E+00  0.00000000000E+00 -0.13732212079E+04  0.13732212079E+04  0.50400001928E-02 0. -1.
    10030    2    1    2    0    0  0.00000000000E+00  0.00000000000E+00  0.11754866289E+04  0.39219290447E+04  0.37416251304E+04 0.  0.
        4    1    3    3  502    0  0.13136100404E+04  0.11347220155E+04 -0.14356842164E+03  0.17417746396E+04  0.12699999809E+01 0. -1.
       -4    1    3    3    0  502 -0.13136100404E+04 -0.11347220155E+04  0.13190550506E+04  0.21801544051E+04  0.12699999809E+01 0.  1.
</event>
<event>
 5   0  0.5132561E-07  0.3229664E+04  0.7818609E-02  0.8181027E-01
        2   -1    0    0  501    0  0.00000000000E+00  0.00000000000E+00  0.27154291773E+04  0.27154291773E+04  0.25500000920E-02 0.  1.
       -2   -1    0    0    0  501  0.00000000000E+00  0.00000000000E+00 -0.96032028239E+03  0.96032028239E+03  0.25500000920E-02 0. -1.
    10030    2    1    2    0    0  0.00000000000E+00  0.00000000000E+00  0.17551088949E+04  0.36757494597E+04  0.32296635827E+04 0.  0.
        3    1    3    3  502    0  0.12334367329E+04 -0.96855031805E+03  0.13157324122E+04  0.20470973801E+04  0.10100000352E+00 0.  1.
       -3    1    3    3    0  502 -0.12334367329E+04  0.96855031805E+03  0.43937648270E+03  0.16286520796E+04  0.10100000352E+00 0. -1.
</event>
<event>
 5   0  0.5134434E-07  0.3859199E+04  0.7818609E-02  0.8033569E-01
        2   -1    0    0  501    0  0.00000000000E+00  0.00000000000E+00  0.23177224466E+04  0.23177224466E+04  0.25500000920E-02 0.  1.
       -2   -1    0    0    0  501  0.00000000000E+00  0.00000000000E+00 -0.16064708720E+04  0.16064708720E+04  0.25500000920E-02 0. -1.
    10030    2    1    2    0    0  0.00000000000E+00  0.00000000000E+00  0.71125157459E+03  0.39241933185E+04  0.38591986732E+04 0.  0.
        5    1    3    3  502    0  0.55776946898E+03 -0.78787310682E+03  0.20545365659E+04  0.22700205734E+04  0.46999998093E+01 0.  1.
       -5    1    3    3    0  502 -0.55776946898E+03  0.78787310682E+03 -0.13432849913E+04  0.16541727452E+04  0.46999998093E+01 0. -1.
</event>
<event>
 5   0  0.5134434E-07  0.3789680E+04  0.7818609E-02  0.8048373E-01
        2   -1    0    0  501    0  0.00000000000E+00  0.00000000000E+00  0.21370482267E+04  0.21370482267E+04  0.25500000920E-02 0.  1.
       -2   -1    0    0    0  501  0.00000000000E+00  0.00000000000E+00 -0.16800834858E+04  0.16800834858E+04  0.25500000920E-02 0. -1.
    10030    2    1    2    0    0  0.00000000000E+00  0.00000000000E+00  0.45696474089E+03  0.38171317125E+04  0.37896804266E+04 0.  0.
        5    1    3    3  502    0  0.71427548369E+02 -0.10450582980E+03 -0.16758140550E+04  0.16805945971E+04  0.46999998093E+01 0. -1.
       -5    1    3    3    0  502 -0.71427548369E+02  0.10450582980E+03  0.21327787959E+04  0.21365371153E+04  0.46999998093E+01 0.  1.
</event>
<event>
 5   0  0.5202788E-07  0.3821399E+04  0.7818609E-02  0.8041578E-01
       -2   -1    0    0    0  501  0.00000000000E+00  0.00000000000E+00  0.20392952990E+04  0.20392952990E+04  0.25500000920E-02 0. -1.
        2   -1    0    0  501    0  0.00000000000E+00  0.00000000000E+00 -0.17902131538E+04  0.17902131538E+04  0.25500000920E-02 0.  1.
    10030    2    1    2    0    0  0.00000000000E+00  0.00000000000E+00  0.24908214516E+03  0.38295084528E+04  0.38213993608E+04 0.  0.
        1    1    3    3  502    0  0.86893450894E+03  0.11707052265E+04  0.13621416295E+04  0.19952512942E+04  0.50400001928E-02 0. -1.
       -1    1    3    3    0  502 -0.86893450894E+03 -0.11707052265E+04 -0.11130594843E+04  0.18342571586E+04  0.50400001928E-02 0.  1.
</event>
<event>
 5   0  0.1648000E-07  0.3098613E+04  0.7818609E-02  0.8216119E-01
        1   -1    0    0  501    0  0.00000000000E+00  0.00000000000E+00  0.16963199192E+04  0.16963199192E+04  0.50400001928E-02 0.  1.
       -1   -1    0    0    0  501  0.00000000000E+00  0.00000000000E+00 -0.14150338091E+04  0.14150338091E+04  0.50400001928E-02 0. -1.
    10030    2    1    2    0    0  0.00000000000E+00  0.00000000000E+00  0.28128611006E+03  0.31113537283E+04  0.30986126164E+04 0.  0.
        4    1    3    3  502    0 -0.13020083132E+04  0.82526573141E+03 -0.15105180099E+02  0.15415962359E+04  0.12699999809E+01 0. -1.
       -4    1    3    3    0  502  0.13020083132E+04 -0.82526573141E+03  0.29639129016E+03  0.15697574924E+04  0.12699999809E+01 0.  1.
</event>
<event>
 5   0  0.1648000E-07  0.3732358E+04  0.7818609E-02  0.8060829E-01
       -3   -1    0    0    0  501  0.00000000000E+00  0.00000000000E+00  0.23537657962E+04  0.23537657984E+04  0.10100000352E+00 0.  1.
        3   -1    0    0  501    0  0.00000000000E+00  0.00000000000E+00 -0.14795963757E+04  0.14795963792E+04  0.10100000352E+00 0. -1.
    10030    2    1    2    0    0  0.00000000000E+00  0.00000000000E+00  0.87416942049E+03  0.38333621776E+04  0.37323576207E+04 0.  0.
        1    1    3    3  502    0  0.13938790486E+04 -0.12398377845E+04  0.38545691041E+03  0.19049077572E+04  0.50400001928E-02 0. -1.
       -1    1    3    3    0  502 -0.13938790486E+04  0.12398377845E+04  0.48871251008E+03  0.19284544203E+04  0.50400001928E-02 0.  1.
</event>
<event>
 5   0  0.5134434E-07  0.3828205E+04  0.7818609E-02  0.8040129E-01
       -2   -1    0    0    0  501  0.00000000000E+00  0.00000000000E+00  0.14299706894E+04  0.14299706894E+04  0.25500000920E-02 0.  1.
        2   -1    0    0  501    0  0.00000000000E+00  0.00000000000E+00 -0.25621424726E+04  0.25621424726E+04  0.25500000920E-02 0. -1.
    10030    2    1    2    0    0  0.00000000000E+00  0.00000000000E+00 -0.11321717832E+04  0.39921131620E+04  0.38282051344E+04 0.  0.
        5    1    3    3  502    0  0.14197705877E+04 -0.94760394188E+03 -0.14692299584E+04  0.22521901592E+04  0.46999998093E+01 0. -1.
       -5    1    3    3    0  502 -0.14197705877E+04  0.94760394188E+03  0.33705817522E+03  0.17399230028E+04  0.46999998093E+01 0.  1.
</event>
<event>
 5   0  0.5158266E-07  0.3800604E+04  0.7818609E-02  0.8046025E-01
       -2   -1    0    0    0  501  0.00000000000E+00  0.00000000000E+00  0.25890599827E+04  0.25890599827E+04  0.25500000920E-02 0.  1.
        2   -1    0    0  501    0  0.00000000000E+00  0.00000000000E+00 -0.13947717272E+04  0.13947717272E+04  0.25500000920E-02 0. -1.
    10030    2    1    2    0    0  0.00000000000E+00  0.00000000000E+00  0.11942882555E+04  0.39838317098E+04  0.38006039856E+04 0.  0.
        2    1    3    3  502    0 -0.13466127752E+04 -0.92310636584E+03  0.16164746595E+04  0.22974946472E+04  0.25500000920E-02 0.  1.
       -2    1    3    3    0  502  0.13466127752E+04  0.92310636584E+03 -0.42218640400E+03  0.16863370626E+04  0.25500000920E-02 0. -1.
</event>
<event>
 5   0  0.5132561E-07  0.3832447E+04  0.7818609E-02  0.8039228E-01
        2   -1    0    0  501    0  0.00000000000E+00  0.00000000000E+00  0.18541556354E+04  0.18541556354E+04  0.25500000920E-02 0. -1.
       -2   -1    0    0    0  501  0.00000000000E+00  0.00000000000E+00 -0.19803689246E+04  0.19803689246E+04  0.25500000920E-02 0.  1.
    10030    2    1    2    0    0  0.00000000000E+00  0.00000000000E+00 -0.12621328916E+03  0.38345245600E+04  0.38324468433E+04 0.  0.
        3    1    3    3  502    0 -0.33797397374E+03  0.18791165631E+04  0.10009747274E+03  0.19118904202E+04  0.10100000352E+00 0.  1.
       -3    1    3    3    0  502  0.33797397374E+03 -0.18791165631E+04 -0.22631076190E+03  0.19226341398E+04  0.10100000352E+00 0. -1.
</event>
<event>
 5   0  0.1648000E-07  0.3963506E+04  0.7818609E-02  0.8011949E-01
        1   -1    0    0  501    0  0.00000000000E+00  0.00000000000E+00  0.16522934422E+04  0.16522934422E+04  0.50400001928E-02 0.  1.
       -1   -1    0    0    0  501  0.00000000000E+00  0.00000000000E+00 -0.23769051999E+04  0.23769051999E+04  0.50400001928E-02 0. -1.
    10030    2    1    2    0    0  0.00000000000E+00  0.00000000000E+00 -0.72461175766E+03  0.40291986421E+04  0.39635059604E+04 0.  0.
        1    1    3    3  502    0  0.91690811134E+03 -0.75028868500E+03 -0.19772491704E+04  0.23050309927E+04  0.50400001928E-02 0. -1.
       -1    1    3    3    0  502 -0.91690811134E+03  0.75028868500E+03  0.12526374127E+04  0.17241676494E+04  0.50400001928E-02 0.  1.
</event>
<event>
 5   0  0.5132561E-07  0.3805563E+04  0.7818609E-02  0.8044962E-01
        2   -1    0    0  501    0  0.00000000000E+00  0.00000000000E+00  0.15141568177E+04  0.15141568177E+04  0.25500000920E-02 0. -1.
       -2   -1    0    0    0  501  0.00000000000E+00  0.00000000000E+00 -0.23911512721E+04  0.23911512721E+04  0.25500000920E-02 0.  1.
    10030    2    1    2    0    0  0.00000000000E+00  0.00000000000E+00 -0.87699445433E+03  0.39053080898E+04  0.38055632965E+04 0.  0.
        3    1    3    3  502    0 -0.26869444260E+03 -0.18418477963E+04 -0.33205255979E+02  0.18616397631E+04  0.10100000352E+00 0. -1.
       -3    1    3    3    0  502  0.26869444260E+03  0.18418477963E+04 -0.84378919835E+03  0.20436683267E+04  0.10100000352E+00 0.  1.
</event>
<event>
 5   0  0.5134434E-07  0.3596739E+04  0.7818609E-02  0.8091239E-01
        2   -1    0    0  501    0  0.00000000000E+00  0.00000000000E+00  0.12776458685E+04  0.12776458685E+04  0.25500000920E-02 0. -1.
       -2   -1    0    0    0  501  0.00000000000E+00  0.00000000000E+00 -0.25313220041E+04  0.25313220041E+04  0.25500000920E-02 0.  1.
    10030    2    1    2    0    0  0.00000000000E+00  0.00000000000E+00 -0.12536761356E+04  0.38089678726E+04  0.35967391344E+04 0.  0.
        5    1    3    3  502    0 -0.10310534878E+04  0.14643266767E+04 -0.80016307015E+03  0.19615317840E+04  0.46999998093E+01 0. -1.
       -5    1    3    3    0  502  0.10310534878E+04 -0.14643266767E+04 -0.45351306549E+03  0.18474360886E+04  0.46999998093E+01 0.  1.
</event>
<event>
 5   0  0.1648000E-07  0.3239142E+04  0.7818609E-02  0.8178556E-01
       -1   -1    0    0    0  501  0.00000000000E+00  0.00000000000E+00  0.14118536133E+04  0.14118536133E+04  0.50400001928E-02 0.  1.
        1   -1    0    0  501    0  0.00000000000E+00  0.00000000000E+00 -0.18578489892E+04  0.18578489893E+04  0.50400001928E-02 0. -1.
    10030    2    1    2    0    0  0.00000000000E+00  0.00000000000E+00 -0.44599537598E+03  0.32697026025E+04  0.32391423608E+04 0.  0.
        1    1    3    3  502    0  0.13610540202E+04 -0.38945180102E+03  0.57110735234E+03  0.15265334452E+04  0.50400001928E-02 0.  1.
       -1    1    3    3    0  502 -0.13610540202E+04  0.38945180102E+03 -0.10171027283E+04  0.17431691574E+04  0.50400001928E-02 0. -1.
</event>
<event>
 5   0  0.1648000E-07  0.3872356E+04  0.7818609E-02  0.8030803E-01
        1   -1    0    0  501    0  0.00000000000E+00  0.00000000000E+00  0.25521788607E+04  0.25521788607E+04  0.50400001928E-02 0. -1.
       -1   -1    0    0    0  501  0.00000000000E+00  0.00000000000E+00 -0.14688570331E+04  0.14688570331E+04  0.50400001928E-02 0.  1.
    10030    2    1    2    0    0  0.00000000000E+00  0.00000000000E+00  0.10833218276E+04  0.40210358938E+04  0.38723563210E+04 0.  0.
        2    1    3    3  502    0 -0.17684239924E+04 -0.45641489520E+03 -0.12578397183E+03  0.18306992055E+04  0.25500000920E-02 0.  1.
       -2    1    3    3    0  502  0.17684239924E+04  0.45641489520E+03  0.12091057995E+04  0.21903366882E+04  0.25500000920E-02 0. -1.
</event>
<event>
 5   0  0.5325362E-07  0.3807618E+04  0.7818609E-02  0.8044522E-01
       -2   -1    0    0    0  501  0.00000000000E+00  0.00000000000E+00  0.17522395967E+04  0.17522395967E+04  0.25500000920E-02 0.  1.
        2   -1    0    0  501    0  0.00000000000E+00  0.00000000000E+00 -0.20684895590E+04  0.20684895590E+04  0.25500000920E-02 0. -1.
    10030    2    1    2    0    0  0.00000000000E+00  0.00000000000E+00 -0.31624996231E+03  0.38207291556E+04  0.38076183162E+04 0.  0.
        4    1    3    3  502    0 -0.99286145901E+03 -0.13626836092E+04  0.72911821699E+03  0.18369255518E+04  0.12699999809E+01 0.  1.
       -4    1    3    3    0  502  0.99286145901E+03  0.13626836092E+04 -0.10453681793E+04  0.19838036039E+04  0.12699999809E+01 0. -1.
</event>
<event>
 5   0  0.5325362E-07  0.3808890E+04  0.7818609E-02  0.8044250E-01
        2   -1    0    0  501    0  0.00000000000E+00  0.00000000000E+00  0.23054478391E+04  0.23054478391E+04  0.25500000920E-02 0.  1.
       -2   -1    0    0    0  501  0.00000000000E+00  0.00000000000E+00 -0.15731914460E+04  0.15731914460E+04  0.25500000920E-02 0. -1.
    10030    2    1    2    0    0  0.00000000000E+00  0.00000000000E+00  0.73225639310E+03  0.38786392851E+04  0.38088900324E+04 0.  0.
        4    1    3    3  502    0 -0.14946881375E+04 -0.30512809690E+03  0.15270547902E+04  0.21584933933E+04  0.12699999809E+01 0.  1.
       -4    1    3    3    0  502  0.14946881375E+04  0.30512809690E+03 -0.79479839708E+03  0.17201458917E+04  0.12699999809E+01 0. -1.
</event>
<event>
 5   0  0.5158266E-07  0.2952561E+04  0.7818609E-02  0.8257408E-01
        2   -1    0    0  501    0  0.00000000000E+00  0.00000000000E+00  0.11919855871E+04  0.11919855871E+04  0.25500000920E-02 0.  1.
       -2   -1    0    0    0  501  0.00000000000E+00  0.00000000000E+00 -0.18283817360E+04  0.18283817360E+04  0.25500000920E-02 0. -1.
    10030    2    1    2    0    0  0.00000000000E+00  0.00000000000E+00 -0.63639614885E+03  0.30203673231E+04  0.29525613809E+04 0.  0.
        2    1    3    3  502    0 -0.21012928381E+03 -0.55686449766E+03  0.10638093693E+04  0.12189925180E+04  0.25500000920E-02 0.  1.
       -2    1    3    3    0  502  0.21012928381E+03  0.55686449766E+03 -0.17002055181E+04  0.18013748051E+04  0.25500000920E-02 0. -1.
</event>
<event>
 5   0  0.5202788E-07  0.3805190E+04  0.7818609E-02  0.8045042E-01
        2   -1    0    0  501    0  0.00000000000E+00  0.00000000000E+00  0.19381733632E+04  0.19381733632E+04  0.25500000920E-02 0. -1.
       -2   -1    0    0    0  501  0.00000000000E+00  0.00000000000E+00 -0.18676695149E+04  0.18676695149E+04  0.25500000920E-02 0.  1.
    10030    2    1    2    0    0  0.00000000000E+00  0.00000000000E+00  0.70503848283E+02  0.38058428781E+04  0.38051897745E+04 0.  0.
        1    1    3    3  502    0  0.18484282571E+03 -0.62616275882E+03  0.18226290534E+04  0.19360328864E+04  0.50400001928E-02 0. -1.
       -1    1    3    3    0  502 -0.18484282571E+03  0.62616275882E+03 -0.17521252051E+04  0.18698099917E+04  0.50400001928E-02 0.  1.
</event>
<event>
 5   0  0.5325362E-07  0.3795151E+04  0.7818609E-02  0.8047196E-01
        2   -1    0    0  501    0  0.00000000000E+00  0.00000000000E+00  0.17345530217E+04  0.17345530217E+04  0.25500000920E-02 0.  1.
       -2   -1    0    0    0  501  0.00000000000E+00  0.00000000000E+00 -0.20759194458E+04  0.20759194458E+04  0.25500000920E-02 0. -1.
    10030    2    1    2    0    0  0.00000000000E+00  0.00000000000E+00 -0.34136642417E+03  0.38104724675E+04  0.37951507730E+04 0.  0.
        4    1    3    3  502    0  0.18042738517E+04 -0.56726845736E+03 -0.16462644126E+02  0.18914201718E+04  0.12699999809E+01 0. -1.
       -4    1    3    3    0  502 -0.18042738517E+04  0.56726845736E+03 -0.32490378004E+03  0.19190522957E+04  0.12699999809E+01 0.  1.
</event>
<event>
 5   0  0.5132561E-07  0.2747975E+04  0.7818609E-02  0.8319605E-01
       -2   -1    0    0    0  501  0.00000000000E+00  0.00000000000E+00  0.15251525970E+04  0.15251525970E+04  0.25500000920E-02 0. -1.
        2   -1    0    0  501    0  0.00000000000E+00  0.00000000000E+00 -0.12378046946E+04  0.12378046946E+04  0.25500000920E-02 0.  1.
    10030    2    1    2    0    0  0.00000000000E+00  0.00000000000E+00  0.28734790231E+03  0.27629572916E+04  0.27479745592E+04 0.  0.
        3    1    3    3  502    0 -0.84257777028E+03 -0.10810954767E+04  0.47568776632E+02  0.13714836957E+04  0.10100000352E+00 0. -1.
       -3    1    3    3    0  502  0.84257777028E+03  0.10810954767E+04  0.23977912568E+03  0.13914735959E+04  0.10100000352E+00 0.  1.
</event>
<event>
 5   0  0.1648000E-07  0.3815565E+04  0.7818609E-02  0.8042823E-01
        1   -1    0    0  501    0  0.00000000000E+00  0.00000000000E+00  0.25950272060E+04  0.25950272060E+04  0.50400001928E-02 0.  1.
       -1   -1    0    0    0  501  0.00000000000E+00  0.00000000000E+00 -0.14025420628E+04  0.14025420628E+04  0.50400001928E-02 0. -1.
    10030    2    1    2    0    0  0.00000000000E+00  0.00000000000E+00  0.11924851433E+04  0.39975692688E+04  0.38155653895E+04 0.  0.
        3    1    3    3  502    0  0.16644249648E+03 -0.18820828901E+04  0.87283485513E+03  0.20812928204E+04  0.10100000352E+00 0.  1.
       -3    1    3    3    0  502 -0.16644249648E+03  0.18820828901E+04  0.31965028815E+03  0.19162764484E+04  0.10100000352E+00 0. -1.
</event>
<event>
 5   0  0.1648000E-07  0.3741152E+04  0.7818609E-02  0.8058903E-01
       -1   -1    0    0    0  501  0.00000000000E+00  0.00000000000E+00  0.18277439403E+04  0.18277439403E+04  0.50400001928E-02 0.  1.
        1   -1    0    0  501    0  0.00000000000E+00  0.00000000000E+00 -0.19144122827E+04  0.19144122827E+04  0.50400001928E-02 0. -1.
    10030    2    1    2    0    0  0.00000000000E+00  0.00000000000E+00 -0.86668342407E+02  0.37421562230E+04  0.37411524690E+04 0.  0.
        3    1    3    3  502    0 -0.43519434700E+03  0.12265557507E+04  0.13006119306E+04  0.18399523183E+04  0.10100000352E+00 0.  1.
       -3    1    3    3    0  502  0.43519434700E+03 -0.12265557507E+04 -0.13872802730E+04  0.19022039048E+04  0.10100000352E+00 0. -1.
</event>
<event>
 5   0  0.1648000E-07  0.3929613E+04  0.7818609E-02  0.8018898E-01
       -1   -1    0    0    0  501  0.00000000000E+00  0.00000000000E+00  0.29237822665E+04  0.29237822665E+04  0.50400001928E-02 0.  1.
        1   -1    0    0  501    0  0.00000000000E+00  0.00000000000E+00 -0.13203663496E+04  0.13203663496E+04  0.50400001928E-02 0. -1.
    10030    2    1    2    0    0  0.00000000000E+00  0.00000000000E+00  0.16034159170E+04  0.42441486161E+04  0.39296125602E+04 0.  0.
        4    1    3    3  502    0  0.16044484004E+04 -0.11117733502E+04  0.55979904093E+03  0.20306824545E+04  0.12699999809E+01 0.  1.
       -4    1    3    3    0  502 -0.16044484004E+04  0.11117733502E+04  0.10436168760E+04  0.22134661616E+04  0.12699999809E+01 0. -1.
</event>
<event>
 5   0  0.1648000E-07  0.3837205E+04  0.7818609E-02  0.8038218E-01
       -1   -1    0    0    0  501  0.00000000000E+00  0.00000000000E+00  0.21022333256E+04  0.21022333256E+04  0.50400001928E-02 0. -1.
        1   -1    0    0  501    0  0.00000000000E+00  0.00000000000E+00 -0.17510118281E+04  0.17510118281E+04  0.50400001928E-02 0.  1.
    10030    2    1    2    0    0  0.00000000000E+00  0.00000000000E+00  0.35122149750E+03  0.38532451537E+04  0.38372049299E+04 0.  0.
        1    1    3    3  502    0 -0.17828592969E+04 -0.36344334998E+03 -0.43550288259E+03  0.18709198545E+04  0.50400001928E-02 0.  1.
       -1    1    3    3    0  502  0.17828592969E+04  0.36344334998E+03  0.78672438009E+03  0.19823252991E+04  0.50400001928E-02 0. -1.
</event>
<event>
 5   0  0.5202788E-07  0.3780498E+04  0.7818609E-02  0.8050353E-01
       -2   -1    0    0    0  501  0.00000000000E+00  0.00000000000E+00  0.14643186925E+04  0.14643186925E+04  0.25500000920E-02 0. -1.
        2   -1    0    0  501    0  0.00000000000E+00  0.00000000000E+00 -0.24400710650E+04  0.24400710650E+04  0.25500000920E-02 0.  1.
    10030    2    1    2    0    0  0.00000000000E+00  0.00000000000E+00 -0.97575237249E+03  0.39043897576E+04  0.37804982061E+04 0.  0.
        1    1    3    3  502    0 -0.29285335022E+03 -0.33312649560E+03  0.14098125740E+04  0.14779404050E+04  0.50400001928E-02 0. -1.
       -1    1    3    3    0  502  0.29285335022E+03  0.33312649560E+03 -0.23855649465E+04  0.24264493526E+04  0.50400001928E-02 0.  1.
</event>
<event>
 5   0  0.5325362E-07  0.3859655E+04  0.7818609E-02  0.8033473E-01
        2   -1    0    0  501    0  0.00000000000E+00  0.00000000000E+00  0.36801934239E+04  0.36801934239E+04  0.25500000920E-02 0.  1.
       -2   -1    0    0    0  501  0.00000000000E+00  0.00000000000E+00 -0.10119667856E+04  0.10119667856E+04  0.25500000920E-02 0. -1.
    10030    2    1    2    0    0  0.00000000000E+00  0.00000000000E+00  0.26682266384E+04  0.46921602095E+04  0.38596546527E+04 0.  0.
        4    1    3    3  502    0  0.14696573020E+04 -0.11969035415E+04  0.89282930534E+03  0.20951411538E+04  0.12699999809E+01 0. -1.
       -4    1    3    3    0  502 -0.14696573020E+04  0.11969035415E+04  0.17753973330E+04  0.25970190557E+04  0.12699999809E+01 0.  1.
</event>
<event>
 5   0  0.5158266E-07  0.3689085E+04  0.7818609E-02  0.8070385E-01
        2   -1    0    0  501    0  0.00000000000E+00  0.00000000000E+00  0.13336575221E+04  0.13336575221E+04  0.25500000920E-02 0. -1.
       -2   -1    0    0    0  501  0.00000000000E+00  0.00000000000E+00 -0.25511319534E+04  0.25511319534E+04  0.25500000920E-02 0.  1.
    10030    2    1    2    0    0  0.00000000000E+00  0.00000000000E+00 -0.12174744313E+04  0.38847894755E+04  0.36890846125E+04 0.  0.
        2    1    3    3  502    0 -0.39731660942E+03  0.99572233771E+03  0.97189455613E+03  0.14470323045E+04  0.25500000920E-02 0. -1.
       -2    1    3    3    0  502  0.39731660942E+03 -0.99572233771E+03 -0.21893689874E+04  0.24377571710E+04  0.25500000920E-02 0.  1.
</event>
<event>
 5   0  0.1656617E-07  0.3550295E+04  0.7818609E-02  0.8101973E-01
       -1   -1    0    0    0  501  0.00000000000E+00  0.00000000000E+00  0.21859892995E+04  0.21859892995E+04  0.50400001928E-02 0. -1.
        1   -1    0    0  501    0  0.00000000000E+00  0.00000000000E+00 -0.14415209497E+04  0.14415209497E+04  0.50400001928E-02 0.  1.
    10030    2    1    2    0    0  0.00000000000E+00  0.00000000000E+00  0.74446834977E+03  0.36275102492E+04  0.35502954080E+04 0.  0.
        5    1    3    3  502    0 -0.12380152678E+04 -0.11195833971E+04  0.98950790576E+03  0.19404372631E+04  0.46999998093E+01 0. -1.
       -5    1    3    3    0  502  0.12380152678E+04  0.11195833971E+04 -0.24503955599E+03  0.16870729861E+04  0.46999998093E+01 0.  1.
</event>
<event>
 5   0  0.1648000E-07  0.3663850E+04  0.7818609E-02  0.8076021E-01
        1   -1    0    0  501    0  0.00000000000E+00  0.00000000000E+00  0.23053028429E+04  0.23053028429E+04  0.50400001928E-02 0. -1.
       -1   -1    0    0    0  501  0.00000000000E+00  0.00000000000E+00 -0.14557518787E+04  0.14557518787E+04  0.50400001928E-02 0.  1.
    10030    2    1    2    0    0  0.00000000000E+00  0.00000000000E+00  0.84955096428E+03  0.37610547216E+04  0.36638498575E+04 0.  0.
        3    1    3    3  502    0  0.36565856578E+03 -0.16145363931E+04  0.12301377870E+04  0.20624434384E+04  0.10100000352E+00 0. -1.
       -3    1    3    3    0  502 -0.36565856578E+03  0.16145363931E+04 -0.38058682273E+03  0.16986112832E+04  0.10100000352E+00 0.  1.
</event>
<event>
 5   0  0.5202788E-07  0.3950215E+04  0.7818609E-02  0.8014666E-01
       -2   -1    0    0    0  501  0.00000000000E+00  0.00000000000E+00  0.22989430333E+04  0.22989430333E+04  0.25500000920E-02 0.  1.
        2   -1    0    0  501    0  0.00000000000E+00  0.00000000000E+00 -0.16968885008E+04  0.16968885009E+04  0.25500000920E-02 0. -1.
    10030    2    1    2    0    0  0.00000000000E+00  0.00000000000E+00  0.60205453245E+03  0.39958315342E+04  0.39502151827E+04 0.  0.
        1    1    3    3  502    0 -0.47746598925E+03 -0.64622854986E+03  0.21261535684E+04  0.22729087324E+04  0.50400001928E-02 0.  1.
       -1    1    3    3    0  502  0.47746598925E+03  0.64622854986E+03 -0.15240990359E+04  0.17229228018E+04  0.50400001928E-02 0. -1.
</event>
<event>
 5   0  0.1648000E-07  0.3813785E+04  0.7818609E-02  0.8043203E-01
        1   -1    0    0  501    0  0.00000000000E+00  0.00000000000E+00  0.23395307497E+04  0.23395307497E+04  0.50400001928E-02 0. -1.
       -1   -1    0    0    0  501  0.00000000000E+00  0.00000000000E+00 -0.15542603402E+04  0.15542603402E+04  0.50400001928E-02 0.  1.
    10030    2    1    2    0    0  0.00000000000E+00  0.00000000000E+00  0.78527040941E+03  0.38937910899E+04  0.38137854470E+04 0.  0.
        4    1    3    3  502    0 -0.16464496578E+04 -0.59555128745E+03  0.11639707045E+04  0.21024526690E+04  0.12699999809E+01 0. -1.
       -4    1    3    3    0  502  0.16464496578E+04  0.59555128745E+03 -0.37870029509E+03  0.17913384209E+04  0.12699999809E+01 0.  1.
</event>
<event>
 5   0  0.1648000E-07  0.3740428E+04  0.7818609E-02  0.8059061E-01
        1   -1    0    0  501    0  0.00000000000E+00  0.00000000000E+00  0.16453842298E+04  0.16453842298E+04  0.50400001928E-02 0.  1.
       -1   -1    0    0    0  501  0.00000000000E+00  0.00000000000E+00 -0.21257648710E+04  0.21257648710E+04  0.50400001928E-02 0. -1.
    10030    2    1    2    0    0  0.00000000000E+00  0.00000000000E+00 -0.48038064127E+03  0.37711491008E+04  0.37404277804E+04 0.  0.
        3    1    3    3  502    0 -0.49446889400E+03  0.44394740534E+03 -0.20027223011E+04  0.21100913278E+04  0.10100000352E+00 0. -1.
       -3    1    3    3    0  502  0.49446889400E+03 -0.44394740534E+03  0.15223416599E+04  0.16610577730E+04  0.10100000352E+00 0.  1.
</event>
<event>
 5   0  0.1648000E-07  0.3720247E+04  0.7818609E-02  0.8063490E-01
        1   -1    0    0  501    0  0.00000000000E+00  0.00000000000E+00  0.16777055855E+04  0.16777055855E+04  0.50400001928E-02 0. -1.
       -1   -1    0    0    0  501  0.00000000000E+00  0.00000000000E+00 -0.20623760222E+04  0.20623760222E+04  0.50400001928E-02 0.  1.
    10030    2    1    2    0    0  0.00000000000E+00  0.00000000000E+00 -0.38467043675E+03  0.37400816077E+04  0.37202471810E+04 0.  0.
        1    1    3    3  502    0 -0.28808589325E+03  0.70251792355E+03 -0.18994860151E+04  0.20456226524E+04  0.50400001928E-02 0.  1.
       -1    1    3    3    0  502  0.28808589325E+03 -0.70251792355E+03  0.15148155783E+04  0.16944589553E+04  0.50400001928E-02 0. -1.
</event>
<event>
 5   0  0.1656617E-07  0.3797951E+04  0.7818609E-02  0.8046595E-01
       -1   -1    0    0    0  501  0.00000000000E+00  0.00000000000E+00  0.13817316837E+04  0.13817316837E+04  0.50400001928E-02 0. -1.
        1   -1    0    0  501    0  0.00000000000E+00  0.00000000000E+00 -0.26098466841E+04  0.26098466841E+04  0.50400001928E-02 0.  1.
    10030    2    1    2    0    0  0.00000000000E+00  0.00000000000E+00 -0.12281150004E+04  0.39915783678E+04  0.37979509492E+04 0.  0.
        5    1    3    3  502    0  0.14327613514E+04 -0.14662065496E+03 -0.19148078145E+04  0.23959995332E+04  0.46999998093E+01 0.  1.
       -5    1    3    3    0  502 -0.14327613514E+04  0.14662065496E+03  0.68669281415E+03  0.15955788346E+04  0.46999998093E+01 0. -1.
</event>
<event>
 5   0  0.1648000E-07  0.4149156E+04  0.7818609E-02  0.7975115E-01
        1   -1    0    0  501    0  0.00000000000E+00  0.00000000000E+00  0.20126078868E+04  0.20126078869E+04  0.50400001928E-02 0.  1.
       -1   -1    0    0    0  501  0.00000000000E+00  0.00000000000E+00 -0.21384560028E+04  0.21384560028E+04  0.50400001928E-02 0. -1.
    10030    2    1    2    0    0  0.00000000000E+00  0.00000000000E+00 -0.12584811595E+03  0.41510638897E+04  0.41491557777E+04 0.  0.
        3    1    3    3  502    0  0.10356569221E+04  0.80851515518E+02  0.17336609957E+04  0.20210647407E+04  0.10100000352E+00 0.  1.
       -3    1    3    3    0  502 -0.10356569221E+04 -0.80851515518E+02 -0.18595091117E+04  0.21299991489E+04  0.10100000352E+00 0. -1.
</event>
<event>
 5   0  0.5325362E-07  0.3832854E+04  0.7818609E-02  0.8039141E-01
        2   -1    0    0  501    0  0.00000000000E+00  0.00000000000E+00  0.26384633460E+04  0.26384633460E+04  0.25500000920E-02 0.  1.
       -2   -1    0    0    0  501  0.00000000000E+00  0.00000000000E+00 -0.13919813946E+04  0.13919813946E+04  0.25500000920E-02 0. -1.
    10030    2    1    2    0    0  0.00000000000E+00  0.00000000000E+00  0.12464819513E+04  0.40304447406E+04  0.38328537086E+04 0.  0.
        4    1    3    3  502    0  0.75706708370E+03  0.90326431110E+03 -0.96583920858E+03  0.15237729407E+04  0.12699999809E+01 0. -1.
       -4    1    3    3    0  502 -0.75706708370E+03 -0.90326431110E+03  0.22123211599E+04  0.25066717999E+04  0.12699999809E+01 0.  1.
</event>
<event>
 5   0  0.5202788E-07  0.3709878E+04  0.7818609E-02  0.8065776E-01
        2   -1    0    0  501    0  0.00000000000E+00  0.00000000000E+00  0.25395977848E+04  0.25395977848E+04  0.25500000920E-02 0. -1.
       -2   -1    0    0    0  501  0.00000000000E+00  0.00000000000E+00 -0.13548597418E+04  0.13548597418E+04  0.25500000920E-02 0.  1.
    10030    2    1    2    0    0  0.00000000000E+00  0.00000000000E+00  0.11847380430E+04  0.38944575266E+04  0.37098780567E+04 0.  0.
        1    1    3    3  502    0  0.12082947082E+04  0.60531946320E+03  0.19261803358E+04  0.23529892564E+04  0.50400001928E-02 0. -1.
       -1    1    3    3    0  502 -0.12082947082E+04 -0.60531946320E+03 -0.74144229278E+03  0.15414682702E+04  0.50400001928E-02 0.  1.
</event>
<event>
 5   0  0.1648000E-07  0.3800740E+04  0.7818609E-02  0.8045996E-01
       -1   -1    0    0    0  501  0.00000000000E+00  0.00000000000E+00  0.19464917754E+04  0.19464917754E+04  0.50400001928E-02 0.  1.
        1   -1    0    0  501    0  0.00000000000E+00  0.00000000000E+00 -0.18553413978E+04  0.18553413978E+04  0.50400001928E-02 0. -1.
    10030    2    1    2    0    0  0.00000000000E+00  0.00000000000E+00  0.91150377629E+02  0.38018331732E+04  0.38007403339E+04 0.  0.
        4    1    3    3  502    0  0.12051939829E+04 -0.63837088153E+03 -0.12782082350E+04  0.18691783820E+04  0.12699999809E+01 0. -1.
       -4    1    3    3    0  502 -0.12051939829E+04  0.63837088153E+03  0.13693586127E+04  0.19326547912E+04  0.12699999809E+01 0.  1.
</event>
<event>
 5   0  0.5134434E-07  0.2901460E+04  0.7818609E-02  0.8272443E-01
        2   -1    0    0  501    0  0.00000000000E+00  0.00000000000E+00  0.21737793884E+04  0.21737793884E+04  0.25500000920E-02 0. -1.
       -2   -1    0    0    0  501  0.00000000000E+00  0.00000000000E+00 -0.96818374030E+03  0.96818374031E+03  0.25500000920E-02 0.  1.
    10030    2    1    2    0    0  0.00000000000E+00  0.00000000000E+00  0.12055956481E+04  0.31419631287E+04  0.29014602247E+04 0.  0.
        5    1    3    3  502    0 -0.11641767042E+04 -0.72477978793E+03  0.11152951835E+04  0.17676307804E+04  0.46999998093E+01 0. -1.
       -5    1    3    3    0  502  0.11641767042E+04  0.72477978793E+03  0.90300464513E+02  0.13743323482E+04  0.46999998093E+01 0.  1.
</event>
<event>
 5   0  0.1648000E-07  0.3766708E+04  0.7818609E-02  0.8053337E-01
        1   -1    0    0  501    0  0.00000000000E+00  0.00000000000E+00  0.19196455395E+04  0.19196455395E+04  0.50400001928E-02 0.  1.
       -1   -1    0    0    0  501  0.00000000000E+00  0.00000000000E+00 -0.18477489058E+04  0.18477489058E+04  0.50400001928E-02 0. -1.
    10030    2    1    2    0    0  0.00000000000E+00  0.00000000000E+00  0.71896633716E+02  0.37673944453E+04  0.37667083483E+04 0.  0.
        4    1    3    3  502    0 -0.11332991213E+04 -0.55616958595E+03  0.14338186540E+04  0.19103740608E+04  0.12699999809E+01 0.  1.
       -4    1    3    3    0  502  0.11332991213E+04  0.55616958595E+03 -0.13619220203E+04  0.18570203846E+04  0.12699999809E+01 0. -1.
</event>
<event>
 5   0  0.1648000E-07  0.2819369E+04  0.7818609E-02  0.8297280E-01
        1   -1    0    0  501    0  0.00000000000E+00  0.00000000000E+00  0.17878581309E+04  0.17878581309E+04  0.50400001928E-02 0.  1.
       -1   -1    0    0    0  501  0.00000000000E+00  0.00000000000E+00 -0.11115030981E+04  0.11115030981E+04  0.50400001928E-02 0. -1.
    10030    2    1    2    0    0  0.00000000000E+00  0.00000000000E+00  0.67635503283E+03  0.28993612290E+04  0.28193686183E+04 0.  0.
        1    1    3    3  502    0 -0.97017052405E+03 -0.57803697812E+03  0.12058291706E+04  0.16520840119E+04  0.50400001928E-02 0.  1.
       -1    1    3    3    0  502  0.97017052405E+03  0.57803697812E+03 -0.52947413772E+03  0.12472772171E+04  0.50400001928E-02 0. -1.
</event>
<event>
 5   0  0.1648000E-07  0.3077234E+04  0.7818609E-02  0.8222014E-01
       -1   -1    0    0    0  501  0.00000000000E+00  0.00000000000E+00  0.88837149142E+03  0.88837149144E+03  0.50400001928E-02 0. -1.
        1   -1    0    0  501    0  0.00000000000E+00  0.00000000000E+00 -0.26648116696E+04  0.26648116696E+04  0.50400001928E-02 0.  1.
    10030    2    1    2    0    0  0.00000000000E+00  0.00000000000E+00 -0.17764401782E+04  0.35531831610E+04  0.30772342890E+04 0.  0.
        1    1    3    3  502    0  0.14752936752E+04  0.31792819151E+02 -0.13913167945E+04  0.20281184961E+04  0.50400001928E-02 0.  1.
       -1    1    3    3    0  502 -0.14752936752E+04 -0.31792819151E+02 -0.38512338368E+03  0.15250646649E+04  0.50400001928E-02 0. -1.
</event>
<event>
 5   0  0.1648000E-07  0.2978023E+04  0.7818609E-02  0.8250035E-01
       -1   -1    0    0    0  501  0.00000000000E+00  0.00000000000E+00  0.16163748516E+04  0.16163748517E+04  0.50400001928E-02 0. -1.
        1   -1    0    0  501    0  0.00000000000E+00  0.00000000000E+00 -0.13716834922E+04  0.13716834922E+04  0.50400001928E-02 0.  1.
    10030    2    1    2    0    0  0.00000000000E+00  0.00000000000E+00  0.24469135943E+03  0.29880583439E+04  0.29780226334E+04 0.  0.
        3    1    3    3  502    0 -0.10799334962E+04  0.41047822910E+02  0.11501087194E+04  0.15781924333E+04  0.10100000352E+00 0. -1.
       -3    1    3    3    0  502  0.10799334962E+04 -0.41047822910E+02 -0.90541735995E+03  0.14098659106E+04  0.10100000352E+00 0.  1.
</event>
<event>
 5   0  0.5134434E-07  0.3772885E+04  0.7818609E-02  0.8051999E-01
       -2   -1    0    0    0  501  0.00000000000E+00  0.00000000000E+00  0.14218048213E+04  0.14218048213E+04  0.25500000920E-02 0.  1.
        2   -1    0    0  501    0  0.00000000000E+00  0.00000000000E+00 -0.25029214636E+04  0.25029214636E+04  0.25500000920E-02 0. -1.
    10030    2    1    2    0    0  0.00000000000E+00  0.00000000000E+00 -0.10811166423E+04  0.39247262849E+04  0.37728852643E+04 0.  0.
        5    1    3    3  502    0  0.12894479553E+04 -0.32585099846E+02  0.89139743392E+03  0.15679123998E+04  0.46999998093E+01 0.  1.
       -5    1    3    3    0  502 -0.12894479553E+04  0.32585099846E+02 -0.19725140763E+04  0.23568138851E+04  0.46999998093E+01 0. -1.
</event>
<event>
 5   0  0.5202788E-07  0.3177451E+04  0.7818609E-02  0.8194798E-01
       -2   -1    0    0    0  501  0.00000000000E+00  0.00000000000E+00  0.15322346834E+04  0.15322346834E+04  0.25500000920E-02 0. -1.
        2   -1    0    0  501    0  0.00000000000E+00  0.00000000000E+00 -0.16472989165E+04  0.16472989165E+04  0.25500000920E-02 0.  1.
    10030    2    1    2    0    0  0.00000000000E+00  0.00000000000E+00 -0.11506423316E+03  0.31795335999E+04  0.31774508864E+04 0.  0.
        1    1    3    3  502    0  0.12513432855E+03 -0.11648828682E+04  0.10162219476E+04  0.15509086832E+04  0.50400001928E-02 0. -1.
       -1    1    3    3    0  502 -0.12513432855E+03  0.11648828682E+04 -0.11312861807E+04  0.16286249168E+04  0.50400001928E-02 0.  1.
</event>
<event>
 5   0  0.1648000E-07  0.3658577E+04  0.7818609E-02  0.8077204E-01
       -1   -1    0    0    0  501  0.00000000000E+00  0.00000000000E+00  0.17608819801E+04  0.17608819802E+04  0.50400001928E-02 0. -1.
        1   -1    0    0  501    0  0.00000000000E+00  0.00000000000E+00 -0.19003521975E+04  0.19003521976E+04  0.50400001928E-02 0.  1.
    10030    2    1    2    0    0  0.00000000000E+00  0.00000000000E+00 -0.13947021740E+03  0.36612341777E+04  0.36585767400E+04 0.  0.
        4    1    3    3  502    0  0.67279549025E+03  0.16997371267E+04 -0.23493124075E+01  0.18280501097E+04  0.12699999809E+01 0.  1.
       -4    1    3    3    0  502 -0.67279549025E+03 -0.16997371267E+04 -0.13712090499E+03  0.18331840680E+04  0.12699999809E+01 0. -1.
</event>
<event>
 5   0  0.1648000E-07  0.3800030E+04  0.7818609E-02  0.8046149E-01
       -1   -1    0    0    0  501  0.00000000000E+00  0.00000000000E+00  0.15724787711E+04  0.15724787711E+04  0.50400001928E-02 0.  1.
        1   -1    0    0  501    0  0.00000000000E+00  0.00000000000E+00 -0.22957741980E+04  0.22957741980E+04  0.50400001928E-02 0. -1.
    10030    2    1    2    0    0  0.00000000000E+00  0.00000000000E+00 -0.72329542694E+03  0.38682529691E+04  0.38000295733E+04 0.  0.
        3    1    3    3  502    0 -0.25701896018E+03 -0.14218682804E+04 -0.16176091557E+04  0.21689692352E+04  0.10100000352E+00 0. -1.
       -3    1    3    3    0  502  0.25701896018E+03  0.14218682804E+04  0.89431372873E+03  0.16992837339E+04  0.10100000352E+00 0.  1.
</event>
<event>
 5   0  0.5134434E-07  0.3705753E+04  0.7818609E-02  0.8066688E-01
        2   -1    0    0  501    0  0.00000000000E+00  0.00000000000E+00  0.13620094345E+04  0.13620094345E+04  0.25500000920E-02 0. -1.
       -2   -1    0    0    0  501  0.00000000000E+00  0.00000000000E+00 -0.25206510717E+04  0.25206510717E+04  0.25500000920E-02 0.  1.
    10030    2    1    2    0    0  0.00000000000E+00  0.00000000000E+00 -0.11586416372E+04  0.38826605061E+04  0.37057525771E+04 0.  0.
        5    1    3    3  502    0  0.15122235876E+03 -0.17474665931E+04 -0.12050066294E+04  0.21280438818E+04  0.46999998093E+01 0.  1.
       -5    1    3    3    0  502 -0.15122235876E+03  0.17474665931E+04  0.46364992270E+02  0.17546166243E+04  0.46999998093E+01 0. -1.
</event>
<event>
 5   0  0.1648000E-07  0.3815561E+04  0.7818609E-02  0.8042824E-01
        1   -1    0    0  501    0  0.00000000000E+00  0.00000000000E+00  0.14341705101E+04  0.14341705102E+04  0.50400001928E-02 0.  1.
       -1   -1    0    0    0  501  0.00000000000E+00  0.00000000000E+00 -0.25377918177E+04  0.25377918177E+04  0.50400001928E-02 0. -1.
    10030    2    1    2    0    0  0.00000000000E+00  0.00000000000E+00 -0.11036213076E+04  0.39719623279E+04  0.38155608688E+04 0.  0.
        3    1    3    3  502    0  0.17856763011E+04 -0.66031947474E+03 -0.42446678192E+03  0.19505982980E+04  0.10100000352E+00 0.  1.
       -3    1    3    3    0  502 -0.17856763011E+04  0.66031947474E+03 -0.67915452566E+03  0.20213640298E+04  0.10100000352E+00 0. -1.
</event>
<event>
 5   0  0.1648000E-07  0.3475660E+04  0.7818609E-02  0.8119582E-01
       -1   -1    0    0    0  501  0.00000000000E+00  0.00000000000E+00  0.15013245682E+04  0.15013245682E+04  0.50400001928E-02 0.  1.
        1   -1    0    0  501    0  0.00000000000E+00  0.00000000000E+00 -0.20115926925E+04  0.20115926925E+04  0.50400001928E-02 0. -1.
    10030    2    1    2    0    0  0.00000000000E+00  0.00000000000E+00 -0.51026812435E+03  0.35129172607E+04  0.34756602426E+04 0.  0.
        3    1    3    3  502    0 -0.15408019385E+03 -0.17051669819E+04 -0.55618320936E+03  0.18001874666E+04  0.10100000352E+00 0.  1.
       -3    1    3    3    0  502  0.15408019385E+03  0.17051669819E+04  0.45915085014E+02  0.17127297941E+04  0.10100000352E+00 0. -1.
</event>
<event>
 5   0  0.5325362E-07  0.3803593E+04  0.7818609E-02  0.8045384E-01
       -2   -1    0    0    0  501  0.00000000000E+00  0.00000000000E+00  0.17375181147E+04  0.17375181147E+04  0.25500000920E-02 0. -1.
        2   -1    0    0  501    0  0.00000000000E+00  0.00000000000E+00 -0.20816069650E+04  0.20816069650E+04  0.25500000920E-02 0.  1.
    10030    2    1    2    0    0  0.00000000000E+00  0.00000000000E+00 -0.34408885031E+03  0.38191250797E+04  0.38035929379E+04 0.  0.
        4    1    3    3  502    0  0.96686823077E+03 -0.16171978267E+04  0.87205999018E+02  0.18862050486E+04  0.12699999809E+01 0.  1.
       -4    1    3    3    0  502 -0.96686823077E+03  0.16171978267E+04 -0.43129484933E+03  0.19329200310E+04  0.12699999809E+01 0. -1.
</event>
<event>
 5   0  0.5158266E-07  0.3688448E+04  0.7818609E-02  0.8070527E-01
       -2   -1    0    0    0  501  0.00000000000E+00  0.00000000000E+00  0.19907174100E+04  0.19907174100E+04  0.25500000920E-02 0.  1.
        2   -1    0    0  501    0  0.00000000000E+00  0.00000000000E+00 -0.17085109587E+04  0.17085109587E+04  0.25500000920E-02 0. -1.
    10030    2    1    2    0    0  0.00000000000E+00  0.00000000000E+00  0.28220645135E+03  0.36992283687E+04  0.36884481889E+04 0.  0.
        2    1    3    3  502    0 -0.15893459073E+04 -0.22937365118E+03 -0.76848176016E+03  0.17802238344E+04  0.25500000920E-02 0. -1.
       -2    1    3    3    0  502  0.15893459073E+04  0.22937365118E+03  0.10506882115E+04  0.19190045343E+04  0.25500000920E-02 0.  1.
</event>
<event>
 5   0  0.1648000E-07  0.3801530E+04  0.7818609E-02  0.8045827E-01
       -1   -1    0    0    0  501  0.00000000000E+00  0.00000000000E+00  0.13496569561E+04  0.13496569561E+04  0.50400001928E-02 0. -1.
        1   -1    0    0  501    0  0.00000000000E+00  0.00000000000E+00 -0.26769082937E+04  0.26769082937E+04  0.50400001928E-02 0.  1.
    10030    2    1    2    0    0  0.00000000000E+00  0.00000000000E+00 -0.13272513376E+04  0.40265652499E+04  0.38015301654E+04 0.  0.
        2    1    3    3  502    0 -0.48079789877E+03  0.13860727456E+04 -0.19436952187E+04  0.24352238868E+04  0.25500000920E-02 0.  1.
       -2    1    3    3    0  502  0.48079789877E+03 -0.13860727456E+04  0.61644388108E+03  0.15913413631E+04  0.25500000920E-02 0. -1.
</event>
<event>
 5   0  0.5158266E-07  0.3848405E+04  0.7818609E-02  0.8035846E-01
       -2   -1    0    0    0  501  0.00000000000E+00  0.00000000000E+00  0.18110132423E+04  0.18110132423E+04  0.25500000920E-02 0. -1.
        2   -1    0    0  501    0  0.00000000000E+00  0.00000000000E+00 -0.20444664404E+04  0.20444664404E+04  0.25500000920E-02 0.  1.
    10030    2    1    2    0    0  0.00000000000E+00  0.00000000000E+00 -0.23345319811E+03  0.38554796828E+04  0.38484052786E+04 0.  0.
        2    1    3    3  502    0 -0.18519073156E+02 -0.23768180706E+03  0.17961602633E+04  0.18119126052E+04  0.25500000920E-02 0. -1.
       -2    1    3    3    0  502  0.18519073156E+02  0.23768180706E+03 -0.20296134614E+04  0.20435670775E+04  0.25500000920E-02 0.  1.
</event>
<event>
 5   0  0.1648000E-07  0.3811305E+04  0.7818609E-02  0.8043733E-01
       -1   -1    0    0    0  501  0.00000000000E+00  0.00000000000E+00  0.26208534768E+04  0.26208534769E+04  0.50400001928E-02 0. -1.
        1   -1    0    0  501    0  0.00000000000E+00  0.00000000000E+00 -0.13856219452E+04  0.13856219452E+04  0.50400001928E-02 0.  1.
    10030    2    1    2    0    0  0.00000000000E+00  0.00000000000E+00  0.12352315317E+04  0.40064754220E+04  0.38113053368E+04 0.  0.
        2    1    3    3  502    0 -0.11362021181E+04  0.48313943247E+03  0.21435461736E+04  0.24736954466E+04  0.25500000920E-02 0. -1.
       -2    1    3    3    0  502  0.11362021181E+04 -0.48313943247E+03 -0.90831464187E+03  0.15327799754E+04  0.25500000920E-02 0.  1.
</event>
<event>
 5   0  0.1648000E-07  0.3805580E+04  0.7818609E-02  0.8044959E-01
       -1   -1    0    0    0  501  0.00000000000E+00  0.00000000000E+00  0.20065272713E+04  0.20065272713E+04  0.50400001928E-02 0. -1.
        1   -1    0    0  501    0  0.00000000000E+00  0.00000000000E+00 -0.18044157714E+04  0.18044157714E+04  0.50400001928E-02 0.  1.
    10030    2    1    2    0    0  0.00000000000E+00  0.00000000000E+00  0.20211149990E+03  0.38109430427E+04  0.38055798266E+04 0.  0.
        1    1    3    3  502    0 -0.14818654404E+04  0.10157365402E+04 -0.52669574662E+03  0.18721790278E+04  0.50400001928E-02 0. -1.
       -1    1    3    3    0  502  0.14818654404E+04 -0.10157365402E+04  0.72880724652E+03  0.19387640149E+04  0.50400001928E-02 0.  1.
</event>
<event>
 5   0  0.5158266E-07  0.3848070E+04  0.7818609E-02  0.8035917E-01
        2   -1    0    0  501    0  0.00000000000E+00  0.00000000000E+00  0.17756336307E+04  0.17756336307E+04  0.25500000920E-02 0.  1.
       -2   -1    0    0    0  501  0.00000000000E+00  0.00000000000E+00 -0.20848391696E+04  0.20848391696E+04  0.25500000920E-02 0. -1.
    10030    2    1    2    0    0  0.00000000000E+00  0.00000000000E+00 -0.30920553891E+03  0.38604728004E+04  0.38480699288E+04 0.  0.
        2    1    3    3  502    0 -0.78893138598E+03 -0.23829634964E+03  0.15895959926E+04  0.17905343621E+04  0.25500000920E-02 0.  1.
       -2    1    3    3    0  502  0.78893138598E+03  0.23829634964E+03 -0.18988015316E+04  0.20699384383E+04  0.25500000920E-02 0. -1.
</event>
<event>
 5   0  0.5325362E-07  0.3778510E+04  0.7818609E-02  0.8050782E-01
       -2   -1    0    0    0  501  0.00000000000E+00  0.00000000000E+00  0.19489103429E+04  0.19489103429E+04  0.25500000920E-02 0. -1.
        2   -1    0    0  501    0  0.00000000000E+00  0.00000000000E+00 -0.18314258104E+04  0.18314258104E+04  0.25500000920E-02 0.  1.
    10030    2    1    2    0    0  0.00000000000E+00  0.00000000000E+00  0.11748453244E+03  0.37803361533E+04  0.37785101319E+04 0.  0.
        4    1    3    3  502    0  0.73268010629E+02 -0.95894551908E+03 -0.15681857687E+04  0.18396067319E+04  0.12699999809E+01 0.  1.
       -4    1    3    3    0  502 -0.73268010629E+02  0.95894551908E+03  0.16856703012E+04  0.19407294214E+04  0.12699999809E+01 0. -1.
</event>
<event>
 5   0  0.5202788E-07  0.3859889E+04  0.7818609E-02  0.8033424E-01
        2   -1    0    0  501    0  0.00000000000E+00  0.00000000000E+00  0.16876564673E+04  0.16876564673E+04  0.25500000920E-02 0.  1.
       -2   -1    0    0    0  501  0.00000000000E+00  0.00000000000E+00 -0.22070168738E+04  0.22070168738E+04  0.25500000920E-02 0. -1.
    10030    2    1    2    0    0  0.00000000000E+00  0.00000000000E+00 -0.51936040654E+03  0.38946733411E+04  0.38598892733E+04 0.  0.
        1    1    3    3  502    0  0.20000854542E+03 -0.31552813145E+03 -0.21701858929E+04  0.22021054084E+04  0.50400001928E-02 0. -1.
       -1    1    3    3    0  502 -0.20000854542E+03  0.31552813145E+03  0.16508254864E+04  0.16925679326E+04  0.50400001928E-02 0.  1.
</event>
<event>
 5   0  0.5202788E-07  0.3827883E+04  0.7818609E-02  0.8040198E-01
        2   -1    0    0  501    0  0.00000000000E+00  0.00000000000E+00  0.11186059354E+04  0.11186059354E+04  0.25500000920E-02 0. -1.
       -2   -1    0    0    0  501  0.00000000000E+00  0.00000000000E+00 -0.32747647823E+04  0.32747647823E+04  0.25500000920E-02 0.  1.
    10030    2    1    2    0    0  0.00000000000E+00  0.00000000000E+00 -0.21561588469E+04  0.43933707177E+04  0.38278826118E+04 0.  0.
        1    1    3    3  502    0  0.27199721573E+03  0.60560134041E+03  0.98222493184E+03  0.11855383948E+04  0.50400001928E-02 0. -1.
       -1    1    3    3    0  502 -0.27199721573E+03 -0.60560134041E+03 -0.31383837787E+04  0.32078323228E+04  0.50400001928E-02 0.  1.
</event>
<event>
 5   0  0.1648000E-07  0.3770226E+04  0.7818609E-02  0.8052575E-01
       -1   -1    0    0    0  501  0.00000000000E+00  0.00000000000E+00  0.13505807765E+04  0.13505807765E+04  0.50400001928E-02 0.  1.
        1   -1    0    0  501    0  0.00000000000E+00  0.00000000000E+00 -0.26312017286E+04  0.26312017286E+04  0.50400001928E-02 0. -1.
    10030    2    1    2    0    0  0.00000000000E+00  0.00000000000E+00 -0.12806209521E+04  0.39817825051E+04  0.37702257088E+04 0.  0.
        2    1    3    3  502    0  0.11686643342E+04 -0.39946640044E+03  0.86378830199E+03  0.15071429798E+04  0.25500000920E-02 0.  1.
       -2    1    3    3    0  502 -0.11686643342E+04  0.39946640044E+03 -0.21444092541E+04  0.24746395253E+04  0.25500000920E-02 0. -1.
</event>
<event>
 5   0  0.1648000E-07  0.3812310E+04  0.7818609E-02  0.8043518E-01
       -1   -1    0    0    0  501  0.00000000000E+00  0.00000000000E+00  0.18138740472E+04  0.18138740472E+04  0.50400001928E-02 0.  1.
        1   -1    0    0  501    0  0.00000000000E+00  0.00000000000E+00 -0.20031312196E+04  0.20031312196E+04  0.50400001928E-02 0. -1.
    10030    2    1    2    0    0  0.00000000000E+00  0.00000000000E+00 -0.18925717246E+03  0.38170052668E+04  0.38123104451E+04 0.  0.
        2    1    3    3  502    0 -0.12496063329E+04 -0.27355837881E+03 -0.15095488486E+04  0.19786581059E+04  0.25500000920E-02 0. -1.
       -2    1    3    3    0  502  0.12496063329E+04  0.27355837881E+03  0.13202916761E+04  0.18383471609E+04  0.25500000920E-02 0.  1.
</event>
<event>
 5   0  0.5202788E-07  0.3638822E+04  0.7818609E-02  0.8081656E-01
       -2   -1    0    0    0  501  0.00000000000E+00  0.00000000000E+00  0.12814253516E+04  0.12814253516E+04  0.25500000920E-02 0. -1.
        2   -1    0    0  501    0  0.00000000000E+00  0.00000000000E+00 -0.25832613209E+04  0.25832613209E+04  0.25500000920E-02 0.  1.
    10030    2    1    2    0    0  0.00000000000E+00  0.00000000000E+00 -0.13018359693E+04  0.38646866725E+04  0.36388220877E+04 0.  0.
        1    1    3    3  502    0  0.17916259562E+01  0.49768007203E+03  0.12077265077E+04  0.13062511173E+04  0.50400001928E-02 0. -1.
       -1    1    3    3    0  502 -0.17916259562E+01 -0.49768007203E+03 -0.25095624770E+04  0.25584355552E+04  0.50400001928E-02 0.  1.
</event>
<event>
 5   0  0.5134434E-07  0.3893857E+04  0.7818609E-02  0.8026308E-01
       -2   -1    0    0    0  501  0.00000000000E+00  0.00000000000E+00  0.14968604641E+04  0.14968604641E+04  0.25500000920E-02 0. -1.
        2   -1    0    0  501    0  0.00000000000E+00  0.00000000000E+00 -0.25323208832E+04  0.25323208832E+04  0.25500000920E-02 0.  1.
    10030    2    1    2    0    0  0.00000000000E+00  0.00000000000E+00 -0.10354604191E+04  0.40291813474E+04  0.38938572201E+04 0.  0.
        5    1    3    3  502    0 -0.94880711362E+03  0.16993558257E+04 -0.46636889647E+03  0.20013913158E+04  0.46999998093E+01 0.  1.
       -5    1    3    3    0  502  0.94880711362E+03 -0.16993558257E+04 -0.56909152264E+03  0.20277900316E+04  0.46999998093E+01 0. -1.
</event>
<event>
 5   0  0.5325362E-07  0.3750122E+04  0.7818609E-02  0.8056944E-01
        2   -1    0    0  501    0  0.00000000000E+00  0.00000000000E+00  0.25160717458E+04  0.25160717458E+04  0.25500000920E-02 0.  1.
       -2   -1    0    0    0  501  0.00000000000E+00  0.00000000000E+00 -0.13973581081E+04  0.13973581081E+04  0.25500000920E-02 0. -1.
    10030    2    1    2    0    0  0.00000000000E+00  0.00000000000E+00  0.11187136377E+04  0.39134298539E+04  0.37501217337E+04 0.  0.
        4    1    3    3  502    0 -0.11390865111E+04  0.66333714823E+03  0.19509645271E+04  0.23545272245E+04  0.12699999809E+01 0.  1.
       -4    1    3    3    0  502  0.11390865111E+04 -0.66333714823E+03 -0.83225088938E+03  0.15589026294E+04  0.12699999809E+01 0. -1.
</event>
<event>
 5   0  0.1648000E-07  0.3780894E+04  0.7818609E-02  0.8050267E-01
       -1   -1    0    0    0  501  0.00000000000E+00  0.00000000000E+00  0.14585371737E+04  0.14585371737E+04  0.50400001928E-02 0. -1.
        1   -1    0    0  501    0  0.00000000000E+00  0.00000000000E+00 -0.24502560846E+04  0.24502560846E+04  0.50400001928E-02 0.  1.
    10030    2    1    2    0    0  0.00000000000E+00  0.00000000000E+00 -0.99171891083E+03  0.39087932583E+04  0.37808938544E+04 0.  0.
        1    1    3    3  502    0 -0.13053414706E+04 -0.13631075331E+04 -0.38350428207E+03  0.19258904528E+04  0.50400001928E-02 0.  1.
       -1    1    3    3    0  502  0.13053414706E+04  0.13631075331E+04 -0.60821462876E+03  0.19829028056E+04  0.50400001928E-02 0. -1.
</event>
<event>
 5   0  0.5132561E-07  0.3850537E+04  0.7818609E-02  0.8035396E-01
        2   -1    0    0  501    0  0.00000000000E+00  0.00000000000E+00  0.26787064393E+04  0.26787064393E+04  0.25500000920E-02 0. -1.
       -2   -1    0    0    0  501  0.00000000000E+00  0.00000000000E+00 -0.13837493361E+04  0.13837493362E+04  0.25500000920E-02 0.  1.
    10030    2    1    2    0    0  0.00000000000E+00  0.00000000000E+00  0.12949571031E+04  0.40624557754E+04  0.38505367195E+04 0.  0.
        3    1    3    3  502    0  0.73820307811E+03  0.28613803581E+03 -0.12040542840E+04  0.14410293158E+04  0.10100000352E+00 0.  1.
       -3    1    3    3    0  502 -0.73820307811E+03 -0.28613803581E+03  0.24990113871E+04  0.26214264596E+04  0.10100000352E+00 0. -1.
</event>
<event>
 5   0  0.5202788E-07  0.3825124E+04  0.7818609E-02  0.8040785E-01
       -2   -1    0    0    0  501  0.00000000000E+00  0.00000000000E+00  0.17461109039E+04  0.17461109039E+04  0.25500000920E-02 0. -1.
        2   -1    0    0  501    0  0.00000000000E+00  0.00000000000E+00 -0.20948800127E+04  0.20948800127E+04  0.25500000920E-02 0.  1.
    10030    2    1    2    0    0  0.00000000000E+00  0.00000000000E+00 -0.34876910885E+03  0.38409909166E+04  0.38251237013E+04 0.  0.
        1    1    3    3  502    0 -0.87933461054E+03  0.11568482101E+03 -0.18758988656E+04  0.20749961179E+04  0.50400001928E-02 0.  1.
       -1    1    3    3    0  502  0.87933461054E+03 -0.11568482101E+03  0.15271297568E+04  0.17659947988E+04  0.50400001928E-02 0. -1.
</event>
<event>
 5   0  0.1648000E-07  0.3814732E+04  0.7818609E-02  0.8043001E-01
        1   -1    0    0  501    0  0.00000000000E+00  0.00000000000E+00  0.26665982103E+04  0.26665982103E+04  0.50400001928E-02 0. -1.
       -1   -1    0    0    0  501  0.00000000000E+00  0.00000000000E+00 -0.13643020086E+04  0.13643020086E+04  0.50400001928E-02 0.  1.
    10030    2    1    2    0    0  0.00000000000E+00  0.00000000000E+00  0.13022962017E+04  0.40309002189E+04  0.38147321240E+04 0.  0.
        4    1    3    3  502    0 -0.89052883512E+03  0.97994234028E+03  0.21017921289E+04  0.24841216481E+04  0.12699999809E+01 0. -1.
       -4    1    3    3    0  502  0.89052883512E+03 -0.97994234028E+03 -0.79949592726E+03  0.15467785708E+04  0.12699999809E+01 0.  1.
</event>
<event>
 5   0  0.5132561E-07  0.3784250E+04  0.7818609E-02  0.8049543E-01
        2   -1    0    0  501    0  0.00000000000E+00  0.00000000000E+00  0.17263452262E+04  0.17263452262E+04  0.25500000920E-02 0. -1.
       -2   -1    0    0    0  501  0.00000000000E+00  0.00000000000E+00 -0.20738246385E+04  0.20738246385E+04  0.25500000920E-02 0.  1.
    10030    2    1    2    0    0  0.00000000000E+00  0.00000000000E+00 -0.34747941222E+03  0.38001698647E+04  0.37842501316E+04 0.  0.
        3    1    3    3  502    0  0.10514688710E+04  0.15389969187E+04  0.15326642006E+03  0.18701841909E+04  0.10100000352E+00 0.  1.
       -3    1    3    3    0  502 -0.10514688710E+04 -0.15389969187E+04 -0.50074583228E+03  0.19299856738E+04  0.10100000352E+00 0. -1.
</event>
<event>
 5   0  0.5202788E-07  0.3785229E+04  0.7818609E-02  0.8049332E-01
       -2   -1    0    0    0  501  0.00000000000E+00  0.00000000000E+00  0.23090016868E+04  0.23090016868E+04  0.25500000920E-02 0.  1.
        2   -1    0    0  501    0  0.00000000000E+00  0.00000000000E+00 -0.15513151042E+04  0.15513151042E+04  0.25500000920E-02 0. -1.
    10030    2    1    2    0    0  0.00000000000E+00  0.00000000000E+00  0.75768658260E+03  0.38603167909E+04  0.37852287605E+04 0.  0.
        1    1    3    3  502    0  0.11182705867E+04  0.12343348434E+04 -0.53780681466E+03  0.17502422062E+04  0.50400001928E-02 0. -1.
       -1    1    3    3    0  502 -0.11182705867E+04 -0.12343348434E+04  0.12954933973E+04  0.21100745847E+04  0.50400001928E-02 0.  1.
</event>
<event>
 5   0  0.1648000E-07  0.3770436E+04  0.7818609E-02  0.8052529E-01
        1   -1    0    0  501    0  0.00000000000E+00  0.00000000000E+00  0.15298425922E+04  0.15298425922E+04  0.50400001928E-02 0.  1.
       -1   -1    0    0    0  501  0.00000000000E+00  0.00000000000E+00 -0.23231458862E+04  0.23231458862E+04  0.50400001928E-02 0. -1.
    10030    2    1    2    0    0  0.00000000000E+00  0.00000000000E+00 -0.79330329401E+03  0.38529884784E+04  0.37704363273E+04 0.  0.
        2    1    3    3  502    0  0.31974120984E+03 -0.10625922280E+04  0.11607609125E+04  0.16058339205E+04  0.25500000920E-02 0.  1.
       -2    1    3    3    0  502 -0.31974120984E+03  0.10625922280E+04 -0.19540642065E+04  0.22471545579E+04  0.25500000920E-02 0. -1.
</event>
<event>
 5   0  0.5134434E-07  0.3798146E+04  0.7818609E-02  0.8046553E-01
        2   -1    0    0  501    0  0.00000000000E+00  0.00000000000E+00  0.21172616417E+04  0.21172616417E+04  0.25500000920E-02 0. -1.
       -2   -1    0    0    0  501  0.00000000000E+00  0.00000000000E+00 -0.17033690902E+04  0.17033690902E+04  0.25500000920E-02 0.  1.
    10030    2    1    2    0    0  0.00000000000E+00  0.00000000000E+00  0.41389255147E+03  0.38206307320E+04  0.37981458826E+04 0.  0.
        5    1    3    3  502    0 -0.68889593330E+03  0.31980464526E+03  0.19578259771E+04  0.20999898249E+04  0.46999998093E+01 0. -1.
       -5    1    3    3    0  502  0.68889593330E+03 -0.31980464526E+03 -0.15439334257E+04  0.17206409070E+04  0.46999998093E+01 0.  1.
</event>
<event>
 5   0  0.1648000E-07  0.3197819E+04  0.7818609E-02  0.8189393E-01
       -1   -1    0    0    0  501  0.00000000000E+00  0.00000000000E+00  0.11143675087E+04  0.11143675087E+04  0.50400001928E-02 0. -1.
        1   -1    0    0  501    0  0.00000000000E+00  0.00000000000E+00 -0.22941364166E+04  0.22941364166E+04  0.50400001928E-02 0.  1.
    10030    2    1    2    0    0  0.00000000000E+00  0.00000000000E+00 -0.11797689079E+04  0.34085039253E+04  0.31978186835E+04 0.  0.
        1    1    3    3  502    0  0.74391280675E+03 -0.16122320501E+03  0.90885309325E+03  0.11855012151E+04  0.50400001928E-02 0. -1.
       -1    1    3    3    0  502 -0.74391280675E+03  0.16122320501E+03 -0.20886220011E+04  0.22230027102E+04  0.50400001928E-02 0.  1.
</event>
<event>
 5   0  0.5202788E-07  0.3714239E+04  0.7818609E-02  0.8064814E-01
       -2   -1    0    0    0  501  0.00000000000E+00  0.00000000000E+00  0.14591724450E+04  0.14591724450E+04  0.25500000920E-02 0. -1.
        2   -1    0    0  501    0  0.00000000000E+00  0.00000000000E+00 -0.23635951836E+04  0.23635951836E+04  0.25500000920E-02 0.  1.
    10030    2    1    2    0    0  0.00000000000E+00  0.00000000000E+00 -0.90442273860E+03  0.38227676286E+04  0.37142390677E+04 0.  0.
        1    1    3    3  502    0 -0.10111168748E+04  0.15575348995E+04 -0.42657026190E+03  0.19053174239E+04  0.50400001928E-02 0.  1.
       -1    1    3    3    0  502  0.10111168748E+04 -0.15575348995E+04 -0.47785247671E+03  0.19174502046E+04  0.50400001928E-02 0. -1.
</event>
<event>
 5   0  0.5158266E-07  0.3055416E+04  0.7818609E-02  0.8228081E-01
       -2   -1    0    0    0  501  0.00000000000E+00  0.00000000000E+00  0.15219779932E+04  0.15219779932E+04  0.25500000920E-02 0.  1.
        2   -1    0    0  501    0  0.00000000000E+00  0.00000000000E+00 -0.15334599930E+04  0.15334599930E+04  0.25500000920E-02 0. -1.
    10030    2    1    2    0    0  0.00000000000E+00  0.00000000000E+00 -0.11481999741E+02  0.30554379862E+04  0.30554164121E+04 0.  0.
        2    1    3    3  502    0 -0.79252223778E+03  0.11824297133E+04  0.54893474618E+03  0.15256345827E+04  0.25500000920E-02 0.  1.
       -2    1    3    3    0  502  0.79252223778E+03 -0.11824297133E+04 -0.56041674592E+03  0.15298034035E+04  0.25500000920E-02 0. -1.
</event>
<event>
 5   0  0.1648000E-07  0.3774703E+04  0.7818609E-02  0.8051605E-01
        3   -1    0    0  501    0  0.00000000000E+00  0.00000000000E+00  0.21928635633E+04  0.21928635656E+04  0.10100000352E+00 0. -1.
       -3   -1    0    0    0  501  0.00000000000E+00  0.00000000000E+00 -0.16244038137E+04  0.16244038168E+04  0.10100000352E+00 0.  1.
    10030    2    1    2    0    0  0.00000000000E+00  0.00000000000E+00  0.56845974961E+03  0.38172673825E+04  0.37747031383E+04 0.  0.
        2    1    3    3  502    0 -0.37498705410E+03  0.18332207829E+04  0.53355040598E+03  0.19457620012E+04  0.25500000920E-02 0. -1.
       -2    1    3    3    0  502  0.37498705410E+03 -0.18332207829E+04  0.34909343628E+02  0.18715053812E+04  0.25500000920E-02 0.  1.
</event>
<event>
 5   0  0.1648000E-07  0.2818432E+04  0.7818609E-02  0.8297569E-01
       -1   -1    0    0    0  501  0.00000000000E+00  0.00000000000E+00  0.12889292496E+04  0.12889292496E+04  0.50400001928E-02 0. -1.
        1   -1    0    0  501    0  0.00000000000E+00  0.00000000000E+00 -0.15407284344E+04  0.15407284345E+04  0.50400001928E-02 0.  1.
    10030    2    1    2    0    0  0.00000000000E+00  0.00000000000E+00 -0.25179918485E+03  0.28296576841E+04  0.28184321492E+04 0.  0.
        3    1    3    3  502    0  0.88894366585E+03  0.37189026697E+03  0.90647934451E+03  0.13229618377E+04  0.10100000352E+00 0. -1.
       -3    1    3    3    0  502 -0.88894366585E+03 -0.37189026697E+03 -0.11582785294E+04  0.15066958464E+04  0.10100000352E+00 0.  1.
</event>
<event>
 5   0  0.5132561E-07  0.3739557E+04  0.7818609E-02  0.8059252E-01
       -2   -1    0    0    0  501  0.00000000000E+00  0.00000000000E+00  0.15153268133E+04  0.15153268133E+04  0.25500000920E-02 0.  1.
        2   -1    0    0  501    0  0.00000000000E+00  0.00000000000E+00 -0.23071407132E+04  0.23071407132E+04  0.25500000920E-02 0. -1.
    10030    2    1    2    0    0  0.00000000000E+00  0.00000000000E+00 -0.79181389993E+03  0.38224675265E+04  0.37395572919E+04 0.  0.
        3    1    3    3  502    0  0.73790536042E+03 -0.17100809666E+04 -0.22735424141E+03  0.18763185216E+04  0.10100000352E+00 0. -1.
       -3    1    3    3    0  502 -0.73790536042E+03  0.17100809666E+04 -0.56445965852E+03  0.19461490049E+04  0.10100000352E+00 0.  1.
</event>
<event>
 5   0  0.5134434E-07  0.3818634E+04  0.7818609E-02  0.8042168E-01
        2   -1    0    0  501    0  0.00000000000E+00  0.00000000000E+00  0.12666891815E+04  0.12666891815E+04  0.25500000920E-02 0. -1.
       -2   -1    0    0    0  501  0.00000000000E+00  0.00000000000E+00 -0.28779681757E+04  0.28779681757E+04  0.25500000920E-02 0.  1.
    10030    2    1    2    0    0  0.00000000000E+00  0.00000000000E+00 -0.16112789942E+04  0.41446573572E+04  0.38186338671E+04 0.  0.
        5    1    3    3  502    0  0.68672043825E+03  0.17153699501E+04 -0.13277385921E+04  0.22753001747E+04  0.46999998093E+01 0.  1.
       -5    1    3    3    0  502 -0.68672043825E+03 -0.17153699501E+04 -0.28354040216E+03  0.18693571825E+04  0.46999998093E+01 0. -1.
</event>
<event>
 5   0  0.1648000E-07  0.3764851E+04  0.7818609E-02  0.8053740E-01
        3   -1    0    0  501    0  0.00000000000E+00  0.00000000000E+00  0.19996820505E+04  0.19996820531E+04  0.10100000352E+00 0.  1.
       -3   -1    0    0    0  501  0.00000000000E+00  0.00000000000E+00 -0.17720446975E+04  0.17720447004E+04  0.10100000352E+00 0. -1.
    10030    2    1    2    0    0  0.00000000000E+00  0.00000000000E+00  0.22763735308E+03  0.37717267535E+04  0.37648511177E+04 0.  0.
        2    1    3    3  502    0 -0.17379347940E+04 -0.64599954609E+03  0.43967138817E+03  0.19055297666E+04  0.25500000920E-02 0.  1.
       -2    1    3    3    0  502  0.17379347940E+04  0.64599954609E+03 -0.21203403510E+03  0.18661969869E+04  0.25500000920E-02 0. -1.
</event>
<event>
 5   0  0.5202788E-07  0.3758687E+04  0.7818609E-02  0.8055079E-01
       -2   -1    0    0    0  501  0.00000000000E+00  0.00000000000E+00  0.13279824187E+04  0.13279824187E+04  0.25500000920E-02 0.  1.
        2   -1    0    0  501    0  0.00000000000E+00  0.00000000000E+00 -0.26596226811E+04  0.26596226811E+04  0.25500000920E-02 0. -1.
    10030    2    1    2    0    0  0.00000000000E+00  0.00000000000E+00 -0.13316402624E+04  0.39876050999E+04  0.37586870905E+04 0.  0.
        1    1    3    3  502    0 -0.17195050332E+04  0.41405430862E+03 -0.13399688336E+04  0.22189310500E+04  0.50400001928E-02 0. -1.
       -1    1    3    3    0  502  0.17195050332E+04 -0.41405430862E+03  0.83285712455E+01  0.17686740499E+04  0.50400001928E-02 0.  1.
</event>
<event>
 5   0  0.1648000E-07  0.3845651E+04  0.7818609E-02  0.8036429E-01
        1   -1    0    0  501    0  0.00000000000E+00  0.00000000000E+00  0.24765893348E+04  0.24765893348E+04  0.50400001928E-02 0.  1.
       -1   -1    0    0    0  501  0.00000000000E+00  0.00000000000E+00 -0.14928831525E+04  0.14928831525E+04  0.50400001928E-02 0. -1.
    10030    2    1    2    0    0  0.00000000000E+00  0.00000000000E+00  0.98370618225E+03  0.39694724873E+04  0.38456513069E+04 0.  0.
        1    1    3    3  502    0 -0.22175608118E+03  0.11441008929E+04 -0.10868074782E+04  0.15935159577E+04  0.50400001928E-02 0. -1.
       -1    1    3    3    0  502  0.22175608118E+03 -0.11441008929E+04  0.20705136604E+04  0.23759565296E+04  0.50400001928E-02 0.  1.
</event>
<event>
 5   0  0.5132561E-07  0.3801570E+04  0.7818609E-02  0.8045818E-01
        2   -1    0    0  501    0  0.00000000000E+00  0.00000000000E+00  0.17130606945E+04  0.17130606945E+04  0.25500000920E-02 0.  1.
       -2   -1    0    0    0  501  0.00000000000E+00  0.00000000000E+00 -0.21090812988E+04  0.21090812988E+04  0.25500000920E-02 0. -1.
    10030    2    1    2    0    0  0.00000000000E+00  0.00000000000E+00 -0.39602060427E+03  0.38221419934E+04  0.38015703464E+04 0.  0.
        3    1    3    3  502    0  0.80157230969E+03 -0.81497294532E+03 -0.17248740766E+04  0.20692727369E+04  0.10100000352E+00 0. -1.
       -3    1    3    3    0  502 -0.80157230969E+03  0.81497294532E+03  0.13288534723E+04  0.17528692565E+04  0.10100000352E+00 0.  1.
</event>
<event>
 5   0  0.5325362E-07  0.3788408E+04  0.7818609E-02  0.8048647E-01
        2   -1    0    0  501    0  0.00000000000E+00  0.00000000000E+00  0.18457381664E+04  0.18457381664E+04  0.25500000920E-02 0.  1.
       -2   -1    0    0    0  501  0.00000000000E+00  0.00000000000E+00 -0.19439428433E+04  0.19439428433E+04  0.25500000920E-02 0. -1.
    10030    2    1    2    0    0  0.00000000000E+00  0.00000000000E+00 -0.98204676889E+02  0.37896810098E+04  0.37884083726E+04 0.  0.
        4    1    3    3  502    0  0.78180056839E+03  0.10770770516E+04  0.12992008743E+04  0.18599009728E+04  0.12699999809E+01 0.  1.
       -4    1    3    3    0  502 -0.78180056839E+03 -0.10770770516E+04 -0.13974055512E+04  0.19297800370E+04  0.12699999809E+01 0. -1.
</event>
<event>
 5   0  0.5158266E-07  0.3796645E+04  0.7818609E-02  0.8046875E-01
        2   -1    0    0  501    0  0.00000000000E+00  0.00000000000E+00  0.17472855367E+04  0.17472855367E+04  0.25500000920E-02 0.  1.
       -2   -1    0    0    0  501  0.00000000000E+00  0.00000000000E+00 -0.20624154903E+04  0.20624154903E+04  0.25500000920E-02 0. -1.
    10030    2    1    2    0    0  0.00000000000E+00  0.00000000000E+00 -0.31512995365E+03  0.38097010270E+04  0.37966452333E+04 0.  0.
        2    1    3    3  502    0  0.97668990346E+03  0.16000252184E+04 -0.45796861953E+03  0.19296992314E+04  0.25500000920E-02 0. -1.
       -2    1    3    3    0  502 -0.97668990346E+03 -0.16000252184E+04  0.14283866588E+03  0.18800017956E+04  0.25500000920E-02 0.  1.
</event>
<event>
 5   0  0.5158266E-07  0.3755305E+04  0.7818609E-02  0.8055815E-01
       -2   -1    0    0    0  501  0.00000000000E+00  0.00000000000E+00  0.20046881806E+04  0.20046881806E+04  0.25500000920E-02 0. -1.
        2   -1    0    0  501    0  0.00000000000E+00  0.00000000000E+00 -0.17586672342E+04  0.17586672342E+04  0.25500000920E-02 0.  1.
    10030    2    1    2    0    0  0.00000000000E+00  0.00000000000E+00  0.24602094634E+03  0.37633554148E+04  0.37553052701E+04 0.  0.
        2    1    3    3  502    0 -0.44022448889E+03 -0.14187920123E+04 -0.10278462953E+04  0.18064430192E+04  0.25500000920E-02 0.  1.
       -2    1    3    3    0  502  0.44022448889E+03  0.14187920123E+04  0.12738672416E+04  0.19569123956E+04  0.25500000920E-02 0. -1.
</event>
<event>
 5   0  0.5202788E-07  0.3971047E+04  0.7818609E-02  0.8010413E-01
       -2   -1    0    0    0  501  0.00000000000E+00  0.00000000000E+00  0.18004429706E+04  0.18004429706E+04  0.25500000920E-02 0. -1.
        2   -1    0    0  501    0  0.00000000000E+00  0.00000000000E+00 -0.21896295765E+04  0.21896295765E+04  0.25500000920E-02 0.  1.
    10030    2    1    2    0    0  0.00000000000E+00  0.00000000000E+00 -0.38918660595E+03  0.39900725471E+04  0.39710468036E+04 0.  0.
        1    1    3    3  502    0  0.32918854036E+03 -0.31126475750E+03 -0.21370009368E+04  0.21844962459E+04  0.50400001928E-02 0.  1.
       -1    1    3    3    0  502 -0.32918854036E+03  0.31126475750E+03  0.17478143308E+04  0.18055763012E+04  0.50400001928E-02 0. -1.
</event>
<event>
 5   0  0.1648000E-07  0.3814385E+04  0.7818609E-02  0.8043075E-01
        3   -1    0    0  501    0  0.00000000000E+00  0.00000000000E+00  0.19976497826E+04  0.19976497852E+04  0.10100000352E+00 0.  1.
       -3   -1    0    0    0  501  0.00000000000E+00  0.00000000000E+00 -0.18208315525E+04  0.18208315553E+04  0.10100000352E+00 0. -1.
    10030    2    1    2    0    0  0.00000000000E+00  0.00000000000E+00  0.17681823009E+03  0.38184813405E+04  0.38143852796E+04 0.  0.
        2    1    3    3  502    0 -0.11312384703E+03 -0.16119827444E+04  0.11024620318E+04  0.19561973072E+04  0.25500000920E-02 0. -1.
       -2    1    3    3    0  502  0.11312384703E+03  0.16119827444E+04 -0.92564380171E+03  0.18622840333E+04  0.25500000920E-02 0.  1.
</event>
<event>
 5   0  0.1648000E-07  0.3785355E+04  0.7818609E-02  0.8049305E-01
        1   -1    0    0  501    0  0.00000000000E+00  0.00000000000E+00  0.16292740711E+04  0.16292740711E+04  0.50400001928E-02 0.  1.
       -1   -1    0    0    0  501  0.00000000000E+00  0.00000000000E+00 -0.21986650536E+04  0.21986650536E+04  0.50400001928E-02 0. -1.
    10030    2    1    2    0    0  0.00000000000E+00  0.00000000000E+00 -0.56939098246E+03  0.38279391247E+04  0.37853549175E+04 0.  0.
        1    1    3    3  502    0  0.17392591017E+04  0.66761443148E+03 -0.62236313314E+03  0.19641963042E+04  0.50400001928E-02 0. -1.
       -1    1    3    3    0  502 -0.17392591017E+04 -0.66761443148E+03  0.52972150679E+02  0.18637428205E+04  0.50400001928E-02 0.  1.
</event>
<event>
 5   0  0.5202788E-07  0.3806524E+04  0.7818609E-02  0.8044756E-01
        2   -1    0    0  501    0  0.00000000000E+00  0.00000000000E+00  0.22974056960E+04  0.22974056960E+04  0.25500000920E-02 0.  1.
       -2   -1    0    0    0  501  0.00000000000E+00  0.00000000000E+00 -0.15767375167E+04  0.15767375167E+04  0.25500000920E-02 0. -1.
    10030    2    1    2    0    0  0.00000000000E+00  0.00000000000E+00  0.72066817932E+03  0.38741432128E+04  0.38065237433E+04 0.  0.
        1    1    3    3  502    0  0.20666623065E+03 -0.10104677651E+04  0.19883271342E+04  0.22399108973E+04  0.50400001928E-02 0.  1.
       -1    1    3    3    0  502 -0.20666623065E+03  0.10104677651E+04 -0.12676589549E+04  0.16342323155E+04  0.50400001928E-02 0. -1.
</event>
<event>
 5   0  0.1648000E-07  0.3386828E+04  0.7818609E-02  0.8141147E-01
       -1   -1    0    0    0  501  0.00000000000E+00  0.00000000000E+00  0.36629861555E+04  0.36629861555E+04  0.50400001928E-02 0. -1.
        1   -1    0    0  501    0  0.00000000000E+00  0.00000000000E+00 -0.78287250385E+03  0.78287250387E+03  0.50400001928E-02 0.  1.
    10030    2    1    2    0    0  0.00000000000E+00  0.00000000000E+00  0.28801136516E+04  0.44458586594E+04  0.33868280991E+04 0.  0.
        2    1    3    3  502    0  0.15692091114E+04 -0.17429407527E+02  0.60473747852E+03  0.16817932208E+04  0.25500000920E-02 0.  1.
       -2    1    3    3    0  502 -0.15692091114E+04  0.17429407527E+02  0.22753761731E+04  0.27640654386E+04  0.25500000920E-02 0. -1.
</event>
<event>
 5   0  0.1648000E-07  0.3808288E+04  0.7818609E-02  0.8044379E-01
       -1   -1    0    0    0  501  0.00000000000E+00  0.00000000000E+00  0.12295091008E+04  0.12295091008E+04  0.50400001928E-02 0.  1.
        1   -1    0    0  501    0  0.00000000000E+00  0.00000000000E+00 -0.29489536030E+04  0.29489536030E+04  0.50400001928E-02 0. -1.
    10030    2    1    2    0    0  0.00000000000E+00  0.00000000000E+00 -0.17194445022E+04  0.41784627038E+04  0.38082884832E+04 0.  0.
        3    1    3    3  502    0  0.15868210745E+04 -0.84043329068E+03 -0.16454608687E+03  0.18031651792E+04  0.10100000352E+00 0.  1.
       -3    1    3    3    0  502 -0.15868210745E+04  0.84043329068E+03 -0.15548984153E+04  0.23752975246E+04  0.10100000352E+00 0. -1.
</event>
<event>
 5   0  0.1648000E-07  0.3772311E+04  0.7818609E-02  0.8052123E-01
        1   -1    0    0  501    0  0.00000000000E+00  0.00000000000E+00  0.11353133849E+04  0.11353133849E+04  0.50400001928E-02 0. -1.
       -1   -1    0    0    0  501  0.00000000000E+00  0.00000000000E+00 -0.31335694299E+04  0.31335694299E+04  0.50400001928E-02 0.  1.
    10030    2    1    2    0    0  0.00000000000E+00  0.00000000000E+00 -0.19982560451E+04  0.42688828148E+04  0.37723113955E+04 0.  0.
        4    1    3    3  502    0 -0.49469077927E+03  0.53644137373E+03 -0.29673591271E+04  0.30557666987E+04  0.12699999809E+01 0.  1.
       -4    1    3    3    0  502  0.49469077927E+03 -0.53644137373E+03  0.96910308208E+03  0.12131161161E+04  0.12699999809E+01 0. -1.
</event>
<event>
 5   0  0.5202788E-07  0.3747873E+04  0.7818609E-02  0.8057435E-01
       -2   -1    0    0    0  501  0.00000000000E+00  0.00000000000E+00  0.15311137175E+04  0.15311137175E+04  0.25500000920E-02 0.  1.
        2   -1    0    0  501    0  0.00000000000E+00  0.00000000000E+00 -0.22935191005E+04  0.22935191005E+04  0.25500000920E-02 0. -1.
    10030    2    1    2    0    0  0.00000000000E+00  0.00000000000E+00 -0.76240538293E+03  0.38246328180E+04  0.37478732936E+04 0.  0.
        1    1    3    3  502    0  0.17736396850E+04  0.30443336971E+03  0.15214977925E+03  0.18059974984E+04  0.50400001928E-02 0.  1.
       -1    1    3    3    0  502 -0.17736396850E+04 -0.30443336971E+03 -0.91455516217E+03  0.20186353196E+04  0.50400001928E-02 0. -1.
</event>
<event>
 5   0  0.1648000E-07  0.3748871E+04  0.7818609E-02  0.8057217E-01
        1   -1    0    0  501    0  0.00000000000E+00  0.00000000000E+00  0.30102702921E+04  0.30102702921E+04  0.50400001928E-02 0. -1.
       -1   -1    0    0    0  501  0.00000000000E+00  0.00000000000E+00 -0.11671734319E+04  0.11671734319E+04  0.50400001928E-02 0.  1.
    10030    2    1    2    0    0  0.00000000000E+00  0.00000000000E+00  0.18430968602E+04  0.41774437240E+04  0.37488705007E+04 0.  0.
        2    1    3    3  502    0  0.69070658842E+03 -0.17395911871E+04  0.10343891069E+04  0.21385074033E+04  0.25500000920E-02 0. -1.
       -2    1    3    3    0  502 -0.69070658842E+03  0.17395911871E+04  0.80870775323E+03  0.20389363207E+04  0.25500000920E-02 0.  1.
</event>
<event>
 5   0  0.1656617E-07  0.3821089E+04  0.7818609E-02  0.8041644E-01
        1   -1    0    0  501    0  0.00000000000E+00  0.00000000000E+00  0.15315900710E+04  0.15315900710E+04  0.50400001928E-02 0. -1.
       -1   -1    0    0    0  501  0.00000000000E+00  0.00000000000E+00 -0.23832625078E+04  0.23832625078E+04  0.50400001928E-02 0.  1.
    10030    2    1    2    0    0  0.00000000000E+00  0.00000000000E+00 -0.85167243672E+03  0.39148525788E+04  0.38210894748E+04 0.  0.
        5    1    3    3  502    0  0.11009703436E+04 -0.14968783070E+04  0.29338771796E+02  0.18584034053E+04  0.46999998093E+01 0. -1.
       -5    1    3    3    0  502 -0.11009703436E+04  0.14968783070E+04 -0.88101120852E+03  0.20564491735E+04  0.46999998093E+01 0.  1.
</event>
<event>
 5   0  0.1656617E-07  0.3805609E+04  0.7818609E-02  0.8044952E-01
        1   -1    0    0  501    0  0.00000000000E+00  0.00000000000E+00  0.14265509109E+04  0.14265509109E+04  0.50400001928E-02 0.  1.
       -1   -1    0    0    0  501  0.00000000000E+00  0.00000000000E+00 -0.25380547099E+04  0.25380547099E+04  0.50400001928E-02 0. -1.
    10030    2    1    2    0    0  0.00000000000E+00  0.00000000000E+00 -0.11115037990E+04  0.39646056208E+04  0.38056086285E+04 0.  0.
        5    1    3    3  502    0 -0.14014889519E+04  0.44948321890E+03 -0.18121380360E+04  0.23345390975E+04  0.46999998093E+01 0. -1.
       -5    1    3    3    0  502  0.14014889519E+04 -0.44948321890E+03  0.70063423704E+03  0.16300665233E+04  0.46999998093E+01 0.  1.
</event>
<event>
 5   0  0.5202788E-07  0.4012047E+04  0.7818609E-02  0.8002121E-01
        2   -1    0    0  501    0  0.00000000000E+00  0.00000000000E+00  0.24903787566E+04  0.24903787566E+04  0.25500000920E-02 0. -1.
       -2   -1    0    0    0  501  0.00000000000E+00  0.00000000000E+00 -0.16158704006E+04  0.16158704006E+04  0.25500000920E-02 0.  1.
    10030    2    1    2    0    0  0.00000000000E+00  0.00000000000E+00  0.87450835601E+03  0.41062491572E+04  0.40120465197E+04 0.  0.
        1    1    3    3  502    0  0.95694678870E+03  0.17433365377E+04  0.70641165616E+03  0.21104470777E+04  0.50400001928E-02 0. -1.
       -1    1    3    3    0  502 -0.95694678870E+03 -0.17433365377E+04  0.16809669985E+03  0.19958020795E+04  0.50400001928E-02 0.  1.
</event>
<event>
 5   0  0.1656617E-07  0.3768080E+04  0.7818609E-02  0.8053040E-01
       -1   -1    0    0    0  501  0.00000000000E+00  0.00000000000E+00  0.15450115833E+04  0.15450115833E+04  0.50400001928E-02 0.  1.
        1   -1    0    0  501    0  0.00000000000E+00  0.00000000000E+00 -0.22974624496E+04  0.22974624496E+04  0.50400001928E-02 0. -1.
    10030    2    1    2    0    0  0.00000000000E+00  0.00000000000E+00 -0.75245086629E+03  0.38424740329E+04  0.37680796684E+04 0.  0.
        5    1    3    3  502    0  0.74846534851E+03  0.39730127744E+03  0.13397136130E+04  0.15852139723E+04  0.46999998093E+01 0.  1.
       -5    1    3    3    0  502 -0.74846534851E+03 -0.39730127744E+03 -0.20921644793E+04  0.22572600607E+04  0.46999998093E+01 0. -1.
</event>
<event>
 5   0  0.5158266E-07  0.3973445E+04  0.7818609E-02  0.8009925E-01
       -2   -1    0    0    0  501  0.00000000000E+00  0.00000000000E+00  0.23521662172E+04  0.23521662172E+04  0.25500000920E-02 0.  1.
        2   -1    0    0  501    0  0.00000000000E+00  0.00000000000E+00 -0.16780561464E+04  0.16780561464E+04  0.25500000920E-02 0. -1.
    10030    2    1    2    0    0  0.00000000000E+00  0.00000000000E+00  0.67411007079E+03  0.40302223637E+04  0.39734453454E+04 0.  0.
        2    1    3    3  502    0  0.11964073998E+04  0.14899606088E+04 -0.21449230906E+03  0.19228573095E+04  0.25500000920E-02 0. -1.
       -2    1    3    3    0  502 -0.11964073998E+04 -0.14899606088E+04  0.88860237985E+03  0.21073650542E+04  0.25500000920E-02 0.  1.
</event>
<event>
 5   0  0.1648000E-07  0.3799503E+04  0.7818609E-02  0.8046262E-01
        1   -1    0    0  501    0  0.00000000000E+00  0.00000000000E+00  0.23638433311E+04  0.23638433311E+04  0.50400001928E-02 0.  1.
       -1   -1    0    0    0  501  0.00000000000E+00  0.00000000000E+00 -0.15267743524E+04  0.15267743524E+04  0.50400001928E-02 0. -1.
    10030    2    1    2    0    0  0.00000000000E+00  0.00000000000E+00  0.83706897877E+03  0.38906176835E+04  0.37995027943E+04 0.  0.
        2    1    3    3  502    0 -0.13362719091E+04 -0.10178864258E+03 -0.96025921916E+03  0.16486604595E+04  0.25500000920E-02 0. -1.
       -2    1    3    3    0  502  0.13362719091E+04  0.10178864258E+03  0.17973281979E+04  0.22419572239E+04  0.25500000920E-02 0.  1.
</event>
<event>
 5   0  0.5134434E-07  0.3845885E+04  0.7818609E-02  0.8036379E-01
       -2   -1    0    0    0  501  0.00000000000E+00  0.00000000000E+00  0.21161381352E+04  0.21161381352E+04  0.25500000920E-02 0.  1.
        2   -1    0    0  501    0  0.00000000000E+00  0.00000000000E+00 -0.17473849859E+04  0.17473849859E+04  0.25500000920E-02 0. -1.
    10030    2    1    2    0    0  0.00000000000E+00  0.00000000000E+00  0.36875314931E+03  0.38635231211E+04  0.38458850766E+04 0.  0.
        5    1    3    3  502    0 -0.17892288351E+04 -0.47868712153E+03  0.70366576797E+03  0.19813250081E+04  0.46999998093E+01 0. -1.
       -5    1    3    3    0  502  0.17892288351E+04  0.47868712153E+03 -0.33491261866E+03  0.18821981130E+04  0.46999998093E+01 0.  1.
</event>
<event>
 5   0  0.5325362E-07  0.3816768E+04  0.7818609E-02  0.8042566E-01
       -2   -1    0    0    0  501  0.00000000000E+00  0.00000000000E+00  0.23573387266E+04  0.23573387266E+04  0.25500000920E-02 0.  1.
        2   -1    0    0  501    0  0.00000000000E+00  0.00000000000E+00 -0.15449324079E+04  0.15449324079E+04  0.25500000920E-02 0. -1.
    10030    2    1    2    0    0  0.00000000000E+00  0.00000000000E+00  0.81240631869E+03  0.39022711346E+04  0.38167677400E+04 0.  0.
        4    1    3    3  502    0 -0.14206959153E+04 -0.91543344489E+03  0.13123606373E+04  0.21397867490E+04  0.12699999809E+01 0.  1.
       -4    1    3    3    0  502  0.14206959153E+04  0.91543344489E+03 -0.49995431866E+03  0.17624843856E+04  0.12699999809E+01 0. -1.
</event>
<event>
 5   0  0.5325362E-07  0.3770745E+04  0.7818609E-02  0.8052462E-01
       -2   -1    0    0    0  501  0.00000000000E+00  0.00000000000E+00  0.13909799191E+04  0.13909799191E+04  0.25500000920E-02 0.  1.
        2   -1    0    0  501    0  0.00000000000E+00  0.00000000000E+00 -0.25554863863E+04  0.25554863863E+04  0.25500000920E-02 0. -1.
    10030    2    1    2    0    0  0.00000000000E+00  0.00000000000E+00 -0.11645064672E+04  0.39464663055E+04  0.37707454155E+04 0.  0.
        4    1    3    3  502    0 -0.16165522874E+04  0.37906639654E+03 -0.15170127508E+04  0.22490580094E+04  0.12699999809E+01 0. -1.
       -4    1    3    3    0  502  0.16165522874E+04 -0.37906639654E+03  0.35250628355E+03  0.16974082961E+04  0.12699999809E+01 0.  1.
</event>
<event>
 5   0  0.1648000E-07  0.3711966E+04  0.7818609E-02  0.8065315E-01
        3   -1    0    0  501    0  0.00000000000E+00  0.00000000000E+00  0.15203841822E+04  0.15203841856E+04  0.10100000352E+00 0. -1.
       -3   -1    0    0    0  501  0.00000000000E+00  0.00000000000E+00 -0.22656600639E+04  0.22656600661E+04  0.10100000352E+00 0.  1.
    10030    2    1    2    0    0  0.00000000000E+00  0.00000000000E+00 -0.74527588165E+03  0.37860442517E+04  0.37119664513E+04 0.  0.
        2    1    3    3  502    0 -0.14417181611E+03 -0.10011480629E+04 -0.19598392766E+04  0.22054598038E+04  0.25500000920E-02 0.  1.
       -2    1    3    3    0  502  0.14417181611E+03  0.10011480629E+04  0.12145633949E+04  0.15805844478E+04  0.25500000920E-02 0. -1.
</event>
<event>
 5   0  0.1648000E-07  0.3789944E+04  0.7818609E-02  0.8048316E-01
       -3   -1    0    0    0  501  0.00000000000E+00  0.00000000000E+00  0.14453676081E+04  0.14453676116E+04  0.10100000352E+00 0.  1.
        3   -1    0    0  501    0  0.00000000000E+00  0.00000000000E+00 -0.24844328919E+04  0.24844328939E+04  0.10100000352E+00 0. -1.
    10030    2    1    2    0    0  0.00000000000E+00  0.00000000000E+00 -0.10390652837E+04  0.39298005056E+04  0.37899439771E+04 0.  0.
        3    1    3    3  502    0  0.10447391461E+04 -0.70696957009E+03  0.94673367609E+03  0.15772097261E+04  0.10100000352E+00 0.  1.
       -3    1    3    3    0  502 -0.10447391461E+04  0.70696957009E+03 -0.19857989598E+04  0.23525907795E+04  0.10100000352E+00 0. -1.
</event>
<event>
 5   0  0.1656617E-07  0.3833129E+04  0.7818609E-02  0.8039083E-01
        1   -1    0    0  501    0  0.00000000000E+00  0.00000000000E+00  0.28378469397E+04  0.28378469397E+04  0.50400001928E-02 0.  1.
       -1   -1    0    0    0  501  0.00000000000E+00  0.00000000000E+00 -0.12943683508E+04  0.12943683508E+04  0.50400001928E-02 0. -1.
    10030    2    1    2    0    0  0.00000000000E+00  0.00000000000E+00  0.15434785889E+04  0.41322152906E+04  0.38331288856E+04 0.  0.
        5    1    3    3  502    0 -0.14572812137E+04  0.93426647893E+03  0.16585266961E+04  0.23973433799E+04  0.46999998093E+01 0.  1.
       -5    1    3    3    0  502  0.14572812137E+04 -0.93426647893E+03 -0.11504810721E+03  0.17348719107E+04  0.46999998093E+01 0. -1.
</event>
<event>
 5   0  0.5325362E-07  0.3871959E+04  0.7818609E-02  0.8030887E-01
       -2   -1    0    0    0  501  0.00000000000E+00  0.00000000000E+00  0.14440750705E+04  0.14440750705E+04  0.25500000920E-02 0.  1.
        2   -1    0    0  501    0  0.00000000000E+00  0.00000000000E+00 -0.25954449194E+04  0.25954449194E+04  0.25500000920E-02 0. -1.
    10030    2    1    2    0    0  0.00000000000E+00  0.00000000000E+00 -0.11513698489E+04  0.40395199899E+04  0.38719593515E+04 0.  0.
        4    1    3    3  502    0  0.99413222634E+03  0.87122091026E+03 -0.20513539937E+04  0.24403646404E+04  0.12699999809E+01 0. -1.
       -4    1    3    3    0  502 -0.99413222634E+03 -0.87122091026E+03  0.89998414477E+03  0.15991553494E+04  0.12699999809E+01 0.  1.
</event>
<event>
 5   0  0.5134434E-07  0.3047008E+04  0.7818609E-02  0.8230433E-01
        2   -1    0    0  501    0  0.00000000000E+00  0.00000000000E+00  0.14738954916E+04  0.14738954916E+04  0.25500000920E-02 0.  1.
       -2   -1    0    0    0  501  0.00000000000E+00  0.00000000000E+00 -0.15747827185E+04  0.15747827185E+04  0.25500000920E-02 0. -1.
    10030    2    1    2    0    0  0.00000000000E+00  0.00000000000E+00 -0.10088722694E+03  0.30486782101E+04  0.30470084667E+04 0.  0.
        5    1    3    3  502    0  0.79501860297E+02  0.15207865775E+04 -0.94407413911E+02  0.15257939605E+04  0.46999998093E+01 0.  1.
       -5    1    3    3    0  502 -0.79501860297E+02 -0.15207865775E+04 -0.64798130318E+01  0.15228842497E+04  0.46999998093E+01 0. -1.
</event>
<event>
 5   0  0.1656617E-07  0.3925807E+04  0.7818609E-02  0.8019683E-01
        1   -1    0    0  501    0  0.00000000000E+00  0.00000000000E+00  0.13628871729E+04  0.13628871730E+04  0.50400001928E-02 0.  1.
       -1   -1    0    0    0  501  0.00000000000E+00  0.00000000000E+00 -0.28270788211E+04  0.28270788211E+04  0.50400001928E-02 0. -1.
    10030    2    1    2    0    0  0.00000000000E+00  0.00000000000E+00 -0.14641916481E+04  0.41899659940E+04  0.39258066494E+04 0.  0.
        5    1    3    3  502    0 -0.17717109773E+04 -0.63792574652E+03 -0.13235104104E+04  0.23016539579E+04  0.46999998093E+01 0. -1.
       -5    1    3    3    0  502  0.17717109773E+04  0.63792574652E+03 -0.14068123775E+03  0.18883120362E+04  0.46999998093E+01 0.  1.
</event>
<event>
 5   0  0.5325362E-07  0.3741340E+04  0.7818609E-02  0.8058862E-01
        2   -1    0    0  501    0  0.00000000000E+00  0.00000000000E+00  0.22781071109E+04  0.22781071109E+04  0.25500000920E-02 0. -1.
       -2   -1    0    0    0  501  0.00000000000E+00  0.00000000000E+00 -0.15361025619E+04  0.15361025619E+04  0.25500000920E-02 0.  1.
    10030    2    1    2    0    0  0.00000000000E+00  0.00000000000E+00  0.74200454905E+03  0.38142096728E+04  0.37413399574E+04 0.  0.
        4    1    3    3  502    0  0.72793509204E+03  0.10041997894E+04  0.17986696054E+04  0.21848388219E+04  0.12699999809E+01 0. -1.
       -4    1    3    3    0  502 -0.72793509204E+03 -0.10041997894E+04 -0.10566650564E+04  0.16293708509E+04  0.12699999809E+01 0.  1.
</event>
<event>
 5   0  0.5202788E-07  0.3775553E+04  0.7818609E-02  0.8051422E-01
       -2   -1    0    0    0  501  0.00000000000E+00  0.00000000000E+00  0.15819505350E+04  0.15819505351E+04  0.25500000920E-02 0.  1.
        2   -1    0    0  501    0  0.00000000000E+00  0.00000000000E+00 -0.22527247866E+04  0.22527247866E+04  0.25500000920E-02 0. -1.
    10030    2    1    2    0    0  0.00000000000E+00  0.00000000000E+00 -0.67077425156E+03  0.38346753217E+04  0.37755525061E+04 0.  0.
        1    1    3    3  502    0  0.20961593086E+02  0.73241038328E+03 -0.21024111134E+04  0.22264314154E+04  0.50400001928E-02 0. -1.
       -1    1    3    3    0  502 -0.20961593086E+02 -0.73241038328E+03  0.14316368618E+04  0.16082439063E+04  0.50400001928E-02 0.  1.
</event>
<event>
 5   0  0.1648000E-07  0.3771031E+04  0.7818609E-02  0.8052400E-01
       -1   -1    0    0    0  501  0.00000000000E+00  0.00000000000E+00  0.30925897268E+04  0.30925897268E+04  0.50400001928E-02 0.  1.
        1   -1    0    0  501    0  0.00000000000E+00  0.00000000000E+00 -0.11495766935E+04  0.11495766935E+04  0.50400001928E-02 0. -1.
    10030    2    1    2    0    0  0.00000000000E+00  0.00000000000E+00  0.19430130333E+04  0.42421664203E+04  0.37710311972E+04 0.  0.
        3    1    3    3  502    0 -0.15337276415E+04  0.26457403619E+03 -0.22582281223E+03  0.15726779236E+04  0.10100000352E+00 0. -1.
       -3    1    3    3    0  502  0.15337276415E+04 -0.26457403619E+03  0.21688358455E+04  0.26694884967E+04  0.10100000352E+00 0.  1.
</event>
<event>
 5   0  0.5132561E-07  0.3789087E+04  0.7818609E-02  0.8048501E-01
        2   -1    0    0  501    0  0.00000000000E+00  0.00000000000E+00  0.17255677266E+04  0.17255677266E+04  0.25500000920E-02 0.  1.
       -2   -1    0    0    0  501  0.00000000000E+00  0.00000000000E+00 -0.20800663811E+04  0.20800663811E+04  0.25500000920E-02 0. -1.
    10030    2    1    2    0    0  0.00000000000E+00  0.00000000000E+00 -0.35449865449E+03  0.38056341077E+04  0.37890871811E+04 0.  0.
        3    1    3    3  502    0 -0.10480762498E+04 -0.14146116451E+04  0.52559624360E+03  0.18373462802E+04  0.10100000352E+00 0.  1.
       -3    1    3    3    0  502  0.10480762498E+04  0.14146116451E+04 -0.88009489809E+03  0.19682878275E+04  0.10100000352E+00 0. -1.
</event>
<event>
 5   0  0.1648000E-07  0.3809156E+04  0.7818609E-02  0.8044193E-01
        1   -1    0    0  501    0  0.00000000000E+00  0.00000000000E+00  0.19421376534E+04  0.19421376534E+04  0.50400001928E-02 0. -1.
       -1   -1    0    0    0  501  0.00000000000E+00  0.00000000000E+00 -0.18677450699E+04  0.18677450699E+04  0.50400001928E-02 0.  1.
    10030    2    1    2    0    0  0.00000000000E+00  0.00000000000E+00  0.74392583501E+02  0.38098827232E+04  0.38091563513E+04 0.  0.
        3    1    3    3  502    0 -0.94476717748E+03 -0.15438639537E+04  0.63002939514E+03  0.19165171474E+04  0.10100000352E+00 0. -1.
       -3    1    3    3    0  502  0.94476717748E+03  0.15438639537E+04 -0.55563681164E+03  0.18933655759E+04  0.10100000352E+00 0.  1.
</event>
<event>
 5   0  0.1656617E-07  0.3763006E+04  0.7818609E-02  0.8054141E-01
       -1   -1    0    0    0  501  0.00000000000E+00  0.00000000000E+00  0.19110479966E+04  0.19110479966E+04  0.50400001928E-02 0.  1.
        1   -1    0    0  501    0  0.00000000000E+00  0.00000000000E+00 -0.18524143015E+04  0.18524143015E+04  0.50400001928E-02 0. -1.
    10030    2    1    2    0    0  0.00000000000E+00  0.00000000000E+00  0.58633695095E+02  0.37634622981E+04  0.37630055220E+04 0.  0.
        5    1    3    3  502    0  0.14885788559E+04  0.37696100218E+03 -0.10580427671E+04  0.18647903889E+04  0.46999998093E+01 0. -1.
       -5    1    3    3    0  502 -0.14885788559E+04 -0.37696100218E+03  0.11166764622E+04  0.18986719092E+04  0.46999998093E+01 0.  1.
</event>
<event>
 5   0  0.1648000E-07  0.3805213E+04  0.7818609E-02  0.8045037E-01
        1   -1    0    0  501    0  0.00000000000E+00  0.00000000000E+00  0.11964827083E+04  0.11964827083E+04  0.50400001928E-02 0. -1.
       -1   -1    0    0    0  501  0.00000000000E+00  0.00000000000E+00 -0.30254615210E+04  0.30254615210E+04  0.50400001928E-02 0.  1.
    10030    2    1    2    0    0  0.00000000000E+00  0.00000000000E+00 -0.18289788127E+04  0.42219442294E+04  0.38052134735E+04 0.  0.
        1    1    3    3  502    0 -0.11775735504E+03  0.94687543531E+02 -0.30187935325E+04  0.30225728970E+04  0.50400001928E-02 0.  1.
       -1    1    3    3    0  502  0.11775735504E+03 -0.94687543531E+02  0.11898147198E+04  0.11993713324E+04  0.50400001928E-02 0. -1.
</event>
<event>
 5   0  0.1648000E-07  0.3850947E+04  0.7818609E-02  0.8035309E-01
       -1   -1    0    0    0  501  0.00000000000E+00  0.00000000000E+00  0.18618938049E+04  0.18618938049E+04  0.50400001928E-02 0. -1.
        1   -1    0    0  501    0  0.00000000000E+00  0.00000000000E+00 -0.19912244551E+04  0.19912244551E+04  0.50400001928E-02 0.  1.
    10030    2    1    2    0    0  0.00000000000E+00  0.00000000000E+00 -0.12933065023E+03  0.38531182600E+04  0.38509471443E+04 0.  0.
        1    1    3    3  502    0  0.28008655533E+03 -0.15177549788E+04  0.10872525340E+04  0.18878947871E+04  0.50400001928E-02 0. -1.
       -1    1    3    3    0  502 -0.28008655533E+03  0.15177549788E+04 -0.12165831842E+04  0.19652234729E+04  0.50400001928E-02 0.  1.
</event>
<event>
 5   0  0.5132561E-07  0.3743625E+04  0.7818609E-02  0.8058362E-01
        2   -1    0    0  501    0  0.00000000000E+00  0.00000000000E+00  0.16144855858E+04  0.16144855858E+04  0.25500000920E-02 0.  1.
       -2   -1    0    0    0  501  0.00000000000E+00  0.00000000000E+00 -0.21701535022E+04  0.21701535022E+04  0.25500000920E-02 0. -1.
    10030    2    1    2    0    0  0.00000000000E+00  0.00000000000E+00 -0.55566791640E+03  0.37846390880E+04  0.37436247399E+04 0.  0.
        3    1    3    3  502    0 -0.27118938573E+03 -0.15356662034E+04 -0.13244867731E+04  0.20459911030E+04  0.10100000352E+00 0. -1.
       -3    1    3    3    0  502  0.27118938573E+03  0.15356662034E+04  0.76881885668E+03  0.17386479850E+04  0.10100000352E+00 0.  1.
</event>
<event>
 5   0  0.1648000E-07  0.3842653E+04  0.7818609E-02  0.8037063E-01
       -1   -1    0    0    0  501  0.00000000000E+00  0.00000000000E+00  0.20309547777E+04  0.20309547777E+04  0.50400001928E-02 0.  1.
        1   -1    0    0  501    0  0.00000000000E+00  0.00000000000E+00 -0.18176154924E+04  0.18176154924E+04  0.50400001928E-02 0. -1.
    10030    2    1    2    0    0  0.00000000000E+00  0.00000000000E+00  0.21333928527E+03  0.38485702701E+04  0.38426526610E+04 0.  0.
        1    1    3    3  502    0 -0.97526435242E+03 -0.10456967510E+04 -0.11786119701E+04  0.18530376220E+04  0.50400001928E-02 0. -1.
       -1    1    3    3    0  502  0.97526435242E+03  0.10456967510E+04  0.13919512554E+04  0.19955326481E+04  0.50400001928E-02 0.  1.
</event>
<event>
 5   0  0.1648000E-07  0.3817217E+04  0.7818609E-02  0.8042470E-01
        1   -1    0    0  501    0  0.00000000000E+00  0.00000000000E+00  0.17690288322E+04  0.17690288322E+04  0.50400001928E-02 0.  1.
       -1   -1    0    0    0  501  0.00000000000E+00  0.00000000000E+00 -0.20592008752E+04  0.20592008752E+04  0.50400001928E-02 0. -1.
    10030    2    1    2    0    0  0.00000000000E+00  0.00000000000E+00 -0.29017204303E+03  0.38282297074E+04  0.38172166402E+04 0.  0.
        2    1    3    3  502    0 -0.35143325503E+03 -0.12928134130E+04 -0.15083879306E+04  0.20174503718E+04  0.25500000920E-02 0. -1.
       -2    1    3    3    0  502  0.35143325503E+03  0.12928134130E+04  0.12182158875E+04  0.18107793356E+04  0.25500000920E-02 0.  1.
</event>
<event>
 5   0  0.1656617E-07  0.3830389E+04  0.7818609E-02  0.8039665E-01
        1   -1    0    0  501    0  0.00000000000E+00  0.00000000000E+00  0.13668608840E+04  0.13668608840E+04  0.50400001928E-02 0. -1.
       -1   -1    0    0    0  501  0.00000000000E+00  0.00000000000E+00 -0.26834990930E+04  0.26834990930E+04  0.50400001928E-02 0.  1.
    10030    2    1    2    0    0  0.00000000000E+00  0.00000000000E+00 -0.13166382090E+04  0.40503599770E+04  0.38303889841E+04 0.  0.
        5    1    3    3  502    0  0.36438511863E+02 -0.11955727656E+04 -0.22399518853E+04  0.25393165501E+04  0.46999998093E+01 0.  1.
       -5    1    3    3    0  502 -0.36438511863E+02  0.11955727656E+04  0.92331367631E+03  0.15110434269E+04  0.46999998093E+01 0. -1.
</event>
<event>
 5   0  0.5202788E-07  0.3477483E+04  0.7818609E-02  0.8119147E-01
        2   -1    0    0  501    0  0.00000000000E+00  0.00000000000E+00  0.17317982383E+04  0.17317982383E+04  0.25500000920E-02 0. -1.
       -2   -1    0    0    0  501  0.00000000000E+00  0.00000000000E+00 -0.17457128059E+04  0.17457128059E+04  0.25500000920E-02 0.  1.
    10030    2    1    2    0    0  0.00000000000E+00  0.00000000000E+00 -0.13914567591E+02  0.34775110441E+04  0.34774832058E+04 0.  0.
        1    1    3    3  502    0  0.15332556922E+04 -0.51374303397E+03 -0.64603785633E+03  0.17413126756E+04  0.50400001928E-02 0.  1.
       -1    1    3    3    0  502 -0.15332556922E+04  0.51374303397E+03  0.63212328874E+03  0.17361983685E+04  0.50400001928E-02 0. -1.
</event>
<event>
 5   0  0.5132561E-07  0.3763685E+04  0.7818609E-02  0.8053993E-01
        2   -1    0    0  501    0  0.00000000000E+00  0.00000000000E+00  0.14694403274E+04  0.14694403274E+04  0.25500000920E-02 0. -1.
       -2   -1    0    0    0  501  0.00000000000E+00  0.00000000000E+00 -0.24099859471E+04  0.24099859471E+04  0.25500000920E-02 0.  1.
    10030    2    1    2    0    0  0.00000000000E+00  0.00000000000E+00 -0.94054561976E+03  0.38794262745E+04  0.37636846516E+04 0.  0.
        3    1    3    3  502    0  0.16696395631E+04  0.86807379215E+03 -0.46093044633E+03  0.19374481325E+04  0.10100000352E+00 0. -1.
       -3    1    3    3    0  502 -0.16696395631E+04 -0.86807379215E+03 -0.47961517344E+03  0.19419781421E+04  0.10100000352E+00 0.  1.
</event>
<event>
 5   0  0.1648000E-07  0.3802751E+04  0.7818609E-02  0.8045565E-01
       -1   -1    0    0    0  501  0.00000000000E+00  0.00000000000E+00  0.16272291473E+04  0.16272291473E+04  0.50400001928E-02 0.  1.
        1   -1    0    0  501    0  0.00000000000E+00  0.00000000000E+00 -0.22217080815E+04  0.22217080816E+04  0.50400001928E-02 0. -1.
    10030    2    1    2    0    0  0.00000000000E+00  0.00000000000E+00 -0.59447893429E+03  0.38489372288E+04  0.38027506608E+04 0.  0.
        1    1    3    3  502    0 -0.91655565858E+03 -0.15507160109E+04  0.31878539105E+03  0.18293218818E+04  0.50400001928E-02 0.  1.
       -1    1    3    3    0  502  0.91655565858E+03  0.15507160109E+04 -0.91326432535E+03  0.20196153470E+04  0.50400001928E-02 0. -1.
</event>
<event>
 5   0  0.1648000E-07  0.3788233E+04  0.7818609E-02  0.8048685E-01
        1   -1    0    0  501    0  0.00000000000E+00  0.00000000000E+00  0.31214666586E+04  0.31214666586E+04  0.50400001928E-02 0.  1.
       -1   -1    0    0    0  501  0.00000000000E+00  0.00000000000E+00 -0.11493564267E+04  0.11493564267E+04  0.50400001928E-02 0. -1.
    10030    2    1    2    0    0  0.00000000000E+00  0.00000000000E+00  0.19721102319E+04  0.42708230854E+04  0.37882332372E+04 0.  0.
        2    1    3    3  502    0 -0.16886530041E+04  0.85792522628E+03  0.97517694207E+03  0.21303883990E+04  0.25500000920E-02 0. -1.
       -2    1    3    3    0  502  0.16886530041E+04 -0.85792522628E+03  0.99693328984E+03  0.21404346864E+04  0.25500000920E-02 0.  1.
</event>
<event>
 5   0  0.1648000E-07  0.3686066E+04  0.7818609E-02  0.8071057E-01
        1   -1    0    0  501    0  0.00000000000E+00  0.00000000000E+00  0.11084609879E+04  0.11084609880E+04  0.50400001928E-02 0. -1.
       -1   -1    0    0    0  501  0.00000000000E+00  0.00000000000E+00 -0.30644031792E+04  0.30644031792E+04  0.50400001928E-02 0.  1.
    10030    2    1    2    0    0  0.00000000000E+00  0.00000000000E+00 -0.19559421912E+04  0.41728641671E+04  0.36860663996E+04 0.  0.
        4    1    3    3  502    0 -0.82359064464E+03 -0.23354475031E+03 -0.28256738052E+04  0.29525038131E+04  0.12699999809E+01 0.  1.
       -4    1    3    3    0  502  0.82359064464E+03  0.23354475031E+03  0.86973161398E+03  0.12203603540E+04  0.12699999809E+01 0. -1.
</event>
<event>
 5   0  0.1648000E-07  0.3849556E+04  0.7818609E-02  0.8035603E-01
        1   -1    0    0  501    0  0.00000000000E+00  0.00000000000E+00  0.17696469983E+04  0.17696469983E+04  0.50400001928E-02 0. -1.
       -1   -1    0    0    0  501  0.00000000000E+00  0.00000000000E+00 -0.20935076701E+04  0.20935076701E+04  0.50400001928E-02 0.  1.
    10030    2    1    2    0    0  0.00000000000E+00  0.00000000000E+00 -0.32386067187E+03  0.38631546684E+04  0.38495555922E+04 0.  0.
        3    1    3    3  502    0 -0.53756209380E+03 -0.30571090172E+03 -0.19910973781E+04  0.20849222862E+04  0.10100000352E+00 0.  1.
       -3    1    3    3    0  502  0.53756209380E+03  0.30571090172E+03  0.16672367063E+04  0.17782323822E+04  0.10100000352E+00 0. -1.
</event>
<event>
 5   0  0.1648000E-07  0.3851754E+04  0.7818609E-02  0.8035139E-01
        1   -1    0    0  501    0  0.00000000000E+00  0.00000000000E+00  0.16911287469E+04  0.16911287469E+04  0.50400001928E-02 0. -1.
       -1   -1    0    0    0  501  0.00000000000E+00  0.00000000000E+00 -0.21932105382E+04  0.21932105382E+04  0.50400001928E-02 0.  1.
    10030    2    1    2    0    0  0.00000000000E+00  0.00000000000E+00 -0.50208179139E+03  0.38843392851E+04  0.38517535690E+04 0.  0.
        1    1    3    3  502    0  0.11636009125E+04  0.45052955994E+03 -0.17304408162E+04  0.21333938657E+04  0.50400001928E-02 0.  1.
       -1    1    3    3    0  502 -0.11636009125E+04 -0.45052955994E+03  0.12283590248E+04  0.17509454194E+04  0.50400001928E-02 0. -1.
</event>
<event>
 5   0  0.5325362E-07  0.3645474E+04  0.7818609E-02  0.8080154E-01
       -2   -1    0    0    0  501  0.00000000000E+00  0.00000000000E+00  0.20903774962E+04  0.20903774962E+04  0.25500000920E-02 0. -1.
        2   -1    0    0  501    0  0.00000000000E+00  0.00000000000E+00 -0.15893638246E+04  0.15893638246E+04  0.25500000920E-02 0.  1.
    10030    2    1    2    0    0  0.00000000000E+00  0.00000000000E+00  0.50101367167E+03  0.36797413208E+04  0.36454741103E+04 0.  0.
        4    1    3    3  502    0  0.26223413117E+03  0.15119154056E+04 -0.74246457429E+03  0.17046730450E+04  0.12699999809E+01 0.  1.
       -4    1    3    3    0  502 -0.26223413117E+03 -0.15119154056E+04  0.12434782460E+04  0.19750682759E+04  0.12699999809E+01 0. -1.
</event>
<event>
 5   0  0.5325362E-07  0.3491853E+04  0.7818609E-02  0.8115723E-01
       -2   -1    0    0    0  501  0.00000000000E+00  0.00000000000E+00  0.18905104540E+04  0.18905104540E+04  0.25500000920E-02 0. -1.
        2   -1    0    0  501    0  0.00000000000E+00  0.00000000000E+00 -0.16124003596E+04  0.16124003596E+04  0.25500000920E-02 0.  1.
    10030    2    1    2    0    0  0.00000000000E+00  0.00000000000E+00  0.27811009433E+03  0.35029108136E+04  0.34918532248E+04 0.  0.
        4    1    3    3  502    0 -0.44578746692E+03 -0.16682199189E+04  0.39789141282E+03  0.17720054607E+04  0.12699999809E+01 0.  1.
       -4    1    3    3    0  502  0.44578746692E+03  0.16682199189E+04 -0.11978131849E+03  0.17309053529E+04  0.12699999809E+01 0. -1.
</event>
<event>
 5   0  0.1648000E-07  0.3736994E+04  0.7818609E-02  0.8059813E-01
        1   -1    0    0  501    0  0.00000000000E+00  0.00000000000E+00  0.20713545909E+04  0.20713545910E+04  0.50400001928E-02 0.  1.
       -1   -1    0    0    0  501  0.00000000000E+00  0.00000000000E+00 -0.16855060342E+04  0.16855060342E+04  0.50400001928E-02 0. -1.
    10030    2    1    2    0    0  0.00000000000E+00  0.00000000000E+00  0.38584855675E+03  0.37568606252E+04  0.37369937983E+04 0.  0.
        1    1    3    3  502    0 -0.10940362381E+04  0.15130101235E+04  0.12066911587E+03  0.18710093425E+04  0.50400001928E-02 0. -1.
       -1    1    3    3    0  502  0.10940362381E+04 -0.15130101235E+04  0.26517944087E+03  0.18858512826E+04  0.50400001928E-02 0.  1.
</event>
<event>
 5   0  0.1648000E-07  0.3706101E+04  0.7818609E-02  0.8066611E-01
       -1   -1    0    0    0  501  0.00000000000E+00  0.00000000000E+00  0.19170892800E+04  0.19170892800E+04  0.50400001928E-02 0.  1.
        1   -1    0    0  501    0  0.00000000000E+00  0.00000000000E+00 -0.17911512245E+04  0.17911512245E+04  0.50400001928E-02 0. -1.
    10030    2    1    2    0    0  0.00000000000E+00  0.00000000000E+00  0.12593805541E+03  0.37082405045E+04  0.37061013539E+04 0.  0.
        4    1    3    3  502    0 -0.17444094435E+03  0.10851081124E+04 -0.14298391495E+04  0.18034219875E+04  0.12699999809E+01 0. -1.
       -4    1    3    3    0  502  0.17444094435E+03 -0.10851081124E+04  0.15557772049E+04  0.19048185170E+04  0.12699999809E+01 0.  1.
</event>
<event>
 5   0  0.5325362E-07  0.3627142E+04  0.7818609E-02  0.8084303E-01
       -2   -1    0    0    0  501  0.00000000000E+00  0.00000000000E+00  0.15334494561E+04  0.15334494561E+04  0.25500000920E-02 0. -1.
        2   -1    0    0  501    0  0.00000000000E+00  0.00000000000E+00 -0.21448640580E+04  0.21448640580E+04  0.25500000920E-02 0.  1.
    10030    2    1    2    0    0  0.00000000000E+00  0.00000000000E+00 -0.61141460188E+03  0.36783135141E+04  0.36271424693E+04 0.  0.
        4    1    3    3  502    0 -0.50965137317E+03 -0.14549032460E+03 -0.20645711232E+04  0.21315176500E+04  0.12699999809E+01 0.  1.
       -4    1    3    3    0  502  0.50965137317E+03  0.14549032460E+03  0.14531565213E+04  0.15467958641E+04  0.12699999809E+01 0. -1.
</event>
<event>
 5   0  0.5325362E-07  0.2770636E+04  0.7818609E-02  0.8312443E-01
       -2   -1    0    0    0  501  0.00000000000E+00  0.00000000000E+00  0.99077487010E+03  0.99077487010E+03  0.25500000920E-02 0. -1.
        2   -1    0    0  501    0  0.00000000000E+00  0.00000000000E+00 -0.19369750246E+04  0.19369750246E+04  0.25500000920E-02 0.  1.
    10030    2    1    2    0    0  0.00000000000E+00  0.00000000000E+00 -0.94620015454E+03  0.29277498947E+04  0.27706361569E+04 0.  0.
        4    1    3    3  502    0 -0.24106936947E+03  0.22581933770E+02 -0.19144419399E+04  0.19296927058E+04  0.12699999809E+01 0.  1.
       -4    1    3    3    0  502  0.24106936947E+03 -0.22581933770E+02  0.96824178535E+03  0.99805718896E+03  0.12699999809E+01 0. -1.
</event>
<event>
 5   0  0.5134434E-07  0.3750620E+04  0.7818609E-02  0.8056836E-01
       -2   -1    0    0    0  501  0.00000000000E+00  0.00000000000E+00  0.17474575004E+04  0.17474575004E+04  0.25500000920E-02 0. -1.
        2   -1    0    0  501    0  0.00000000000E+00  0.00000000000E+00 -0.20125166145E+04  0.20125166145E+04  0.25500000920E-02 0.  1.
    10030    2    1    2    0    0  0.00000000000E+00  0.00000000000E+00 -0.26505911413E+03  0.37599741150E+04  0.37506198169E+04 0.  0.
        5    1    3    3  502    0 -0.27109710181E+03  0.14841211027E+04  0.98409587407E+03  0.18012706253E+04  0.46999998093E+01 0. -1.
       -5    1    3    3    0  502  0.27109710181E+03 -0.14841211027E+04 -0.12491549882E+04  0.19587034897E+04  0.46999998093E+01 0.  1.
</event>
<event>
 5   0  0.5202788E-07  0.3823756E+04  0.7818609E-02  0.8041076E-01
       -2   -1    0    0    0  501  0.00000000000E+00  0.00000000000E+00  0.18367792190E+04  0.18367792190E+04  0.25500000920E-02 0. -1.
        2   -1    0    0  501    0  0.00000000000E+00  0.00000000000E+00 -0.19900475919E+04  0.19900475919E+04  0.25500000920E-02 0.  1.
    10030    2    1    2    0    0  0.00000000000E+00  0.00000000000E+00 -0.15326837291E+03  0.38268268108E+04  0.38237563005E+04 0.  0.
        1    1    3    3  502    0 -0.11424037552E+04  0.14794029676E+04  0.32563208249E+03  0.18973022252E+04  0.50400001928E-02 0.  1.
       -1    1    3    3    0  502  0.11424037552E+04 -0.14794029676E+04 -0.47890045540E+03  0.19295245857E+04  0.50400001928E-02 0. -1.
</event>
<event>
 5   0  0.1648000E-07  0.3790581E+04  0.7818609E-02  0.8048179E-01
       -3   -1    0    0    0  501  0.00000000000E+00  0.00000000000E+00  0.25722139873E+04  0.25722139893E+04  0.10100000352E+00 0.  1.
        3   -1    0    0  501    0  0.00000000000E+00  0.00000000000E+00 -0.13965110367E+04  0.13965110403E+04  0.10100000352E+00 0. -1.
    10030    2    1    2    0    0  0.00000000000E+00  0.00000000000E+00  0.11757029506E+04  0.39687250296E+04  0.37905805535E+04 0.  0.
        2    1    3    3  502    0 -0.17768673469E+04 -0.19225658689E+03 -0.72591029653E+02  0.17887117212E+04  0.25500000920E-02 0. -1.
       -2    1    3    3    0  502  0.17768673469E+04  0.19225658689E+03  0.12482939803E+04  0.21800133085E+04  0.25500000920E-02 0.  1.
</event>
<event>
 5   0  0.5134434E-07  0.3321741E+04  0.7818609E-02  0.8157385E-01
       -2   -1    0    0    0  501  0.00000000000E+00  0.00000000000E+00  0.16378491417E+04  0.16378491417E+04  0.25500000920E-02 0. -1.
        2   -1    0    0  501    0  0.00000000000E+00  0.00000000000E+00 -0.16842150545E+04  0.16842150545E+04  0.25500000920E-02 0.  1.
    10030    2    1    2    0    0  0.00000000000E+00  0.00000000000E+00 -0.46365912720E+02  0.33220641962E+04  0.33217406169E+04 0.  0.
        5    1    3    3  502    0  0.10663580440E+04  0.12696441974E+04  0.73533369149E+02  0.16596822323E+04  0.46999998093E+01 0.  1.
       -5    1    3    3    0  502 -0.10663580440E+04 -0.12696441974E+04 -0.11989928187E+03  0.16623819639E+04  0.46999998093E+01 0. -1.
</event>
<event>
 5   0  0.1648000E-07  0.3680469E+04  0.7818609E-02  0.8072304E-01
        1   -1    0    0  501    0  0.00000000000E+00  0.00000000000E+00  0.20788455932E+04  0.20788455932E+04  0.50400001928E-02 0.  1.
       -1   -1    0    0    0  501  0.00000000000E+00  0.00000000000E+00 -0.16290112622E+04  0.16290112622E+04  0.50400001928E-02 0. -1.
    10030    2    1    2    0    0  0.00000000000E+00  0.00000000000E+00  0.44983433103E+03  0.37078568554E+04  0.36804689286E+04 0.  0.
        2    1    3    3  502    0  0.13159232229E+04 -0.12668656260E+03  0.15145836423E+04  0.20103897689E+04  0.25500000920E-02 0.  1.
       -2    1    3    3    0  502 -0.13159232229E+04  0.12668656260E+03 -0.10647493113E+04  0.16974670864E+04  0.25500000920E-02 0. -1.
</event>
<event>
 5   0  0.5134434E-07  0.3829986E+04  0.7818609E-02  0.8039750E-01
        2   -1    0    0  501    0  0.00000000000E+00  0.00000000000E+00  0.20728784728E+04  0.20728784728E+04  0.25500000920E-02 0. -1.
       -2   -1    0    0    0  501  0.00000000000E+00  0.00000000000E+00 -0.17691330475E+04  0.17691330475E+04  0.25500000920E-02 0.  1.
    10030    2    1    2    0    0  0.00000000000E+00  0.00000000000E+00  0.30374542530E+03  0.38420115202E+04  0.38299858013E+04 0.  0.
        5    1    3    3  502    0  0.55711407098E+03  0.93589655131E+03  0.17319047392E+04  0.20459214449E+04  0.46999998093E+01 0. -1.
       -5    1    3    3    0  502 -0.55711407098E+03 -0.93589655131E+03 -0.14281593139E+04  0.17960900753E+04  0.46999998093E+01 0.  1.
</event>
<event>
 5   0  0.1648000E-07  0.3982386E+04  0.7818609E-02  0.8008109E-01
        1   -1    0    0  501    0  0.00000000000E+00  0.00000000000E+00  0.21398642086E+04  0.21398642086E+04  0.50400001928E-02 0. -1.
       -1   -1    0    0    0  501  0.00000000000E+00  0.00000000000E+00 -0.18528514651E+04  0.18528514651E+04  0.50400001928E-02 0.  1.
    10030    2    1    2    0    0  0.00000000000E+00  0.00000000000E+00  0.28701274350E+03  0.39927156737E+04  0.39823864875E+04 0.  0.
        3    1    3    3  502    0  0.10503001304E+04  0.12068159461E+04 -0.10450283855E+04  0.19109210942E+04  0.10100000352E+00 0.  1.
       -3    1    3    3    0  502 -0.10503001304E+04 -0.12068159461E+04  0.13320411290E+04  0.20817945795E+04  0.10100000352E+00 0. -1.
</event>
<event>
 5   0  0.1648000E-07  0.3787266E+04  0.7818609E-02  0.8048893E-01
        1   -1    0    0  501    0  0.00000000000E+00  0.00000000000E+00  0.17907087651E+04  0.17907087651E+04  0.50400001928E-02 0. -1.
       -1   -1    0    0    0  501  0.00000000000E+00  0.00000000000E+00 -0.20024727182E+04  0.20024727182E+04  0.50400001928E-02 0.  1.
    10030    2    1    2    0    0  0.00000000000E+00  0.00000000000E+00 -0.21176395313E+03  0.37931814833E+04  0.37872657411E+04 0.  0.
        4    1    3    3  502    0  0.35709614865E+03  0.18589716902E+04 -0.15646265602E+03  0.18994145361E+04  0.12699999809E+01 0.  1.
       -4    1    3    3    0  502 -0.35709614865E+03 -0.18589716902E+04 -0.55301297106E+02  0.18937669473E+04  0.12699999809E+01 0. -1.
</event>
<event>
 5   0  0.1648000E-07  0.3767979E+04  0.7818609E-02  0.8053062E-01
        1   -1    0    0  501    0  0.00000000000E+00  0.00000000000E+00  0.15761073162E+04  0.15761073162E+04  0.50400001928E-02 0.  1.
       -1   -1    0    0    0  501  0.00000000000E+00  0.00000000000E+00 -0.22520142546E+04  0.22520142546E+04  0.50400001928E-02 0. -1.
    10030    2    1    2    0    0  0.00000000000E+00  0.00000000000E+00 -0.67590693832E+03  0.38281215708E+04  0.37679788444E+04 0.  0.
        3    1    3    3  502    0  0.19342999167E+03 -0.98268172529E+03 -0.19591484739E+04  0.22003048171E+04  0.10100000352E+00 0. -1.
       -3    1    3    3    0  502 -0.19342999167E+03  0.98268172529E+03  0.12832415356E+04  0.16278167537E+04  0.10100000352E+00 0.  1.
</event>
<event>
 5   0  0.1648000E-07  0.3803345E+04  0.7818609E-02  0.8045437E-01
        1   -1    0    0  501    0  0.00000000000E+00  0.00000000000E+00  0.25478532566E+04  0.25478532566E+04  0.50400001928E-02 0.  1.
       -1   -1    0    0    0  501  0.00000000000E+00  0.00000000000E+00 -0.14193745581E+04  0.14193745581E+04  0.50400001928E-02 0. -1.
    10030    2    1    2    0    0  0.00000000000E+00  0.00000000000E+00  0.11284786985E+04  0.39672278147E+04  0.38033448911E+04 0.  0.
        3    1    3    3  502    0 -0.15568084019E+04  0.64882392498E+02 -0.57291727273E+03  0.16601494922E+04  0.10100000352E+00 0. -1.
       -3    1    3    3    0  502  0.15568084019E+04 -0.64882392498E+02  0.17013959712E+04  0.23070783225E+04  0.10100000352E+00 0.  1.
</event>
<event>
 5   0  0.5158266E-07  0.3829298E+04  0.7818609E-02  0.8039897E-01
        2   -1    0    0  501    0  0.00000000000E+00  0.00000000000E+00  0.20334779029E+04  0.20334779029E+04  0.25500000920E-02 0.  1.
       -2   -1    0    0    0  501  0.00000000000E+00  0.00000000000E+00 -0.18027637257E+04  0.18027637257E+04  0.25500000920E-02 0. -1.
    10030    2    1    2    0    0  0.00000000000E+00  0.00000000000E+00  0.23071417718E+03  0.38362416287E+04  0.38292976904E+04 0.  0.
        2    1    3    3  502    0  0.10806239897E+04  0.10929864580E+04  0.12591422025E+04  0.19869088280E+04  0.25500000920E-02 0.  1.
       -2    1    3    3    0  502 -0.10806239897E+04 -0.10929864580E+04 -0.10284280254E+04  0.18493328007E+04  0.25500000920E-02 0. -1.
</event>
<event>
 5   0  0.1656617E-07  0.3130607E+04  0.7818609E-02  0.8207388E-01
        1   -1    0    0  501    0  0.00000000000E+00  0.00000000000E+00  0.20489950004E+04  0.20489950004E+04  0.50400001928E-02 0. -1.
       -1   -1    0    0    0  501  0.00000000000E+00  0.00000000000E+00 -0.11957937993E+04  0.11957937993E+04  0.50400001928E-02 0.  1.
    10030    2    1    2    0    0  0.00000000000E+00  0.00000000000E+00  0.85320120109E+03  0.32447887997E+04  0.31306072998E+04 0.  0.
        5    1    3    3  502    0  0.14756293704E+03 -0.49828811968E+03  0.19569648393E+04  0.20247961237E+04  0.46999998093E+01 0. -1.
       -5    1    3    3    0  502 -0.14756293704E+03  0.49828811968E+03 -0.11037636382E+04  0.12199926760E+04  0.46999998093E+01 0.  1.
</event>
<event>
 5   0  0.1648000E-07  0.3813864E+04  0.7818609E-02  0.8043186E-01
       -1   -1    0    0    0  501  0.00000000000E+00  0.00000000000E+00  0.16425033043E+04  0.16425033044E+04  0.50400001928E-02 0. -1.
        1   -1    0    0  501    0  0.00000000000E+00  0.00000000000E+00 -0.22139312248E+04  0.22139312248E+04  0.50400001928E-02 0.  1.
    10030    2    1    2    0    0  0.00000000000E+00  0.00000000000E+00 -0.57142792049E+03  0.38564345292E+04  0.38138638426E+04 0.  0.
        2    1    3    3  502    0 -0.11291161304E+04 -0.31069311879E+03 -0.18074896914E+04  0.21537066733E+04  0.25500000920E-02 0.  1.
       -2    1    3    3    0  502  0.11291161304E+04  0.31069311879E+03  0.12360617709E+04  0.17027278560E+04  0.25500000920E-02 0. -1.
</event>
<event>
 5   0  0.1648000E-07  0.3297284E+04  0.7818609E-02  0.8163587E-01
       -1   -1    0    0    0  501  0.00000000000E+00  0.00000000000E+00  0.12703271617E+04  0.12703271617E+04  0.50400001928E-02 0.  1.
        1   -1    0    0  501    0  0.00000000000E+00  0.00000000000E+00 -0.21396224719E+04  0.21396224719E+04  0.50400001928E-02 0. -1.
    10030    2    1    2    0    0  0.00000000000E+00  0.00000000000E+00 -0.86929531027E+03  0.34099496336E+04  0.32972840592E+04 0.  0.
        3    1    3    3  502    0 -0.89397177470E+03 -0.65842917606E+03 -0.16950220499E+04  0.20262808970E+04  0.10100000352E+00 0. -1.
       -3    1    3    3    0  502  0.89397177470E+03  0.65842917606E+03  0.82572673961E+03  0.13836687366E+04  0.10100000352E+00 0.  1.
</event>
<event>
 5   0  0.5202788E-07  0.3856906E+04  0.7818609E-02  0.8034052E-01
        2   -1    0    0  501    0  0.00000000000E+00  0.00000000000E+00  0.18088291142E+04  0.18088291142E+04  0.25500000920E-02 0.  1.
       -2   -1    0    0    0  501  0.00000000000E+00  0.00000000000E+00 -0.20559879434E+04  0.20559879434E+04  0.25500000920E-02 0. -1.
    10030    2    1    2    0    0  0.00000000000E+00  0.00000000000E+00 -0.24715882921E+03  0.38648170576E+04  0.38569059364E+04 0.  0.
        1    1    3    3  502    0 -0.12772988471E+04  0.36173214795E+03  0.12780707316E+04  0.18427716317E+04  0.50400001928E-02 0.  1.
       -1    1    3    3    0  502  0.12772988471E+04 -0.36173214795E+03 -0.15252295608E+04  0.20220454260E+04  0.50400001928E-02 0. -1.
</event>
<event>
 5   0  0.5158266E-07  0.3818268E+04  0.7818609E-02  0.8042246E-01
        2   -1    0    0  501    0  0.00000000000E+00  0.00000000000E+00  0.24484070633E+04  0.24484070633E+04  0.25500000920E-02 0.  1.
       -2   -1    0    0    0  501  0.00000000000E+00  0.00000000000E+00 -0.14886385505E+04  0.14886385505E+04  0.25500000920E-02 0. -1.
    10030    2    1    2    0    0  0.00000000000E+00  0.00000000000E+00  0.95976851276E+03  0.39370456138E+04  0.38182682680E+04 0.  0.
        2    1    3    3  502    0 -0.27420750836E+03  0.93938179471E+03 -0.12103667132E+04  0.15564753433E+04  0.25500000920E-02 0. -1.
       -2    1    3    3    0  502  0.27420750836E+03 -0.93938179471E+03  0.21701352259E+04  0.23805702705E+04  0.25500000920E-02 0.  1.
</event>
<event>
 5   0  0.1648000E-07  0.3000549E+04  0.7818609E-02  0.8243574E-01
       -1   -1    0    0    0  501  0.00000000000E+00  0.00000000000E+00  0.15922879222E+04  0.15922879223E+04  0.50400001928E-02 0.  1.
        1   -1    0    0  501    0  0.00000000000E+00  0.00000000000E+00 -0.14135781252E+04  0.14135781252E+04  0.50400001928E-02 0. -1.
    10030    2    1    2    0    0  0.00000000000E+00  0.00000000000E+00  0.17870979701E+03  0.30058660475E+04  0.30005488671E+04 0.  0.
        3    1    3    3  502    0 -0.11504464428E+04 -0.40517512372E+03  0.96447574738E+03  0.15549621783E+04  0.10100000352E+00 0.  1.
       -3    1    3    3    0  502  0.11504464428E+04  0.40517512372E+03 -0.78576595037E+03  0.14509038692E+04  0.10100000352E+00 0. -1.
</event>
<event>
 5   0  0.5202788E-07  0.3777318E+04  0.7818609E-02  0.8051040E-01
        2   -1    0    0  501    0  0.00000000000E+00  0.00000000000E+00  0.16512067849E+04  0.16512067849E+04  0.25500000920E-02 0.  1.
       -2   -1    0    0    0  501  0.00000000000E+00  0.00000000000E+00 -0.21602578626E+04  0.21602578626E+04  0.25500000920E-02 0. -1.
    10030    2    1    2    0    0  0.00000000000E+00  0.00000000000E+00 -0.50905107776E+03  0.38114646475E+04  0.37773177996E+04 0.  0.
        1    1    3    3  502    0  0.11968561686E+04 -0.96542590338E+03 -0.13610337191E+04  0.20535151930E+04  0.50400001928E-02 0. -1.
       -1    1    3    3    0  502 -0.11968561686E+04  0.96542590338E+03  0.85198264138E+03  0.17579494545E+04  0.50400001928E-02 0.  1.
</event>
<event>
 5   0  0.1648000E-07  0.3831004E+04  0.7818609E-02  0.8039534E-01
       -1   -1    0    0    0  501  0.00000000000E+00  0.00000000000E+00  0.18632220477E+04  0.18632220477E+04  0.50400001928E-02 0. -1.
        1   -1    0    0  501    0  0.00000000000E+00  0.00000000000E+00 -0.19692489814E+04  0.19692489815E+04  0.50400001928E-02 0.  1.
    10030    2    1    2    0    0  0.00000000000E+00  0.00000000000E+00 -0.10602693373E+03  0.38324710292E+04  0.38310041084E+04 0.  0.
        1    1    3    3  502    0 -0.20096047101E+03  0.11723656424E+04 -0.15550282917E+04  0.19577893907E+04  0.50400001928E-02 0. -1.
       -1    1    3    3    0  502  0.20096047101E+03 -0.11723656424E+04  0.14490013580E+04  0.18746816385E+04  0.50400001928E-02 0.  1.
</event>
<event>
 5   0  0.1648000E-07  0.3964937E+04  0.7818609E-02  0.8011657E-01
       -1   -1    0    0    0  501  0.00000000000E+00  0.00000000000E+00  0.12776293580E+04  0.12776293580E+04  0.50400001928E-02 0.  1.
        1   -1    0    0  501    0  0.00000000000E+00  0.00000000000E+00 -0.30761520511E+04  0.30761520511E+04  0.50400001928E-02 0. -1.
    10030    2    1    2    0    0  0.00000000000E+00  0.00000000000E+00 -0.17985226931E+04  0.43537814090E+04  0.39649374119E+04 0.  0.
        3    1    3    3  502    0  0.14181083855E+04 -0.12966995250E+04 -0.36387886305E+03  0.19557272019E+04  0.10100000352E+00 0. -1.
       -3    1    3    3    0  502 -0.14181083855E+04  0.12966995250E+04 -0.14346438300E+04  0.23980542071E+04  0.10100000352E+00 0.  1.
</event>
<event>
 5   0  0.5325362E-07  0.3804315E+04  0.7818609E-02  0.8045229E-01
        2   -1    0    0  501    0  0.00000000000E+00  0.00000000000E+00  0.27423627583E+04  0.27423627583E+04  0.25500000920E-02 0. -1.
       -2   -1    0    0    0  501  0.00000000000E+00  0.00000000000E+00 -0.13193744787E+04  0.13193744787E+04  0.25500000920E-02 0.  1.
    10030    2    1    2    0    0  0.00000000000E+00  0.00000000000E+00  0.14229882796E+04  0.40617372369E+04  0.38043151471E+04 0.  0.
        4    1    3    3  502    0  0.76530331643E+03  0.51292042592E+03 -0.10652715743E+04  0.14083968437E+04  0.12699999809E+01 0.  1.
       -4    1    3    3    0  502 -0.76530331643E+03 -0.51292042592E+03  0.24882598538E+04  0.26533403933E+04  0.12699999809E+01 0. -1.
</event>
<event>
 5   0  0.5134434E-07  0.3830072E+04  0.7818609E-02  0.8039732E-01
        2   -1    0    0  501    0  0.00000000000E+00  0.00000000000E+00  0.14927165947E+04  0.14927165947E+04  0.25500000920E-02 0.  1.
       -2   -1    0    0    0  501  0.00000000000E+00  0.00000000000E+00 -0.24568380863E+04  0.24568380863E+04  0.25500000920E-02 0. -1.
    10030    2    1    2    0    0  0.00000000000E+00  0.00000000000E+00 -0.96412149158E+03  0.39495546810E+04  0.38300720525E+04 0.  0.
        5    1    3    3  502    0  0.38769317129E+03  0.48476339068E+03 -0.23502164865E+04  0.24308108037E+04  0.46999998093E+01 0. -1.
       -5    1    3    3    0  502 -0.38769317129E+03 -0.48476339068E+03  0.13860949949E+04  0.15187438773E+04  0.46999998093E+01 0.  1.
</event>
<event>
 5   0  0.5202788E-07  0.3709830E+04  0.7818609E-02  0.8065787E-01
        2   -1    0    0  501    0  0.00000000000E+00  0.00000000000E+00  0.23214502549E+04  0.23214502549E+04  0.25500000920E-02 0.  1.
       -2   -1    0    0    0  501  0.00000000000E+00  0.00000000000E+00 -0.14821380568E+04  0.14821380568E+04  0.25500000920E-02 0. -1.
    10030    2    1    2    0    0  0.00000000000E+00  0.00000000000E+00  0.83931219804E+03  0.38035883117E+04  0.37098300607E+04 0.  0.
        1    1    3    3  502    0 -0.10834122109E+04 -0.14642353488E+04  0.77914929510E+03  0.19811210966E+04  0.50400001928E-02 0.  1.
       -1    1    3    3    0  502  0.10834122109E+04  0.14642353488E+04  0.60162902939E+02  0.18224672151E+04  0.50400001928E-02 0. -1.
</event>
<event>
 5   0  0.5134434E-07  0.3536281E+04  0.7818609E-02  0.8105245E-01
        2   -1    0    0  501    0  0.00000000000E+00  0.00000000000E+00  0.24108955756E+04  0.24108955756E+04  0.25500000920E-02 0. -1.
       -2   -1    0    0    0  501  0.00000000000E+00  0.00000000000E+00 -0.12967467275E+04  0.12967467275E+04  0.25500000920E-02 0.  1.
    10030    2    1    2    0    0  0.00000000000E+00  0.00000000000E+00  0.11141488481E+04  0.37076423031E+04  0.35362810680E+04 0.  0.
        5    1    3    3  502    0  0.11596980277E+04  0.18010396534E+02  0.19563142336E+04  0.22742935959E+04  0.46999998093E+01 0. -1.
       -5    1    3    3    0  502 -0.11596980277E+04 -0.18010396534E+02 -0.84216538552E+03  0.14333487072E+04  0.46999998093E+01 0.  1.
</event>
<event>
 5   0  0.5325362E-07  0.3737128E+04  0.7818609E-02  0.8059783E-01
        2   -1    0    0  501    0  0.00000000000E+00  0.00000000000E+00  0.16891226799E+04  0.16891226799E+04  0.25500000920E-02 0.  1.
       -2   -1    0    0    0  501  0.00000000000E+00  0.00000000000E+00 -0.20670684879E+04  0.20670684879E+04  0.25500000920E-02 0. -1.
    10030    2    1    2    0    0  0.00000000000E+00  0.00000000000E+00 -0.37794580805E+03  0.37561911678E+04  0.37371284504E+04 0.  0.
        4    1    3    3  502    0  0.11822687374E+04 -0.10189194090E+04 -0.12216251911E+04  0.19820004667E+04  0.12699999809E+01 0. -1.
       -4    1    3    3    0  502 -0.11822687374E+04  0.10189194090E+04  0.84367938308E+03  0.17741907011E+04  0.12699999809E+01 0.  1.
</event>
<event>
 5   0  0.1648000E-07  0.3777742E+04  0.7818609E-02  0.8050948E-01
       -1   -1    0    0    0  501  0.00000000000E+00  0.00000000000E+00  0.16827174619E+04  0.16827174619E+04  0.50400001928E-02 0.  1.
        1   -1    0    0  501    0  0.00000000000E+00  0.00000000000E+00 -0.21202803207E+04  0.21202803207E+04  0.50400001928E-02 0. -1.
    10030    2    1    2    0    0  0.00000000000E+00  0.00000000000E+00 -0.43756285876E+03  0.38029977826E+04  0.37777415050E+04 0.  0.
        3    1    3    3  502    0  0.32847431784E+03 -0.11348390414E+04 -0.17024316011E+04  0.20722037530E+04  0.10100000352E+00 0. -1.
       -3    1    3    3    0  502 -0.32847431784E+03  0.11348390414E+04  0.12648687423E+04  0.17307940296E+04  0.10100000352E+00 0.  1.
</event>
<event>
 5   0  0.1648000E-07  0.3024987E+04  0.7818609E-02  0.8236632E-01
        1   -1    0    0  501    0  0.00000000000E+00  0.00000000000E+00  0.24416670023E+04  0.24416670023E+04  0.50400001928E-02 0. -1.
       -1   -1    0    0    0  501  0.00000000000E+00  0.00000000000E+00 -0.93691577924E+03  0.93691577925E+03  0.50400001928E-02 0.  1.
    10030    2    1    2    0    0  0.00000000000E+00  0.00000000000E+00  0.15047512230E+04  0.33785827815E+04  0.30249868377E+04 0.  0.
        3    1    3    3  502    0 -0.13581710384E+04  0.61224362146E+03  0.46077164935E+03  0.15594169887E+04  0.10100000352E+00 0.  1.
       -3    1    3    3    0  502  0.13581710384E+04 -0.61224362146E+03  0.10439795737E+04  0.18191657929E+04  0.10100000352E+00 0. -1.
</event>
<event>
 5   0  0.5132561E-07  0.3816915E+04  0.7818609E-02  0.8042535E-01
       -2   -1    0    0    0  501  0.00000000000E+00  0.00000000000E+00  0.31502775978E+04  0.31502775978E+04  0.25500000920E-02 0. -1.
        2   -1    0    0  501    0  0.00000000000E+00  0.00000000000E+00 -0.11561554044E+04  0.11561554044E+04  0.25500000920E-02 0.  1.
    10030    2    1    2    0    0  0.00000000000E+00  0.00000000000E+00  0.19941221934E+04  0.43064330021E+04  0.38169152309E+04 0.  0.
        3    1    3    3  502    0  0.59162641534E+03 -0.12736401896E+04 -0.46097147841E+03  0.14780649045E+04  0.10100000352E+00 0.  1.
       -3    1    3    3    0  502 -0.59162641534E+03  0.12736401896E+04  0.24550936718E+04  0.28283680976E+04  0.10100000352E+00 0. -1.
</event>
<event>
 5   0  0.5325362E-07  0.3857496E+04  0.7818609E-02  0.8033928E-01
        2   -1    0    0  501    0  0.00000000000E+00  0.00000000000E+00  0.32415911378E+04  0.32415911378E+04  0.25500000920E-02 0. -1.
       -2   -1    0    0    0  501  0.00000000000E+00  0.00000000000E+00 -0.11476058668E+04  0.11476058668E+04  0.25500000920E-02 0.  1.
    10030    2    1    2    0    0  0.00000000000E+00  0.00000000000E+00  0.20939852709E+04  0.43891970046E+04  0.38574960830E+04 0.  0.
        4    1    3    3  502    0 -0.18565347729E+04  0.51239919322E+03  0.11652022088E+04  0.22509935799E+04  0.12699999809E+01 0.  1.
       -4    1    3    3    0  502  0.18565347729E+04 -0.51239919322E+03  0.92878306209E+03  0.21382034247E+04  0.12699999809E+01 0. -1.
</event>
<event>
 5   0  0.1648000E-07  0.3538020E+04  0.7818609E-02  0.8104838E-01
        1   -1    0    0  501    0  0.00000000000E+00  0.00000000000E+00  0.24274045678E+04  0.24274045678E+04  0.50400001928E-02 0.  1.
       -1   -1    0    0    0  501  0.00000000000E+00  0.00000000000E+00 -0.12891944510E+04  0.12891944510E+04  0.50400001928E-02 0. -1.
    10030    2    1    2    0    0  0.00000000000E+00  0.00000000000E+00  0.11382101168E+04  0.37165990189E+04  0.35380200674E+04 0.  0.
        2    1    3    3  502    0 -0.11363070353E+04 -0.13431797545E+04  0.37520512860E+03  0.17989175689E+04  0.25500000920E-02 0.  1.
       -2    1    3    3    0  502  0.11363070353E+04  0.13431797545E+04  0.76300498823E+03  0.19176814499E+04  0.25500000920E-02 0. -1.
</event>
<event>
 5   0  0.1648000E-07  0.3640984E+04  0.7818609E-02  0.8081168E-01
       -1   -1    0    0    0  501  0.00000000000E+00  0.00000000000E+00  0.33778229197E+04  0.33778229197E+04  0.50400001928E-02 0. -1.
        1   -1    0    0  501    0  0.00000000000E+00  0.00000000000E+00 -0.98116173194E+03  0.98116173195E+03  0.50400001928E-02 0.  1.
    10030    2    1    2    0    0  0.00000000000E+00  0.00000000000E+00  0.23966611877E+04  0.43589846516E+04  0.36409837056E+04 0.  0.
        1    1    3    3  502    0  0.15770575191E+04 -0.37127507519E+03  0.20441326699E+03  0.16330157329E+04  0.50400001928E-02 0.  1.
       -1    1    3    3    0  502 -0.15770575191E+04  0.37127507519E+03  0.21922479208E+04  0.27259689188E+04  0.50400001928E-02 0. -1.
</event>
<event>
 5   0  0.1648000E-07  0.3747796E+04  0.7818609E-02  0.8057451E-01
        1   -1    0    0  501    0  0.00000000000E+00  0.00000000000E+00  0.26127628150E+04  0.26127628151E+04  0.50400001928E-02 0.  1.
       -1   -1    0    0    0  501  0.00000000000E+00  0.00000000000E+00 -0.13439774589E+04  0.13439774589E+04  0.50400001928E-02 0. -1.
    10030    2    1    2    0    0  0.00000000000E+00  0.00000000000E+00  0.12687853561E+04  0.39567402740E+04  0.37477963280E+04 0.  0.
        2    1    3    3  502    0  0.30574395126E+03 -0.14156038206E+04 -0.62105516000E+03  0.15757928330E+04  0.25500000920E-02 0. -1.
       -2    1    3    3    0  502 -0.30574395126E+03  0.14156038206E+04  0.18898405161E+04  0.23809474410E+04  0.25500000920E-02 0.  1.
</event>
<event>
 5   0  0.5325362E-07  0.3906248E+04  0.7818609E-02  0.8023731E-01
        2   -1    0    0  501    0  0.00000000000E+00  0.00000000000E+00  0.16695963084E+04  0.16695963084E+04  0.25500000920E-02 0.  1.
       -2   -1    0    0    0  501  0.00000000000E+00  0.00000000000E+00 -0.22847999199E+04  0.22847999199E+04  0.25500000920E-02 0. -1.
    10030    2    1    2    0    0  0.00000000000E+00  0.00000000000E+00 -0.61520361156E+03  0.39543962283E+04  0.39062480779E+04 0.  0.
        4    1    3    3  502    0  0.18519541480E+03  0.14605875723E+04 -0.16068062916E+04  0.21793213324E+04  0.12699999809E+01 0. -1.
       -4    1    3    3    0  502 -0.18519541480E+03 -0.14605875723E+04  0.99160268002E+03  0.17750748959E+04  0.12699999809E+01 0.  1.
</event>
<event>
 5   0  0.5325362E-07  0.3815073E+04  0.7818609E-02  0.8042928E-01
        2   -1    0    0  501    0  0.00000000000E+00  0.00000000000E+00  0.12366539500E+04  0.12366539500E+04  0.25500000920E-02 0.  1.
       -2   -1    0    0    0  501  0.00000000000E+00  0.00000000000E+00 -0.29423721858E+04  0.29423721858E+04  0.25500000920E-02 0. -1.
    10030    2    1    2    0    0  0.00000000000E+00  0.00000000000E+00 -0.17057182359E+04  0.41790261358E+04  0.38150733602E+04 0.  0.
        4    1    3    3  502    0  0.14256617588E+04  0.10228408889E+04 -0.16725654911E+04  0.24240857801E+04  0.12699999809E+01 0.  1.
       -4    1    3    3    0  502 -0.14256617588E+04 -0.10228408889E+04 -0.33152744786E+02  0.17549403557E+04  0.12699999809E+01 0. -1.
</event>
<event>
 5   0  0.5134434E-07  0.3812182E+04  0.7818609E-02  0.8043546E-01
        2   -1    0    0  501    0  0.00000000000E+00  0.00000000000E+00  0.14106857749E+04  0.14106857749E+04  0.25500000920E-02 0.  1.
       -2   -1    0    0    0  501  0.00000000000E+00  0.00000000000E+00 -0.25754722358E+04  0.25754722358E+04  0.25500000920E-02 0. -1.
    10030    2    1    2    0    0  0.00000000000E+00  0.00000000000E+00 -0.11647864610E+04  0.39861580107E+04  0.38121815522E+04 0.  0.
        5    1    3    3  502    0 -0.71462045281E+02 -0.18200027991E+04  0.50676845039E+01  0.18214183441E+04  0.46999998093E+01 0.  1.
       -5    1    3    3    0  502  0.71462045281E+02  0.18200027991E+04 -0.11698541455E+04  0.21647396666E+04  0.46999998093E+01 0. -1.
</event>
<event>
 5   0  0.1648000E-07  0.3783800E+04  0.7818609E-02  0.8049640E-01
       -1   -1    0    0    0  501  0.00000000000E+00  0.00000000000E+00  0.12499401585E+04  0.12499401585E+04  0.50400001928E-02 0.  1.
        1   -1    0    0  501    0  0.00000000000E+00  0.00000000000E+00 -0.28635660224E+04  0.28635660224E+04  0.50400001928E-02 0. -1.
    10030    2    1    2    0    0  0.00000000000E+00  0.00000000000E+00 -0.16136258639E+04  0.41135061809E+04  0.37838002949E+04 0.  0.
        3    1    3    3  502    0  0.21064945780E+03  0.49189434336E+03  0.11659582183E+04  0.12828841788E+04  0.10100000352E+00 0.  1.
       -3    1    3    3    0  502 -0.21064945780E+03 -0.49189434336E+03 -0.27795840822E+04  0.28306220022E+04  0.10100000352E+00 0. -1.
</event>
<event>
 5   0  0.1648000E-07  0.3746742E+04  0.7818609E-02  0.8057682E-01
       -1   -1    0    0    0  501  0.00000000000E+00  0.00000000000E+00  0.13196411681E+04  0.13196411681E+04  0.50400001928E-02 0.  1.
        1   -1    0    0  501    0  0.00000000000E+00  0.00000000000E+00 -0.26594490664E+04  0.26594490664E+04  0.50400001928E-02 0. -1.
    10030    2    1    2    0    0  0.00000000000E+00  0.00000000000E+00 -0.13398078983E+04  0.39790902345E+04  0.37467417699E+04 0.  0.
        2    1    3    3  502    0 -0.18345606904E+04  0.11411152987E+03 -0.10541182084E+04  0.21189147140E+04  0.25500000920E-02 0. -1.
       -2    1    3    3    0  502  0.18345606904E+04 -0.11411152987E+03 -0.28568968994E+03  0.18601755205E+04  0.25500000920E-02 0.  1.
</event>
<event>
 5   0  0.5202788E-07  0.3783483E+04  0.7818609E-02  0.8049709E-01
        2   -1    0    0  501    0  0.00000000000E+00  0.00000000000E+00  0.19313220840E+04  0.19313220840E+04  0.25500000920E-02 0. -1.
       -2   -1    0    0    0  501  0.00000000000E+00  0.00000000000E+00 -0.18529719464E+04  0.18529719464E+04  0.25500000920E-02 0.  1.
    10030    2    1    2    0    0  0.00000000000E+00  0.00000000000E+00  0.78350137578E+02  0.37842940304E+04  0.37834828617E+04 0.  0.
        1    1    3    3  502    0 -0.12671180567E+03  0.11427794282E+04 -0.14633736646E+04  0.18610382010E+04  0.50400001928E-02 0.  1.
       -1    1    3    3    0  502  0.12671180567E+03 -0.11427794282E+04  0.15417238022E+04  0.19232558295E+04  0.50400001928E-02 0. -1.
</event>
<event>
 5   0  0.1648000E-07  0.3000712E+04  0.7818609E-02  0.8243528E-01
        1   -1    0    0  501    0  0.00000000000E+00  0.00000000000E+00  0.13571387497E+04  0.13571387497E+04  0.50400001928E-02 0. -1.
       -1   -1    0    0    0  501  0.00000000000E+00  0.00000000000E+00 -0.16586862633E+04  0.16586862633E+04  0.50400001928E-02 0.  1.
    10030    2    1    2    0    0  0.00000000000E+00  0.00000000000E+00 -0.30154751361E+03  0.30158250131E+04  0.30007115167E+04 0.  0.
        4    1    3    3  502    0  0.39985309289E+03 -0.12312411517E+04  0.61148443211E+03  0.14316955309E+04  0.12699999809E+01 0. -1.
       -4    1    3    3    0  502 -0.39985309289E+03  0.12312411517E+04 -0.91303194572E+03  0.15841294822E+04  0.12699999809E+01 0.  1.
</event>
<event>
 5   0  0.5202788E-07  0.3806607E+04  0.7818609E-02  0.8044739E-01
       -2   -1    0    0    0  501  0.00000000000E+00  0.00000000000E+00  0.29155121206E+04  0.29155121206E+04  0.25500000920E-02 0. -1.
        2   -1    0    0  501    0  0.00000000000E+00  0.00000000000E+00 -0.12425138216E+04  0.12425138216E+04  0.25500000920E-02 0.  1.
    10030    2    1    2    0    0  0.00000000000E+00  0.00000000000E+00  0.16729982990E+04  0.41580259422E+04  0.38066069441E+04 0.  0.
        1    1    3    3  502    0  0.93067615025E+03 -0.14511967469E+04 -0.44449878191E+02  0.17245596210E+04  0.50400001928E-02 0.  1.
       -1    1    3    3    0  502 -0.93067615025E+03  0.14511967469E+04  0.17174481772E+04  0.24334663211E+04  0.50400001928E-02 0. -1.
</event>
<event>
 5   0  0.5158266E-07  0.3778685E+04  0.7818609E-02  0.8050744E-01
       -2   -1    0    0    0  501  0.00000000000E+00  0.00000000000E+00  0.20588678942E+04  0.20588678942E+04  0.25500000920E-02 0. -1.
        2   -1    0    0  501    0  0.00000000000E+00  0.00000000000E+00 -0.17337759417E+04  0.17337759417E+04  0.25500000920E-02 0.  1.
    10030    2    1    2    0    0  0.00000000000E+00  0.00000000000E+00  0.32509195253E+03  0.37926438359E+04  0.37786852858E+04 0.  0.
        2    1    3    3  502    0  0.70711500537E+03 -0.10632415629E+04 -0.12351214194E+04  0.17765188354E+04  0.25500000920E-02 0.  1.
       -2    1    3    3    0  502 -0.70711500537E+03  0.10632415629E+04  0.15602133720E+04  0.20161250005E+04  0.25500000920E-02 0. -1.
</event>
<event>
 5   0  0.1648000E-07  0.3819035E+04  0.7818609E-02  0.8042082E-01
       -1   -1    0    0    0  501  0.00000000000E+00  0.00000000000E+00  0.16486155922E+04  0.16486155922E+04  0.50400001928E-02 0.  1.
        1   -1    0    0  501    0  0.00000000000E+00  0.00000000000E+00 -0.22117083161E+04  0.22117083161E+04  0.50400001928E-02 0. -1.
    10030    2    1    2    0    0  0.00000000000E+00  0.00000000000E+00 -0.56309272391E+03  0.38603239082E+04  0.38190348599E+04 0.  0.
        4    1    3    3  502    0 -0.12171378114E+04 -0.70268319823E+03 -0.15882198062E+04  0.21207621023E+04  0.12699999809E+01 0. -1.
       -4    1    3    3    0  502  0.12171378114E+04  0.70268319823E+03  0.10251270823E+04  0.17395618059E+04  0.12699999809E+01 0.  1.
</event>
<event>
 5   0  0.5325362E-07  0.3375316E+04  0.7818609E-02  0.8143991E-01
        2   -1    0    0  501    0  0.00000000000E+00  0.00000000000E+00  0.17760051156E+04  0.17760051156E+04  0.25500000920E-02 0. -1.
       -2   -1    0    0    0  501  0.00000000000E+00  0.00000000000E+00 -0.16037056513E+04  0.16037056513E+04  0.25500000920E-02 0.  1.
    10030    2    1    2    0    0  0.00000000000E+00  0.00000000000E+00  0.17229946432E+03  0.33797107670E+04  0.33753159501E+04 0.  0.
        4    1    3    3  502    0  0.15785199337E+03  0.63314678196E+03  0.16445809873E+04  0.17693050432E+04  0.12699999809E+01 0. -1.
       -4    1    3    3    0  502 -0.15785199337E+03 -0.63314678196E+03 -0.14722815230E+04  0.16104057237E+04  0.12699999809E+01 0.  1.
</event>
<event>
 5   0  0.1648000E-07  0.3756717E+04  0.7818609E-02  0.8055508E-01
        1   -1    0    0  501    0  0.00000000000E+00  0.00000000000E+00  0.25217294349E+04  0.25217294349E+04  0.50400001928E-02 0.  1.
       -1   -1    0    0    0  501  0.00000000000E+00  0.00000000000E+00 -0.13991316312E+04  0.13991316312E+04  0.50400001928E-02 0. -1.
    10030    2    1    2    0    0  0.00000000000E+00  0.00000000000E+00  0.11225978037E+04  0.39208610661E+04  0.37567174063E+04 0.  0.
        3    1    3    3  502    0 -0.68506517398E+03 -0.17141971176E+04  0.19908262850E+03  0.18567229071E+04  0.10100000352E+00 0. -1.
       -3    1    3    3    0  502  0.68506517398E+03  0.17141971176E+04  0.92351517520E+03  0.20641381590E+04  0.10100000352E+00 0.  1.
</event>
<event>
 5   0  0.5134434E-07  0.3744639E+04  0.7818609E-02  0.8058141E-01
       -2   -1    0    0    0  501  0.00000000000E+00  0.00000000000E+00  0.21408798119E+04  0.21408798119E+04  0.25500000920E-02 0.  1.
        2   -1    0    0  501    0  0.00000000000E+00  0.00000000000E+00 -0.16374484352E+04  0.16374484352E+04  0.25500000920E-02 0. -1.
    10030    2    1    2    0    0  0.00000000000E+00  0.00000000000E+00  0.50343137669E+03  0.37783282471E+04  0.37446389935E+04 0.  0.
        5    1    3    3  502    0 -0.38152825271E+03 -0.62562358334E+03  0.19901761010E+04  0.21207997734E+04  0.46999998093E+01 0.  1.
       -5    1    3    3    0  502  0.38152825271E+03  0.62562358334E+03 -0.14867447244E+04  0.16575284737E+04  0.46999998093E+01 0. -1.
</event>
<event>
 5   0  0.5134434E-07  0.3781157E+04  0.7818609E-02  0.8050211E-01
        2   -1    0    0  501    0  0.00000000000E+00  0.00000000000E+00  0.21338443595E+04  0.21338443595E+04  0.25500000920E-02 0.  1.
       -2   -1    0    0    0  501  0.00000000000E+00  0.00000000000E+00 -0.16750457768E+04  0.16750457768E+04  0.25500000920E-02 0. -1.
    10030    2    1    2    0    0  0.00000000000E+00  0.00000000000E+00  0.45879858271E+03  0.38088901363E+04  0.37811569567E+04 0.  0.
        5    1    3    3  502    0 -0.16122212059E+04  0.81204294320E+03 -0.33649858558E+03  0.18362800294E+04  0.46999998093E+01 0. -1.
       -5    1    3    3    0  502  0.16122212059E+04 -0.81204294320E+03  0.79529716829E+03  0.19726101070E+04  0.46999998093E+01 0.  1.
</event>
<event>
 5   0  0.5202788E-07  0.4063870E+04  0.7818609E-02  0.7991784E-01
       -2   -1    0    0    0  501  0.00000000000E+00  0.00000000000E+00  0.13766758900E+04  0.13766758900E+04  0.25500000920E-02 0. -1.
        2   -1    0    0  501    0  0.00000000000E+00  0.00000000000E+00 -0.29990793568E+04  0.29990793568E+04  0.25500000920E-02 0.  1.
    10030    2    1    2    0    0  0.00000000000E+00  0.00000000000E+00 -0.16224034667E+04  0.43757552468E+04  0.40638701961E+04 0.  0.
        1    1    3    3  502    0  0.14952229643E+04  0.13729704294E+04 -0.71476996476E+03  0.21521235131E+04  0.50400001928E-02 0.  1.
       -1    1    3    3    0  502 -0.14952229643E+04 -0.13729704294E+04 -0.90763350197E+03  0.22236317337E+04  0.50400001928E-02 0. -1.
</event>
<event>
 5   0  0.1648000E-07  0.4159961E+04  0.7818609E-02  0.7973032E-01
        1   -1    0    0  501    0  0.00000000000E+00  0.00000000000E+00  0.25694778323E+04  0.25694778323E+04  0.50400001928E-02 0.  1.
       -1   -1    0    0    0  501  0.00000000000E+00  0.00000000000E+00 -0.16837349288E+04  0.16837349288E+04  0.50400001928E-02 0. -1.
    10030    2    1    2    0    0  0.00000000000E+00  0.00000000000E+00  0.88574290343E+03  0.42532127611E+04  0.41599613340E+04 0.  0.
        4    1    3    3  502    0 -0.45699734213E+02 -0.61348470622E+03  0.24743349187E+04  0.25496640667E+04  0.12699999809E+01 0.  1.
       -4    1    3    3    0  502  0.45699734213E+02  0.61348470622E+03 -0.15885920152E+04  0.17035486944E+04  0.12699999809E+01 0. -1.
</event>
<event>
 5   0  0.1648000E-07  0.3640876E+04  0.7818609E-02  0.8081192E-01
       -1   -1    0    0    0  501  0.00000000000E+00  0.00000000000E+00  0.17257366763E+04  0.17257366763E+04  0.50400001928E-02 0.  1.
        1   -1    0    0  501    0  0.00000000000E+00  0.00000000000E+00 -0.19203363175E+04  0.19203363175E+04  0.50400001928E-02 0. -1.
    10030    2    1    2    0    0  0.00000000000E+00  0.00000000000E+00 -0.19459964121E+03  0.36460729937E+04  0.36408761659E+04 0.  0.
        3    1    3    3  502    0 -0.13911195465E+04 -0.11714341940E+04 -0.17818106134E+03  0.18273533222E+04  0.10100000352E+00 0.  1.
       -3    1    3    3    0  502  0.13911195465E+04  0.11714341940E+04 -0.16418579863E+02  0.18187196715E+04  0.10100000352E+00 0. -1.
</event>
<event>
 5   0  0.1648000E-07  0.3801499E+04  0.7818609E-02  0.8045833E-01
        1   -1    0    0  501    0  0.00000000000E+00  0.00000000000E+00  0.26751411610E+04  0.26751411611E+04  0.50400001928E-02 0. -1.
       -1   -1    0    0    0  501  0.00000000000E+00  0.00000000000E+00 -0.13505260935E+04  0.13505260935E+04  0.50400001928E-02 0.  1.
    10030    2    1    2    0    0  0.00000000000E+00  0.00000000000E+00  0.13246150676E+04  0.40256672545E+04  0.38014986212E+04 0.  0.
        3    1    3    3  502    0 -0.70968109627E+03 -0.44261972068E+03 -0.11451777984E+04  0.14180943818E+04  0.10100000352E+00 0.  1.
       -3    1    3    3    0  502  0.70968109627E+03  0.44261972068E+03  0.24697928660E+04  0.26075728727E+04  0.10100000352E+00 0. -1.
</event>
<event>
 5   0  0.5325362E-07  0.3056106E+04  0.7818609E-02  0.8227889E-01
        2   -1    0    0  501    0  0.00000000000E+00  0.00000000000E+00  0.22072891801E+04  0.22072891801E+04  0.25500000920E-02 0. -1.
       -2   -1    0    0    0  501  0.00000000000E+00  0.00000000000E+00 -0.10578341220E+04  0.10578341220E+04  0.25500000920E-02 0.  1.
    10030    2    1    2    0    0  0.00000000000E+00  0.00000000000E+00  0.11494550581E+04  0.32651233021E+04  0.30561058960E+04 0.  0.
        4    1    3    3  502    0  0.41434584884E+03 -0.14398405829E+04  0.25399446269E+03  0.15196506792E+04  0.12699999809E+01 0.  1.
       -4    1    3    3    0  502 -0.41434584884E+03  0.14398405829E+04  0.89546059542E+03  0.17454726230E+04  0.12699999809E+01 0. -1.
</event>
<event>
 5   0  0.1656617E-07  0.3514838E+04  0.7818609E-02  0.8110282E-01
       -1   -1    0    0    0  501  0.00000000000E+00  0.00000000000E+00  0.15990130210E+04  0.15990130210E+04  0.50400001928E-02 0. -1.
        1   -1    0    0  501    0  0.00000000000E+00  0.00000000000E+00 -0.19315175263E+04  0.19315175263E+04  0.50400001928E-02 0.  1.
    10030    2    1    2    0    0  0.00000000000E+00  0.00000000000E+00 -0.33250450528E+03  0.35305305473E+04  0.35148380758E+04 0.  0.
        5    1    3    3  502    0  0.31630651636E+02  0.12171115439E+04  0.11067411639E+04  0.16453750644E+04  0.46999998093E+01 0. -1.
       -5    1    3    3    0  502 -0.31630651636E+02 -0.12171115439E+04 -0.14392456692E+04  0.18851554829E+04  0.46999998093E+01 0.  1.
</event>
<event>
 5   0  0.1648000E-07  0.3849639E+04  0.7818609E-02  0.8035586E-01
       -1   -1    0    0    0  501  0.00000000000E+00  0.00000000000E+00  0.18314303715E+04  0.18314303715E+04  0.50400001928E-02 0. -1.
        1   -1    0    0  501    0  0.00000000000E+00  0.00000000000E+00 -0.20229703247E+04  0.20229703247E+04  0.50400001928E-02 0.  1.
    10030    2    1    2    0    0  0.00000000000E+00  0.00000000000E+00 -0.19153995326E+03  0.38544006962E+04  0.38496385770E+04 0.  0.
        4    1    3    3  502    0  0.16643619280E+04  0.79368774305E+03 -0.64861859473E+03  0.19546735163E+04  0.12699999809E+01 0.  1.
       -4    1    3    3    0  502 -0.16643619280E+04 -0.79368774305E+03  0.45707864146E+03  0.18997271800E+04  0.12699999809E+01 0. -1.
</event>
<event>
 5   0  0.1648000E-07  0.3761673E+04  0.7818609E-02  0.8054430E-01
        1   -1    0    0  501    0  0.00000000000E+00  0.00000000000E+00  0.23818790865E+04  0.23818790865E+04  0.50400001928E-02 0. -1.
       -1   -1    0    0    0  501  0.00000000000E+00  0.00000000000E+00 -0.14851911053E+04  0.14851911053E+04  0.50400001928E-02 0.  1.
    10030    2    1    2    0    0  0.00000000000E+00  0.00000000000E+00  0.89668798121E+03  0.38670701917E+04  0.37616728369E+04 0.  0.
        2    1    3    3  502    0 -0.16172853898E+04 -0.72100223707E+03  0.11002159990E+04  0.20846897857E+04  0.25500000920E-02 0. -1.
       -2    1    3    3    0  502  0.16172853898E+04  0.72100223707E+03 -0.20352801781E+03  0.17823804061E+04  0.25500000920E-02 0.  1.
</event>
<event>
 5   0  0.5132561E-07  0.3613971E+04  0.7818609E-02  0.8087299E-01
       -2   -1    0    0    0  501  0.00000000000E+00  0.00000000000E+00  0.12536071285E+04  0.12536071285E+04  0.25500000920E-02 0. -1.
        2   -1    0    0  501    0  0.00000000000E+00  0.00000000000E+00 -0.26046406670E+04  0.26046406670E+04  0.25500000920E-02 0.  1.
    10030    2    1    2    0    0  0.00000000000E+00  0.00000000000E+00 -0.13510335385E+04  0.38582477955E+04  0.36139707289E+04 0.  0.
        3    1    3    3  502    0 -0.81014265769E+03 -0.11714040463E+04 -0.18627436501E+04  0.23448523369E+04  0.10100000352E+00 0. -1.
       -3    1    3    3    0  502  0.81014265769E+03  0.11714040463E+04  0.51171011166E+03  0.15133954586E+04  0.10100000352E+00 0.  1.
</event>
<event>
 5   0  0.5325362E-07  0.3847716E+04  0.7818609E-02  0.8035992E-01
       -2   -1    0    0    0  501  0.00000000000E+00  0.00000000000E+00  0.28185952002E+04  0.28185952002E+04  0.25500000920E-02 0.  1.
        2   -1    0    0  501    0  0.00000000000E+00  0.00000000000E+00 -0.13131467094E+04  0.13131467094E+04  0.25500000920E-02 0. -1.
    10030    2    1    2    0    0  0.00000000000E+00  0.00000000000E+00  0.15054484907E+04  0.41317419096E+04  0.38477156924E+04 0.  0.
        4    1    3    3  502    0  0.13348913330E+04  0.12620200048E+04  0.13905127454E+03  0.18422720302E+04  0.12699999809E+01 0. -1.
       -4    1    3    3    0  502 -0.13348913330E+04 -0.12620200048E+04  0.13663972162E+04  0.22894698794E+04  0.12699999809E+01 0.  1.
</event>
<event>
 5   0  0.5202788E-07  0.3805133E+04  0.7818609E-02  0.8045054E-01
        2   -1    0    0  501    0  0.00000000000E+00  0.00000000000E+00  0.14942768731E+04  0.14942768731E+04  0.25500000920E-02 0. -1.
       -2   -1    0    0    0  501  0.00000000000E+00  0.00000000000E+00 -0.24224159097E+04  0.24224159097E+04  0.25500000920E-02 0.  1.
    10030    2    1    2    0    0  0.00000000000E+00  0.00000000000E+00 -0.92813903656E+03  0.39166927828E+04  0.38051334121E+04 0.  0.
        1    1    3    3  502    0 -0.10399906179E+03  0.27914310726E+03 -0.23982630065E+04  0.24166923941E+04  0.50400001928E-02 0.  1.
       -1    1    3    3    0  502  0.10399906179E+03 -0.27914310726E+03  0.14701239700E+04  0.15000003888E+04  0.50400001928E-02 0. -1.
</event>
<event>
 5   0  0.5132561E-07  0.3488367E+04  0.7818609E-02  0.8116552E-01
        2   -1    0    0  501    0  0.00000000000E+00  0.00000000000E+00  0.18883747545E+04  0.18883747545E+04  0.25500000920E-02 0. -1.
       -2   -1    0    0    0  501  0.00000000000E+00  0.00000000000E+00 -0.16110019060E+04  0.16110019060E+04  0.25500000920E-02 0.  1.
    10030    2    1    2    0    0  0.00000000000E+00  0.00000000000E+00  0.27737284850E+03  0.34993766606E+04  0.34883665684E+04 0.  0.
        3    1    3    3  502    0 -0.14692257050E+03  0.64369999952E+02  0.18809598901E+04  0.18877870264E+04  0.10100000352E+00 0. -1.
       -3    1    3    3    0  502  0.14692257050E+03 -0.64369999952E+02 -0.16035870416E+04  0.16115896342E+04  0.10100000352E+00 0.  1.
</event>
<event>
 5   0  0.1656617E-07  0.3799602E+04  0.7818609E-02  0.8046240E-01
       -1   -1    0    0    0  501  0.00000000000E+00  0.00000000000E+00  0.16300339576E+04  0.16300339576E+04  0.50400001928E-02 0. -1.
        1   -1    0    0  501    0  0.00000000000E+00  0.00000000000E+00 -0.22142144458E+04  0.22142144458E+04  0.50400001928E-02 0.  1.
    10030    2    1    2    0    0  0.00000000000E+00  0.00000000000E+00 -0.58418048823E+03  0.38442484034E+04  0.37996024718E+04 0.  0.
        5    1    3    3  502    0  0.39985633037E+03  0.14719847760E+04  0.85373562950E+03  0.17480019682E+04  0.46999998093E+01 0. -1.
       -5    1    3    3    0  502 -0.39985633037E+03 -0.14719847760E+04 -0.14379161177E+04  0.20962464352E+04  0.46999998093E+01 0.  1.
</event>
<event>
 5   0  0.1648000E-07  0.3794073E+04  0.7818609E-02  0.8047428E-01
        1   -1    0    0  501    0  0.00000000000E+00  0.00000000000E+00  0.26742297322E+04  0.26742297322E+04  0.50400001928E-02 0. -1.
       -1   -1    0    0    0  501  0.00000000000E+00  0.00000000000E+00 -0.13457136041E+04  0.13457136041E+04  0.50400001928E-02 0.  1.
    10030    2    1    2    0    0  0.00000000000E+00  0.00000000000E+00  0.13285161281E+04  0.40199433362E+04  0.37940729202E+04 0.  0.
        4    1    3    3  502    0  0.91808208340E+02  0.68720744109E+03  0.25351844248E+04  0.26282778573E+04  0.12699999809E+01 0. -1.
       -4    1    3    3    0  502 -0.91808208340E+02 -0.68720744109E+03 -0.12066682967E+04  0.13916654790E+04  0.12699999809E+01 0.  1.
</event>
<event>
 5   0  0.1656617E-07  0.3092352E+04  0.7818609E-02  0.8217840E-01
        1   -1    0    0  501    0  0.00000000000E+00  0.00000000000E+00  0.17433479121E+04  0.17433479121E+04  0.50400001928E-02 0. -1.
       -1   -1    0    0    0  501  0.00000000000E+00  0.00000000000E+00 -0.13713042666E+04  0.13713042666E+04  0.50400001928E-02 0.  1.
    10030    2    1    2    0    0  0.00000000000E+00  0.00000000000E+00  0.37204364543E+03  0.31146521787E+04  0.30923521340E+04 0.  0.
        5    1    3    3  502    0 -0.25562803955E+03 -0.79441664434E+03  0.14970206103E+04  0.17139242391E+04  0.46999998093E+01 0. -1.
       -5    1    3    3    0  502  0.25562803955E+03  0.79441664434E+03 -0.11249769649E+04  0.14007279397E+04  0.46999998093E+01 0.  1.
</event>
<event>
 5   0  0.1648000E-07  0.3508778E+04  0.7818609E-02  0.8111713E-01
       -1   -1    0    0    0  501  0.00000000000E+00  0.00000000000E+00  0.23238065689E+04  0.23238065689E+04  0.50400001928E-02 0.  1.
        1   -1    0    0  501    0  0.00000000000E+00  0.00000000000E+00 -0.13244992277E+04  0.13244992277E+04  0.50400001928E-02 0. -1.
    10030    2    1    2    0    0  0.00000000000E+00  0.00000000000E+00  0.99930734120E+03  0.36483057967E+04  0.35087775683E+04 0.  0.
        1    1    3    3  502    0  0.13472287909E+04 -0.64913213950E+03 -0.45414744295E+03  0.15628972613E+04  0.50400001928E-02 0. -1.
       -1    1    3    3    0  502 -0.13472287909E+04  0.64913213950E+03  0.14534547842E+04  0.20854085353E+04  0.50400001928E-02 0.  1.
</event>
<event>
 5   0  0.5325362E-07  0.3825547E+04  0.7818609E-02  0.8040695E-01
        2   -1    0    0  501    0  0.00000000000E+00  0.00000000000E+00  0.18358632293E+04  0.18358632293E+04  0.25500000920E-02 0.  1.
       -2   -1    0    0    0  501  0.00000000000E+00  0.00000000000E+00 -0.19929058504E+04  0.19929058504E+04  0.25500000920E-02 0. -1.
    10030    2    1    2    0    0  0.00000000000E+00  0.00000000000E+00 -0.15704262112E+03  0.38287690796E+04  0.38255470563E+04 0.  0.
        4    1    3    3  502    0  0.12442086118E+04 -0.55099854312E+03 -0.14239177961E+04  0.19695679646E+04  0.12699999809E+01 0. -1.
       -4    1    3    3    0  502 -0.12442086118E+04  0.55099854312E+03  0.12668751750E+04  0.18592011150E+04  0.12699999809E+01 0.  1.
</event>
<event>
 5   0  0.5202788E-07  0.3801526E+04  0.7818609E-02  0.8045827E-01
        2   -1    0    0  501    0  0.00000000000E+00  0.00000000000E+00  0.97691061438E+03  0.97691061439E+03  0.25500000920E-02 0.  1.
       -2   -1    0    0    0  501  0.00000000000E+00  0.00000000000E+00 -0.36982919201E+04  0.36982919201E+04  0.25500000920E-02 0. -1.
    10030    2    1    2    0    0  0.00000000000E+00  0.00000000000E+00 -0.27213813057E+04  0.46752025344E+04  0.38015263418E+04 0.  0.
        1    1    3    3  502    0 -0.10064966337E+04  0.15112394029E+03  0.61355816071E+03  0.11884138739E+04  0.50400001928E-02 0.  1.
       -1    1    3    3    0  502  0.10064966337E+04 -0.15112394029E+03 -0.33349394664E+04  0.34867886606E+04  0.50400001928E-02 0. -1.
</event>
<event>
 5   0  0.5158266E-07  0.3761747E+04  0.7818609E-02  0.8054414E-01
        2   -1    0    0  501    0  0.00000000000E+00  0.00000000000E+00  0.20787222029E+04  0.20787222029E+04  0.25500000920E-02 0. -1.
       -2   -1    0    0    0  501  0.00000000000E+00  0.00000000000E+00 -0.17018557381E+04  0.17018557381E+04  0.25500000920E-02 0.  1.
    10030    2    1    2    0    0  0.00000000000E+00  0.00000000000E+00  0.37686646483E+03  0.37805779410E+04  0.37617470989E+04 0.  0.
        2    1    3    3  502    0  0.35078920344E+03  0.54309284744E+03  0.19635371925E+04  0.20672399988E+04  0.25500000920E-02 0. -1.
       -2    1    3    3    0  502 -0.35078920344E+03 -0.54309284744E+03 -0.15866707277E+04  0.17133379422E+04  0.25500000920E-02 0.  1.
</event>
<event>
 5   0  0.1648000E-07  0.3361471E+04  0.7818609E-02  0.8147428E-01
       -1   -1    0    0    0  501  0.00000000000E+00  0.00000000000E+00  0.14429706088E+04  0.14429706088E+04  0.50400001928E-02 0.  1.
        1   -1    0    0  501    0  0.00000000000E+00  0.00000000000E+00 -0.19576775119E+04  0.19576775119E+04  0.50400001928E-02 0. -1.
    10030    2    1    2    0    0  0.00000000000E+00  0.00000000000E+00 -0.51470690310E+03  0.34006481208E+04  0.33614705778E+04 0.  0.
        3    1    3    3  502    0 -0.14162190353E+04  0.42914566888E+03  0.54882107682E+03  0.15783050863E+04  0.10100000352E+00 0.  1.
       -3    1    3    3    0  502  0.14162190353E+04 -0.42914566888E+03 -0.10635279799E+04  0.18223430345E+04  0.10100000352E+00 0. -1.
</event>
<event>
 5   0  0.5132561E-07  0.3763792E+04  0.7818609E-02  0.8053970E-01
        2   -1    0    0  501    0  0.00000000000E+00  0.00000000000E+00  0.10559185283E+04  0.10559185283E+04  0.25500000920E-02 0.  1.
       -2   -1    0    0    0  501  0.00000000000E+00  0.00000000000E+00 -0.33539819946E+04  0.33539819946E+04  0.25500000920E-02 0. -1.
    10030    2    1    2    0    0  0.00000000000E+00  0.00000000000E+00 -0.22980634663E+04  0.44099005228E+04  0.37637915625E+04 0.  0.
        3    1    3    3  502    0  0.12854521073E+04  0.79982147504E+02 -0.27567104537E+04  0.30427350854E+04  0.10100000352E+00 0. -1.
       -3    1    3    3    0  502 -0.12854521073E+04 -0.79982147504E+02  0.45864698738E+03  0.13671654375E+04  0.10100000352E+00 0.  1.
</event>
<event>
 5   0  0.5134434E-07  0.3489584E+04  0.7818609E-02  0.8116263E-01
       -2   -1    0    0    0  501  0.00000000000E+00  0.00000000000E+00  0.13714881610E+04  0.13714881610E+04  0.25500000920E-02 0. -1.
        2   -1    0    0  501    0  0.00000000000E+00  0.00000000000E+00 -0.22197052053E+04  0.22197052053E+04  0.25500000920E-02 0.  1.
    10030    2    1    2    0    0  0.00000000000E+00  0.00000000000E+00 -0.84821704433E+03  0.35911933663E+04  0.34895841643E+04 0.  0.
        5    1    3    3  502    0  0.26494463314E+03  0.82809530160E+03  0.11326647723E+04  0.14278967272E+04  0.46999998093E+01 0. -1.
       -5    1    3    3    0  502 -0.26494463314E+03 -0.82809530160E+03 -0.19808818166E+04  0.21632966391E+04  0.46999998093E+01 0.  1.
</event>
<event>
 5   0  0.5202788E-07  0.3942235E+04  0.7818609E-02  0.8016302E-01
       -2   -1    0    0    0  501  0.00000000000E+00  0.00000000000E+00  0.14861056282E+04  0.14861056282E+04  0.25500000920E-02 0.  1.
        2   -1    0    0  501    0  0.00000000000E+00  0.00000000000E+00 -0.26144203147E+04  0.26144203147E+04  0.25500000920E-02 0. -1.
    10030    2    1    2    0    0  0.00000000000E+00  0.00000000000E+00 -0.11283146864E+04  0.41005259429E+04  0.39422352767E+04 0.  0.
        1    1    3    3  502    0 -0.16268523276E+03 -0.54108689263E+03  0.14000690574E+04  0.15097797441E+04  0.50400001928E-02 0.  1.
       -1    1    3    3    0  502  0.16268523276E+03  0.54108689263E+03 -0.25283837438E+04  0.25907461987E+04  0.50400001928E-02 0. -1.
</event>
<event>
 5   0  0.1648000E-07  0.3313816E+04  0.7818609E-02  0.8159389E-01
        1   -1    0    0  501    0  0.00000000000E+00  0.00000000000E+00  0.17564941261E+04  0.17564941261E+04  0.50400001928E-02 0.  1.
       -1   -1    0    0    0  501  0.00000000000E+00  0.00000000000E+00 -0.15629681851E+04  0.15629681851E+04  0.50400001928E-02 0. -1.
    10030    2    1    2    0    0  0.00000000000E+00  0.00000000000E+00  0.19352594095E+03  0.33194623112E+04  0.33138161907E+04 0.  0.
        3    1    3    3  502    0 -0.87718390702E+03 -0.68397763031E+03  0.13268892754E+04  0.17314479966E+04  0.10100000352E+00 0.  1.
       -3    1    3    3    0  502  0.87718390702E+03  0.68397763031E+03 -0.11333633344E+04  0.15880143147E+04  0.10100000352E+00 0. -1.
</event>
<event>
 5   0  0.1648000E-07  0.3793523E+04  0.7818609E-02  0.8047546E-01
       -1   -1    0    0    0  501  0.00000000000E+00  0.00000000000E+00  0.15602488610E+04  0.15602488610E+04  0.50400001928E-02 0. -1.
        1   -1    0    0  501    0  0.00000000000E+00  0.00000000000E+00 -0.23058527935E+04  0.23058527936E+04  0.50400001928E-02 0.  1.
    10030    2    1    2    0    0  0.00000000000E+00  0.00000000000E+00 -0.74560393258E+03  0.38661016545E+04  0.37935230036E+04 0.  0.
        4    1    3    3  502    0  0.11976335419E+04 -0.36079928605E+03  0.10803821282E+04  0.16527944159E+04  0.12699999809E+01 0. -1.
       -4    1    3    3    0  502 -0.11976335419E+04  0.36079928605E+03 -0.18259860608E+04  0.22133072386E+04  0.12699999809E+01 0.  1.
</event>
<event>
 5   0  0.1648000E-07  0.3675722E+04  0.7818609E-02  0.8073364E-01
       -1   -1    0    0    0  501  0.00000000000E+00  0.00000000000E+00  0.19520166589E+04  0.19520166589E+04  0.50400001928E-02 0.  1.
        1   -1    0    0  501    0  0.00000000000E+00  0.00000000000E+00 -0.17303811374E+04  0.17303811375E+04  0.50400001928E-02 0. -1.
    10030    2    1    2    0    0  0.00000000000E+00  0.00000000000E+00  0.22163552147E+03  0.36823977964E+04  0.36757218647E+04 0.  0.
        3    1    3    3  502    0 -0.10434878113E+04 -0.10476419754E+04  0.12042726448E+04  0.19070115716E+04  0.10100000352E+00 0.  1.
       -3    1    3    3    0  502  0.10434878113E+04  0.10476419754E+04 -0.98263712332E+03  0.17753862248E+04  0.10100000352E+00 0. -1.
</event>
<event>
 5   0  0.5325362E-07  0.3740143E+04  0.7818609E-02  0.8059123E-01
       -2   -1    0    0    0  501  0.00000000000E+00  0.00000000000E+00  0.26164750603E+04  0.26164750603E+04  0.25500000920E-02 0. -1.
        2   -1    0    0  501    0  0.00000000000E+00  0.00000000000E+00 -0.13365950958E+04  0.13365950958E+04  0.25500000920E-02 0.  1.
    10030    2    1    2    0    0  0.00000000000E+00  0.00000000000E+00  0.12798799645E+04  0.39530701561E+04  0.37401431705E+04 0.  0.
        4    1    3    3  502    0  0.14584809272E+03  0.41950267006E+03 -0.12800434088E+04  0.13549047559E+04  0.12699999809E+01 0.  1.
       -4    1    3    3    0  502 -0.14584809272E+03 -0.41950267006E+03  0.25599233733E+04  0.25981654002E+04  0.12699999809E+01 0. -1.
</event>
<event>
 5   0  0.5134434E-07  0.3777986E+04  0.7818609E-02  0.8050896E-01
       -2   -1    0    0    0  501  0.00000000000E+00  0.00000000000E+00  0.21711096854E+04  0.21711096854E+04  0.25500000920E-02 0. -1.
        2   -1    0    0  501    0  0.00000000000E+00  0.00000000000E+00 -0.16435347136E+04  0.16435347136E+04  0.25500000920E-02 0.  1.
    10030    2    1    2    0    0  0.00000000000E+00  0.00000000000E+00  0.52757497181E+03  0.38146443990E+04  0.37779857781E+04 0.  0.
        5    1    3    3  502    0  0.11406602767E+03 -0.11534843292E+04  0.17698148858E+04  0.21156095993E+04  0.46999998093E+01 0. -1.
       -5    1    3    3    0  502 -0.11406602767E+03  0.11534843292E+04 -0.12422399140E+04  0.16990347997E+04  0.46999998093E+01 0.  1.
</event>
<event>
 5   0  0.5158266E-07  0.3786868E+04  0.7818609E-02  0.8048979E-01
       -2   -1    0    0    0  501  0.00000000000E+00  0.00000000000E+00  0.31549328108E+04  0.31549328108E+04  0.25500000920E-02 0. -1.
        2   -1    0    0  501    0  0.00000000000E+00  0.00000000000E+00 -0.11363453102E+04  0.11363453102E+04  0.25500000920E-02 0.  1.
    10030    2    1    2    0    0  0.00000000000E+00  0.00000000000E+00  0.20185875006E+04  0.42912781210E+04  0.37868684178E+04 0.  0.
        2    1    3    3  502    0 -0.18188582955E+04 -0.49439079724E+03  0.12133494564E+04  0.22416254510E+04  0.25500000920E-02 0.  1.
       -2    1    3    3    0  502  0.18188582955E+04  0.49439079724E+03  0.80523804427E+03  0.20496526700E+04  0.25500000920E-02 0. -1.
</event>
<event>
 5   0  0.5132561E-07  0.3781196E+04  0.7818609E-02  0.8050202E-01
        2   -1    0    0  501    0  0.00000000000E+00  0.00000000000E+00  0.24314611982E+04  0.24314611982E+04  0.25500000920E-02 0.  1.
       -2   -1    0    0    0  501  0.00000000000E+00  0.00000000000E+00 -0.14700462911E+04  0.14700462911E+04  0.25500000920E-02 0. -1.
    10030    2    1    2    0    0  0.00000000000E+00  0.00000000000E+00  0.96141490714E+03  0.39015074893E+04  0.37811958512E+04 0.  0.
        3    1    3    3  502    0  0.11448495988E+04 -0.87595372562E+03 -0.78148314594E+03  0.16397229799E+04  0.10100000352E+00 0.  1.
       -3    1    3    3    0  502 -0.11448495988E+04  0.87595372562E+03  0.17428980531E+04  0.22617845094E+04  0.10100000352E+00 0. -1.
</event>
<event>
 5   0  0.5158266E-07  0.3798473E+04  0.7818609E-02  0.8046483E-01
       -2   -1    0    0    0  501  0.00000000000E+00  0.00000000000E+00  0.19822343619E+04  0.19822343619E+04  0.25500000920E-02 0.  1.
        2   -1    0    0  501    0  0.00000000000E+00  0.00000000000E+00 -0.18197142216E+04  0.18197142216E+04  0.25500000920E-02 0. -1.
    10030    2    1    2    0    0  0.00000000000E+00  0.00000000000E+00  0.16252014030E+03  0.38019485836E+04  0.37984734086E+04 0.  0.
        2    1    3    3  502    0  0.53844755487E+03  0.67073139886E+03 -0.16135976174E+04  0.18285249929E+04  0.25500000920E-02 0. -1.
       -2    1    3    3    0  502 -0.53844755487E+03 -0.67073139886E+03  0.17761177577E+04  0.19734235906E+04  0.25500000920E-02 0.  1.
</event>
<event>
 5   0  0.5132561E-07  0.3858724E+04  0.7818609E-02  0.8033669E-01
        2   -1    0    0  501    0  0.00000000000E+00  0.00000000000E+00  0.21854277123E+04  0.21854277123E+04  0.25500000920E-02 0.  1.
       -2   -1    0    0    0  501  0.00000000000E+00  0.00000000000E+00 -0.17032996924E+04  0.17032996924E+04  0.25500000920E-02 0. -1.
    10030    2    1    2    0    0  0.00000000000E+00  0.00000000000E+00  0.48212801985E+03  0.38887274046E+04  0.38587243229E+04 0.  0.
        3    1    3    3  502    0 -0.13068137271E+04  0.92763411335E+03  0.13237408826E+04  0.20785949822E+04  0.10100000352E+00 0.  1.
       -3    1    3    3    0  502  0.13068137271E+04 -0.92763411335E+03 -0.84161286278E+03  0.18101324224E+04  0.10100000352E+00 0. -1.
</event>
<event>
 5   0  0.5132561E-07  0.3708695E+04  0.7818609E-02  0.8066038E-01
       -2   -1    0    0    0  501  0.00000000000E+00  0.00000000000E+00  0.12726077807E+04  0.12726077807E+04  0.25500000920E-02 0.  1.
        2   -1    0    0  501    0  0.00000000000E+00  0.00000000000E+00 -0.27020150768E+04  0.27020150768E+04  0.25500000920E-02 0. -1.
    10030    2    1    2    0    0  0.00000000000E+00  0.00000000000E+00 -0.14294072961E+04  0.39746228576E+04  0.37086954097E+04 0.  0.
        3    1    3    3  502    0  0.71573151650E+03 -0.90660867746E+03 -0.22693740781E+04  0.25464229056E+04  0.10100000352E+00 0. -1.
       -3    1    3    3    0  502 -0.71573151650E+03  0.90660867746E+03  0.83996678196E+03  0.14281999520E+04  0.10100000352E+00 0.  1.
</event>
<event>
 5   0  0.5325362E-07  0.3853071E+04  0.7818609E-02  0.8034861E-01
       -2   -1    0    0    0  501  0.00000000000E+00  0.00000000000E+00  0.16783897822E+04  0.16783897822E+04  0.25500000920E-02 0.  1.
        2   -1    0    0  501    0  0.00000000000E+00  0.00000000000E+00 -0.22113683996E+04  0.22113683996E+04  0.25500000920E-02 0. -1.
    10030    2    1    2    0    0  0.00000000000E+00  0.00000000000E+00 -0.53297861733E+03  0.38897581818E+04  0.38530705296E+04 0.  0.
        4    1    3    3  502    0 -0.16071482890E+04 -0.20921996419E+03 -0.13179621710E+04  0.20889529706E+04  0.12699999809E+01 0. -1.
       -4    1    3    3    0  502  0.16071482890E+04  0.20921996419E+03  0.78498355368E+03  0.18008052112E+04  0.12699999809E+01 0.  1.
</event>
<event>
 5   0  0.1656617E-07  0.3769833E+04  0.7818609E-02  0.8052660E-01
       -1   -1    0    0    0  501  0.00000000000E+00  0.00000000000E+00  0.12968347281E+04  0.12968347281E+04  0.50400001928E-02 0.  1.
        1   -1    0    0  501    0  0.00000000000E+00  0.00000000000E+00 -0.27396783109E+04  0.27396783109E+04  0.50400001928E-02 0. -1.
    10030    2    1    2    0    0  0.00000000000E+00  0.00000000000E+00 -0.14428435828E+04  0.40365130389E+04  0.37698328755E+04 0.  0.
        5    1    3    3  502    0 -0.35083409247E+03 -0.74617013060E+01  0.12615445647E+04  0.13094491270E+04  0.46999998093E+01 0.  1.
       -5    1    3    3    0  502  0.35083409247E+03  0.74617013060E+01 -0.27043881475E+04  0.27270639119E+04  0.46999998093E+01 0. -1.
</event>
<event>
 5   0  0.1648000E-07  0.3400094E+04  0.7818609E-02  0.8137883E-01
       -1   -1    0    0    0  501  0.00000000000E+00  0.00000000000E+00  0.32520871775E+04  0.32520871775E+04  0.50400001928E-02 0. -1.
        1   -1    0    0  501    0  0.00000000000E+00  0.00000000000E+00 -0.88870942523E+03  0.88870942524E+03  0.50400001928E-02 0.  1.
    10030    2    1    2    0    0  0.00000000000E+00  0.00000000000E+00  0.23633777523E+04  0.41407966028E+04  0.34000944260E+04 0.  0.
        2    1    3    3  502    0 -0.51782778034E+03 -0.12312897418E+04 -0.99044710799E+02  0.13394140111E+04  0.25500000920E-02 0.  1.
       -2    1    3    3    0  502  0.51782778034E+03  0.12312897418E+04  0.24624224631E+04  0.28013825917E+04  0.25500000920E-02 0. -1.
</event>
<event>
 5   0  0.1648000E-07  0.3811551E+04  0.7818609E-02  0.8043681E-01
       -1   -1    0    0    0  501  0.00000000000E+00  0.00000000000E+00  0.15949826246E+04  0.15949826246E+04  0.50400001928E-02 0.  1.
        1   -1    0    0  501    0  0.00000000000E+00  0.00000000000E+00 -0.22771289436E+04  0.22771289436E+04  0.50400001928E-02 0. -1.
    10030    2    1    2    0    0  0.00000000000E+00  0.00000000000E+00 -0.68214631902E+03  0.38721115682E+04  0.38115514422E+04 0.  0.
        2    1    3    3  502    0  0.16101727765E+04  0.84842503711E+02  0.69100487838E+03  0.17542355493E+04  0.25500000920E-02 0.  1.
       -2    1    3    3    0  502 -0.16101727765E+04 -0.84842503711E+02 -0.13731511974E+04  0.21178760189E+04  0.25500000920E-02 0. -1.
</event>
<event>
 5   0  0.1648000E-07  0.2961534E+04  0.7818609E-02  0.8254801E-01
        1   -1    0    0  501    0  0.00000000000E+00  0.00000000000E+00  0.14792367615E+04  0.14792367615E+04  0.50400001928E-02 0. -1.
       -1   -1    0    0    0  501  0.00000000000E+00  0.00000000000E+00 -0.14822992953E+04  0.14822992953E+04  0.50400001928E-02 0.  1.
    10030    2    1    2    0    0  0.00000000000E+00  0.00000000000E+00 -0.30625337804E+01  0.29615360567E+04  0.29615344733E+04 0.  0.
        3    1    3    3  502    0 -0.24428003205E+03 -0.62986167341E+03  0.13161466125E+04  0.14794054135E+04  0.10100000352E+00 0. -1.
       -3    1    3    3    0  502  0.24428003205E+03  0.62986167341E+03 -0.13192091463E+04  0.14821306432E+04  0.10100000352E+00 0.  1.
</event>
<event>
 5   0  0.5202788E-07  0.3679441E+04  0.7818609E-02  0.8072533E-01
       -2   -1    0    0    0  501  0.00000000000E+00  0.00000000000E+00  0.13786545373E+04  0.13786545373E+04  0.25500000920E-02 0.  1.
        2   -1    0    0  501    0  0.00000000000E+00  0.00000000000E+00 -0.24549813382E+04  0.24549813382E+04  0.25500000920E-02 0. -1.
    10030    2    1    2    0    0  0.00000000000E+00  0.00000000000E+00 -0.10763268009E+04  0.38336358755E+04  0.36794408058E+04 0.  0.
        1    1    3    3  502    0  0.93197440333E+02  0.14206487909E+04 -0.17521719304E+04  0.22576614502E+04  0.50400001928E-02 0. -1.
       -1    1    3    3    0  502 -0.93197440333E+02 -0.14206487909E+04  0.67584512957E+03  0.15759744253E+04  0.50400001928E-02 0.  1.
</event>
<event>
 5   0  0.1648000E-07  0.3712425E+04  0.7818609E-02  0.8065214E-01
        1   -1    0    0  501    0  0.00000000000E+00  0.00000000000E+00  0.18527648719E+04  0.18527648719E+04  0.50400001928E-02 0.  1.
       -1   -1    0    0    0  501  0.00000000000E+00  0.00000000000E+00 -0.18596664745E+04  0.18596664746E+04  0.50400001928E-02 0. -1.
    10030    2    1    2    0    0  0.00000000000E+00  0.00000000000E+00 -0.69016026769E+01  0.37124313464E+04  0.37124249312E+04 0.  0.
        3    1    3    3  502    0  0.13648319078E+04 -0.12353878590E+04 -0.24130706894E+03  0.18566578604E+04  0.10100000352E+00 0. -1.
       -3    1    3    3    0  502 -0.13648319078E+04  0.12353878590E+04  0.23440546626E+03  0.18557734861E+04  0.10100000352E+00 0.  1.
</event>
<event>
 5   0  0.5132561E-07  0.3652160E+04  0.7818609E-02  0.8078647E-01
        2   -1    0    0  501    0  0.00000000000E+00  0.00000000000E+00  0.25385974884E+04  0.25385974884E+04  0.25500000920E-02 0. -1.
       -2   -1    0    0    0  501  0.00000000000E+00  0.00000000000E+00 -0.13135476324E+04  0.13135476324E+04  0.25500000920E-02 0.  1.
    10030    2    1    2    0    0  0.00000000000E+00  0.00000000000E+00  0.12250498560E+04  0.38521451209E+04  0.36521603035E+04 0.  0.
        3    1    3    3  502    0 -0.13569813151E+04 -0.96539644150E+03 -0.17761489615E+03  0.16747942084E+04  0.10100000352E+00 0.  1.
       -3    1    3    3    0  502  0.13569813151E+04  0.96539644150E+03  0.14026647522E+04  0.21773509125E+04  0.10100000352E+00 0. -1.
</event>
<event>
 5   0  0.1648000E-07  0.2793857E+04  0.7818609E-02  0.8305178E-01
        1   -1    0    0  501    0  0.00000000000E+00  0.00000000000E+00  0.85314615850E+03  0.85314615851E+03  0.50400001928E-02 0.  1.
       -1   -1    0    0    0  501  0.00000000000E+00  0.00000000000E+00 -0.22873097768E+04  0.22873097768E+04  0.50400001928E-02 0. -1.
    10030    2    1    2    0    0  0.00000000000E+00  0.00000000000E+00 -0.14341636183E+04  0.31404559353E+04  0.27938572257E+04 0.  0.
        1    1    3    3  502    0  0.28193709071E+02  0.13336644438E+04 -0.25096538746E+03  0.13573648587E+04  0.50400001928E-02 0.  1.
       -1    1    3    3    0  502 -0.28193709071E+02 -0.13336644438E+04 -0.11831982308E+04  0.17830910766E+04  0.50400001928E-02 0. -1.
</event>
<event>
 5   0  0.5325362E-07  0.3724379E+04  0.7818609E-02  0.8062580E-01
        2   -1    0    0  501    0  0.00000000000E+00  0.00000000000E+00  0.29043207149E+04  0.29043207149E+04  0.25500000920E-02 0. -1.
       -2   -1    0    0    0  501  0.00000000000E+00  0.00000000000E+00 -0.11939970450E+04  0.11939970450E+04  0.25500000920E-02 0.  1.
    10030    2    1    2    0    0  0.00000000000E+00  0.00000000000E+00  0.17103236700E+04  0.40983177599E+04  0.37243793315E+04 0.  0.
        4    1    3    3  502    0  0.85711655751E+03 -0.15840570943E+04  0.13758083253E+04  0.22664368140E+04  0.12699999809E+01 0. -1.
       -4    1    3    3    0  502 -0.85711655751E+03  0.15840570943E+04  0.33451534468E+03  0.18318809459E+04  0.12699999809E+01 0.  1.
</event>
<event>
 5   0  0.5325362E-07  0.3639656E+04  0.7818609E-02  0.8081468E-01
       -2   -1    0    0    0  501  0.00000000000E+00  0.00000000000E+00  0.20722396885E+04  0.20722396885E+04  0.25500000920E-02 0.  1.
        2   -1    0    0  501    0  0.00000000000E+00  0.00000000000E+00 -0.15981612498E+04  0.15981612498E+04  0.25500000920E-02 0. -1.
    10030    2    1    2    0    0  0.00000000000E+00  0.00000000000E+00  0.47407843868E+03  0.36704009383E+04  0.36396555719E+04 0.  0.
        4    1    3    3  502    0  0.11776879780E+03  0.17720418760E+04  0.63759680558E+03  0.18869375187E+04  0.12699999809E+01 0.  1.
       -4    1    3    3    0  502 -0.11776879780E+03 -0.17720418760E+04 -0.16351836690E+03  0.17834634196E+04  0.12699999809E+01 0. -1.
</event>
<event>
 5   0  0.1656617E-07  0.4048368E+04  0.7818609E-02  0.7994860E-01
        1   -1    0    0  501    0  0.00000000000E+00  0.00000000000E+00  0.14877009993E+04  0.14877009994E+04  0.50400001928E-02 0. -1.
       -1   -1    0    0    0  501  0.00000000000E+00  0.00000000000E+00 -0.27541291209E+04  0.27541291209E+04  0.50400001928E-02 0.  1.
    10030    2    1    2    0    0  0.00000000000E+00  0.00000000000E+00 -0.12664281215E+04  0.42418301203E+04  0.40483678911E+04 0.  0.
        5    1    3    3  502    0 -0.14134850785E+04 -0.62287179804E+03 -0.20039307320E+04  0.25301521323E+04  0.46999998093E+01 0.  1.
       -5    1    3    3    0  502  0.14134850785E+04  0.62287179804E+03  0.73750261050E+03  0.17116779879E+04  0.46999998093E+01 0. -1.
</event>
<event>
 5   0  0.1648000E-07  0.3796173E+04  0.7818609E-02  0.8046977E-01
        1   -1    0    0  501    0  0.00000000000E+00  0.00000000000E+00  0.23182893693E+04  0.23182893693E+04  0.50400001928E-02 0.  1.
       -1   -1    0    0    0  501  0.00000000000E+00  0.00000000000E+00 -0.15540478222E+04  0.15540478222E+04  0.50400001928E-02 0. -1.
    10030    2    1    2    0    0  0.00000000000E+00  0.00000000000E+00  0.76424154713E+03  0.38723371915E+04  0.37961730970E+04 0.  0.
        3    1    3    3  502    0 -0.13988360114E+04 -0.75756072390E+03  0.14383135863E+04  0.21446180125E+04  0.10100000352E+00 0.  1.
       -3    1    3    3    0  502  0.13988360114E+04  0.75756072390E+03 -0.67407203914E+03  0.17277191789E+04  0.10100000352E+00 0. -1.
</event>
<event>
 5   0  0.1648000E-07  0.3783592E+04  0.7818609E-02  0.8049685E-01
       -1   -1    0    0    0  501  0.00000000000E+00  0.00000000000E+00  0.14240863338E+04  0.14240863338E+04  0.50400001928E-02 0. -1.
        1   -1    0    0  501    0  0.00000000000E+00  0.00000000000E+00 -0.25131150875E+04  0.25131150875E+04  0.50400001928E-02 0.  1.
    10030    2    1    2    0    0  0.00000000000E+00  0.00000000000E+00 -0.10890287537E+04  0.39372014213E+04  0.37835923942E+04 0.  0.
        2    1    3    3  502    0 -0.18354092521E+03 -0.36211598951E+03  0.13782230623E+04  0.14367721012E+04  0.25500000920E-02 0. -1.
       -2    1    3    3    0  502  0.18354092521E+03  0.36211598951E+03 -0.24672518160E+04  0.25004293201E+04  0.25500000920E-02 0.  1.
</event>
<event>
 5   0  0.5325362E-07  0.3824910E+04  0.7818609E-02  0.8040830E-01
       -2   -1    0    0    0  501  0.00000000000E+00  0.00000000000E+00  0.18807238100E+04  0.18807238100E+04  0.25500000920E-02 0.  1.
        2   -1    0    0  501    0  0.00000000000E+00  0.00000000000E+00 -0.19447220075E+04  0.19447220075E+04  0.25500000920E-02 0. -1.
    10030    2    1    2    0    0  0.00000000000E+00  0.00000000000E+00 -0.63998197530E+02  0.38254458175E+04  0.38249104478E+04 0.  0.
        4    1    3    3  502    0  0.46250996213E+03 -0.44221854948E+03 -0.18344751642E+04  0.19428776214E+04  0.12699999809E+01 0. -1.
       -4    1    3    3    0  502 -0.46250996213E+03  0.44221854948E+03  0.17704769667E+04  0.18825681961E+04  0.12699999809E+01 0.  1.
</event>
<event>
 5   0  0.1648000E-07  0.3874105E+04  0.7818609E-02  0.8030437E-01
        1   -1    0    0  501    0  0.00000000000E+00  0.00000000000E+00  0.17967193796E+04  0.17967193796E+04  0.50400001928E-02 0.  1.
       -1   -1    0    0    0  501  0.00000000000E+00  0.00000000000E+00 -0.20883461910E+04  0.20883461910E+04  0.50400001928E-02 0. -1.
    10030    2    1    2    0    0  0.00000000000E+00  0.00000000000E+00 -0.29162681143E+03  0.38850655706E+04  0.38741048374E+04 0.  0.
        3    1    3    3  502    0 -0.10850228200E+04 -0.36039855219E+03  0.14222634389E+04  0.18248273716E+04  0.10100000352E+00 0.  1.
       -3    1    3    3    0  502  0.10850228200E+04  0.36039855219E+03 -0.17138902503E+04  0.20602381990E+04  0.10100000352E+00 0. -1.
</event>
<event>
 5   0  0.5158266E-07  0.3766297E+04  0.7818609E-02  0.8053426E-01
        2   -1    0    0  501    0  0.00000000000E+00  0.00000000000E+00  0.24811153253E+04  0.24811153253E+04  0.25500000920E-02 0.  1.
       -2   -1    0    0    0  501  0.00000000000E+00  0.00000000000E+00 -0.14292957973E+04  0.14292957973E+04  0.25500000920E-02 0. -1.
    10030    2    1    2    0    0  0.00000000000E+00  0.00000000000E+00  0.10518195280E+04  0.39104111226E+04  0.37662966994E+04 0.  0.
        2    1    3    3  502    0  0.10886577489E+04  0.84354437524E+03  0.18593842018E+04  0.23138825417E+04  0.25500000920E-02 0.  1.
       -2    1    3    3    0  502 -0.10886577489E+04 -0.84354437524E+03 -0.80756467374E+03  0.15965285808E+04  0.25500000920E-02 0. -1.
</event>
<event>
 5   0  0.5325362E-07  0.2781686E+04  0.7818609E-02  0.8308977E-01
       -2   -1    0    0    0  501  0.00000000000E+00  0.00000000000E+00  0.19389623228E+04  0.19389623228E+04  0.25500000920E-02 0.  1.
        2   -1    0    0  501    0  0.00000000000E+00  0.00000000000E+00 -0.99766956540E+03  0.99766956540E+03  0.25500000920E-02 0. -1.
    10030    2    1    2    0    0  0.00000000000E+00  0.00000000000E+00  0.94129275739E+03  0.29366318882E+04  0.27816856026E+04 0.  0.
        4    1    3    3  502    0 -0.99539104401E+03  0.96293746294E+03  0.33549093148E+03  0.14249939179E+04  0.12699999809E+01 0. -1.
       -4    1    3    3    0  502  0.99539104401E+03 -0.96293746294E+03  0.60580182591E+03  0.15116379703E+04  0.12699999809E+01 0.  1.
</event>
<event>
 5   0  0.1656617E-07  0.3837264E+04  0.7818609E-02  0.8038205E-01
        1   -1    0    0  501    0  0.00000000000E+00  0.00000000000E+00  0.28405941414E+04  0.28405941414E+04  0.50400001928E-02 0. -1.
       -1   -1    0    0    0  501  0.00000000000E+00  0.00000000000E+00 -0.12959081470E+04  0.12959081471E+04  0.50400001928E-02 0.  1.
    10030    2    1    2    0    0  0.00000000000E+00  0.00000000000E+00  0.15446859944E+04  0.41365022885E+04  0.38372641766E+04 0.  0.
        5    1    3    3  502    0  0.57724532257E+03  0.12366119423E+04 -0.68141724898E+03  0.15253762865E+04  0.46999998093E+01 0.  1.
       -5    1    3    3    0  502 -0.57724532257E+03 -0.12366119423E+04  0.22261032433E+04  0.26111260020E+04  0.46999998093E+01 0. -1.
</event>
<event>
 5   0  0.1648000E-07  0.3743571E+04  0.7818609E-02  0.8058374E-01
       -1   -1    0    0    0  501  0.00000000000E+00  0.00000000000E+00  0.14697867956E+04  0.14697867956E+04  0.50400001928E-02 0.  1.
        1   -1    0    0  501    0  0.00000000000E+00  0.00000000000E+00 -0.23837336992E+04  0.23837336992E+04  0.50400001928E-02 0. -1.
    10030    2    1    2    0    0  0.00000000000E+00  0.00000000000E+00 -0.91394690362E+03  0.38535204948E+04  0.37435706566E+04 0.  0.
        2    1    3    3  502    0 -0.69295723121E+03 -0.84791644903E+02 -0.22447028261E+04  0.23507594783E+04  0.25500000920E-02 0. -1.
       -2    1    3    3    0  502  0.69295723121E+03  0.84791644903E+02  0.13307559225E+04  0.15027610165E+04  0.25500000920E-02 0.  1.
</event>
<event>
 5   0  0.5158266E-07  0.3770484E+04  0.7818609E-02  0.8052519E-01
       -2   -1    0    0    0  501  0.00000000000E+00  0.00000000000E+00  0.18221821840E+04  0.18221821840E+04  0.25500000920E-02 0.  1.
        2   -1    0    0  501    0  0.00000000000E+00  0.00000000000E+00 -0.19504843659E+04  0.19504843659E+04  0.25500000920E-02 0. -1.
    10030    2    1    2    0    0  0.00000000000E+00  0.00000000000E+00 -0.12830218188E+03  0.37726665500E+04  0.37704842457E+04 0.  0.
        2    1    3    3  502    0  0.12799584688E+04 -0.29186765987E+02  0.13204823249E+04  0.18392441708E+04  0.25500000920E-02 0.  1.
       -2    1    3    3    0  502 -0.12799584688E+04  0.29186765987E+02 -0.14487845068E+04  0.19334223792E+04  0.25500000920E-02 0. -1.
</event>
<event>
 5   0  0.5132561E-07  0.3801751E+04  0.7818609E-02  0.8045779E-01
        2   -1    0    0  501    0  0.00000000000E+00  0.00000000000E+00  0.25302297632E+04  0.25302297632E+04  0.25500000920E-02 0. -1.
       -2   -1    0    0    0  501  0.00000000000E+00  0.00000000000E+00 -0.14280627979E+04  0.14280627979E+04  0.25500000920E-02 0.  1.
    10030    2    1    2    0    0  0.00000000000E+00  0.00000000000E+00  0.11021669653E+04  0.39582925612E+04  0.38017506468E+04 0.  0.
        3    1    3    3  502    0  0.14567277326E+03  0.14464734800E+04  0.18261826503E+04  0.23341913305E+04  0.10100000352E+00 0. -1.
       -3    1    3    3    0  502 -0.14567277326E+03 -0.14464734800E+04 -0.72401568493E+03  0.16241012306E+04  0.10100000352E+00 0.  1.
</event>
<event>
 5   0  0.5134434E-07  0.3834458E+04  0.7818609E-02  0.8038800E-01
       -2   -1    0    0    0  501  0.00000000000E+00  0.00000000000E+00  0.13809031513E+04  0.13809031513E+04  0.25500000920E-02 0.  1.
        2   -1    0    0  501    0  0.00000000000E+00  0.00000000000E+00 -0.26618579122E+04  0.26618579122E+04  0.25500000920E-02 0. -1.
    10030    2    1    2    0    0  0.00000000000E+00  0.00000000000E+00 -0.12809547609E+04  0.40427610634E+04  0.38344584907E+04 0.  0.
        5    1    3    3  502    0 -0.16674527218E+04 -0.17347090260E+03  0.34024510209E+03  0.17106371775E+04  0.46999998093E+01 0.  1.
       -5    1    3    3    0  502  0.16674527218E+04  0.17347090260E+03 -0.16211998630E+04  0.23321238859E+04  0.46999998093E+01 0. -1.
</event>
<event>
 5   0  0.1648000E-07  0.2800821E+04  0.7818609E-02  0.8303014E-01
       -1   -1    0    0    0  501  0.00000000000E+00  0.00000000000E+00  0.12621079470E+04  0.12621079470E+04  0.50400001928E-02 0.  1.
        1   -1    0    0  501    0  0.00000000000E+00  0.00000000000E+00 -0.15538680812E+04  0.15538680812E+04  0.50400001928E-02 0. -1.
    10030    2    1    2    0    0  0.00000000000E+00  0.00000000000E+00 -0.29176013423E+03  0.28159760283E+04  0.28008207754E+04 0.  0.
        2    1    3    3  502    0 -0.68996717521E+03  0.75465140273E+03  0.81616525647E+03  0.13083115716E+04  0.25500000920E-02 0.  1.
       -2    1    3    3    0  502  0.68996717521E+03 -0.75465140273E+03 -0.11079253907E+04  0.15076644567E+04  0.25500000920E-02 0. -1.
</event>
<event>
 5   0  0.5158266E-07  0.3799045E+04  0.7818609E-02  0.8046360E-01
        2   -1    0    0  501    0  0.00000000000E+00  0.00000000000E+00  0.14753653278E+04  0.14753653278E+04  0.25500000920E-02 0.  1.
       -2   -1    0    0    0  501  0.00000000000E+00  0.00000000000E+00 -0.24456224637E+04  0.24456224637E+04  0.25500000920E-02 0. -1.
    10030    2    1    2    0    0  0.00000000000E+00  0.00000000000E+00 -0.97025713593E+03  0.39209877915E+04  0.37990454526E+04 0.  0.
        2    1    3    3  502    0 -0.10224414361E+04  0.14493996639E+04  0.21642546012E+03  0.17868927936E+04  0.25500000920E-02 0.  1.
       -2    1    3    3    0  502  0.10224414361E+04 -0.14493996639E+04 -0.11866825960E+04  0.21340949979E+04  0.25500000920E-02 0. -1.
</event>
<event>
 5   0  0.1648000E-07  0.3806537E+04  0.7818609E-02  0.8044753E-01
       -1   -1    0    0    0  501  0.00000000000E+00  0.00000000000E+00  0.22662609510E+04  0.22662609510E+04  0.50400001928E-02 0. -1.
        1   -1    0    0  501    0  0.00000000000E+00  0.00000000000E+00 -0.15984176448E+04  0.15984176448E+04  0.50400001928E-02 0.  1.
    10030    2    1    2    0    0  0.00000000000E+00  0.00000000000E+00  0.66784330623E+03  0.38646785957E+04  0.38065372672E+04 0.  0.
        2    1    3    3  502    0 -0.62770104778E+02 -0.14445166688E+04 -0.92266736224E+03  0.17151919875E+04  0.25500000920E-02 0.  1.
       -2    1    3    3    0  502  0.62770104778E+02  0.14445166688E+04  0.15905106685E+04  0.21494866083E+04  0.25500000920E-02 0. -1.
</event>
<event>
 5   0  0.5134434E-07  0.3825923E+04  0.7818609E-02  0.8040615E-01
        2   -1    0    0  501    0  0.00000000000E+00  0.00000000000E+00  0.21194892558E+04  0.21194892558E+04  0.25500000920E-02 0. -1.
       -2   -1    0    0    0  501  0.00000000000E+00  0.00000000000E+00 -0.17265581968E+04  0.17265581968E+04  0.25500000920E-02 0.  1.
    10030    2    1    2    0    0  0.00000000000E+00  0.00000000000E+00  0.39293105907E+03  0.38460474526E+04  0.38259229201E+04 0.  0.
        5    1    3    3  502    0  0.11903262599E+04 -0.14520471615E+04 -0.17163249712E+03  0.18854170277E+04  0.46999998093E+01 0. -1.
       -5    1    3    3    0  502 -0.11903262599E+04  0.14520471615E+04  0.56456355619E+03  0.19606304249E+04  0.46999998093E+01 0.  1.
</event>
<event>
 5   0  0.1648000E-07  0.3755789E+04  0.7818609E-02  0.8055710E-01
        1   -1    0    0  501    0  0.00000000000E+00  0.00000000000E+00  0.21122535698E+04  0.21122535698E+04  0.50400001928E-02 0.  1.
       -1   -1    0    0    0  501  0.00000000000E+00  0.00000000000E+00 -0.16695378044E+04  0.16695378044E+04  0.50400001928E-02 0. -1.
    10030    2    1    2    0    0  0.00000000000E+00  0.00000000000E+00  0.44271576545E+03  0.37817913742E+04  0.37557886986E+04 0.  0.
        1    1    3    3  502    0  0.49239406887E+03 -0.14362928119E+04 -0.89132579264E+03  0.17606392672E+04  0.50400001928E-02 0. -1.
       -1    1    3    3    0  502 -0.49239406887E+03  0.14362928119E+04  0.13340415581E+04  0.20211521069E+04  0.50400001928E-02 0.  1.
</event>
<event>
 5   0  0.1648000E-07  0.3785829E+04  0.7818609E-02  0.8049203E-01
        1   -1    0    0  501    0  0.00000000000E+00  0.00000000000E+00  0.20973026651E+04  0.20973026651E+04  0.50400001928E-02 0. -1.
       -1   -1    0    0    0  501  0.00000000000E+00  0.00000000000E+00 -0.17084449138E+04  0.17084449138E+04  0.50400001928E-02 0.  1.
    10030    2    1    2    0    0  0.00000000000E+00  0.00000000000E+00  0.38885775136E+03  0.38057475789E+04  0.37858294050E+04 0.  0.
        2    1    3    3  502    0 -0.82667601918E+03 -0.11621637836E+03 -0.15133992080E+04  0.17283739903E+04  0.25500000920E-02 0.  1.
       -2    1    3    3    0  502  0.82667601918E+03  0.11621637836E+03  0.19022569594E+04  0.20773735887E+04  0.25500000920E-02 0. -1.
</event>
<event>
 5   0  0.1648000E-07  0.3778444E+04  0.7818609E-02  0.8050797E-01
        1   -1    0    0  501    0  0.00000000000E+00  0.00000000000E+00  0.22067881780E+04  0.22067881780E+04  0.50400001928E-02 0. -1.
       -1   -1    0    0    0  501  0.00000000000E+00  0.00000000000E+00 -0.16173552278E+04  0.16173552278E+04  0.50400001928E-02 0.  1.
    10030    2    1    2    0    0  0.00000000000E+00  0.00000000000E+00  0.58943295016E+03  0.38241434058E+04  0.37784443340E+04 0.  0.
        1    1    3    3  502    0 -0.10326646310E+04  0.99848303021E+03 -0.94723372442E+03  0.17206441615E+04  0.50400001928E-02 0.  1.
       -1    1    3    3    0  502  0.10326646310E+04 -0.99848303021E+03  0.15366666746E+04  0.21034992443E+04  0.50400001928E-02 0. -1.
</event>
<event>
 5   0  0.5134434E-07  0.2969899E+04  0.7818609E-02  0.8252379E-01
       -2   -1    0    0    0  501  0.00000000000E+00  0.00000000000E+00  0.20397408181E+04  0.20397408182E+04  0.25500000920E-02 0. -1.
        2   -1    0    0  501    0  0.00000000000E+00  0.00000000000E+00 -0.10810561256E+04  0.10810561256E+04  0.25500000920E-02 0.  1.
    10030    2    1    2    0    0  0.00000000000E+00  0.00000000000E+00  0.95868469253E+03  0.31207969438E+04  0.29698985209E+04 0.  0.
        5    1    3    3  502    0 -0.65044269599E+03 -0.28935310599E+03  0.18487251795E+04  0.19810622908E+04  0.46999998093E+01 0. -1.
       -5    1    3    3    0  502  0.65044269599E+03  0.28935310599E+03 -0.89004048698E+03  0.11397346530E+04  0.46999998093E+01 0.  1.
</event>
<event>
 5   0  0.1656617E-07  0.3789265E+04  0.7818609E-02  0.8048462E-01
        1   -1    0    0  501    0  0.00000000000E+00  0.00000000000E+00  0.22758980368E+04  0.22758980368E+04  0.50400001928E-02 0.  1.
       -1   -1    0    0    0  501  0.00000000000E+00  0.00000000000E+00 -0.15772379583E+04  0.15772379583E+04  0.50400001928E-02 0. -1.
    10030    2    1    2    0    0  0.00000000000E+00  0.00000000000E+00  0.69866007848E+03  0.38531359952E+04  0.37892652443E+04 0.  0.
        5    1    3    3  502    0 -0.53579030841E+03 -0.16793810989E+04 -0.35679447482E+03  0.17985317671E+04  0.46999998093E+01 0. -1.
       -5    1    3    3    0  502  0.53579030841E+03  0.16793810989E+04  0.10554545533E+04  0.20546042281E+04  0.46999998093E+01 0.  1.
</event>
<event>
 5   0  0.1648000E-07  0.3764038E+04  0.7818609E-02  0.8053917E-01
       -1   -1    0    0    0  501  0.00000000000E+00  0.00000000000E+00  0.15917085983E+04  0.15917085983E+04  0.50400001928E-02 0.  1.
        1   -1    0    0  501    0  0.00000000000E+00  0.00000000000E+00 -0.22252787384E+04  0.22252787384E+04  0.50400001928E-02 0. -1.
    10030    2    1    2    0    0  0.00000000000E+00  0.00000000000E+00 -0.63357014007E+03  0.38169873368E+04  0.37640378859E+04 0.  0.
        3    1    3    3  502    0 -0.46124453271E+03  0.11404858515E+04  0.11275189036E+04  0.16687580366E+04  0.10100000352E+00 0.  1.
       -3    1    3    3    0  502  0.46124453271E+03 -0.11404858515E+04 -0.17610890436E+04  0.21482293002E+04  0.10100000352E+00 0. -1.
</event>
<event>
 5   0  0.5202788E-07  0.3834322E+04  0.7818609E-02  0.8038829E-01
       -2   -1    0    0    0  501  0.00000000000E+00  0.00000000000E+00  0.21064480633E+04  0.21064480633E+04  0.25500000920E-02 0.  1.
        2   -1    0    0  501    0  0.00000000000E+00  0.00000000000E+00 -0.17448834684E+04  0.17448834684E+04  0.25500000920E-02 0. -1.
    10030    2    1    2    0    0  0.00000000000E+00  0.00000000000E+00  0.36156459485E+03  0.38513315317E+04  0.38343220536E+04 0.  0.
        1    1    3    3  502    0 -0.42454303918E+03  0.15880490516E+04  0.11717540066E+04  0.20186985992E+04  0.50400001928E-02 0. -1.
       -1    1    3    3    0  502  0.42454303918E+03 -0.15880490516E+04 -0.81018941171E+03  0.18326329325E+04  0.50400001928E-02 0.  1.
</event>
<event>
 5   0  0.1648000E-07  0.3815588E+04  0.7818609E-02  0.8042818E-01
        1   -1    0    0  501    0  0.00000000000E+00  0.00000000000E+00  0.24760262557E+04  0.24760262557E+04  0.50400001928E-02 0.  1.
       -1   -1    0    0    0  501  0.00000000000E+00  0.00000000000E+00 -0.14699677641E+04  0.14699677641E+04  0.50400001928E-02 0. -1.
    10030    2    1    2    0    0  0.00000000000E+00  0.00000000000E+00  0.10060584916E+04  0.39459940198E+04  0.38155884364E+04 0.  0.
        3    1    3    3  502    0 -0.12242880576E+04  0.28235604175E+03  0.19877389334E+04  0.23515340227E+04  0.10100000352E+00 0.  1.
       -3    1    3    3    0  502  0.12242880576E+04 -0.28235604175E+03 -0.98168044185E+03  0.15944599971E+04  0.10100000352E+00 0. -1.
</event>
<event>
 5   0  0.5132561E-07  0.3795093E+04  0.7818609E-02  0.8047209E-01
        2   -1    0    0  501    0  0.00000000000E+00  0.00000000000E+00  0.25082358758E+04  0.25082358758E+04  0.25500000920E-02 0. -1.
       -2   -1    0    0    0  501  0.00000000000E+00  0.00000000000E+00 -0.14355437216E+04  0.14355437216E+04  0.25500000920E-02 0.  1.
    10030    2    1    2    0    0  0.00000000000E+00  0.00000000000E+00  0.10726921542E+04  0.39437795974E+04  0.37950927598E+04 0.  0.
        3    1    3    3  502    0  0.74891836232E+02 -0.71488234461E+03  0.23612861219E+04  0.24682661351E+04  0.10100000352E+00 0. -1.
       -3    1    3    3    0  502 -0.74891836232E+02  0.71488234461E+03 -0.12885939677E+04  0.14755134624E+04  0.10100000352E+00 0.  1.
</event>
<event>
 5   0  0.1648000E-07  0.3886770E+04  0.7818609E-02  0.8027786E-01
        1   -1    0    0  501    0  0.00000000000E+00  0.00000000000E+00  0.17058694488E+04  0.17058694488E+04  0.50400001928E-02 0. -1.
       -1   -1    0    0    0  501  0.00000000000E+00  0.00000000000E+00 -0.22139711544E+04  0.22139711544E+04  0.50400001928E-02 0.  1.
    10030    2    1    2    0    0  0.00000000000E+00  0.00000000000E+00 -0.50810170563E+03  0.39198406033E+04  0.38867702545E+04 0.  0.
        1    1    3    3  502    0 -0.76594941241E+03  0.16565326748E+04  0.41943856430E+03  0.18726205473E+04  0.50400001928E-02 0. -1.
       -1    1    3    3    0  502  0.76594941241E+03 -0.16565326748E+04 -0.92754026993E+03  0.20472200559E+04  0.50400001928E-02 0.  1.
</event>
<event>
 5   0  0.1648000E-07  0.3729545E+04  0.7818609E-02  0.8061446E-01
       -1   -1    0    0    0  501  0.00000000000E+00  0.00000000000E+00  0.27733703420E+04  0.27733703420E+04  0.50400001928E-02 0. -1.
        1   -1    0    0  501    0  0.00000000000E+00  0.00000000000E+00 -0.12538451871E+04  0.12538451871E+04  0.50400001928E-02 0.  1.
    10030    2    1    2    0    0  0.00000000000E+00  0.00000000000E+00  0.15195251549E+04  0.40272155290E+04  0.37295453102E+04 0.  0.
        1    1    3    3  502    0 -0.10555786450E+04 -0.37517852936E+03 -0.84998340119E+03  0.14062279285E+04  0.50400001928E-02 0.  1.
       -1    1    3    3    0  502  0.10555786450E+04  0.37517852936E+03  0.23695085561E+04  0.26209876005E+04  0.50400001928E-02 0. -1.
</event>
<event>
 5   0  0.5202788E-07  0.2863620E+04  0.7818609E-02  0.8283784E-01
        2   -1    0    0  501    0  0.00000000000E+00  0.00000000000E+00  0.16478722341E+04  0.16478722341E+04  0.25500000920E-02 0. -1.
       -2   -1    0    0    0  501  0.00000000000E+00  0.00000000000E+00 -0.12440773440E+04  0.12440773440E+04  0.25500000920E-02 0.  1.
    10030    2    1    2    0    0  0.00000000000E+00  0.00000000000E+00  0.40379489009E+03  0.28919495780E+04  0.28636204442E+04 0.  0.
        1    1    3    3  502    0  0.10333806034E+03 -0.87725401987E+02 -0.12375827535E+04  0.12449841656E+04  0.50400001928E-02 0.  1.
       -1    1    3    3    0  502 -0.10333806034E+03  0.87725401987E+02  0.16413776436E+04  0.16469654124E+04  0.50400001928E-02 0. -1.
</event>
<event>
 5   0  0.1648000E-07  0.3791100E+04  0.7818609E-02  0.8048067E-01
       -1   -1    0    0    0  501  0.00000000000E+00  0.00000000000E+00  0.19610689722E+04  0.19610689722E+04  0.50400001928E-02 0. -1.
        1   -1    0    0  501    0  0.00000000000E+00  0.00000000000E+00 -0.18322200178E+04  0.18322200178E+04  0.50400001928E-02 0.  1.
    10030    2    1    2    0    0  0.00000000000E+00  0.00000000000E+00  0.12884895439E+03  0.37932889900E+04  0.37911000130E+04 0.  0.
        3    1    3    3  502    0  0.12913117790E+04 -0.55400416007E+03  0.13374417243E+04  0.19398858461E+04  0.10100000352E+00 0. -1.
       -3    1    3    3    0  502 -0.12913117790E+04  0.55400416007E+03 -0.12085927699E+04  0.18534031439E+04  0.10100000352E+00 0.  1.
</event>
<event>
 5   0  0.1648000E-07  0.3338422E+04  0.7818609E-02  0.8153187E-01
        1   -1    0    0  501    0  0.00000000000E+00  0.00000000000E+00  0.20402135193E+04  0.20402135193E+04  0.50400001928E-02 0. -1.
       -1   -1    0    0    0  501  0.00000000000E+00  0.00000000000E+00 -0.13656730096E+04  0.13656730096E+04  0.50400001928E-02 0.  1.
    10030    2    1    2    0    0  0.00000000000E+00  0.00000000000E+00  0.67454050972E+03  0.34058865289E+04  0.33384215055E+04 0.  0.
        1    1    3    3  502    0 -0.56896521081E+03  0.15464080605E+04  0.65111096381E+02  0.16490417689E+04  0.50400001928E-02 0.  1.
       -1    1    3    3    0  502  0.56896521081E+03 -0.15464080605E+04  0.60942941334E+03  0.17568447600E+04  0.50400001928E-02 0. -1.
</event>
<event>
 5   0  0.5132561E-07  0.2791810E+04  0.7818609E-02  0.8305815E-01
        2   -1    0    0  501    0  0.00000000000E+00  0.00000000000E+00  0.17984206661E+04  0.17984206661E+04  0.25500000920E-02 0.  1.
       -2   -1    0    0    0  501  0.00000000000E+00  0.00000000000E+00 -0.10834792440E+04  0.10834792440E+04  0.25500000920E-02 0. -1.
    10030    2    1    2    0    0  0.00000000000E+00  0.00000000000E+00  0.71494142213E+03  0.28818999102E+04  0.27918104977E+04 0.  0.
        3    1    3    3  502    0 -0.35681074049E+03 -0.15531347446E+03  0.17412949238E+04  0.17842489181E+04  0.10100000352E+00 0.  1.
       -3    1    3    3    0  502  0.35681074049E+03  0.15531347446E+03 -0.10263535017E+04  0.10976509921E+04  0.10100000352E+00 0. -1.
</event>
<event>
 5   0  0.5134434E-07  0.3900037E+04  0.7818609E-02  0.8025022E-01
       -2   -1    0    0    0  501  0.00000000000E+00  0.00000000000E+00  0.22968127087E+04  0.22968127087E+04  0.25500000920E-02 0.  1.
        2   -1    0    0  501    0  0.00000000000E+00  0.00000000000E+00 -0.16555865180E+04  0.16555865180E+04  0.25500000920E-02 0. -1.
    10030    2    1    2    0    0  0.00000000000E+00  0.00000000000E+00  0.64122619069E+03  0.39523992268E+04  0.39000370024E+04 0.  0.
        5    1    3    3  502    0 -0.71926813490E+03  0.17576378144E+04 -0.12794986019E+03  0.19034260147E+04  0.46999998093E+01 0.  1.
       -5    1    3    3    0  502  0.71926813490E+03 -0.17576378144E+04  0.76917605089E+03  0.20489732121E+04  0.46999998093E+01 0. -1.
</event>
<event>
 5   0  0.5158266E-07  0.3842106E+04  0.7818609E-02  0.8037179E-01
        2   -1    0    0  501    0  0.00000000000E+00  0.00000000000E+00  0.15485737154E+04  0.15485737154E+04  0.25500000920E-02 0.  1.
       -2   -1    0    0    0  501  0.00000000000E+00  0.00000000000E+00 -0.23831247302E+04  0.23831247302E+04  0.25500000920E-02 0. -1.
    10030    2    1    2    0    0  0.00000000000E+00  0.00000000000E+00 -0.83455101484E+03  0.39316984456E+04  0.38421058380E+04 0.  0.
        2    1    3    3  502    0  0.32082727569E+03 -0.40921883170E+03  0.14751873573E+04  0.15641508662E+04  0.25500000920E-02 0.  1.
       -2    1    3    3    0  502 -0.32082727569E+03  0.40921883170E+03 -0.23097383721E+04  0.23675475794E+04  0.25500000920E-02 0. -1.
</event>
<event>
 5   0  0.5158266E-07  0.3796072E+04  0.7818609E-02  0.8046998E-01
        2   -1    0    0  501    0  0.00000000000E+00  0.00000000000E+00  0.23210954227E+04  0.23210954227E+04  0.25500000920E-02 0.  1.
       -2   -1    0    0    0  501  0.00000000000E+00  0.00000000000E+00 -0.15520861170E+04  0.15520861170E+04  0.25500000920E-02 0. -1.
    10030    2    1    2    0    0  0.00000000000E+00  0.00000000000E+00  0.76900930571E+03  0.38731815396E+04  0.37960716441E+04 0.  0.
        2    1    3    3  502    0  0.87222160074E+03 -0.16856649472E+04  0.36673987657E+03  0.19330636234E+04  0.25500000920E-02 0.  1.
       -2    1    3    3    0  502 -0.87222160074E+03  0.16856649472E+04  0.40226942913E+03  0.19401179162E+04  0.25500000920E-02 0. -1.
</event>
<event>
 5   0  0.5132561E-07  0.3609347E+04  0.7818609E-02  0.8088354E-01
        2   -1    0    0  501    0  0.00000000000E+00  0.00000000000E+00  0.27907249106E+04  0.27907249106E+04  0.25500000920E-02 0.  1.
       -2   -1    0    0    0  501  0.00000000000E+00  0.00000000000E+00 -0.11670253220E+04  0.11670253220E+04  0.25500000920E-02 0. -1.
    10030    2    1    2    0    0  0.00000000000E+00  0.00000000000E+00  0.16236995886E+04  0.39577502326E+04  0.36093471086E+04 0.  0.
        3    1    3    3  502    0  0.96350362114E+03 -0.15107021760E+04  0.57593991476E+03  0.18820911477E+04  0.10100000352E+00 0.  1.
       -3    1    3    3    0  502 -0.96350362114E+03  0.15107021760E+04  0.10477596738E+04  0.20756590849E+04  0.10100000352E+00 0. -1.
</event>
<event>
 5   0  0.1648000E-07  0.3725137E+04  0.7818609E-02  0.8062414E-01
        1   -1    0    0  501    0  0.00000000000E+00  0.00000000000E+00  0.14333115921E+04  0.14333115921E+04  0.50400001928E-02 0.  1.
       -1   -1    0    0    0  501  0.00000000000E+00  0.00000000000E+00 -0.24203824162E+04  0.24203824162E+04  0.50400001928E-02 0. -1.
    10030    2    1    2    0    0  0.00000000000E+00  0.00000000000E+00 -0.98707082414E+03  0.38536940084E+04  0.37251374066E+04 0.  0.
        2    1    3    3  502    0 -0.14215299591E+04  0.11764368172E+04 -0.23098330493E+03  0.18595978857E+04  0.25500000920E-02 0.  1.
       -2    1    3    3    0  502  0.14215299591E+04 -0.11764368172E+04 -0.75608751921E+03  0.19940961226E+04  0.25500000920E-02 0. -1.
</event>
<event>
 5   0  0.5202788E-07  0.3796114E+04  0.7818609E-02  0.8046989E-01
        2   -1    0    0  501    0  0.00000000000E+00  0.00000000000E+00  0.13301135886E+04  0.13301135886E+04  0.25500000920E-02 0.  1.
       -2   -1    0    0    0  501  0.00000000000E+00  0.00000000000E+00 -0.27085062830E+04  0.27085062830E+04  0.25500000920E-02 0. -1.
    10030    2    1    2    0    0  0.00000000000E+00  0.00000000000E+00 -0.13783926944E+04  0.40386198716E+04  0.37961143353E+04 0.  0.
        1    1    3    3  502    0 -0.17606740813E+03 -0.11873040888E+03  0.13174351977E+04  0.13344407602E+04  0.50400001928E-02 0.  1.
       -1    1    3    3    0  502  0.17606740813E+03  0.11873040888E+03 -0.26958278922E+04  0.27041791114E+04  0.50400001928E-02 0. -1.
</event>
<event>
 5   0  0.1648000E-07  0.3856066E+04  0.7818609E-02  0.8034229E-01
        1   -1    0    0  501    0  0.00000000000E+00  0.00000000000E+00  0.22216235567E+04  0.22216235567E+04  0.50400001928E-02 0.  1.
       -1   -1    0    0    0  501  0.00000000000E+00  0.00000000000E+00 -0.16732404976E+04  0.16732404976E+04  0.50400001928E-02 0. -1.
    10030    2    1    2    0    0  0.00000000000E+00  0.00000000000E+00  0.54838305903E+03  0.38948640543E+04  0.38560656143E+04 0.  0.
        3    1    3    3  502    0 -0.84938815078E+03  0.66212744237E+03 -0.13410980980E+04  0.17200049707E+04  0.10100000352E+00 0. -1.
       -3    1    3    3    0  502  0.84938815078E+03 -0.66212744237E+03  0.18894811570E+04  0.21748590836E+04  0.10100000352E+00 0.  1.
</event>
<event>
 5   0  0.1648000E-07  0.3775469E+04  0.7818609E-02  0.8051440E-01
       -1   -1    0    0    0  501  0.00000000000E+00  0.00000000000E+00  0.25859053646E+04  0.25859053646E+04  0.50400001928E-02 0. -1.
        1   -1    0    0  501    0  0.00000000000E+00  0.00000000000E+00 -0.13780630412E+04  0.13780630413E+04  0.50400001928E-02 0.  1.
    10030    2    1    2    0    0  0.00000000000E+00  0.00000000000E+00  0.12078423234E+04  0.39639684059E+04  0.37754685067E+04 0.  0.
        3    1    3    3  502    0 -0.49174724509E+03 -0.14393910206E+04  0.17777189113E+04  0.23396466401E+04  0.10100000352E+00 0. -1.
       -3    1    3    3    0  502  0.49174724509E+03  0.14393910206E+04 -0.56987658786E+03  0.16243217657E+04  0.10100000352E+00 0.  1.
</event>
<event>
 5   0  0.1648000E-07  0.3762531E+04  0.7818609E-02  0.8054244E-01
        1   -1    0    0  501    0  0.00000000000E+00  0.00000000000E+00  0.29658764328E+04  0.29658764328E+04  0.50400001928E-02 0. -1.
       -1   -1    0    0    0  501  0.00000000000E+00  0.00000000000E+00 -0.11932933488E+04  0.11932933488E+04  0.50400001928E-02 0.  1.
    10030    2    1    2    0    0  0.00000000000E+00  0.00000000000E+00  0.17725830840E+04  0.41591697816E+04  0.37625313929E+04 0.  0.
        4    1    3    3  502    0  0.68887849080E+02 -0.18377546508E+04  0.13243932612E+04  0.22662980421E+04  0.12699999809E+01 0. -1.
       -4    1    3    3    0  502 -0.68887849080E+02  0.18377546508E+04  0.44818982278E+03  0.18928717396E+04  0.12699999809E+01 0.  1.
</event>
<event>
 5   0  0.5325362E-07  0.3820290E+04  0.7818609E-02  0.8041815E-01
        2   -1    0    0  501    0  0.00000000000E+00  0.00000000000E+00  0.22910436686E+04  0.22910436686E+04  0.25500000920E-02 0. -1.
       -2   -1    0    0    0  501  0.00000000000E+00  0.00000000000E+00 -0.15925728246E+04  0.15925728247E+04  0.25500000920E-02 0.  1.
    10030    2    1    2    0    0  0.00000000000E+00  0.00000000000E+00  0.69847084397E+03  0.38836164933E+04  0.38202899820E+04 0.  0.
        4    1    3    3  502    0 -0.18176301522E+04  0.25773679091E+03 -0.18719011700E+03  0.18453317795E+04  0.12699999809E+01 0.  1.
       -4    1    3    3    0  502  0.18176301522E+04 -0.25773679091E+03  0.88566096096E+03  0.20382847138E+04  0.12699999809E+01 0. -1.
</event>
<event>
 5   0  0.1648000E-07  0.3776572E+04  0.7818609E-02  0.8051201E-01
        1   -1    0    0  501    0  0.00000000000E+00  0.00000000000E+00  0.19343987014E+04  0.19343987014E+04  0.50400001928E-02 0. -1.
       -1   -1    0    0    0  501  0.00000000000E+00  0.00000000000E+00 -0.18432725396E+04  0.18432725396E+04  0.50400001928E-02 0.  1.
    10030    2    1    2    0    0  0.00000000000E+00  0.00000000000E+00  0.91126161764E+02  0.37776712410E+04  0.37765719943E+04 0.  0.
        3    1    3    3  502    0 -0.85690629569E+03  0.50621129319E+03  0.16507375269E+04  0.19275561382E+04  0.10100000352E+00 0. -1.
       -3    1    3    3    0  502  0.85690629569E+03 -0.50621129319E+03 -0.15596113652E+04  0.18501151028E+04  0.10100000352E+00 0.  1.
</event>
<event>
 5   0  0.5134434E-07  0.3289808E+04  0.7818609E-02  0.8165493E-01
       -2   -1    0    0    0  501  0.00000000000E+00  0.00000000000E+00  0.12868825116E+04  0.12868825116E+04  0.25500000920E-02 0.  1.
        2   -1    0    0  501    0  0.00000000000E+00  0.00000000000E+00 -0.21025306744E+04  0.21025306744E+04  0.25500000920E-02 0. -1.
    10030    2    1    2    0    0  0.00000000000E+00  0.00000000000E+00 -0.81564816274E+03  0.33894131860E+04  0.32898084777E+04 0.  0.
        5    1    3    3  502    0 -0.14483556592E+04 -0.53082142058E+02 -0.12092814149E+04  0.18875739614E+04  0.46999998093E+01 0.  1.
       -5    1    3    3    0  502  0.14483556592E+04  0.53082142058E+02  0.39363325212E+03  0.15018392246E+04  0.46999998093E+01 0. -1.
</event>
<event>
 5   0  0.1648000E-07  0.3770933E+04  0.7818609E-02  0.8052421E-01
        1   -1    0    0  501    0  0.00000000000E+00  0.00000000000E+00  0.13882338632E+04  0.13882338632E+04  0.50400001928E-02 0. -1.
       -1   -1    0    0    0  501  0.00000000000E+00  0.00000000000E+00 -0.25607961958E+04  0.25607961958E+04  0.50400001928E-02 0.  1.
    10030    2    1    2    0    0  0.00000000000E+00  0.00000000000E+00 -0.11725623326E+04  0.39490300590E+04  0.37709330388E+04 0.  0.
        3    1    3    3  502    0  0.11635726658E+04 -0.79931972656E+03 -0.18951793063E+04  0.23631584769E+04  0.10100000352E+00 0.  1.
       -3    1    3    3    0  502 -0.11635726658E+04  0.79931972656E+03  0.72261697368E+03  0.15858715820E+04  0.10100000352E+00 0. -1.
</event>
<event>
 5   0  0.5202788E-07  0.3787769E+04  0.7818609E-02  0.8048785E-01
        2   -1    0    0  501    0  0.00000000000E+00  0.00000000000E+00  0.27451841390E+04  0.27451841390E+04  0.25500000920E-02 0.  1.
       -2   -1    0    0    0  501  0.00000000000E+00  0.00000000000E+00 -0.13065782475E+04  0.13065782476E+04  0.25500000920E-02 0. -1.
    10030    2    1    2    0    0  0.00000000000E+00  0.00000000000E+00  0.14386058915E+04  0.40517623866E+04  0.37877686738E+04 0.  0.
        1    1    3    3  502    0 -0.86872735183E+03 -0.36508522454E+03 -0.10380045355E+04  0.14019371772E+04  0.50400001928E-02 0. -1.
       -1    1    3    3    0  502  0.86872735183E+03  0.36508522454E+03  0.24766104270E+04  0.26498252094E+04  0.50400001928E-02 0.  1.
</event>
<event>
 5   0  0.1648000E-07  0.3745443E+04  0.7818609E-02  0.8057965E-01
       -1   -1    0    0    0  501  0.00000000000E+00  0.00000000000E+00  0.14939287041E+04  0.14939287042E+04  0.50400001928E-02 0. -1.
        1   -1    0    0  501    0  0.00000000000E+00  0.00000000000E+00 -0.23475589605E+04  0.23475589605E+04  0.50400001928E-02 0.  1.
    10030    2    1    2    0    0  0.00000000000E+00  0.00000000000E+00 -0.85363025633E+03  0.38414876646E+04  0.37454429462E+04 0.  0.
        3    1    3    3  502    0  0.74697683420E+03 -0.26021862492E+03 -0.21678114386E+04  0.23076166422E+04  0.10100000352E+00 0.  1.
       -3    1    3    3    0  502 -0.74697683420E+03  0.26021862492E+03  0.13141811823E+04  0.15338710225E+04  0.10100000352E+00 0. -1.
</event>
<event>
 5   0  0.5134434E-07  0.2748429E+04  0.7818609E-02  0.8319460E-01
       -2   -1    0    0    0  501  0.00000000000E+00  0.00000000000E+00  0.81812289051E+03  0.81812289052E+03  0.25500000920E-02 0.  1.
        2   -1    0    0  501    0  0.00000000000E+00  0.00000000000E+00 -0.23082913680E+04  0.23082913680E+04  0.25500000920E-02 0. -1.
    10030    2    1    2    0    0  0.00000000000E+00  0.00000000000E+00 -0.14901684775E+04  0.31264142585E+04  0.27484293741E+04 0.  0.
        5    1    3    3  502    0 -0.11305713591E+04 -0.28833443785E+03 -0.15709602729E+04  0.19568511990E+04  0.46999998093E+01 0. -1.
       -5    1    3    3    0  502  0.11305713591E+04  0.28833443785E+03  0.80791795408E+02  0.11695630595E+04  0.46999998093E+01 0.  1.
</event>
<event>
 5   0  0.5132561E-07  0.3814099E+04  0.7818609E-02  0.8043136E-01
       -2   -1    0    0    0  501  0.00000000000E+00  0.00000000000E+00  0.16443974180E+04  0.16443974180E+04  0.25500000920E-02 0.  1.
        2   -1    0    0  501    0  0.00000000000E+00  0.00000000000E+00 -0.22116534239E+04  0.22116534239E+04  0.25500000920E-02 0. -1.
    10030    2    1    2    0    0  0.00000000000E+00  0.00000000000E+00 -0.56725600583E+03  0.38560508419E+04  0.38140986772E+04 0.  0.
        3    1    3    3  502    0  0.11129301806E+04  0.96839393090E+03  0.93814973379E+03  0.17482921168E+04  0.10100000352E+00 0.  1.
       -3    1    3    3    0  502 -0.11129301806E+04 -0.96839393090E+03 -0.15054057396E+04  0.21077587251E+04  0.10100000352E+00 0. -1.
</event>
<event>
 5   0  0.5132561E-07  0.2895092E+04  0.7818609E-02  0.8274339E-01
        2   -1    0    0  501    0  0.00000000000E+00  0.00000000000E+00  0.15484783069E+04  0.15484783069E+04  0.25500000920E-02 0. -1.
       -2   -1    0    0    0  501  0.00000000000E+00  0.00000000000E+00 -0.13531929565E+04  0.13531929565E+04  0.25500000920E-02 0.  1.
    10030    2    1    2    0    0  0.00000000000E+00  0.00000000000E+00  0.19528535033E+03  0.29016712634E+04  0.28950923565E+04 0.  0.
        3    1    3    3  502    0 -0.49228872142E+03  0.40782930343E+03 -0.12040453132E+04  0.13632307407E+04  0.10100000352E+00 0.  1.
       -3    1    3    3    0  502  0.49228872142E+03 -0.40782930343E+03  0.13993306635E+04  0.15384405227E+04  0.10100000352E+00 0. -1.
</event>
<event>
 5   0  0.1648000E-07  0.3750903E+04  0.7818609E-02  0.8056774E-01
        1   -1    0    0  501    0  0.00000000000E+00  0.00000000000E+00  0.28171960120E+04  0.28171960120E+04  0.50400001928E-02 0.  1.
       -1   -1    0    0    0  501  0.00000000000E+00  0.00000000000E+00 -0.12485174258E+04  0.12485174258E+04  0.50400001928E-02 0. -1.
    10030    2    1    2    0    0  0.00000000000E+00  0.00000000000E+00  0.15686785862E+04  0.40657134378E+04  0.37509029915E+04 0.  0.
        1    1    3    3  502    0  0.18091888791E+04  0.32676562970E+03  0.11860928608E+04  0.21878657298E+04  0.50400001928E-02 0.  1.
       -1    1    3    3    0  502 -0.18091888791E+04 -0.32676562970E+03  0.38258572547E+03  0.18778477080E+04  0.50400001928E-02 0. -1.
</event>
<event>
 5   0  0.1648000E-07  0.3827448E+04  0.7818609E-02  0.8040290E-01
       -1   -1    0    0    0  501  0.00000000000E+00  0.00000000000E+00  0.28636816871E+04  0.28636816871E+04  0.50400001928E-02 0. -1.
        1   -1    0    0  501    0  0.00000000000E+00  0.00000000000E+00 -0.12788916854E+04  0.12788916854E+04  0.50400001928E-02 0.  1.
    10030    2    1    2    0    0  0.00000000000E+00  0.00000000000E+00  0.15847900017E+04  0.41425733726E+04  0.38274475565E+04 0.  0.
        4    1    3    3  502    0  0.60142787264E+03 -0.10908998729E+03 -0.11703978826E+04  0.13203972614E+04  0.12699999809E+01 0.  1.
       -4    1    3    3    0  502 -0.60142787264E+03  0.10908998729E+03  0.27551878844E+04  0.28221761112E+04  0.12699999809E+01 0. -1.
</event>
<event>
 5   0  0.1648000E-07  0.4749735E+04  0.7818609E-02  0.7868317E-01
        1   -1    0    0  501    0  0.00000000000E+00  0.00000000000E+00  0.24962994210E+04  0.24962994210E+04  0.50400001928E-02 0. -1.
       -1   -1    0    0    0  501  0.00000000000E+00  0.00000000000E+00 -0.22593426444E+04  0.22593426444E+04  0.50400001928E-02 0.  1.
    10030    2    1    2    0    0  0.00000000000E+00  0.00000000000E+00  0.23695677662E+03  0.47556420654E+04  0.47497350389E+04 0.  0.
        1    1    3    3  502    0  0.17558953479E+04  0.37717076554E+03  0.16742993895E+04  0.24553420749E+04  0.50400001928E-02 0. -1.
       -1    1    3    3    0  502 -0.17558953479E+04 -0.37717076554E+03 -0.14373426128E+04  0.23002999904E+04  0.50400001928E-02 0.  1.
</event>
<event>
 5   0  0.1648000E-07  0.3788254E+04  0.7818609E-02  0.8048680E-01
        3   -1    0    0  501    0  0.00000000000E+00  0.00000000000E+00  0.21034444100E+04  0.21034444124E+04  0.10100000352E+00 0.  1.
       -3   -1    0    0    0  501  0.00000000000E+00  0.00000000000E+00 -0.17056387716E+04  0.17056387746E+04  0.10100000352E+00 0. -1.
    10030    2    1    2    0    0  0.00000000000E+00  0.00000000000E+00  0.39780563839E+03  0.38090831870E+04  0.37882536082E+04 0.  0.
        3    1    3    3  502    0 -0.13923464147E+04  0.50147051273E+03  0.13876108806E+04  0.20286855794E+04  0.10100000352E+00 0.  1.
       -3    1    3    3    0  502  0.13923464147E+04 -0.50147051273E+03 -0.98980524222E+03  0.17803976077E+04  0.10100000352E+00 0. -1.
</event>
<event>
 5   0  0.1656617E-07  0.3804036E+04  0.7818609E-02  0.8045289E-01
        1   -1    0    0  501    0  0.00000000000E+00  0.00000000000E+00  0.18594704811E+04  0.18594704811E+04  0.50400001928E-02 0. -1.
       -1   -1    0    0    0  501  0.00000000000E+00  0.00000000000E+00 -0.19455395178E+04  0.19455395178E+04  0.50400001928E-02 0.  1.
    10030    2    1    2    0    0  0.00000000000E+00  0.00000000000E+00 -0.86069036695E+02  0.38050099989E+04  0.38040364368E+04 0.  0.
        5    1    3    3  502    0 -0.91529874494E+02 -0.18855825211E+04 -0.27515435691E+03  0.19077555325E+04  0.46999998093E+01 0. -1.
       -5    1    3    3    0  502  0.91529874494E+02  0.18855825211E+04  0.18908532021E+03  0.18972544664E+04  0.46999998093E+01 0.  1.
</event>
<event>
 5   0  0.1648000E-07  0.3785495E+04  0.7818609E-02  0.8049275E-01
        1   -1    0    0  501    0  0.00000000000E+00  0.00000000000E+00  0.25802112104E+04  0.25802112104E+04  0.50400001928E-02 0. -1.
       -1   -1    0    0    0  501  0.00000000000E+00  0.00000000000E+00 -0.13884494136E+04  0.13884494136E+04  0.50400001928E-02 0.  1.
    10030    2    1    2    0    0  0.00000000000E+00  0.00000000000E+00  0.11917617968E+04  0.39686606240E+04  0.37854948115E+04 0.  0.
        4    1    3    3  502    0  0.12051739257E+04  0.65225781444E+03  0.19646601083E+04  0.23953654004E+04  0.12699999809E+01 0. -1.
       -4    1    3    3    0  502 -0.12051739257E+04 -0.65225781444E+03 -0.77289831145E+03  0.15732952235E+04  0.12699999809E+01 0.  1.
</event>
<event>
 5   0  0.1648000E-07  0.3717594E+04  0.7818609E-02  0.8064074E-01
       -1   -1    0    0    0  501  0.00000000000E+00  0.00000000000E+00  0.24355994613E+04  0.24355994613E+04  0.50400001928E-02 0.  1.
        1   -1    0    0  501    0  0.00000000000E+00  0.00000000000E+00 -0.14185940288E+04  0.14185940288E+04  0.50400001928E-02 0. -1.
    10030    2    1    2    0    0  0.00000000000E+00  0.00000000000E+00  0.10170054325E+04  0.38541934901E+04  0.37175943041E+04 0.  0.
        2    1    3    3  502    0  0.35258860529E+02  0.34639702095E+03 -0.13844829829E+04  0.14275949052E+04  0.25500000920E-02 0. -1.
       -2    1    3    3    0  502 -0.35258860529E+02 -0.34639702095E+03  0.24014884154E+04  0.24265985849E+04  0.25500000920E-02 0.  1.
</event>
<event>
 5   0  0.5158266E-07  0.3871574E+04  0.7818609E-02  0.8030967E-01
       -2   -1    0    0    0  501  0.00000000000E+00  0.00000000000E+00  0.25095266404E+04  0.25095266404E+04  0.25500000920E-02 0. -1.
        2   -1    0    0  501    0  0.00000000000E+00  0.00000000000E+00 -0.14932179969E+04  0.14932179969E+04  0.25500000920E-02 0.  1.
    10030    2    1    2    0    0  0.00000000000E+00  0.00000000000E+00  0.10163086436E+04  0.40027446373E+04  0.38715735009E+04 0.  0.
        2    1    3    3  502    0  0.11011683248E+04 -0.10526508260E+02  0.21541324142E+04  0.24192910005E+04  0.25500000920E-02 0. -1.
       -2    1    3    3    0  502 -0.11011683248E+04  0.10526508260E+02 -0.11378237707E+04  0.15834536368E+04  0.25500000920E-02 0.  1.
</event>
<event>
 5   0  0.1656617E-07  0.3807266E+04  0.7818609E-02  0.8044597E-01
       -1   -1    0    0    0  501  0.00000000000E+00  0.00000000000E+00  0.16557065182E+04  0.16557065183E+04  0.50400001928E-02 0.  1.
        1   -1    0    0  501    0  0.00000000000E+00  0.00000000000E+00 -0.21886838707E+04  0.21886838708E+04  0.50400001928E-02 0. -1.
    10030    2    1    2    0    0  0.00000000000E+00  0.00000000000E+00 -0.53297735250E+03  0.38443903890E+04  0.38072657649E+04 0.  0.
        5    1    3    3  502    0 -0.50865234654E+03 -0.11381043470E+04  0.11862153929E+04  0.17207956772E+04  0.46999998093E+01 0.  1.
       -5    1    3    3    0  502  0.50865234654E+03  0.11381043470E+04 -0.17191927454E+04  0.21235947118E+04  0.46999998093E+01 0. -1.
</event>
<event>
 5   0  0.1648000E-07  0.4193332E+04  0.7818609E-02  0.7966642E-01
       -1   -1    0    0    0  501  0.00000000000E+00  0.00000000000E+00  0.30246957223E+04  0.30246957223E+04  0.50400001928E-02 0. -1.
        1   -1    0    0  501    0  0.00000000000E+00  0.00000000000E+00 -0.14533720208E+04  0.14533720208E+04  0.50400001928E-02 0.  1.
    10030    2    1    2    0    0  0.00000000000E+00  0.00000000000E+00  0.15713237015E+04  0.44780677431E+04  0.41933319136E+04 0.  0.
        3    1    3    3  502    0 -0.12903644233E+04  0.24756211530E+03  0.25305238610E+04  0.28512941565E+04  0.10100000352E+00 0. -1.
       -3    1    3    3    0  502  0.12903644233E+04 -0.24756211530E+03 -0.95920015953E+03  0.16267735866E+04  0.10100000352E+00 0.  1.
</event>
<event>
 5   0  0.5158266E-07  0.3835855E+04  0.7818609E-02  0.8038504E-01
       -2   -1    0    0    0  501  0.00000000000E+00  0.00000000000E+00  0.14350768142E+04  0.14350768142E+04  0.25500000920E-02 0.  1.
        2   -1    0    0  501    0  0.00000000000E+00  0.00000000000E+00 -0.25632403639E+04  0.25632403639E+04  0.25500000920E-02 0. -1.
    10030    2    1    2    0    0  0.00000000000E+00  0.00000000000E+00 -0.11281635498E+04  0.39983171781E+04  0.38358554798E+04 0.  0.
        2    1    3    3  502    0 -0.82445986894E+03 -0.29316537892E+02 -0.23688448362E+04  0.25083898009E+04  0.25500000920E-02 0. -1.
       -2    1    3    3    0  502  0.82445986894E+03  0.29316537892E+02  0.12406812865E+04  0.14899273772E+04  0.25500000920E-02 0.  1.
</event>
<event>
 5   0  0.1648000E-07  0.3790942E+04  0.7818609E-02  0.8048101E-01
        1   -1    0    0  501    0  0.00000000000E+00  0.00000000000E+00  0.26121523449E+04  0.26121523449E+04  0.50400001928E-02 0. -1.
       -1   -1    0    0    0  501  0.00000000000E+00  0.00000000000E+00 -0.13754215643E+04  0.13754215643E+04  0.50400001928E-02 0.  1.
    10030    2    1    2    0    0  0.00000000000E+00  0.00000000000E+00  0.12367307806E+04  0.39875739093E+04  0.37909421861E+04 0.  0.
        2    1    3    3  502    0 -0.11910396493E+04  0.52679447580E+03  0.20670155436E+04  0.24430802532E+04  0.25500000920E-02 0. -1.
       -2    1    3    3    0  502  0.11910396493E+04 -0.52679447580E+03 -0.83028476299E+03  0.15444936561E+04  0.25500000920E-02 0.  1.
</event>
<event>
 5   0  0.1656617E-07  0.3824964E+04  0.7818609E-02  0.8040819E-01
        1   -1    0    0  501    0  0.00000000000E+00  0.00000000000E+00  0.14878774114E+04  0.14878774114E+04  0.50400001928E-02 0.  1.
       -1   -1    0    0    0  501  0.00000000000E+00  0.00000000000E+00 -0.24582579465E+04  0.24582579465E+04  0.50400001928E-02 0. -1.
    10030    2    1    2    0    0  0.00000000000E+00  0.00000000000E+00 -0.97038053506E+03  0.39461353579E+04  0.38249635136E+04 0.  0.
        5    1    3    3  502    0  0.40821986759E+03  0.17656075257E+04  0.14535986917E+03  0.18180112697E+04  0.46999998093E+01 0.  1.
       -5    1    3    3    0  502 -0.40821986759E+03 -0.17656075257E+04 -0.11157404042E+04  0.21281240882E+04  0.46999998093E+01 0. -1.
</event>
<event>
 5   0  0.5202788E-07  0.3794987E+04  0.7818609E-02  0.8047231E-01
        2   -1    0    0  501    0  0.00000000000E+00  0.00000000000E+00  0.12577767141E+04  0.12577767141E+04  0.25500000920E-02 0. -1.
       -2   -1    0    0    0  501  0.00000000000E+00  0.00000000000E+00 -0.28625762518E+04  0.28625762518E+04  0.25500000920E-02 0.  1.
    10030    2    1    2    0    0  0.00000000000E+00  0.00000000000E+00 -0.16047995377E+04  0.41203529660E+04  0.37949870893E+04 0.  0.
        1    1    3    3  502    0  0.14578507049E+04 -0.28467371561E+03 -0.20843561685E+04  0.25594742506E+04  0.50400001928E-02 0.  1.
       -1    1    3    3    0  502 -0.14578507049E+04  0.28467371561E+03  0.47955663080E+03  0.15608787154E+04  0.50400001928E-02 0. -1.
</event>
<event>
 5   0  0.5158266E-07  0.3820066E+04  0.7818609E-02  0.8041862E-01
       -2   -1    0    0    0  501  0.00000000000E+00  0.00000000000E+00  0.14113415532E+04  0.14113415532E+04  0.25500000920E-02 0.  1.
        2   -1    0    0  501    0  0.00000000000E+00  0.00000000000E+00 -0.25849353672E+04  0.25849353672E+04  0.25500000920E-02 0. -1.
    10030    2    1    2    0    0  0.00000000000E+00  0.00000000000E+00 -0.11735938140E+04  0.39962769204E+04  0.38200663324E+04 0.  0.
        2    1    3    3  502    0  0.36611692112E+03  0.97328320919E+03 -0.22628568988E+04  0.24903500055E+04  0.25500000920E-02 0. -1.
       -2    1    3    3    0  502 -0.36611692112E+03 -0.97328320919E+03  0.10892630848E+04  0.15059269149E+04  0.25500000920E-02 0.  1.
</event>
<event>
 5   0  0.5325362E-07  0.3821771E+04  0.7818609E-02  0.8041499E-01
        2   -1    0    0  501    0  0.00000000000E+00  0.00000000000E+00  0.20256155079E+04  0.20256155079E+04  0.25500000920E-02 0. -1.
       -2   -1    0    0    0  501  0.00000000000E+00  0.00000000000E+00 -0.18026537501E+04  0.18026537501E+04  0.25500000920E-02 0.  1.
    10030    2    1    2    0    0  0.00000000000E+00  0.00000000000E+00  0.22296175776E+03  0.38282692580E+04  0.38217709987E+04 0.  0.
        4    1    3    3  502    0  0.10960718775E+04 -0.15433967431E+04  0.37275902699E+03  0.19293516974E+04  0.12699999809E+01 0. -1.
       -4    1    3    3    0  502 -0.10960718775E+04  0.15433967431E+04 -0.14979726923E+03  0.18989175606E+04  0.12699999809E+01 0.  1.
</event>
<event>
 5   0  0.5134434E-07  0.3750573E+04  0.7818609E-02  0.8056846E-01
        2   -1    0    0  501    0  0.00000000000E+00  0.00000000000E+00  0.23379312913E+04  0.23379312913E+04  0.25500000920E-02 0. -1.
       -2   -1    0    0    0  501  0.00000000000E+00  0.00000000000E+00 -0.15041927491E+04  0.15041927491E+04  0.25500000920E-02 0.  1.
    10030    2    1    2    0    0  0.00000000000E+00  0.00000000000E+00  0.83373854221E+03  0.38421240405E+04  0.37505729143E+04 0.  0.
        5    1    3    3  502    0 -0.68668745909E+02  0.15385928303E+04  0.15128892109E+04  0.21588976698E+04  0.46999998093E+01 0. -1.
       -5    1    3    3    0  502  0.68668745909E+02 -0.15385928303E+04 -0.67915066869E+03  0.16832263707E+04  0.46999998093E+01 0.  1.
</event>
<event>
 5   0  0.5325362E-07  0.3774790E+04  0.7818609E-02  0.8051587E-01
        2   -1    0    0  501    0  0.00000000000E+00  0.00000000000E+00  0.19442200054E+04  0.19442200054E+04  0.25500000920E-02 0. -1.
       -2   -1    0    0    0  501  0.00000000000E+00  0.00000000000E+00 -0.18322305813E+04  0.18322305813E+04  0.25500000920E-02 0.  1.
    10030    2    1    2    0    0  0.00000000000E+00  0.00000000000E+00  0.11198942409E+03  0.37764505867E+04  0.37747897163E+04 0.  0.
        4    1    3    3  502    0  0.18150409703E+04 -0.50655663116E+03  0.16226947624E+03  0.18913768372E+04  0.12699999809E+01 0.  1.
       -4    1    3    3    0  502 -0.18150409703E+04  0.50655663116E+03 -0.50280052151E+02  0.18850737495E+04  0.12699999809E+01 0. -1.
</event>
<event>
 5   0  0.5202788E-07  0.3807819E+04  0.7818609E-02  0.8044479E-01
        2   -1    0    0  501    0  0.00000000000E+00  0.00000000000E+00  0.22811507244E+04  0.22811507244E+04  0.25500000920E-02 0.  1.
       -2   -1    0    0    0  501  0.00000000000E+00  0.00000000000E+00 -0.15890535510E+04  0.15890535510E+04  0.25500000920E-02 0. -1.
    10030    2    1    2    0    0  0.00000000000E+00  0.00000000000E+00  0.69209717336E+03  0.38702042754E+04  0.38078186191E+04 0.  0.
        1    1    3    3  502    0  0.11741521299E+04  0.94150228300E+03 -0.83916573870E+03  0.17231537686E+04  0.50400001928E-02 0. -1.
       -1    1    3    3    0  502 -0.11741521299E+04 -0.94150228300E+03  0.15312629121E+04  0.21470505069E+04  0.50400001928E-02 0.  1.
</event>
<event>
 5   0  0.1648000E-07  0.3088710E+04  0.7818609E-02  0.8218843E-01
        1   -1    0    0  501    0  0.00000000000E+00  0.00000000000E+00  0.15765987516E+04  0.15765987516E+04  0.50400001928E-02 0.  1.
       -1   -1    0    0    0  501  0.00000000000E+00  0.00000000000E+00 -0.15127704694E+04  0.15127704694E+04  0.50400001928E-02 0. -1.
    10030    2    1    2    0    0  0.00000000000E+00  0.00000000000E+00  0.63828282235E+02  0.30893692210E+04  0.30887097847E+04 0.  0.
        4    1    3    3  502    0 -0.67179875821E+02  0.11716417812E+04  0.10360073561E+04  0.15654297985E+04  0.12699999809E+01 0.  1.
       -4    1    3    3    0  502  0.67179875821E+02 -0.11716417812E+04 -0.97217907388E+03  0.15239394226E+04  0.12699999809E+01 0. -1.
</event>
<event>
 5   0  0.5158266E-07  0.3777109E+04  0.7818609E-02  0.8051085E-01
       -2   -1    0    0    0  501  0.00000000000E+00  0.00000000000E+00  0.17589780914E+04  0.17589780914E+04  0.25500000920E-02 0.  1.
        2   -1    0    0  501    0  0.00000000000E+00  0.00000000000E+00 -0.20276759075E+04  0.20276759075E+04  0.25500000920E-02 0. -1.
    10030    2    1    2    0    0  0.00000000000E+00  0.00000000000E+00 -0.26869781619E+03  0.37866539989E+04  0.37771086814E+04 0.  0.
        2    1    3    3  502    0  0.18108801406E+03  0.18101965412E+04  0.37391664738E+03  0.18572608987E+04  0.25500000920E-02 0.  1.
       -2    1    3    3    0  502 -0.18108801406E+03 -0.18101965412E+04 -0.64261446356E+03  0.19293931002E+04  0.25500000920E-02 0. -1.
</event>
<event>
 5   0  0.5132561E-07  0.3852637E+04  0.7818609E-02  0.8034953E-01
        2   -1    0    0  501    0  0.00000000000E+00  0.00000000000E+00  0.21081114812E+04  0.21081114812E+04  0.25500000920E-02 0.  1.
       -2   -1    0    0    0  501  0.00000000000E+00  0.00000000000E+00 -0.17602024297E+04  0.17602024297E+04  0.25500000920E-02 0. -1.
    10030    2    1    2    0    0  0.00000000000E+00  0.00000000000E+00  0.34790905146E+03  0.38683139109E+04  0.38526369937E+04 0.  0.
        3    1    3    3  502    0 -0.10102539811E+04  0.13419570856E+04  0.11207874732E+04  0.20193133725E+04  0.10100000352E+00 0.  1.
       -3    1    3    3    0  502  0.10102539811E+04 -0.13419570856E+04 -0.77287842177E+03  0.18490005384E+04  0.10100000352E+00 0. -1.
</event>
<event>
 5   0  0.5134434E-07  0.2740830E+04  0.7818609E-02  0.8321877E-01
       -2   -1    0    0    0  501  0.00000000000E+00  0.00000000000E+00  0.74262605332E+03  0.74262605332E+03  0.25500000920E-02 0.  1.
        2   -1    0    0  501    0  0.00000000000E+00  0.00000000000E+00 -0.25289145014E+04  0.25289145014E+04  0.25500000920E-02 0. -1.
    10030    2    1    2    0    0  0.00000000000E+00  0.00000000000E+00 -0.17862884481E+04  0.32715405548E+04  0.27408303818E+04 0.  0.
        5    1    3    3  502    0 -0.23209909192E+03  0.12791145645E+04 -0.14107063956E+04  0.19183635427E+04  0.46999998093E+01 0. -1.
       -5    1    3    3    0  502  0.23209909192E+03 -0.12791145645E+04 -0.37558205256E+03  0.13531770120E+04  0.46999998093E+01 0.  1.
</event>
<event>
 5   0  0.5202788E-07  0.3800330E+04  0.7818609E-02  0.8046084E-01
        2   -1    0    0  501    0  0.00000000000E+00  0.00000000000E+00  0.17590945072E+04  0.17590945072E+04  0.25500000920E-02 0. -1.
       -2   -1    0    0    0  501  0.00000000000E+00  0.00000000000E+00 -0.20525491032E+04  0.20525491032E+04  0.25500000920E-02 0.  1.
    10030    2    1    2    0    0  0.00000000000E+00  0.00000000000E+00 -0.29345459601E+03  0.38116436104E+04  0.38003304347E+04 0.  0.
        1    1    3    3  502    0  0.21106126967E+03  0.76100181501E+03  0.15866991940E+04  0.17723670484E+04  0.50400001928E-02 0. -1.
       -1    1    3    3    0  502 -0.21106126967E+03 -0.76100181501E+03 -0.18801537900E+04  0.20392765620E+04  0.50400001928E-02 0.  1.
</event>
<event>
 5   0  0.1648000E-07  0.3792521E+04  0.7818609E-02  0.8047762E-01
       -1   -1    0    0    0  501  0.00000000000E+00  0.00000000000E+00  0.14383058010E+04  0.14383058010E+04  0.50400001928E-02 0.  1.
        1   -1    0    0  501    0  0.00000000000E+00  0.00000000000E+00 -0.25000275609E+04  0.25000275609E+04  0.50400001928E-02 0. -1.
    10030    2    1    2    0    0  0.00000000000E+00  0.00000000000E+00 -0.10617217600E+04  0.39383333619E+04  0.37925211369E+04 0.  0.
        1    1    3    3  502    0  0.90914959674E+03  0.82520505034E+03 -0.20315116588E+04  0.23737219686E+04  0.50400001928E-02 0. -1.
       -1    1    3    3    0  502 -0.90914959674E+03 -0.82520505034E+03  0.96978989878E+03  0.15646113933E+04  0.50400001928E-02 0.  1.
</event>
<event>
 5   0  0.5158266E-07  0.3849120E+04  0.7818609E-02  0.8035695E-01
        2   -1    0    0  501    0  0.00000000000E+00  0.00000000000E+00  0.31336653994E+04  0.31336653994E+04  0.25500000920E-02 0. -1.
       -2   -1    0    0    0  501  0.00000000000E+00  0.00000000000E+00 -0.11819805044E+04  0.11819805044E+04  0.25500000920E-02 0.  1.
    10030    2    1    2    0    0  0.00000000000E+00  0.00000000000E+00  0.19516848950E+04  0.43156459038E+04  0.38491201121E+04 0.  0.
        2    1    3    3  502    0  0.17628031005E+04 -0.56883066730E+02  0.18394025758E+04  0.25483548203E+04  0.25500000920E-02 0. -1.
       -2    1    3    3    0  502 -0.17628031005E+04  0.56883066730E+02  0.11228231916E+03  0.17672910834E+04  0.25500000920E-02 0.  1.
</event>
<event>
 5   0  0.1656617E-07  0.3768211E+04  0.7818609E-02  0.8053011E-01
       -1   -1    0    0    0  501  0.00000000000E+00  0.00000000000E+00  0.16201799482E+04  0.16201799482E+04  0.50400001928E-02 0.  1.
        1   -1    0    0  501    0  0.00000000000E+00  0.00000000000E+00 -0.21910237779E+04  0.21910237779E+04  0.50400001928E-02 0. -1.
    10030    2    1    2    0    0  0.00000000000E+00  0.00000000000E+00 -0.57084382977E+03  0.38112037261E+04  0.37682106050E+04 0.  0.
        5    1    3    3  502    0 -0.72892428913E+03 -0.58278860359E+03 -0.19408175475E+04  0.21535477748E+04  0.46999998093E+01 0. -1.
       -5    1    3    3    0  502  0.72892428913E+03  0.58278860359E+03  0.13699737177E+04  0.16576559513E+04  0.46999998093E+01 0.  1.
</event>
<event>
 5   0  0.5134434E-07  0.3787665E+04  0.7818609E-02  0.8048807E-01
        2   -1    0    0  501    0  0.00000000000E+00  0.00000000000E+00  0.22661369444E+04  0.22661369444E+04  0.25500000920E-02 0.  1.
       -2   -1    0    0    0  501  0.00000000000E+00  0.00000000000E+00 -0.15826937135E+04  0.15826937136E+04  0.25500000920E-02 0. -1.
    10030    2    1    2    0    0  0.00000000000E+00  0.00000000000E+00  0.68344323084E+03  0.38488306579E+04  0.37876645553E+04 0.  0.
        5    1    3    3  502    0  0.22572141658E+02 -0.18204991737E+04  0.87153564003E+03  0.20184952823E+04  0.46999998093E+01 0. -1.
       -5    1    3    3    0  502 -0.22572141658E+02  0.18204991737E+04 -0.18809240919E+03  0.18303353756E+04  0.46999998093E+01 0.  1.
</event>
<event>
 5   0  0.1648000E-07  0.3855203E+04  0.7818609E-02  0.8034411E-01
       -1   -1    0    0    0  501  0.00000000000E+00  0.00000000000E+00  0.15385205010E+04  0.15385205010E+04  0.50400001928E-02 0. -1.
        1   -1    0    0  501    0  0.00000000000E+00  0.00000000000E+00 -0.24150782973E+04  0.24150782973E+04  0.50400001928E-02 0.  1.
    10030    2    1    2    0    0  0.00000000000E+00  0.00000000000E+00 -0.87655779627E+03  0.39535987983E+04  0.38552029632E+04 0.  0.
        4    1    3    3  502    0  0.94153222934E+03  0.42958390411E+03 -0.21060138718E+04  0.23465552008E+04  0.12699999809E+01 0.  1.
       -4    1    3    3    0  502 -0.94153222934E+03 -0.42958390411E+03  0.12294560755E+04  0.16070435974E+04  0.12699999809E+01 0. -1.
</event>
<event>
 5   0  0.5325362E-07  0.3213852E+04  0.7818609E-02  0.8185169E-01
       -2   -1    0    0    0  501  0.00000000000E+00  0.00000000000E+00  0.11612225181E+04  0.11612225181E+04  0.25500000920E-02 0.  1.
        2   -1    0    0  501    0  0.00000000000E+00  0.00000000000E+00 -0.22237001401E+04  0.22237001401E+04  0.25500000920E-02 0. -1.
    10030    2    1    2    0    0  0.00000000000E+00  0.00000000000E+00 -0.10624776219E+04  0.33849226582E+04  0.32138516930E+04 0.  0.
        4    1    3    3  502    0 -0.46870835371E+03  0.62511664383E+03 -0.20101732514E+04  0.21566771786E+04  0.12699999809E+01 0. -1.
       -4    1    3    3    0  502  0.46870835371E+03 -0.62511664383E+03  0.94769562941E+03  0.12282454796E+04  0.12699999809E+01 0.  1.
</event>
<event>
 5   0  0.1648000E-07  0.3834325E+04  0.7818609E-02  0.8038829E-01
       -1   -1    0    0    0  501  0.00000000000E+00  0.00000000000E+00  0.13074166580E+04  0.13074166580E+04  0.50400001928E-02 0.  1.
        1   -1    0    0  501    0  0.00000000000E+00  0.00000000000E+00 -0.28112782925E+04  0.28112782925E+04  0.50400001928E-02 0. -1.
    10030    2    1    2    0    0  0.00000000000E+00  0.00000000000E+00 -0.15038616345E+04  0.41186949505E+04  0.38343250097E+04 0.  0.
        1    1    3    3  502    0 -0.76682305645E+03 -0.17118910617E+04 -0.32641604028E+03  0.19039790016E+04  0.50400001928E-02 0.  1.
       -1    1    3    3    0  502  0.76682305645E+03  0.17118910617E+04 -0.11774455942E+04  0.22147159489E+04  0.50400001928E-02 0. -1.
</event>
<event>
 5   0  0.5202788E-07  0.3776053E+04  0.7818609E-02  0.8051313E-01
        2   -1    0    0  501    0  0.00000000000E+00  0.00000000000E+00  0.27364080019E+04  0.27364080019E+04  0.25500000920E-02 0.  1.
       -2   -1    0    0    0  501  0.00000000000E+00  0.00000000000E+00 -0.13026726846E+04  0.13026726846E+04  0.25500000920E-02 0. -1.
    10030    2    1    2    0    0  0.00000000000E+00  0.00000000000E+00  0.14337353173E+04  0.40390806865E+04  0.37760529435E+04 0.  0.
        1    1    3    3  502    0 -0.13131796285E+04  0.96190584656E+03  0.17400212848E+04  0.23827248406E+04  0.50400001928E-02 0.  1.
       -1    1    3    3    0  502  0.13131796285E+04 -0.96190584656E+03 -0.30628596752E+03  0.16563558459E+04  0.50400001928E-02 0. -1.
</event>
<event>
 5   0  0.1648000E-07  0.3778184E+04  0.7818609E-02  0.8050853E-01
        1   -1    0    0  501    0  0.00000000000E+00  0.00000000000E+00  0.23176642538E+04  0.23176642538E+04  0.50400001928E-02 0.  1.
       -1   -1    0    0    0  501  0.00000000000E+00  0.00000000000E+00 -0.15397697296E+04  0.15397697296E+04  0.50400001928E-02 0. -1.
    10030    2    1    2    0    0  0.00000000000E+00  0.00000000000E+00  0.77789452414E+03  0.38574339834E+04  0.37781843583E+04 0.  0.
        4    1    3    3  502    0  0.11968584135E+04  0.14379187087E+04  0.65633251057E+03  0.19826382050E+04  0.12699999809E+01 0. -1.
       -4    1    3    3    0  502 -0.11968584135E+04 -0.14379187087E+04  0.12156201358E+03  0.18747957784E+04  0.12699999809E+01 0.  1.
</event>
<event>
 5   0  0.5132561E-07  0.3882908E+04  0.7818609E-02  0.8028593E-01
       -2   -1    0    0    0  501  0.00000000000E+00  0.00000000000E+00  0.15729764781E+04  0.15729764781E+04  0.25500000920E-02 0.  1.
        2   -1    0    0  501    0  0.00000000000E+00  0.00000000000E+00 -0.23962489789E+04  0.23962489789E+04  0.25500000920E-02 0. -1.
    10030    2    1    2    0    0  0.00000000000E+00  0.00000000000E+00 -0.82327250080E+03  0.39692254570E+04  0.38829078174E+04 0.  0.
        3    1    3    3  502    0 -0.14749830329E+04  0.10458900371E+04  0.31103228502E+03  0.18347212349E+04  0.10100000352E+00 0.  1.
       -3    1    3    3    0  502  0.14749830329E+04 -0.10458900371E+04 -0.11343047858E+04  0.21345042222E+04  0.10100000352E+00 0. -1.
</event>
<event>
 5   0  0.1648000E-07  0.3847524E+04  0.7818609E-02  0.8036033E-01
       -1   -1    0    0    0  501  0.00000000000E+00  0.00000000000E+00  0.19611273977E+04  0.19611273977E+04  0.50400001928E-02 0. -1.
        1   -1    0    0  501    0  0.00000000000E+00  0.00000000000E+00 -0.18871087099E+04  0.18871087099E+04  0.50400001928E-02 0.  1.
    10030    2    1    2    0    0  0.00000000000E+00  0.00000000000E+00  0.74018687840E+02  0.38482361076E+04  0.38475241876E+04 0.  0.
        3    1    3    3  502    0 -0.16463360168E+04 -0.44778809843E+03 -0.85193186542E+03  0.19070197625E+04  0.10100000352E+00 0.  1.
       -3    1    3    3    0  502  0.16463360168E+04  0.44778809843E+03  0.92595055326E+03  0.19412163451E+04  0.10100000352E+00 0. -1.
</event>
<event>
 5   0  0.5202788E-07  0.3726410E+04  0.7818609E-02  0.8062134E-01
       -2   -1    0    0    0  501  0.00000000000E+00  0.00000000000E+00  0.20691986640E+04  0.20691986640E+04  0.25500000920E-02 0. -1.
        2   -1    0    0  501    0  0.00000000000E+00  0.00000000000E+00 -0.16777185436E+04  0.16777185436E+04  0.25500000920E-02 0.  1.
    10030    2    1    2    0    0  0.00000000000E+00  0.00000000000E+00  0.39148012042E+03  0.37469172076E+04  0.37264100521E+04 0.  0.
        1    1    3    3  502    0  0.57329319694E+03  0.24026001884E+03  0.19618637010E+04  0.20579842438E+04  0.50400001928E-02 0. -1.
       -1    1    3    3    0  502 -0.57329319694E+03 -0.24026001884E+03 -0.15703835806E+04  0.16889329639E+04  0.50400001928E-02 0.  1.
</event>
<event>
 5   0  0.1648000E-07  0.3810860E+04  0.7818609E-02  0.8043828E-01
       -1   -1    0    0    0  501  0.00000000000E+00  0.00000000000E+00  0.12472925210E+04  0.12472925210E+04  0.50400001928E-02 0.  1.
        1   -1    0    0  501    0  0.00000000000E+00  0.00000000000E+00 -0.29108348527E+04  0.29108348527E+04  0.50400001928E-02 0. -1.
    10030    2    1    2    0    0  0.00000000000E+00  0.00000000000E+00 -0.16635423317E+04  0.41581273737E+04  0.38108595050E+04 0.  0.
        4    1    3    3  502    0  0.10996242546E+04 -0.19214326779E+03  0.85315060669E+03  0.14049769063E+04  0.12699999809E+01 0.  1.
       -4    1    3    3    0  502 -0.10996242546E+04  0.19214326779E+03 -0.25166929384E+04  0.27531504674E+04  0.12699999809E+01 0. -1.
</event>
<event>
 5   0  0.5132561E-07  0.3783512E+04  0.7818609E-02  0.8049702E-01
        2   -1    0    0  501    0  0.00000000000E+00  0.00000000000E+00  0.20254624713E+04  0.20254624713E+04  0.25500000920E-02 0.  1.
       -2   -1    0    0    0  501  0.00000000000E+00  0.00000000000E+00 -0.17668762621E+04  0.17668762621E+04  0.25500000920E-02 0. -1.
    10030    2    1    2    0    0  0.00000000000E+00  0.00000000000E+00  0.25858620921E+03  0.37923387334E+04  0.37835124212E+04 0.  0.
        3    1    3    3  502    0  0.66132253671E+02  0.17457440260E+04  0.85675881542E+03  0.19457726890E+04  0.10100000352E+00 0.  1.
       -3    1    3    3    0  502 -0.66132253671E+02 -0.17457440260E+04 -0.59817260621E+03  0.18465660444E+04  0.10100000352E+00 0. -1.
</event>
<event>
 5   0  0.1648000E-07  0.3746407E+04  0.7818609E-02  0.8057755E-01
       -1   -1    0    0    0  501  0.00000000000E+00  0.00000000000E+00  0.24561615597E+04  0.24561615597E+04  0.50400001928E-02 0. -1.
        1   -1    0    0  501    0  0.00000000000E+00  0.00000000000E+00 -0.14286077077E+04  0.14286077077E+04  0.50400001928E-02 0.  1.
    10030    2    1    2    0    0  0.00000000000E+00  0.00000000000E+00  0.10275538520E+04  0.38847692674E+04  0.37464069910E+04 0.  0.
        4    1    3    3  502    0 -0.21865997050E+03 -0.70644903019E+03  0.22983869867E+04  0.24144288700E+04  0.12699999809E+01 0. -1.
       -4    1    3    3    0  502  0.21865997050E+03  0.70644903019E+03 -0.12708331347E+04  0.14703403974E+04  0.12699999809E+01 0.  1.
</event>
<event>
 5   0  0.1648000E-07  0.3781840E+04  0.7818609E-02  0.8050063E-01
        3   -1    0    0  501    0  0.00000000000E+00  0.00000000000E+00  0.13408116883E+04  0.13408116921E+04  0.10100000352E+00 0. -1.
       -3   -1    0    0    0  501  0.00000000000E+00  0.00000000000E+00 -0.26667270978E+04  0.26667270997E+04  0.10100000352E+00 0.  1.
    10030    2    1    2    0    0  0.00000000000E+00  0.00000000000E+00 -0.13259154095E+04  0.40075387917E+04  0.37818402259E+04 0.  0.
        5    1    3    3  502    0 -0.12652876039E+04  0.10367047454E+04  0.34225732867E+03  0.16711886844E+04  0.46999998093E+01 0. -1.
       -5    1    3    3    0  502  0.12652876039E+04 -0.10367047454E+04 -0.16681727382E+04  0.23363501074E+04  0.46999998093E+01 0.  1.
</event>
<event>
 5   0  0.1648000E-07  0.3796243E+04  0.7818609E-02  0.8046962E-01
       -1   -1    0    0    0  501  0.00000000000E+00  0.00000000000E+00  0.23090620240E+04  0.23090620240E+04  0.50400001928E-02 0. -1.
        1   -1    0    0  501    0  0.00000000000E+00  0.00000000000E+00 -0.15603158194E+04  0.15603158194E+04  0.50400001928E-02 0.  1.
    10030    2    1    2    0    0  0.00000000000E+00  0.00000000000E+00  0.74874620457E+03  0.38693778434E+04  0.37962434085E+04 0.  0.
        4    1    3    3  502    0 -0.74234877550E+03 -0.14609869458E+04 -0.60183576095E+03  0.17457870592E+04  0.12699999809E+01 0.  1.
       -4    1    3    3    0  502  0.74234877550E+03  0.14609869458E+04  0.13505819655E+04  0.21235907842E+04  0.12699999809E+01 0. -1.
</event>
<event>
 5   0  0.1656617E-07  0.3820153E+04  0.7818609E-02  0.8041844E-01
       -1   -1    0    0    0  501  0.00000000000E+00  0.00000000000E+00  0.11843169191E+04  0.11843169191E+04  0.50400001928E-02 0.  1.
        1   -1    0    0  501    0  0.00000000000E+00  0.00000000000E+00 -0.30805870995E+04  0.30805870995E+04  0.50400001928E-02 0. -1.
    10030    2    1    2    0    0  0.00000000000E+00  0.00000000000E+00 -0.18962701804E+04  0.42649040186E+04  0.38201525743E+04 0.  0.
        5    1    3    3  502    0  0.18143998643E+04  0.58180623368E+03 -0.10971846835E+04  0.21987227385E+04  0.46999998093E+01 0.  1.
       -5    1    3    3    0  502 -0.18143998643E+04 -0.58180623368E+03 -0.79908549689E+03  0.20661812801E+04  0.46999998093E+01 0. -1.
</event>
<event>
 5   0  0.5158266E-07  0.3309208E+04  0.7818609E-02  0.8160556E-01
       -2   -1    0    0    0  501  0.00000000000E+00  0.00000000000E+00  0.15347416193E+04  0.15347416193E+04  0.25500000920E-02 0.  1.
        2   -1    0    0  501    0  0.00000000000E+00  0.00000000000E+00 -0.17838276305E+04  0.17838276305E+04  0.25500000920E-02 0. -1.
    10030    2    1    2    0    0  0.00000000000E+00  0.00000000000E+00 -0.24908601115E+03  0.33185692498E+04  0.33092080661E+04 0.  0.
        2    1    3    3  502    0  0.65384929872E+03  0.53540810341E+03 -0.15510767130E+04  0.17663577532E+04  0.25500000920E-02 0. -1.
       -2    1    3    3    0  502 -0.65384929872E+03 -0.53540810341E+03  0.13019907018E+04  0.15522114966E+04  0.25500000920E-02 0.  1.
</event>
<event>
 5   0  0.5325362E-07  0.3785001E+04  0.7818609E-02  0.8049381E-01
        2   -1    0    0  501    0  0.00000000000E+00  0.00000000000E+00  0.18645484823E+04  0.18645484823E+04  0.25500000920E-02 0.  1.
       -2   -1    0    0    0  501  0.00000000000E+00  0.00000000000E+00 -0.19208715741E+04  0.19208715741E+04  0.25500000920E-02 0. -1.
    10030    2    1    2    0    0  0.00000000000E+00  0.00000000000E+00 -0.56323091750E+02  0.37854200564E+04  0.37850010189E+04 0.  0.
        4    1    3    3  502    0  0.29657348217E+02  0.18052129086E+04  0.53924892008E+03  0.18842675539E+04  0.12699999809E+01 0. -1.
       -4    1    3    3    0  502 -0.29657348217E+02 -0.18052129086E+04 -0.59557201183E+03  0.19011525026E+04  0.12699999809E+01 0.  1.
</event>
<event>
 5   0  0.5134434E-07  0.3891014E+04  0.7818609E-02  0.8026901E-01
       -2   -1    0    0    0  501  0.00000000000E+00  0.00000000000E+00  0.21912625161E+04  0.21912625161E+04  0.25500000920E-02 0.  1.
        2   -1    0    0  501    0  0.00000000000E+00  0.00000000000E+00 -0.17273131978E+04  0.17273131978E+04  0.25500000920E-02 0. -1.
    10030    2    1    2    0    0  0.00000000000E+00  0.00000000000E+00  0.46394931830E+03  0.39185757139E+04  0.38910135769E+04 0.  0.
        5    1    3    3  502    0 -0.51278884592E+03  0.35218478944E+03  0.20883954336E+04  0.21790833172E+04  0.46999998093E+01 0.  1.
       -5    1    3    3    0  502  0.51278884592E+03 -0.35218478944E+03 -0.16244461153E+04  0.17394923966E+04  0.46999998093E+01 0. -1.
</event>
<event>
 5   0  0.5134434E-07  0.3781779E+04  0.7818609E-02  0.8050076E-01
       -2   -1    0    0    0  501  0.00000000000E+00  0.00000000000E+00  0.21891440184E+04  0.21891440185E+04  0.25500000920E-02 0. -1.
        2   -1    0    0  501    0  0.00000000000E+00  0.00000000000E+00 -0.16332701006E+04  0.16332701006E+04  0.25500000920E-02 0.  1.
    10030    2    1    2    0    0  0.00000000000E+00  0.00000000000E+00  0.55587391788E+03  0.38224141190E+04  0.37817791957E+04 0.  0.
        5    1    3    3  502    0 -0.15081851676E+04 -0.10547435856E+04  0.71657562634E+03  0.19749960125E+04  0.46999998093E+01 0. -1.
       -5    1    3    3    0  502  0.15081851676E+04  0.10547435856E+04 -0.16070170846E+03  0.18474181065E+04  0.46999998093E+01 0.  1.
</event>
<event>
 5   0  0.1648000E-07  0.2829557E+04  0.7818609E-02  0.8294150E-01
       -1   -1    0    0    0  501  0.00000000000E+00  0.00000000000E+00  0.12537791771E+04  0.12537791771E+04  0.50400001928E-02 0.  1.
        1   -1    0    0  501    0  0.00000000000E+00  0.00000000000E+00 -0.15964519807E+04  0.15964519807E+04  0.50400001928E-02 0. -1.
    10030    2    1    2    0    0  0.00000000000E+00  0.00000000000E+00 -0.34267280362E+03  0.28502311578E+04  0.28295570329E+04 0.  0.
        4    1    3    3  502    0  0.13094698865E+04  0.28455297148E+03 -0.62843035508E+03  0.14800703028E+04  0.12699999809E+01 0. -1.
       -4    1    3    3    0  502 -0.13094698865E+04 -0.28455297148E+03  0.28575755146E+03  0.13701608549E+04  0.12699999809E+01 0.  1.
</event>
<event>
 5   0  0.1648000E-07  0.3860605E+04  0.7818609E-02  0.8033273E-01
       -1   -1    0    0    0  501  0.00000000000E+00  0.00000000000E+00  0.24150453394E+04  0.24150453394E+04  0.50400001928E-02 0.  1.
        1   -1    0    0  501    0  0.00000000000E+00  0.00000000000E+00 -0.15428565091E+04  0.15428565092E+04  0.50400001928E-02 0. -1.
    10030    2    1    2    0    0  0.00000000000E+00  0.00000000000E+00  0.87218883030E+03  0.39579018486E+04  0.38606053525E+04 0.  0.
        1    1    3    3  502    0 -0.18109667005E+04  0.43031590603E+03  0.96014861037E+03  0.20944348936E+04  0.50400001928E-02 0.  1.
       -1    1    3    3    0  502  0.18109667005E+04 -0.43031590603E+03 -0.87959780065E+02  0.18634669550E+04  0.50400001928E-02 0. -1.
</event>
<event>
 5   0  0.5132561E-07  0.3912679E+04  0.7818609E-02  0.8022397E-01
        2   -1    0    0  501    0  0.00000000000E+00  0.00000000000E+00  0.21115498144E+04  0.21115498144E+04  0.25500000920E-02 0. -1.
       -2   -1    0    0    0  501  0.00000000000E+00  0.00000000000E+00 -0.18125382699E+04  0.18125382699E+04  0.25500000920E-02 0.  1.
    10030    2    1    2    0    0  0.00000000000E+00  0.00000000000E+00  0.29901154459E+03  0.39240880843E+04  0.39126793109E+04 0.  0.
        3    1    3    3  502    0  0.39180930920E+03  0.26140136838E+03  0.20538366216E+04  0.21071521275E+04  0.10100000352E+00 0. -1.
       -3    1    3    3    0  502 -0.39180930920E+03 -0.26140136838E+03 -0.17548250770E+04  0.18169359568E+04  0.10100000352E+00 0.  1.
</event>
<event>
 5   0  0.5202788E-07  0.3846719E+04  0.7818609E-02  0.8036203E-01
       -2   -1    0    0    0  501  0.00000000000E+00  0.00000000000E+00  0.18951614260E+04  0.18951614260E+04  0.25500000920E-02 0. -1.
        2   -1    0    0  501    0  0.00000000000E+00  0.00000000000E+00 -0.19519775816E+04  0.19519775816E+04  0.25500000920E-02 0.  1.
    10030    2    1    2    0    0  0.00000000000E+00  0.00000000000E+00 -0.56816155605E+02  0.38471390075E+04  0.38467194423E+04 0.  0.
        1    1    3    3  502    0  0.16899592496E+04 -0.24242770546E+03 -0.91426942023E+03  0.19366522741E+04  0.50400001928E-02 0.  1.
       -1    1    3    3    0  502 -0.16899592496E+04  0.24242770546E+03  0.85745326462E+03  0.19104867335E+04  0.50400001928E-02 0. -1.
</event>
<event>
 5   0  0.5134434E-07  0.3792798E+04  0.7818609E-02  0.8047702E-01
       -2   -1    0    0    0  501  0.00000000000E+00  0.00000000000E+00  0.21202113190E+04  0.21202113190E+04  0.25500000920E-02 0. -1.
        2   -1    0    0  501    0  0.00000000000E+00  0.00000000000E+00 -0.16962126990E+04  0.16962126990E+04  0.25500000920E-02 0.  1.
    10030    2    1    2    0    0  0.00000000000E+00  0.00000000000E+00  0.42399862008E+03  0.38164240180E+04  0.37927981037E+04 0.  0.
        5    1    3    3  502    0 -0.95620251398E+03  0.15703903124E+04 -0.25550031196E+03  0.18562735468E+04  0.46999998093E+01 0.  1.
       -5    1    3    3    0  502  0.95620251398E+03 -0.15703903124E+04  0.67949893204E+03  0.19601504712E+04  0.46999998093E+01 0. -1.
</event>
<event>
 5   0  0.1648000E-07  0.3762344E+04  0.7818609E-02  0.8054284E-01
       -1   -1    0    0    0  501  0.00000000000E+00  0.00000000000E+00  0.21434582384E+04  0.21434582384E+04  0.50400001928E-02 0. -1.
        1   -1    0    0  501    0  0.00000000000E+00  0.00000000000E+00 -0.16509802667E+04  0.16509802667E+04  0.50400001928E-02 0.  1.
    10030    2    1    2    0    0  0.00000000000E+00  0.00000000000E+00  0.49247797176E+03  0.37944385051E+04  0.37623435537E+04 0.  0.
        3    1    3    3  502    0  0.11583396678E+04 -0.52335321978E+03  0.16448486873E+04  0.20787439941E+04  0.10100000352E+00 0. -1.
       -3    1    3    3    0  502 -0.11583396678E+04  0.52335321978E+03 -0.11523707156E+04  0.17156945110E+04  0.10100000352E+00 0.  1.
</event>
<event>
 5   0  0.5158266E-07  0.3790406E+04  0.7818609E-02  0.8048217E-01
        2   -1    0    0  501    0  0.00000000000E+00  0.00000000000E+00  0.18070301875E+04  0.18070301875E+04  0.25500000920E-02 0.  1.
       -2   -1    0    0    0  501  0.00000000000E+00  0.00000000000E+00 -0.19876779189E+04  0.19876779189E+04  0.25500000920E-02 0. -1.
    10030    2    1    2    0    0  0.00000000000E+00  0.00000000000E+00 -0.18064773142E+03  0.37947081063E+04  0.37904057843E+04 0.  0.
        2    1    3    3  502    0  0.75437826826E+03 -0.71477036650E+03  0.14963443670E+04  0.18218204393E+04  0.25500000920E-02 0.  1.
       -2    1    3    3    0  502 -0.75437826826E+03  0.71477036650E+03 -0.16769920984E+04  0.19728876670E+04  0.25500000920E-02 0. -1.
</event>
<event>
 5   0  0.1648000E-07  0.3755598E+04  0.7818609E-02  0.8055751E-01
       -1   -1    0    0    0  501  0.00000000000E+00  0.00000000000E+00  0.12922291446E+04  0.12922291446E+04  0.50400001928E-02 0. -1.
        1   -1    0    0  501    0  0.00000000000E+00  0.00000000000E+00 -0.27287175963E+04  0.27287175963E+04  0.50400001928E-02 0.  1.
    10030    2    1    2    0    0  0.00000000000E+00  0.00000000000E+00 -0.14364884517E+04  0.40209467409E+04  0.37555976384E+04 0.  0.
        1    1    3    3  502    0  0.14332399353E+04 -0.51985434767E+03 -0.18919192511E+04  0.24297702994E+04  0.50400001928E-02 0.  1.
       -1    1    3    3    0  502 -0.14332399353E+04  0.51985434767E+03  0.45543079938E+03  0.15911764415E+04  0.50400001928E-02 0. -1.
</event>
<event>
 5   0  0.5132561E-07  0.3740797E+04  0.7818609E-02  0.8058980E-01
       -2   -1    0    0    0  501  0.00000000000E+00  0.00000000000E+00  0.13017518727E+04  0.13017518727E+04  0.25500000920E-02 0. -1.
        2   -1    0    0  501    0  0.00000000000E+00  0.00000000000E+00 -0.26874480147E+04  0.26874480147E+04  0.25500000920E-02 0.  1.
    10030    2    1    2    0    0  0.00000000000E+00  0.00000000000E+00 -0.13856961420E+04  0.39891998874E+04  0.37407969664E+04 0.  0.
        3    1    3    3  502    0 -0.10785564270E+04  0.12523917604E+04 -0.16265583213E+04  0.23189353313E+04  0.10100000352E+00 0.  1.
       -3    1    3    3    0  502  0.10785564270E+04 -0.12523917604E+04  0.24086217936E+03  0.16702645561E+04  0.10100000352E+00 0. -1.
</event>
<event>
 5   0  0.5158266E-07  0.3295551E+04  0.7818609E-02  0.8164028E-01
        2   -1    0    0  501    0  0.00000000000E+00  0.00000000000E+00  0.24855293792E+04  0.24855293792E+04  0.25500000920E-02 0. -1.
       -2   -1    0    0    0  501  0.00000000000E+00  0.00000000000E+00 -0.10923887808E+04  0.10923887808E+04  0.25500000920E-02 0.  1.
    10030    2    1    2    0    0  0.00000000000E+00  0.00000000000E+00  0.13931405985E+04  0.35779181600E+04  0.32955511880E+04 0.  0.
        2    1    3    3  502    0 -0.72555708019E+03  0.43024837829E+03  0.22333434586E+04  0.23873352818E+04  0.25500000920E-02 0. -1.
       -2    1    3    3    0  502  0.72555708019E+03 -0.43024837829E+03 -0.84020286015E+03  0.11905828782E+04  0.25500000920E-02 0.  1.
</event>
<event>
 5   0  0.1648000E-07  0.3841723E+04  0.7818609E-02  0.8037260E-01
        1   -1    0    0  501    0  0.00000000000E+00  0.00000000000E+00  0.22383010716E+04  0.22383010716E+04  0.50400001928E-02 0.  1.
       -1   -1    0    0    0  501  0.00000000000E+00  0.00000000000E+00 -0.16484418366E+04  0.16484418366E+04  0.50400001928E-02 0. -1.
    10030    2    1    2    0    0  0.00000000000E+00  0.00000000000E+00  0.58985923496E+03  0.38867429082E+04  0.38417231183E+04 0.  0.
        1    1    3    3  502    0 -0.11062826501E+04  0.10997126768E+04  0.14289934989E+04  0.21154790695E+04  0.50400001928E-02 0.  1.
       -1    1    3    3    0  502  0.11062826501E+04 -0.10997126768E+04 -0.83913426397E+03  0.17712638387E+04  0.50400001928E-02 0. -1.
</event>
<event>
 5   0  0.5134434E-07  0.3761950E+04  0.7818609E-02  0.8054370E-01
        2   -1    0    0  501    0  0.00000000000E+00  0.00000000000E+00  0.26876146927E+04  0.26876146927E+04  0.25500000920E-02 0. -1.
       -2   -1    0    0    0  501  0.00000000000E+00  0.00000000000E+00 -0.13164335304E+04  0.13164335304E+04  0.25500000920E-02 0.  1.
    10030    2    1    2    0    0  0.00000000000E+00  0.00000000000E+00  0.13711811623E+04  0.40040482230E+04  0.37619495468E+04 0.  0.
        5    1    3    3  502    0 -0.11391781638E+04  0.62593511978E+03  0.21326910524E+04  0.24975818060E+04  0.46999998093E+01 0. -1.
       -5    1    3    3    0  502  0.11391781638E+04 -0.62593511978E+03 -0.76150989004E+03  0.15064664170E+04  0.46999998093E+01 0.  1.
</event>
<event>
 5   0  0.5158266E-07  0.3836641E+04  0.7818609E-02  0.8038337E-01
        2   -1    0    0  501    0  0.00000000000E+00  0.00000000000E+00  0.26212426140E+04  0.26212426140E+04  0.25500000920E-02 0.  1.
       -2   -1    0    0    0  501  0.00000000000E+00  0.00000000000E+00 -0.14038967050E+04  0.14038967050E+04  0.25500000920E-02 0. -1.
    10030    2    1    2    0    0  0.00000000000E+00  0.00000000000E+00  0.12173459090E+04  0.40251393190E+04  0.38366411711E+04 0.  0.
        2    1    3    3  502    0 -0.62361072496E+03 -0.11494826173E+04 -0.86376039819E+03  0.15672532180E+04  0.25500000920E-02 0. -1.
       -2    1    3    3    0  502  0.62361072496E+03  0.11494826173E+04  0.20811063072E+04  0.24578861010E+04  0.25500000920E-02 0.  1.
</event>
<event>
 5   0  0.5134434E-07  0.3753755E+04  0.7818609E-02  0.8056152E-01
       -2   -1    0    0    0  501  0.00000000000E+00  0.00000000000E+00  0.17060110011E+04  0.17060110011E+04  0.25500000920E-02 0. -1.
        2   -1    0    0  501    0  0.00000000000E+00  0.00000000000E+00 -0.20648570102E+04  0.20648570102E+04  0.25500000920E-02 0.  1.
    10030    2    1    2    0    0  0.00000000000E+00  0.00000000000E+00 -0.35884600911E+03  0.37708680114E+04  0.37537548003E+04 0.  0.
        5    1    3    3  502    0 -0.59690973608E+02 -0.46592923572E+03  0.16460001110E+04  0.17117217999E+04  0.46999998093E+01 0. -1.
       -5    1    3    3    0  502  0.59690973608E+02  0.46592923572E+03 -0.20048461201E+04  0.20591462115E+04  0.46999998093E+01 0.  1.
</event>
<event>
 5   0  0.1648000E-07  0.3813934E+04  0.7818609E-02  0.8043171E-01
        1   -1    0    0  501    0  0.00000000000E+00  0.00000000000E+00  0.18946826807E+04  0.18946826807E+04  0.50400001928E-02 0.  1.
       -1   -1    0    0    0  501  0.00000000000E+00  0.00000000000E+00 -0.19193306174E+04  0.19193306174E+04  0.50400001928E-02 0. -1.
    10030    2    1    2    0    0  0.00000000000E+00  0.00000000000E+00 -0.24647936674E+02  0.38140132981E+04  0.38139336540E+04 0.  0.
        1    1    3    3  502    0 -0.28022264254E+03  0.18808011443E+04 -0.15580102349E+03  0.19079338648E+04  0.50400001928E-02 0. -1.
       -1    1    3    3    0  502  0.28022264254E+03 -0.18808011443E+04  0.13115308682E+03  0.19060794333E+04  0.50400001928E-02 0.  1.
</event>
<event>
 5   0  0.5325362E-07  0.3959192E+04  0.7818609E-02  0.8012830E-01
        2   -1    0    0  501    0  0.00000000000E+00  0.00000000000E+00  0.21305548808E+04  0.21305548808E+04  0.25500000920E-02 0.  1.
       -2   -1    0    0    0  501  0.00000000000E+00  0.00000000000E+00 -0.18393336627E+04  0.18393336627E+04  0.25500000920E-02 0. -1.
    10030    2    1    2    0    0  0.00000000000E+00  0.00000000000E+00  0.29122121804E+03  0.39698885435E+04  0.39591924997E+04 0.  0.
        4    1    3    3  502    0  0.23704068832E+03 -0.30133059397E+03  0.20929725305E+04  0.21277979324E+04  0.12699999809E+01 0.  1.
       -4    1    3    3    0  502 -0.23704068832E+03  0.30133059397E+03 -0.18017513124E+04  0.18420906111E+04  0.12699999809E+01 0. -1.
</event>
<event>
 5   0  0.5132561E-07  0.3835919E+04  0.7818609E-02  0.8038490E-01
       -2   -1    0    0    0  501  0.00000000000E+00  0.00000000000E+00  0.11779361351E+04  0.11779361351E+04  0.25500000920E-02 0. -1.
        2   -1    0    0  501    0  0.00000000000E+00  0.00000000000E+00 -0.31228932027E+04  0.31228932027E+04  0.25500000920E-02 0.  1.
    10030    2    1    2    0    0  0.00000000000E+00  0.00000000000E+00 -0.19449570676E+04  0.43008293378E+04  0.38359190552E+04 0.  0.
        3    1    3    3  502    0 -0.70842149893E+03  0.30721799694E+03 -0.29409176072E+04  0.30405986747E+04  0.10100000352E+00 0. -1.
       -3    1    3    3    0  502  0.70842149893E+03 -0.30721799694E+03  0.99596053956E+03  0.12602306631E+04  0.10100000352E+00 0.  1.
</event>
<event>
 5   0  0.5134434E-07  0.3668240E+04  0.7818609E-02  0.8075037E-01
        2   -1    0    0  501    0  0.00000000000E+00  0.00000000000E+00  0.11809455271E+04  0.11809455271E+04  0.25500000920E-02 0.  1.
       -2   -1    0    0    0  501  0.00000000000E+00  0.00000000000E+00 -0.28485620956E+04  0.28485620956E+04  0.25500000920E-02 0. -1.
    10030    2    1    2    0    0  0.00000000000E+00  0.00000000000E+00 -0.16676165684E+04  0.40295076227E+04  0.36682402678E+04 0.  0.
        5    1    3    3  502    0  0.36011862919E+03  0.93073685059E+03  0.85658093064E+03  0.13151842049E+04  0.46999998093E+01 0.  1.
       -5    1    3    3    0  502 -0.36011862919E+03 -0.93073685059E+03 -0.25241974991E+04  0.27143234178E+04  0.46999998093E+01 0. -1.
</event>
<event>
 5   0  0.5132561E-07  0.3751610E+04  0.7818609E-02  0.8056620E-01
       -2   -1    0    0    0  501  0.00000000000E+00  0.00000000000E+00  0.20865933059E+04  0.20865933059E+04  0.25500000920E-02 0.  1.
        2   -1    0    0  501    0  0.00000000000E+00  0.00000000000E+00 -0.16863110052E+04  0.16863110052E+04  0.25500000920E-02 0. -1.
    10030    2    1    2    0    0  0.00000000000E+00  0.00000000000E+00  0.40028230062E+03  0.37729043111E+04  0.37516104569E+04 0.  0.
        3    1    3    3  502    0 -0.34010404982E+03  0.16664953151E+04  0.99568601130E+03  0.19708546479E+04  0.10100000352E+00 0.  1.
       -3    1    3    3    0  502  0.34010404982E+03 -0.16664953151E+04 -0.59540371069E+03  0.18020496632E+04  0.10100000352E+00 0. -1.
</event>
<event>
 5   0  0.1648000E-07  0.2961957E+04  0.7818609E-02  0.8254678E-01
        1   -1    0    0  501    0  0.00000000000E+00  0.00000000000E+00  0.20034248682E+04  0.20034248682E+04  0.50400001928E-02 0.  1.
       -1   -1    0    0    0  501  0.00000000000E+00  0.00000000000E+00 -0.10947740255E+04  0.10947740255E+04  0.50400001928E-02 0. -1.
    10030    2    1    2    0    0  0.00000000000E+00  0.00000000000E+00  0.90865084276E+03  0.30981988937E+04  0.29619571285E+04 0.  0.
        3    1    3    3  502    0  0.11512613192E+04  0.82219376406E+03  0.91252985333E+03  0.16834832800E+04  0.10100000352E+00 0. -1.
       -3    1    3    3    0  502 -0.11512613192E+04 -0.82219376406E+03 -0.38790105709E+01  0.14147156137E+04  0.10100000352E+00 0.  1.
</event>
<event>
 5   0  0.1648000E-07  0.3165279E+04  0.7818609E-02  0.8198047E-01
       -1   -1    0    0    0  501  0.00000000000E+00  0.00000000000E+00  0.16358559720E+04  0.16358559720E+04  0.50400001928E-02 0. -1.
        1   -1    0    0  501    0  0.00000000000E+00  0.00000000000E+00 -0.15311545082E+04  0.15311545082E+04  0.50400001928E-02 0.  1.
    10030    2    1    2    0    0  0.00000000000E+00  0.00000000000E+00  0.10470146381E+03  0.31670104802E+04  0.31652792902E+04 0.  0.
        3    1    3    3  502    0 -0.11659715895E+03 -0.21869658466E+01 -0.15268497857E+04  0.15312968224E+04  0.10100000352E+00 0.  1.
       -3    1    3    3    0  502  0.11659715895E+03  0.21869658466E+01  0.16315512495E+04  0.16357136577E+04  0.10100000352E+00 0. -1.
</event>
<event>
 5   0  0.5325362E-07  0.3814858E+04  0.7818609E-02  0.8042974E-01
        2   -1    0    0  501    0  0.00000000000E+00  0.00000000000E+00  0.19174808059E+04  0.19174808059E+04  0.25500000920E-02 0.  1.
       -2   -1    0    0    0  501  0.00000000000E+00  0.00000000000E+00 -0.18974303813E+04  0.18974303813E+04  0.25500000920E-02 0. -1.
    10030    2    1    2    0    0  0.00000000000E+00  0.00000000000E+00  0.20050424614E+02  0.38149111873E+04  0.38148584964E+04 0.  0.
        4    1    3    3  502    0 -0.11746882806E+04 -0.15015524695E+04 -0.51068582270E+02  0.19071344966E+04  0.12699999809E+01 0. -1.
       -4    1    3    3    0  502  0.11746882806E+04  0.15015524695E+04  0.71119006884E+02  0.19077766906E+04  0.12699999809E+01 0.  1.
</event>
<event>
 5   0  0.1656617E-07  0.3800128E+04  0.7818609E-02  0.8046127E-01
        1   -1    0    0  501    0  0.00000000000E+00  0.00000000000E+00  0.21152831754E+04  0.21152831754E+04  0.50400001928E-02 0.  1.
       -1   -1    0    0    0  501  0.00000000000E+00  0.00000000000E+00 -0.17067426368E+04  0.17067426368E+04  0.50400001928E-02 0. -1.
    10030    2    1    2    0    0  0.00000000000E+00  0.00000000000E+00  0.40854053863E+03  0.38220258123E+04  0.38001284107E+04 0.  0.
        5    1    3    3  502    0  0.60742751202E+03 -0.14836350103E+04  0.12299904437E+04  0.20206532626E+04  0.46999998093E+01 0. -1.
       -5    1    3    3    0  502 -0.60742751202E+03  0.14836350103E+04 -0.82144990506E+03  0.18013725497E+04  0.46999998093E+01 0.  1.
</event>
<event>
 5   0  0.1656617E-07  0.3781615E+04  0.7818609E-02  0.8050112E-01
        1   -1    0    0  501    0  0.00000000000E+00  0.00000000000E+00  0.29626880776E+04  0.29626880776E+04  0.50400001928E-02 0. -1.
       -1   -1    0    0    0  501  0.00000000000E+00  0.00000000000E+00 -0.12067258860E+04  0.12067258860E+04  0.50400001928E-02 0.  1.
    10030    2    1    2    0    0  0.00000000000E+00  0.00000000000E+00  0.17559621916E+04  0.41694139637E+04  0.37816146792E+04 0.  0.
        5    1    3    3  502    0  0.11541612384E+04  0.14130291974E+04  0.33070077212E+03  0.18542181014E+04  0.46999998093E+01 0.  1.
       -5    1    3    3    0  502 -0.11541612384E+04 -0.14130291974E+04  0.14252614195E+04  0.23151958623E+04  0.46999998093E+01 0. -1.
</event>
<event>
 5   0  0.1648000E-07  0.3822734E+04  0.7818609E-02  0.8041294E-01
       -1   -1    0    0    0  501  0.00000000000E+00  0.00000000000E+00  0.16038495262E+04  0.16038495262E+04  0.50400001928E-02 0.  1.
        1   -1    0    0  501    0  0.00000000000E+00  0.00000000000E+00 -0.22778469982E+04  0.22778469982E+04  0.50400001928E-02 0. -1.
    10030    2    1    2    0    0  0.00000000000E+00  0.00000000000E+00 -0.67399747207E+03  0.38816965244E+04  0.38227340105E+04 0.  0.
        3    1    3    3  502    0  0.14244240751E+04  0.83115511308E+03 -0.13180903334E+04  0.21111998732E+04  0.10100000352E+00 0.  1.
       -3    1    3    3    0  502 -0.14244240751E+04 -0.83115511308E+03  0.64409286132E+03  0.17704966512E+04  0.10100000352E+00 0. -1.
</event>
<event>
 5   0  0.5202788E-07  0.3523339E+04  0.7818609E-02  0.8108281E-01
       -2   -1    0    0    0  501  0.00000000000E+00  0.00000000000E+00  0.10692269362E+04  0.10692269362E+04  0.25500000920E-02 0.  1.
        2   -1    0    0  501    0  0.00000000000E+00  0.00000000000E+00 -0.29025458974E+04  0.29025458974E+04  0.25500000920E-02 0. -1.
    10030    2    1    2    0    0  0.00000000000E+00  0.00000000000E+00 -0.18333189612E+04  0.39717728337E+04  0.35233394711E+04 0.  0.
        1    1    3    3  502    0 -0.93439070387E+03  0.35782499939E+03 -0.25511522120E+04  0.27403471179E+04  0.50400001928E-02 0. -1.
       -1    1    3    3    0  502  0.93439070387E+03 -0.35782499939E+03  0.71783325076E+03  0.12314257158E+04  0.50400001928E-02 0.  1.
</event>
<event>
 5   0  0.1648000E-07  0.3820038E+04  0.7818609E-02  0.8041868E-01
        1   -1    0    0  501    0  0.00000000000E+00  0.00000000000E+00  0.16740821086E+04  0.16740821086E+04  0.50400001928E-02 0.  1.
       -1   -1    0    0    0  501  0.00000000000E+00  0.00000000000E+00 -0.21792076912E+04  0.21792076912E+04  0.50400001928E-02 0. -1.
    10030    2    1    2    0    0  0.00000000000E+00  0.00000000000E+00 -0.50512558256E+03  0.38532897998E+04  0.38200380138E+04 0.  0.
        2    1    3    3  502    0  0.96577349025E+03 -0.16233072355E+04 -0.53845143320E+03  0.19641218804E+04  0.25500000920E-02 0. -1.
       -2    1    3    3    0  502 -0.96577349025E+03  0.16233072355E+04  0.33325850642E+02  0.18891679194E+04  0.25500000920E-02 0.  1.
</event>
<event>
 5   0  0.1648000E-07  0.4021064E+04  0.7818609E-02  0.8000311E-01
       -1   -1    0    0    0  501  0.00000000000E+00  0.00000000000E+00  0.17972151833E+04  0.17972151833E+04  0.50400001928E-02 0. -1.
        1   -1    0    0  501    0  0.00000000000E+00  0.00000000000E+00 -0.22491682296E+04  0.22491682296E+04  0.50400001928E-02 0.  1.
    10030    2    1    2    0    0  0.00000000000E+00  0.00000000000E+00 -0.45195304634E+03  0.40463834129E+04  0.40210641836E+04 0.  0.
        3    1    3    3  502    0  0.19796305447E+04  0.23800387918E+03  0.33828033795E+02  0.19941733340E+04  0.10100000352E+00 0.  1.
       -3    1    3    3    0  502 -0.19796305447E+04 -0.23800387918E+03 -0.48578108013E+03  0.20522100789E+04  0.10100000352E+00 0. -1.
</event>
<event>
 5   0  0.1648000E-07  0.3646379E+04  0.7818609E-02  0.8079950E-01
       -1   -1    0    0    0  501  0.00000000000E+00  0.00000000000E+00  0.15960411048E+04  0.15960411049E+04  0.50400001928E-02 0. -1.
        1   -1    0    0  501    0  0.00000000000E+00  0.00000000000E+00 -0.20826656645E+04  0.20826656645E+04  0.50400001928E-02 0.  1.
    10030    2    1    2    0    0  0.00000000000E+00  0.00000000000E+00 -0.48662455964E+03  0.36787067694E+04  0.36463790303E+04 0.  0.
        2    1    3    3  502    0  0.45015580536E+03  0.15309802872E+03  0.15323890301E+04  0.16044610918E+04  0.25500000920E-02 0. -1.
       -2    1    3    3    0  502 -0.45015580536E+03 -0.15309802872E+03 -0.20190135897E+04  0.20742456776E+04  0.25500000920E-02 0.  1.
</event>
<event>
 5   0  0.1648000E-07  0.3795227E+04  0.7818609E-02  0.8047180E-01
        1   -1    0    0  501    0  0.00000000000E+00  0.00000000000E+00  0.13702103972E+04  0.13702103972E+04  0.50400001928E-02 0. -1.
       -1   -1    0    0    0  501  0.00000000000E+00  0.00000000000E+00 -0.26280176247E+04  0.26280176247E+04  0.50400001928E-02 0.  1.
    10030    2    1    2    0    0  0.00000000000E+00  0.00000000000E+00 -0.12578072274E+04  0.39982280219E+04  0.37952270411E+04 0.  0.
        3    1    3    3  502    0 -0.11696181946E+04 -0.14640847825E+04 -0.31393681850E+03  0.19000282386E+04  0.10100000352E+00 0. -1.
       -3    1    3    3    0  502  0.11696181946E+04  0.14640847825E+04 -0.94387040894E+03  0.20981997833E+04  0.10100000352E+00 0.  1.
</event>
<event>
 5   0  0.5134434E-07  0.3802522E+04  0.7818609E-02  0.8045614E-01
       -2   -1    0    0    0  501  0.00000000000E+00  0.00000000000E+00  0.17817312361E+04  0.17817312361E+04  0.25500000920E-02 0. -1.
        2   -1    0    0  501    0  0.00000000000E+00  0.00000000000E+00 -0.20288095720E+04  0.20288095720E+04  0.25500000920E-02 0.  1.
    10030    2    1    2    0    0  0.00000000000E+00  0.00000000000E+00 -0.24707833591E+03  0.38105408082E+04  0.38025219982E+04 0.  0.
        5    1    3    3  502    0 -0.13004966003E+04 -0.10693719560E+04 -0.10085343115E+04  0.19626541557E+04  0.46999998093E+01 0.  1.
       -5    1    3    3    0  502  0.13004966003E+04  0.10693719560E+04  0.76145597554E+03  0.18478866524E+04  0.46999998093E+01 0. -1.
</event>
<event>
 5   0  0.5202788E-07  0.3712156E+04  0.7818609E-02  0.8065273E-01
        2   -1    0    0  501    0  0.00000000000E+00  0.00000000000E+00  0.24798438081E+04  0.24798438081E+04  0.25500000920E-02 0. -1.
       -2   -1    0    0    0  501  0.00000000000E+00  0.00000000000E+00 -0.13892107940E+04  0.13892107940E+04  0.25500000920E-02 0.  1.
    10030    2    1    2    0    0  0.00000000000E+00  0.00000000000E+00  0.10906330141E+04  0.38690546021E+04  0.37121561312E+04 0.  0.
        1    1    3    3  502    0 -0.12907944253E+03  0.70752613608E+03 -0.12380769982E+04  0.14318133221E+04  0.50400001928E-02 0.  1.
       -1    1    3    3    0  502  0.12907944253E+03 -0.70752613608E+03  0.23287100123E+04  0.24372412801E+04  0.50400001928E-02 0. -1.
</event>
<event>
 5   0  0.1648000E-07  0.3720349E+04  0.7818609E-02  0.8063467E-01
       -1   -1    0    0    0  501  0.00000000000E+00  0.00000000000E+00  0.13681270137E+04  0.13681270137E+04  0.50400001928E-02 0. -1.
        1   -1    0    0  501    0  0.00000000000E+00  0.00000000000E+00 -0.25291876507E+04  0.25291876507E+04  0.50400001928E-02 0.  1.
    10030    2    1    2    0    0  0.00000000000E+00  0.00000000000E+00 -0.11610606370E+04  0.38973146644E+04  0.37203494178E+04 0.  0.
        1    1    3    3  502    0 -0.17065728344E+04  0.69682116446E+03 -0.84200134968E+03  0.20265529471E+04  0.50400001928E-02 0.  1.
       -1    1    3    3    0  502  0.17065728344E+04 -0.69682116446E+03 -0.31905928735E+03  0.18707617174E+04  0.50400001928E-02 0. -1.
</event>
<event>
 5   0  0.5158266E-07  0.3804473E+04  0.7818609E-02  0.8045196E-01
       -2   -1    0    0    0  501  0.00000000000E+00  0.00000000000E+00  0.16987033092E+04  0.16987033092E+04  0.25500000920E-02 0. -1.
        2   -1    0    0  501    0  0.00000000000E+00  0.00000000000E+00 -0.21301559606E+04  0.21301559606E+04  0.25500000920E-02 0.  1.
    10030    2    1    2    0    0  0.00000000000E+00  0.00000000000E+00 -0.43145265142E+03  0.38288592698E+04  0.38044726202E+04 0.  0.
        2    1    3    3  502    0  0.45535014071E+03  0.12362692349E+04 -0.15966725280E+04  0.20700407082E+04  0.25500000920E-02 0.  1.
       -2    1    3    3    0  502 -0.45535014071E+03 -0.12362692349E+04  0.11652198766E+04  0.17588185616E+04  0.25500000920E-02 0. -1.
</event>
<event>
 5   0  0.5134434E-07  0.3757073E+04  0.7818609E-02  0.8055430E-01
        2   -1    0    0  501    0  0.00000000000E+00  0.00000000000E+00  0.18667599163E+04  0.18667599163E+04  0.25500000920E-02 0. -1.
       -2   -1    0    0    0  501  0.00000000000E+00  0.00000000000E+00 -0.18903876633E+04  0.18903876633E+04  0.25500000920E-02 0.  1.
    10030    2    1    2    0    0  0.00000000000E+00  0.00000000000E+00 -0.23627747078E+02  0.37571475796E+04  0.37570732844E+04 0.  0.
        5    1    3    3  502    0 -0.65009568753E+03  0.74472894780E+03 -0.16092283890E+04  0.18886195241E+04  0.46999998093E+01 0.  1.
       -5    1    3    3    0  502  0.65009568753E+03 -0.74472894780E+03  0.15856006419E+04  0.18685280555E+04  0.46999998093E+01 0. -1.
</event>
<event>
 5   0  0.1648000E-07  0.3798411E+04  0.7818609E-02  0.8046496E-01
        1   -1    0    0  501    0  0.00000000000E+00  0.00000000000E+00  0.24102107640E+04  0.24102107640E+04  0.50400001928E-02 0.  1.
       -1   -1    0    0    0  501  0.00000000000E+00  0.00000000000E+00 -0.14965423096E+04  0.14965423097E+04  0.50400001928E-02 0. -1.
    10030    2    1    2    0    0  0.00000000000E+00  0.00000000000E+00  0.91366845436E+03  0.39067530737E+04  0.37984114488E+04 0.  0.
        2    1    3    3  502    0 -0.74674792335E+03 -0.77083579673E+03 -0.11547538347E+04  0.15764760402E+04  0.25500000920E-02 0. -1.
       -2    1    3    3    0  502  0.74674792335E+03  0.77083579673E+03  0.20684222891E+04  0.23302770334E+04  0.25500000920E-02 0.  1.
</event>
<event>
 5   0  0.5158266E-07  0.3785110E+04  0.7818609E-02  0.8049358E-01
       -2   -1    0    0    0  501  0.00000000000E+00  0.00000000000E+00  0.15932126949E+04  0.15932126949E+04  0.25500000920E-02 0.  1.
        2   -1    0    0  501    0  0.00000000000E+00  0.00000000000E+00 -0.22481391369E+04  0.22481391369E+04  0.25500000920E-02 0. -1.
    10030    2    1    2    0    0  0.00000000000E+00  0.00000000000E+00 -0.65492644205E+03  0.38413518317E+04  0.37851096749E+04 0.  0.
        2    1    3    3  502    0  0.16250029107E+04 -0.62822338494E+02  0.65500328069E+03  0.17531715272E+04  0.25500000920E-02 0.  1.
       -2    1    3    3    0  502 -0.16250029107E+04  0.62822338494E+02 -0.13099297227E+04  0.20881803046E+04  0.25500000920E-02 0. -1.
</event>
<event>
 5   0  0.5132561E-07  0.3767359E+04  0.7818609E-02  0.8053196E-01
        2   -1    0    0  501    0  0.00000000000E+00  0.00000000000E+00  0.19315112955E+04  0.19315112955E+04  0.25500000920E-02 0.  1.
       -2   -1    0    0    0  501  0.00000000000E+00  0.00000000000E+00 -0.18370325246E+04  0.18370325246E+04  0.25500000920E-02 0. -1.
    10030    2    1    2    0    0  0.00000000000E+00  0.00000000000E+00  0.94478770933E+02  0.37685438201E+04  0.37673593253E+04 0.  0.
        3    1    3    3  502    0  0.41561452142E+03  0.17979793176E+04  0.42522589827E+03  0.18937481701E+04  0.10100000352E+00 0. -1.
       -3    1    3    3    0  502 -0.41561452142E+03 -0.17979793176E+04 -0.33074712734E+03  0.18747956500E+04  0.10100000352E+00 0.  1.
</event>
<event>
 5   0  0.1648000E-07  0.3812722E+04  0.7818609E-02  0.8043430E-01
        3   -1    0    0  501    0  0.00000000000E+00  0.00000000000E+00  0.24019897950E+04  0.24019897971E+04  0.10100000352E+00 0. -1.
       -3   -1    0    0    0  501  0.00000000000E+00  0.00000000000E+00 -0.15130008615E+04  0.15130008649E+04  0.10100000352E+00 0.  1.
    10030    2    1    2    0    0  0.00000000000E+00  0.00000000000E+00  0.88898893348E+03  0.39149906620E+04  0.38127221981E+04 0.  0.
        3    1    3    3  502    0  0.94784874162E+03  0.24387133263E+03  0.21243222623E+04  0.23389389791E+04  0.10100000352E+00 0. -1.
       -3    1    3    3    0  502 -0.94784874162E+03 -0.24387133263E+03 -0.12353333288E+04  0.15760516829E+04  0.10100000352E+00 0.  1.
</event>
<event>
 5   0  0.1656617E-07  0.3759978E+04  0.7818609E-02  0.8054798E-01
        1   -1    0    0  501    0  0.00000000000E+00  0.00000000000E+00  0.26500533000E+04  0.26500533000E+04  0.50400001928E-02 0. -1.
       -1   -1    0    0    0  501  0.00000000000E+00  0.00000000000E+00 -0.13336933626E+04  0.13336933626E+04  0.50400001928E-02 0.  1.
    10030    2    1    2    0    0  0.00000000000E+00  0.00000000000E+00  0.13163599374E+04  0.39837466626E+04  0.37599779238E+04 0.  0.
        5    1    3    3  502    0 -0.10740940060E+03  0.25922869848E+03 -0.13113752314E+04  0.13410680017E+04  0.46999998093E+01 0.  1.
       -5    1    3    3    0  502  0.10740940060E+03 -0.25922869848E+03  0.26277351689E+04  0.26426786610E+04  0.46999998093E+01 0. -1.
</event>
<event>
 5   0  0.5202788E-07  0.3795125E+04  0.7818609E-02  0.8047202E-01
       -2   -1    0    0    0  501  0.00000000000E+00  0.00000000000E+00  0.16530127953E+04  0.16530127953E+04  0.25500000920E-02 0. -1.
        2   -1    0    0  501    0  0.00000000000E+00  0.00000000000E+00 -0.21782916193E+04  0.21782916193E+04  0.25500000920E-02 0.  1.
    10030    2    1    2    0    0  0.00000000000E+00  0.00000000000E+00 -0.52527882397E+03  0.38313044146E+04  0.37951252514E+04 0.  0.
        1    1    3    3  502    0  0.14522827410E+03  0.17627039807E+04  0.43131991749E+03  0.18205091174E+04  0.50400001928E-02 0.  1.
       -1    1    3    3    0  502 -0.14522827410E+03 -0.17627039807E+04 -0.95659874146E+03  0.20107952972E+04  0.50400001928E-02 0. -1.
</event>
<event>
 5   0  0.1648000E-07  0.3729436E+04  0.7818609E-02  0.8061470E-01
       -1   -1    0    0    0  501  0.00000000000E+00  0.00000000000E+00  0.17873198964E+04  0.17873198964E+04  0.50400001928E-02 0.  1.
        1   -1    0    0  501    0  0.00000000000E+00  0.00000000000E+00 -0.19454680833E+04  0.19454680833E+04  0.50400001928E-02 0. -1.
    10030    2    1    2    0    0  0.00000000000E+00  0.00000000000E+00 -0.15814818693E+03  0.37327879797E+04  0.37294363183E+04 0.  0.
        4    1    3    3  502    0 -0.12709469120E+04  0.12280204106E+04 -0.67444648525E+03  0.18916183168E+04  0.12699999809E+01 0. -1.
       -4    1    3    3    0  502  0.12709469120E+04 -0.12280204106E+04  0.51629829832E+03  0.18411696629E+04  0.12699999809E+01 0.  1.
</event>
<event>
 5   0  0.1648000E-07  0.3859872E+04  0.7818609E-02  0.8033427E-01
        1   -1    0    0  501    0  0.00000000000E+00  0.00000000000E+00  0.17135489510E+04  0.17135489510E+04  0.50400001928E-02 0. -1.
       -1   -1    0    0    0  501  0.00000000000E+00  0.00000000000E+00 -0.21736488985E+04  0.21736488985E+04  0.50400001928E-02 0.  1.
    10030    2    1    2    0    0  0.00000000000E+00  0.00000000000E+00 -0.46009994749E+03  0.38871978494E+04  0.38598724278E+04 0.  0.
        2    1    3    3  502    0  0.55234180599E+03  0.17276821353E+04  0.43392529002E+03  0.18650088977E+04  0.25500000920E-02 0. -1.
       -2    1    3    3    0  502 -0.55234180599E+03 -0.17276821353E+04 -0.89402523750E+03  0.20221889517E+04  0.25500000920E-02 0.  1.
</event>
<event>
 5   0  0.5325362E-07  0.3803944E+04  0.7818609E-02  0.8045309E-01
       -2   -1    0    0    0  501  0.00000000000E+00  0.00000000000E+00  0.14669762792E+04  0.14669762792E+04  0.25500000920E-02 0. -1.
        2   -1    0    0  501    0  0.00000000000E+00  0.00000000000E+00 -0.24659544154E+04  0.24659544154E+04  0.25500000920E-02 0.  1.
    10030    2    1    2    0    0  0.00000000000E+00  0.00000000000E+00 -0.99897813628E+03  0.39329306946E+04  0.38039435500E+04 0.  0.
        4    1    3    3  502    0  0.13149112027E+04  0.75283117229E+03 -0.16881464404E+04  0.22683884725E+04  0.12699999809E+01 0.  1.
       -4    1    3    3    0  502 -0.13149112027E+04 -0.75283117229E+03  0.68916830411E+03  0.16645422221E+04  0.12699999809E+01 0. -1.
</event>
<event>
 5   0  0.5158266E-07  0.3750751E+04  0.7818609E-02  0.8056807E-01
       -2   -1    0    0    0  501  0.00000000000E+00  0.00000000000E+00  0.14561390389E+04  0.14561390389E+04  0.25500000920E-02 0. -1.
        2   -1    0    0  501    0  0.00000000000E+00  0.00000000000E+00 -0.24153140261E+04  0.24153140261E+04  0.25500000920E-02 0.  1.
    10030    2    1    2    0    0  0.00000000000E+00  0.00000000000E+00 -0.95917498728E+03  0.38714530650E+04  0.37507508819E+04 0.  0.
        2    1    3    3  502    0  0.13474550238E+04 -0.12976589399E+04 -0.34312366978E+03  0.19019168274E+04  0.25500000920E-02 0.  1.
       -2    1    3    3    0  502 -0.13474550238E+04  0.12976589399E+04 -0.61605131750E+03  0.19695362376E+04  0.25500000920E-02 0. -1.
</event>
<event>
 5   0  0.5132561E-07  0.3818905E+04  0.7818609E-02  0.8042110E-01
       -2   -1    0    0    0  501  0.00000000000E+00  0.00000000000E+00  0.15037059051E+04  0.15037059051E+04  0.25500000920E-02 0.  1.
        2   -1    0    0  501    0  0.00000000000E+00  0.00000000000E+00 -0.24246825331E+04  0.24246825331E+04  0.25500000920E-02 0. -1.
    10030    2    1    2    0    0  0.00000000000E+00  0.00000000000E+00 -0.92097662799E+03  0.39283884383E+04  0.38189053108E+04 0.  0.
        3    1    3    3  502    0 -0.90044998173E+03 -0.16514596109E+04 -0.79835614392E+03  0.20434044041E+04  0.10100000352E+00 0.  1.
       -3    1    3    3    0  502  0.90044998173E+03  0.16514596109E+04 -0.12262048407E+03  0.18849840342E+04  0.10100000352E+00 0. -1.
</event>
<event>
 5   0  0.1648000E-07  0.2913600E+04  0.7818609E-02  0.8268842E-01
        1   -1    0    0  501    0  0.00000000000E+00  0.00000000000E+00  0.16856760127E+04  0.16856760127E+04  0.50400001928E-02 0. -1.
       -1   -1    0    0    0  501  0.00000000000E+00  0.00000000000E+00 -0.12590003719E+04  0.12590003719E+04  0.50400001928E-02 0.  1.
    10030    2    1    2    0    0  0.00000000000E+00  0.00000000000E+00  0.42667564079E+03  0.29446763846E+04  0.29136003342E+04 0.  0.
        2    1    3    3  502    0 -0.86536606923E+03  0.11702479875E+04  0.14999606967E+03  0.14631601440E+04  0.25500000920E-02 0. -1.
       -2    1    3    3    0  502  0.86536606923E+03 -0.11702479875E+04  0.27667957112E+03  0.14815162406E+04  0.25500000920E-02 0.  1.
</event>
<event>
 5   0  0.5325362E-07  0.3767457E+04  0.7818609E-02  0.8053175E-01
        2   -1    0    0  501    0  0.00000000000E+00  0.00000000000E+00  0.26216278796E+04  0.26216278796E+04  0.25500000920E-02 0.  1.
       -2   -1    0    0    0  501  0.00000000000E+00  0.00000000000E+00 -0.13535225145E+04  0.13535225145E+04  0.25500000920E-02 0. -1.
    10030    2    1    2    0    0  0.00000000000E+00  0.00000000000E+00  0.12681053651E+04  0.39751503941E+04  0.37674566274E+04 0.  0.
        4    1    3    3  502    0 -0.84979801377E+03 -0.11947828455E+04  0.18819479926E+04  0.23856639688E+04  0.12699999809E+01 0.  1.
       -4    1    3    3    0  502  0.84979801377E+03  0.11947828455E+04 -0.61384262754E+03  0.15894864254E+04  0.12699999809E+01 0. -1.
</event>
<event>
 5   0  0.5132561E-07  0.3875294E+04  0.7818609E-02  0.8030187E-01
        2   -1    0    0  501    0  0.00000000000E+00  0.00000000000E+00  0.36501622557E+04  0.36501622557E+04  0.25500000920E-02 0. -1.
       -2   -1    0    0    0  501  0.00000000000E+00  0.00000000000E+00 -0.10285778418E+04  0.10285778418E+04  0.25500000920E-02 0.  1.
    10030    2    1    2    0    0  0.00000000000E+00  0.00000000000E+00  0.26215844138E+04  0.46787400975E+04  0.38752940612E+04 0.  0.
        3    1    3    3  502    0 -0.10243268720E+04 -0.15005606551E+04  0.21238772547E+04  0.27949566049E+04  0.10100000352E+00 0. -1.
       -3    1    3    3    0  502  0.10243268720E+04  0.15005606551E+04  0.49770715916E+03  0.18837834925E+04  0.10100000352E+00 0.  1.
</event>
<event>
 5   0  0.1648000E-07  0.3782760E+04  0.7818609E-02  0.8049865E-01
       -1   -1    0    0    0  501  0.00000000000E+00  0.00000000000E+00  0.24920012807E+04  0.24920012807E+04  0.50400001928E-02 0.  1.
        1   -1    0    0  501    0  0.00000000000E+00  0.00000000000E+00 -0.14355203486E+04  0.14355203486E+04  0.50400001928E-02 0. -1.
    10030    2    1    2    0    0  0.00000000000E+00  0.00000000000E+00  0.10564809321E+04  0.39275216292E+04  0.37827601283E+04 0.  0.
        3    1    3    3  502    0  0.15183782647E+04  0.90889048039E+03  0.12214464708E+04  0.21502292788E+04  0.10100000352E+00 0.  1.
       -3    1    3    3    0  502 -0.15183782647E+04 -0.90889048039E+03 -0.16496553876E+03  0.17772923505E+04  0.10100000352E+00 0. -1.
</event>
<event>
 5   0  0.5132561E-07  0.3788740E+04  0.7818609E-02  0.8048576E-01
        2   -1    0    0  501    0  0.00000000000E+00  0.00000000000E+00  0.20560735530E+04  0.20560735530E+04  0.25500000920E-02 0. -1.
       -2   -1    0    0    0  501  0.00000000000E+00  0.00000000000E+00 -0.17453834697E+04  0.17453834697E+04  0.25500000920E-02 0.  1.
    10030    2    1    2    0    0  0.00000000000E+00  0.00000000000E+00  0.31069008335E+03  0.38014570227E+04  0.37887395222E+04 0.  0.
        3    1    3    3  502    0 -0.52956406509E+03 -0.99179384520E+03 -0.13744180888E+04  0.17757021776E+04  0.10100000352E+00 0.  1.
       -3    1    3    3    0  502  0.52956406509E+03  0.99179384520E+03  0.16851081721E+04  0.20257548451E+04  0.10100000352E+00 0. -1.
</event>
<event>
 5   0  0.1648000E-07  0.3746457E+04  0.7818609E-02  0.8057744E-01
       -1   -1    0    0    0  501  0.00000000000E+00  0.00000000000E+00  0.23034389309E+04  0.23034389309E+04  0.50400001928E-02 0.  1.
        1   -1    0    0  501    0  0.00000000000E+00  0.00000000000E+00 -0.15233676611E+04  0.15233676611E+04  0.50400001928E-02 0. -1.
    10030    2    1    2    0    0  0.00000000000E+00  0.00000000000E+00  0.78007126976E+03  0.38268065920E+04  0.37464566602E+04 0.  0.
        2    1    3    3  502    0 -0.68255424186E+03 -0.13690522211E+04 -0.71426143646E+03  0.16882990484E+04  0.25500000920E-02 0. -1.
       -2    1    3    3    0  502  0.68255424186E+03  0.13690522211E+04  0.14943327062E+04  0.21385075436E+04  0.25500000920E-02 0.  1.
</event>
<event>
 5   0  0.1648000E-07  0.3756353E+04  0.7818609E-02  0.8055587E-01
        1   -1    0    0  501    0  0.00000000000E+00  0.00000000000E+00  0.11509313019E+04  0.11509313019E+04  0.50400001928E-02 0. -1.
       -1   -1    0    0    0  501  0.00000000000E+00  0.00000000000E+00 -0.30649493622E+04  0.30649493622E+04  0.50400001928E-02 0.  1.
    10030    2    1    2    0    0  0.00000000000E+00  0.00000000000E+00 -0.19140180602E+04  0.42158806641E+04  0.37563525712E+04 0.  0.
        1    1    3    3  502    0 -0.14814743625E+03 -0.94135330867E+03 -0.27734748070E+04  0.29326193445E+04  0.50400001928E-02 0.  1.
       -1    1    3    3    0  502  0.14814743625E+03  0.94135330867E+03  0.85945674680E+03  0.12832613196E+04  0.50400001928E-02 0. -1.
</event>
<event>
 5   0  0.5325362E-07  0.3781724E+04  0.7818609E-02  0.8050088E-01
       -2   -1    0    0    0  501  0.00000000000E+00  0.00000000000E+00  0.25806809705E+04  0.25806809705E+04  0.25500000920E-02 0.  1.
        2   -1    0    0  501    0  0.00000000000E+00  0.00000000000E+00 -0.13854327904E+04  0.13854327904E+04  0.25500000920E-02 0. -1.
    10030    2    1    2    0    0  0.00000000000E+00  0.00000000000E+00  0.11952481801E+04  0.39661137610E+04  0.37817244946E+04 0.  0.
        4    1    3    3  502    0  0.13607724704E+04 -0.11898721091E+04  0.11795298687E+04  0.21584229604E+04  0.12699999809E+01 0.  1.
       -4    1    3    3    0  502 -0.13607724704E+04  0.11898721091E+04  0.15718311394E+02  0.18076908005E+04  0.12699999809E+01 0. -1.
</event>
<event>
 5   0  0.5325362E-07  0.3631663E+04  0.7818609E-02  0.8083277E-01
        2   -1    0    0  501    0  0.00000000000E+00  0.00000000000E+00  0.23673930848E+04  0.23673930848E+04  0.25500000920E-02 0. -1.
       -2   -1    0    0    0  501  0.00000000000E+00  0.00000000000E+00 -0.13927741435E+04  0.13927741435E+04  0.25500000920E-02 0.  1.
    10030    2    1    2    0    0  0.00000000000E+00  0.00000000000E+00  0.97461894128E+03  0.37601672282E+04  0.36316629116E+04 0.  0.
        4    1    3    3  502    0 -0.54682436854E+03 -0.11906377958E+04 -0.81439855158E+03  0.15426865737E+04  0.12699999809E+01 0.  1.
       -4    1    3    3    0  502  0.54682436854E+03  0.11906377958E+04  0.17890174929E+04  0.22174806546E+04  0.12699999809E+01 0. -1.
</event>
<event>
 5   0  0.5325362E-07  0.3627135E+04  0.7818609E-02  0.8084304E-01
        2   -1    0    0  501    0  0.00000000000E+00  0.00000000000E+00  0.20796187239E+04  0.20796187239E+04  0.25500000920E-02 0.  1.
       -2   -1    0    0    0  501  0.00000000000E+00  0.00000000000E+00 -0.15815529090E+04  0.15815529090E+04  0.25500000920E-02 0. -1.
    10030    2    1    2    0    0  0.00000000000E+00  0.00000000000E+00  0.49806581484E+03  0.36611716329E+04  0.36271349809E+04 0.  0.
        4    1    3    3  502    0 -0.11081206941E+04  0.84647901702E+02 -0.11975690605E+04  0.16337900745E+04  0.12699999809E+01 0. -1.
       -4    1    3    3    0  502  0.11081206941E+04 -0.84647901702E+02  0.16956348754E+04  0.20273815584E+04  0.12699999809E+01 0.  1.
</event>
<event>
 5   0  0.1648000E-07  0.3773784E+04  0.7818609E-02  0.8051804E-01
        1   -1    0    0  501    0  0.00000000000E+00  0.00000000000E+00  0.27074715361E+04  0.27074715361E+04  0.50400001928E-02 0. -1.
       -1   -1    0    0    0  501  0.00000000000E+00  0.00000000000E+00 -0.13150137210E+04  0.13150137210E+04  0.50400001928E-02 0.  1.
    10030    2    1    2    0    0  0.00000000000E+00  0.00000000000E+00  0.13924578151E+04  0.40224852571E+04  0.37737844237E+04 0.  0.
        1    1    3    3  502    0  0.14416831100E+03 -0.36666674945E+03 -0.12706808134E+04  0.13303603785E+04  0.50400001928E-02 0.  1.
       -1    1    3    3    0  502 -0.14416831100E+03  0.36666674945E+03  0.26631386286E+04  0.26921248786E+04  0.50400001928E-02 0. -1.
</event>
<event>
 5   0  0.5132561E-07  0.3826732E+04  0.7818609E-02  0.8040442E-01
       -2   -1    0    0    0  501  0.00000000000E+00  0.00000000000E+00  0.29249629093E+04  0.29249629093E+04  0.25500000920E-02 0.  1.
        2   -1    0    0  501    0  0.00000000000E+00  0.00000000000E+00 -0.12516295066E+04  0.12516295066E+04  0.25500000920E-02 0. -1.
    10030    2    1    2    0    0  0.00000000000E+00  0.00000000000E+00  0.16733334027E+04  0.41765924159E+04  0.38267322263E+04 0.  0.
        3    1    3    3  502    0 -0.17372006423E+03 -0.56187730304E+03  0.28238657156E+04  0.28844587628E+04  0.10100000352E+00 0.  1.
       -3    1    3    3    0  502  0.17372006423E+03  0.56187730304E+03 -0.11505323129E+04  0.12921336531E+04  0.10100000352E+00 0. -1.
</event>
<event>
 5   0  0.5202788E-07  0.3813088E+04  0.7818609E-02  0.8043352E-01
       -2   -1    0    0    0  501  0.00000000000E+00  0.00000000000E+00  0.14520263232E+04  0.14520263232E+04  0.25500000920E-02 0.  1.
        2   -1    0    0  501    0  0.00000000000E+00  0.00000000000E+00 -0.25033357805E+04  0.25033357805E+04  0.25500000920E-02 0. -1.
    10030    2    1    2    0    0  0.00000000000E+00  0.00000000000E+00 -0.10513094573E+04  0.39553621038E+04  0.38130876985E+04 0.  0.
        1    1    3    3  502    0 -0.67604436066E+03  0.17749882647E+04 -0.35429361743E+03  0.19321343858E+04  0.50400001928E-02 0. -1.
       -1    1    3    3    0  502  0.67604436066E+03 -0.17749882647E+04 -0.69701583987E+03  0.20232277179E+04  0.50400001928E-02 0.  1.
</event>
<event>
 5   0  0.1648000E-07  0.3840076E+04  0.7818609E-02  0.8037609E-01
        1   -1    0    0  501    0  0.00000000000E+00  0.00000000000E+00  0.11964296155E+04  0.11964296155E+04  0.50400001928E-02 0. -1.
       -1   -1    0    0    0  501  0.00000000000E+00  0.00000000000E+00 -0.30812892306E+04  0.30812892306E+04  0.50400001928E-02 0.  1.
    10030    2    1    2    0    0  0.00000000000E+00  0.00000000000E+00 -0.18848596151E+04  0.42777188460E+04  0.38400758791E+04 0.  0.
        2    1    3    3  502    0 -0.19624006629E+03  0.79009376199E+03  0.99465241584E+03  0.12853372105E+04  0.25500000920E-02 0. -1.
       -2    1    3    3    0  502  0.19624006629E+03 -0.79009376199E+03 -0.28795120310E+04  0.29923816355E+04  0.25500000920E-02 0.  1.
</event>
<event>
 5   0  0.1648000E-07  0.3859858E+04  0.7818609E-02  0.8033430E-01
       -1   -1    0    0    0  501  0.00000000000E+00  0.00000000000E+00  0.15253956174E+04  0.15253956174E+04  0.50400001928E-02 0. -1.
        1   -1    0    0  501    0  0.00000000000E+00  0.00000000000E+00 -0.24417436731E+04  0.24417436731E+04  0.50400001928E-02 0.  1.
    10030    2    1    2    0    0  0.00000000000E+00  0.00000000000E+00 -0.91634805574E+03  0.39671392905E+04  0.38598575610E+04 0.  0.
        1    1    3    3  502    0  0.16655970016E+03 -0.61620816593E+03 -0.23301060155E+04  0.24159570942E+04  0.50400001928E-02 0.  1.
       -1    1    3    3    0  502 -0.16655970016E+03  0.61620816593E+03  0.14137579597E+04  0.15511821963E+04  0.50400001928E-02 0. -1.
</event>
<event>
 5   0  0.1648000E-07  0.3694920E+04  0.7818609E-02  0.8069089E-01
       -1   -1    0    0    0  501  0.00000000000E+00  0.00000000000E+00  0.13085562724E+04  0.13085562724E+04  0.50400001928E-02 0.  1.
        1   -1    0    0  501    0  0.00000000000E+00  0.00000000000E+00 -0.26083011294E+04  0.26083011294E+04  0.50400001928E-02 0. -1.
    10030    2    1    2    0    0  0.00000000000E+00  0.00000000000E+00 -0.12997448570E+04  0.39168574018E+04  0.36949201903E+04 0.  0.
        2    1    3    3  502    0  0.20959996696E+03 -0.17202278828E+04  0.28894625632E+02  0.17331909919E+04  0.25500000920E-02 0.  1.
       -2    1    3    3    0  502 -0.20959996696E+03  0.17202278828E+04 -0.13286394827E+04  0.21836664099E+04  0.25500000920E-02 0. -1.
</event>
<event>
 5   0  0.5132561E-07  0.3799795E+04  0.7818609E-02  0.8046199E-01
       -2   -1    0    0    0  501  0.00000000000E+00  0.00000000000E+00  0.18667941304E+04  0.18667941304E+04  0.25500000920E-02 0.  1.
        2   -1    0    0  501    0  0.00000000000E+00  0.00000000000E+00 -0.19335883082E+04  0.19335883082E+04  0.25500000920E-02 0. -1.
    10030    2    1    2    0    0  0.00000000000E+00  0.00000000000E+00 -0.66794177747E+02  0.38003824386E+04  0.37997954179E+04 0.  0.
        3    1    3    3  502    0 -0.14514180006E+04 -0.54190024154E+03  0.10664733103E+04  0.18808602861E+04  0.10100000352E+00 0.  1.
       -3    1    3    3    0  502  0.14514180006E+04  0.54190024154E+03 -0.11332674881E+04  0.19195221525E+04  0.10100000352E+00 0. -1.
</event>
<event>
 5   0  0.1648000E-07  0.3636647E+04  0.7818609E-02  0.8082148E-01
        1   -1    0    0  501    0  0.00000000000E+00  0.00000000000E+00  0.20520587616E+04  0.20520587616E+04  0.50400001928E-02 0. -1.
       -1   -1    0    0    0  501  0.00000000000E+00  0.00000000000E+00 -0.16112117157E+04  0.16112117157E+04  0.50400001928E-02 0.  1.
    10030    2    1    2    0    0  0.00000000000E+00  0.00000000000E+00  0.44084704593E+03  0.36632704773E+04  0.36366474220E+04 0.  0.
        2    1    3    3  502    0  0.11459644685E+04 -0.90527678947E+03 -0.87080780956E+03  0.17003137563E+04  0.25500000920E-02 0.  1.
       -2    1    3    3    0  502 -0.11459644685E+04  0.90527678947E+03  0.13116548555E+04  0.19629567210E+04  0.25500000920E-02 0. -1.
</event>
<event>
 5   0  0.5158266E-07  0.3566436E+04  0.7818609E-02  0.8098223E-01
       -2   -1    0    0    0  501  0.00000000000E+00  0.00000000000E+00  0.13905825448E+04  0.13905825448E+04  0.25500000920E-02 0.  1.
        2   -1    0    0  501    0  0.00000000000E+00  0.00000000000E+00 -0.22867155353E+04  0.22867155353E+04  0.25500000920E-02 0. -1.
    10030    2    1    2    0    0  0.00000000000E+00  0.00000000000E+00 -0.89613299050E+03  0.36772980802E+04  0.35664361530E+04 0.  0.
        2    1    3    3  502    0 -0.17621231932E+04  0.11774108204E+03 -0.70257030153E+03  0.19006699185E+04  0.25500000920E-02 0. -1.
       -2    1    3    3    0  502  0.17621231932E+04 -0.11774108204E+03 -0.19356268897E+03  0.17766281617E+04  0.25500000920E-02 0.  1.
</event>
<event>
 5   0  0.1648000E-07  0.3822604E+04  0.7818609E-02  0.8041321E-01
        1   -1    0    0  501    0  0.00000000000E+00  0.00000000000E+00  0.19135891139E+04  0.19135891139E+04  0.50400001928E-02 0.  1.
       -1   -1    0    0    0  501  0.00000000000E+00  0.00000000000E+00 -0.19090175741E+04  0.19090175741E+04  0.50400001928E-02 0. -1.
    10030    2    1    2    0    0  0.00000000000E+00  0.00000000000E+00  0.45715397717E+01  0.38226066880E+04  0.38226039544E+04 0.  0.
        3    1    3    3  502    0 -0.18681581530E+04  0.80129380728E+02  0.39806330790E+03  0.19117766631E+04  0.10100000352E+00 0. -1.
       -3    1    3    3    0  502  0.18681581530E+04 -0.80129380728E+02 -0.39349176813E+03  0.19108300249E+04  0.10100000352E+00 0.  1.
</event>
<event>
 5   0  0.1648000E-07  0.3141498E+04  0.7818609E-02  0.8204441E-01
       -1   -1    0    0    0  501  0.00000000000E+00  0.00000000000E+00  0.13201369524E+04  0.13201369524E+04  0.50400001928E-02 0. -1.
        1   -1    0    0  501    0  0.00000000000E+00  0.00000000000E+00 -0.18689366843E+04  0.18689366843E+04  0.50400001928E-02 0.  1.
    10030    2    1    2    0    0  0.00000000000E+00  0.00000000000E+00 -0.54879973192E+03  0.31890736367E+04  0.31414979730E+04 0.  0.
        1    1    3    3  502    0 -0.12392567852E+04 -0.38399208357E+03 -0.11732727514E+04  0.17492216124E+04  0.50400001928E-02 0.  1.
       -1    1    3    3    0  502  0.12392567852E+04  0.38399208357E+03  0.62447301952E+03  0.14398520243E+04  0.50400001928E-02 0. -1.
</event>
<event>
 5   0  0.5325362E-07  0.3713274E+04  0.7818609E-02  0.8065027E-01
       -2   -1    0    0    0  501  0.00000000000E+00  0.00000000000E+00  0.14784553533E+04  0.14784553533E+04  0.25500000920E-02 0.  1.
        2   -1    0    0  501    0  0.00000000000E+00  0.00000000000E+00 -0.23315554243E+04  0.23315554243E+04  0.25500000920E-02 0. -1.
    10030    2    1    2    0    0  0.00000000000E+00  0.00000000000E+00 -0.85310007101E+03  0.38100107775E+04  0.37132738108E+04 0.  0.
        4    1    3    3  502    0  0.71995848061E+03  0.35385700548E+03 -0.21445490770E+04  0.22896828057E+04  0.12699999809E+01 0. -1.
       -4    1    3    3    0  502 -0.71995848061E+03 -0.35385700548E+03  0.12914490060E+04  0.15203279719E+04  0.12699999809E+01 0.  1.
</event>
<event>
 5   0  0.5134434E-07  0.3811077E+04  0.7818609E-02  0.8043782E-01
        2   -1    0    0  501    0  0.00000000000E+00  0.00000000000E+00  0.14105651960E+04  0.14105651960E+04  0.25500000920E-02 0.  1.
       -2   -1    0    0    0  501  0.00000000000E+00  0.00000000000E+00 -0.25742001134E+04  0.25742001134E+04  0.25500000920E-02 0. -1.
    10030    2    1    2    0    0  0.00000000000E+00  0.00000000000E+00 -0.11636349174E+04  0.39847653094E+04  0.38110770591E+04 0.  0.
        5    1    3    3  502    0  0.36231338599E+03  0.16456263468E+04 -0.15121426344E+04  0.22640570884E+04  0.46999998093E+01 0. -1.
       -5    1    3    3    0  502 -0.36231338599E+03 -0.16456263468E+04  0.34850771708E+03  0.17207082210E+04  0.46999998093E+01 0.  1.
</event>
<event>
 5   0  0.1648000E-07  0.3791405E+04  0.7818609E-02  0.8048002E-01
       -1   -1    0    0    0  501  0.00000000000E+00  0.00000000000E+00  0.14466411780E+04  0.14466411780E+04  0.50400001928E-02 0. -1.
        1   -1    0    0  501    0  0.00000000000E+00  0.00000000000E+00 -0.24841600443E+04  0.24841600443E+04  0.50400001928E-02 0.  1.
    10030    2    1    2    0    0  0.00000000000E+00  0.00000000000E+00 -0.10375188663E+04  0.39308012223E+04  0.37914051289E+04 0.  0.
        2    1    3    3  502    0 -0.53471721920E+02 -0.69262167132E+03  0.13099224752E+04  0.14827275190E+04  0.25500000920E-02 0. -1.
       -2    1    3    3    0  502  0.53471721920E+02  0.69262167132E+03 -0.23474413415E+04  0.24480737033E+04  0.25500000920E-02 0.  1.
</event>
<event>
 5   0  0.1648000E-07  0.3779018E+04  0.7818609E-02  0.8050673E-01
       -1   -1    0    0    0  501  0.00000000000E+00  0.00000000000E+00  0.14077652177E+04  0.14077652177E+04  0.50400001928E-02 0.  1.
        1   -1    0    0  501    0  0.00000000000E+00  0.00000000000E+00 -0.25361074328E+04  0.25361074328E+04  0.50400001928E-02 0. -1.
    10030    2    1    2    0    0  0.00000000000E+00  0.00000000000E+00 -0.11283422151E+04  0.39438726505E+04  0.37790177731E+04 0.  0.
        2    1    3    3  502    0  0.16645939100E+04 -0.91181078467E+02  0.36404227566E+03  0.17063744176E+04  0.25500000920E-02 0.  1.
       -2    1    3    3    0  502 -0.16645939100E+04  0.91181078467E+02 -0.14923844907E+04  0.22374982330E+04  0.25500000920E-02 0. -1.
</event>
<event>
 5   0  0.1648000E-07  0.3819457E+04  0.7818609E-02  0.8041992E-01
        1   -1    0    0  501    0  0.00000000000E+00  0.00000000000E+00  0.20243896964E+04  0.20243896964E+04  0.50400001928E-02 0. -1.
       -1   -1    0    0    0  501  0.00000000000E+00  0.00000000000E+00 -0.18015615026E+04  0.18015615027E+04  0.50400001928E-02 0.  1.
    10030    2    1    2    0    0  0.00000000000E+00  0.00000000000E+00  0.22282819373E+03  0.38259511990E+04  0.38194567904E+04 0.  0.
        1    1    3    3  502    0 -0.13814943729E+04 -0.11530259162E+04 -0.52925693684E+03  0.18756621154E+04  0.50400001928E-02 0.  1.
       -1    1    3    3    0  502  0.13814943729E+04  0.11530259162E+04  0.75208513057E+03  0.19502890836E+04  0.50400001928E-02 0. -1.
</event>
<event>
 5   0  0.1656617E-07  0.3818827E+04  0.7818609E-02  0.8042127E-01
        1   -1    0    0  501    0  0.00000000000E+00  0.00000000000E+00  0.19461337444E+04  0.19461337444E+04  0.50400001928E-02 0.  1.
       -1   -1    0    0    0  501  0.00000000000E+00  0.00000000000E+00 -0.18733857679E+04  0.18733857680E+04  0.50400001928E-02 0. -1.
    10030    2    1    2    0    0  0.00000000000E+00  0.00000000000E+00  0.72747976424E+02  0.38195195123E+04  0.38188266571E+04 0.  0.
        5    1    3    3  502    0 -0.59197766074E+03  0.93399339343E+03  0.15932732387E+04  0.19394130331E+04  0.46999998093E+01 0.  1.
       -5    1    3    3    0  502  0.59197766074E+03 -0.93399339343E+03 -0.15205252623E+04  0.18801064792E+04  0.46999998093E+01 0. -1.
</event>
<event>
 5   0  0.1648000E-07  0.3794455E+04  0.7818609E-02  0.8047346E-01
        1   -1    0    0  501    0  0.00000000000E+00  0.00000000000E+00  0.21491581911E+04  0.21491581911E+04  0.50400001928E-02 0.  1.
       -1   -1    0    0    0  501  0.00000000000E+00  0.00000000000E+00 -0.16748284718E+04  0.16748284718E+04  0.50400001928E-02 0. -1.
    10030    2    1    2    0    0  0.00000000000E+00  0.00000000000E+00  0.47432971933E+03  0.38239866629E+04  0.37944545478E+04 0.  0.
        3    1    3    3  502    0  0.82071205854E+03 -0.10954771471E+03  0.19574661282E+04  0.21253805867E+04  0.10100000352E+00 0.  1.
       -3    1    3    3    0  502 -0.82071205854E+03  0.10954771471E+03 -0.14831364089E+04  0.16986060763E+04  0.10100000352E+00 0. -1.
</event>
<event>
 5   0  0.5202788E-07  0.3796440E+04  0.7818609E-02  0.8046919E-01
        2   -1    0    0  501    0  0.00000000000E+00  0.00000000000E+00  0.24775623823E+04  0.24775623823E+04  0.25500000920E-02 0. -1.
       -2   -1    0    0    0  501  0.00000000000E+00  0.00000000000E+00 -0.14543488692E+04  0.14543488692E+04  0.25500000920E-02 0.  1.
    10030    2    1    2    0    0  0.00000000000E+00  0.00000000000E+00  0.10232135131E+04  0.39319112515E+04  0.37964404640E+04 0.  0.
        1    1    3    3  502    0 -0.29836240537E+03  0.25378919030E+03  0.24352510236E+04  0.24665515657E+04  0.50400001928E-02 0. -1.
       -1    1    3    3    0  502  0.29836240537E+03 -0.25378919030E+03 -0.14120375105E+04  0.14653596859E+04  0.50400001928E-02 0.  1.
</event>
<event>
 5   0  0.1656617E-07  0.3789998E+04  0.7818609E-02  0.8048305E-01
       -1   -1    0    0    0  501  0.00000000000E+00  0.00000000000E+00  0.17950982331E+04  0.17950982331E+04  0.50400001928E-02 0.  1.
        1   -1    0    0  501    0  0.00000000000E+00  0.00000000000E+00 -0.20004593708E+04  0.20004593708E+04  0.50400001928E-02 0. -1.
    10030    2    1    2    0    0  0.00000000000E+00  0.00000000000E+00 -0.20536113769E+03  0.37955576040E+04  0.37899979325E+04 0.  0.
        5    1    3    3  502    0  0.60742353731E+03 -0.17941320806E+04 -0.15867068286E+03  0.19008081839E+04  0.46999998093E+01 0.  1.
       -5    1    3    3    0  502 -0.60742353731E+03  0.17941320806E+04 -0.46690454830E+02  0.18947494201E+04  0.46999998093E+01 0. -1.
</event>
<event>
 5   0  0.1648000E-07  0.2870642E+04  0.7818609E-02  0.8281666E-01
        1   -1    0    0  501    0  0.00000000000E+00  0.00000000000E+00  0.28527136129E+04  0.28527136129E+04  0.50400001928E-02 0. -1.
       -1   -1    0    0    0  501  0.00000000000E+00  0.00000000000E+00 -0.72217056150E+03  0.72217056151E+03  0.50400001928E-02 0.  1.
    10030    2    1    2    0    0  0.00000000000E+00  0.00000000000E+00  0.21305430514E+04  0.35748841745E+04  0.28706415950E+04 0.  0.
        1    1    3    3  502    0  0.86742718131E+03  0.36797309884E+03  0.24136274481E+04  0.25910290571E+04  0.50400001928E-02 0. -1.
       -1    1    3    3    0  502 -0.86742718131E+03 -0.36797309884E+03 -0.28308439666E+03  0.98385511738E+03  0.50400001928E-02 0.  1.
</event>
<event>
 5   0  0.1648000E-07  0.2850909E+04  0.7818609E-02  0.8287635E-01
       -1   -1    0    0    0  501  0.00000000000E+00  0.00000000000E+00  0.15605155287E+04  0.15605155287E+04  0.50400001928E-02 0.  1.
        1   -1    0    0  501    0  0.00000000000E+00  0.00000000000E+00 -0.13020825626E+04  0.13020825626E+04  0.50400001928E-02 0. -1.
    10030    2    1    2    0    0  0.00000000000E+00  0.00000000000E+00  0.25843296610E+03  0.28625980914E+04  0.28509086682E+04 0.  0.
        3    1    3    3  502    0  0.10144806179E+04  0.46601743962E+03  0.10191783880E+04  0.15116440635E+04  0.10100000352E+00 0.  1.
       -3    1    3    3    0  502 -0.10144806179E+04 -0.46601743962E+03 -0.76074542187E+03  0.13509540278E+04  0.10100000352E+00 0. -1.
</event>
<event>
 5   0  0.1648000E-07  0.3769336E+04  0.7818609E-02  0.8052767E-01
       -1   -1    0    0    0  501  0.00000000000E+00  0.00000000000E+00  0.19439037109E+04  0.19439037109E+04  0.50400001928E-02 0. -1.
        1   -1    0    0  501    0  0.00000000000E+00  0.00000000000E+00 -0.18272377442E+04  0.18272377442E+04  0.50400001928E-02 0.  1.
    10030    2    1    2    0    0  0.00000000000E+00  0.00000000000E+00  0.11666596671E+03  0.37711414551E+04  0.37693364040E+04 0.  0.
        4    1    3    3  502    0  0.91501489255E+03  0.12008597898E+04  0.11869938339E+04  0.19204875586E+04  0.12699999809E+01 0. -1.
       -4    1    3    3    0  502 -0.91501489255E+03 -0.12008597898E+04 -0.10703278671E+04  0.18506538964E+04  0.12699999809E+01 0.  1.
</event>
<event>
 5   0  0.1648000E-07  0.3011097E+04  0.7818609E-02  0.8240569E-01
       -1   -1    0    0    0  501  0.00000000000E+00  0.00000000000E+00  0.99853588085E+03  0.99853588086E+03  0.50400001928E-02 0. -1.
        1   -1    0    0  501    0  0.00000000000E+00  0.00000000000E+00 -0.22699998035E+04  0.22699998035E+04  0.50400001928E-02 0.  1.
    10030    2    1    2    0    0  0.00000000000E+00  0.00000000000E+00 -0.12714639226E+04  0.32685356843E+04  0.30110969784E+04 0.  0.
        3    1    3    3  502    0 -0.98783674298E+03  0.10670047722E+04 -0.21203266858E+03  0.14694483582E+04  0.10100000352E+00 0. -1.
       -3    1    3    3    0  502  0.98783674298E+03 -0.10670047722E+04 -0.10594312541E+04  0.17990873261E+04  0.10100000352E+00 0.  1.
</event>
<event>
 5   0  0.5202788E-07  0.3788850E+04  0.7818609E-02  0.8048552E-01
        2   -1    0    0  501    0  0.00000000000E+00  0.00000000000E+00  0.25748305307E+04  0.25748305307E+04  0.25500000920E-02 0. -1.
       -2   -1    0    0    0  501  0.00000000000E+00  0.00000000000E+00 -0.13938183209E+04  0.13938183209E+04  0.25500000920E-02 0.  1.
    10030    2    1    2    0    0  0.00000000000E+00  0.00000000000E+00  0.11810122098E+04  0.39686488516E+04  0.37888499400E+04 0.  0.
        1    1    3    3  502    0  0.16998452303E+04 -0.83334489951E+03  0.51712116606E+03  0.19624861347E+04  0.50400001928E-02 0. -1.
       -1    1    3    3    0  502 -0.16998452303E+04  0.83334489951E+03  0.66389104373E+03  0.20061627169E+04  0.50400001928E-02 0.  1.
</event>
<event>
 5   0  0.5132561E-07  0.3833592E+04  0.7818609E-02  0.8038984E-01
        2   -1    0    0  501    0  0.00000000000E+00  0.00000000000E+00  0.24580996472E+04  0.24580996472E+04  0.25500000920E-02 0.  1.
       -2   -1    0    0    0  501  0.00000000000E+00  0.00000000000E+00 -0.14946940906E+04  0.14946940906E+04  0.25500000920E-02 0. -1.
    10030    2    1    2    0    0  0.00000000000E+00  0.00000000000E+00  0.96340555658E+03  0.39527937379E+04  0.38335920581E+04 0.  0.
        3    1    3    3  502    0 -0.28234816905E+03 -0.16266698907E+03 -0.14659259570E+04  0.15017056834E+04  0.10100000352E+00 0. -1.
       -3    1    3    3    0  502  0.28234816905E+03  0.16266698907E+03  0.24293315136E+04  0.24510880545E+04  0.10100000352E+00 0.  1.
</event>
<event>
 5   0  0.1648000E-07  0.3764190E+04  0.7818609E-02  0.8053884E-01
        1   -1    0    0  501    0  0.00000000000E+00  0.00000000000E+00  0.28395742235E+04  0.28395742235E+04  0.50400001928E-02 0. -1.
       -1   -1    0    0    0  501  0.00000000000E+00  0.00000000000E+00 -0.12474691279E+04  0.12474691279E+04  0.50400001928E-02 0.  1.
    10030    2    1    2    0    0  0.00000000000E+00  0.00000000000E+00  0.15921050956E+04  0.40870433514E+04  0.37641897827E+04 0.  0.
        3    1    3    3  502    0 -0.49444553172E+03 -0.88379114531E+02  0.27654586549E+04  0.28107025516E+04  0.10100000352E+00 0. -1.
       -3    1    3    3    0  502  0.49444553172E+03  0.88379114531E+02 -0.11733535593E+04  0.12763407997E+04  0.10100000352E+00 0.  1.
</event>
<event>
 5   0  0.5134434E-07  0.3910645E+04  0.7818609E-02  0.8022819E-01
       -2   -1    0    0    0  501  0.00000000000E+00  0.00000000000E+00  0.11325104348E+04  0.11325104348E+04  0.25500000920E-02 0. -1.
        2   -1    0    0  501    0  0.00000000000E+00  0.00000000000E+00 -0.33759389260E+04  0.33759389260E+04  0.25500000920E-02 0.  1.
    10030    2    1    2    0    0  0.00000000000E+00  0.00000000000E+00 -0.22434284911E+04  0.45084493608E+04  0.39106449908E+04 0.  0.
        5    1    3    3  502    0 -0.64528144587E+03 -0.39172871062E+03 -0.32011675206E+04  0.32889717408E+04  0.46999998093E+01 0.  1.
       -5    1    3    3    0  502  0.64528144587E+03  0.39172871062E+03  0.95773902943E+03  0.12194776200E+04  0.46999998093E+01 0. -1.
</event>
<event>
 5   0  0.1648000E-07  0.3811504E+04  0.7818609E-02  0.8043691E-01
       -1   -1    0    0    0  501  0.00000000000E+00  0.00000000000E+00  0.13645231244E+04  0.13645231244E+04  0.50400001928E-02 0.  1.
        1   -1    0    0  501    0  0.00000000000E+00  0.00000000000E+00 -0.26616562434E+04  0.26616562434E+04  0.50400001928E-02 0. -1.
    10030    2    1    2    0    0  0.00000000000E+00  0.00000000000E+00 -0.12971331189E+04  0.40261793678E+04  0.38115044239E+04 0.  0.
        4    1    3    3  502    0 -0.85182245836E+03 -0.14137880725E+04  0.35771152296E+03  0.16888923473E+04  0.12699999809E+01 0.  1.
       -4    1    3    3    0  502  0.85182245836E+03  0.14137880725E+04 -0.16548446419E+04  0.23372870205E+04  0.12699999809E+01 0. -1.
</event>
<event>
 5   0  0.1648000E-07  0.2918745E+04  0.7818609E-02  0.8267322E-01
        1   -1    0    0  501    0  0.00000000000E+00  0.00000000000E+00  0.10856470911E+04  0.10856470911E+04  0.50400001928E-02 0. -1.
       -1   -1    0    0    0  501  0.00000000000E+00  0.00000000000E+00 -0.19617504490E+04  0.19617504490E+04  0.50400001928E-02 0.  1.
    10030    2    1    2    0    0  0.00000000000E+00  0.00000000000E+00 -0.87610335789E+03  0.30473975401E+04  0.29187453937E+04 0.  0.
        2    1    3    3  502    0 -0.10830280279E+04  0.81858580211E+03  0.12102862935E+03  0.13629674808E+04  0.25500000920E-02 0. -1.
       -2    1    3    3    0  502  0.10830280279E+04 -0.81858580211E+03 -0.99713198725E+03  0.16844300593E+04  0.25500000920E-02 0.  1.
</event>
<event>
 5   0  0.1648000E-07  0.3792507E+04  0.7818609E-02  0.8047765E-01
        1   -1    0    0  501    0  0.00000000000E+00  0.00000000000E+00  0.19950858427E+04  0.19950858427E+04  0.50400001928E-02 0. -1.
       -1   -1    0    0    0  501  0.00000000000E+00  0.00000000000E+00 -0.18023167151E+04  0.18023167151E+04  0.50400001928E-02 0.  1.
    10030    2    1    2    0    0  0.00000000000E+00  0.00000000000E+00  0.19276912761E+03  0.37974025578E+04  0.37925065919E+04 0.  0.
        1    1    3    3  502    0 -0.16831328032E+04 -0.85718495962E+03  0.26415526111E+03  0.19072178927E+04  0.50400001928E-02 0. -1.
       -1    1    3    3    0  502  0.16831328032E+04  0.85718495962E+03 -0.71386133494E+02  0.18901846651E+04  0.50400001928E-02 0.  1.
</event>
<event>
 5   0  0.1656617E-07  0.3755222E+04  0.7818609E-02  0.8055833E-01
        1   -1    0    0  501    0  0.00000000000E+00  0.00000000000E+00  0.26295485684E+04  0.26295485684E+04  0.50400001928E-02 0.  1.
       -1   -1    0    0    0  501  0.00000000000E+00  0.00000000000E+00 -0.13406950649E+04  0.13406950649E+04  0.50400001928E-02 0. -1.
    10030    2    1    2    0    0  0.00000000000E+00  0.00000000000E+00  0.12888535035E+04  0.39702436333E+04  0.37552218516E+04 0.  0.
        5    1    3    3  502    0  0.16015721441E+04 -0.93526586655E+03  0.33501779499E+03  0.18846789082E+04  0.46999998093E+01 0.  1.
       -5    1    3    3    0  502 -0.16015721441E+04  0.93526586655E+03  0.95383570846E+03  0.20855647251E+04  0.46999998093E+01 0. -1.
</event>
<event>
 5   0  0.5134434E-07  0.3798473E+04  0.7818609E-02  0.8046483E-01
        2   -1    0    0  501    0  0.00000000000E+00  0.00000000000E+00  0.26711504035E+04  0.26711504035E+04  0.25500000920E-02 0. -1.
       -2   -1    0    0    0  501  0.00000000000E+00  0.00000000000E+00 -0.13503919283E+04  0.13503919283E+04  0.25500000920E-02 0.  1.
    10030    2    1    2    0    0  0.00000000000E+00  0.00000000000E+00  0.13207584752E+04  0.40215423317E+04  0.37984733481E+04 0.  0.
        5    1    3    3  502    0 -0.78680870643E+03  0.11276457594E+04  0.20474415477E+04  0.24663113916E+04  0.46999998093E+01 0. -1.
       -5    1    3    3    0  502  0.78680870643E+03 -0.11276457594E+04 -0.72668307250E+03  0.15552309401E+04  0.46999998093E+01 0.  1.
</event>
<event>
 5   0  0.5325362E-07  0.3745257E+04  0.7818609E-02  0.8058006E-01
        2   -1    0    0  501    0  0.00000000000E+00  0.00000000000E+00  0.16948867812E+04  0.16948867812E+04  0.25500000920E-02 0.  1.
       -2   -1    0    0    0  501  0.00000000000E+00  0.00000000000E+00 -0.20690100170E+04  0.20690100170E+04  0.25500000920E-02 0. -1.
    10030    2    1    2    0    0  0.00000000000E+00  0.00000000000E+00 -0.37412323577E+03  0.37638967982E+04  0.37452571223E+04 0.  0.
        4    1    3    3  502    0 -0.28589533377E+03 -0.18502268507E+04 -0.14610866372E+03  0.18778777637E+04  0.12699999809E+01 0. -1.
       -4    1    3    3    0  502  0.28589533377E+03  0.18502268507E+04 -0.22801457204E+03  0.18860190346E+04  0.12699999809E+01 0.  1.
</event>
<event>
 5   0  0.1656617E-07  0.3759138E+04  0.7818609E-02  0.8054981E-01
        1   -1    0    0  501    0  0.00000000000E+00  0.00000000000E+00  0.18879100765E+04  0.18879100765E+04  0.50400001928E-02 0. -1.
       -1   -1    0    0    0  501  0.00000000000E+00  0.00000000000E+00 -0.18712644819E+04  0.18712644819E+04  0.50400001928E-02 0.  1.
    10030    2    1    2    0    0  0.00000000000E+00  0.00000000000E+00  0.16645594608E+02  0.37591745584E+04  0.37591377049E+04 0.  0.
        5    1    3    3  502    0 -0.13838754575E+04 -0.72615713036E+03  0.10525272313E+04  0.18842110080E+04  0.46999998093E+01 0.  1.
       -5    1    3    3    0  502  0.13838754575E+04  0.72615713036E+03 -0.10358816367E+04  0.18749635504E+04  0.46999998093E+01 0. -1.
</event>
<event>
 5   0  0.1648000E-07  0.3814922E+04  0.7818609E-02  0.8042960E-01
        3   -1    0    0  501    0  0.00000000000E+00  0.00000000000E+00  0.14805761193E+04  0.14805761227E+04  0.10100000352E+00 0. -1.
       -3   -1    0    0    0  501  0.00000000000E+00  0.00000000000E+00 -0.24574271221E+04  0.24574271242E+04  0.10100000352E+00 0.  1.
    10030    2    1    2    0    0  0.00000000000E+00  0.00000000000E+00 -0.97685100283E+03  0.39380032469E+04  0.38149222391E+04 0.  0.
        5    1    3    3  502    0  0.15220621142E+04  0.36940598306E+03  0.63539182443E+03  0.16902303749E+04  0.46999998093E+01 0. -1.
       -5    1    3    3    0  502 -0.15220621142E+04 -0.36940598306E+03 -0.16122428273E+04  0.22477728719E+04  0.46999998093E+01 0.  1.
</event>
<event>
 5   0  0.5202788E-07  0.3810426E+04  0.7818609E-02  0.8043921E-01
        2   -1    0    0  501    0  0.00000000000E+00  0.00000000000E+00  0.18938988413E+04  0.18938988413E+04  0.25500000920E-02 0. -1.
       -2   -1    0    0    0  501  0.00000000000E+00  0.00000000000E+00 -0.19165952220E+04  0.19165952220E+04  0.25500000920E-02 0.  1.
    10030    2    1    2    0    0  0.00000000000E+00  0.00000000000E+00 -0.22696380636E+02  0.38104940633E+04  0.38104264697E+04 0.  0.
        1    1    3    3  502    0  0.10687506323E+04 -0.15715312628E+04  0.12244150084E+03  0.19044501424E+04  0.50400001928E-02 0.  1.
       -1    1    3    3    0  502 -0.10687506323E+04  0.15715312628E+04 -0.14513788148E+03  0.19060439209E+04  0.50400001928E-02 0. -1.
</event>
<event>
 5   0  0.5325362E-07  0.3695342E+04  0.7818609E-02  0.8068995E-01
        2   -1    0    0  501    0  0.00000000000E+00  0.00000000000E+00  0.19941682675E+04  0.19941682675E+04  0.25500000920E-02 0. -1.
       -2   -1    0    0    0  501  0.00000000000E+00  0.00000000000E+00 -0.17119354056E+04  0.17119354056E+04  0.25500000920E-02 0.  1.
    10030    2    1    2    0    0  0.00000000000E+00  0.00000000000E+00  0.28223286192E+03  0.37061036731E+04  0.36953415333E+04 0.  0.
        4    1    3    3  502    0 -0.64311272887E+03 -0.17265769030E+04  0.28017038232E+03  0.18636412852E+04  0.12699999809E+01 0. -1.
       -4    1    3    3    0  502  0.64311272887E+03  0.17265769030E+04  0.20624796014E+01  0.18424623879E+04  0.12699999809E+01 0.  1.
</event>
<event>
 5   0  0.5325362E-07  0.3590387E+04  0.7818609E-02  0.8092697E-01
        2   -1    0    0  501    0  0.00000000000E+00  0.00000000000E+00  0.22524200846E+04  0.22524200846E+04  0.25500000920E-02 0.  1.
       -2   -1    0    0    0  501  0.00000000000E+00  0.00000000000E+00 -0.14307807506E+04  0.14307807506E+04  0.25500000920E-02 0. -1.
    10030    2    1    2    0    0  0.00000000000E+00  0.00000000000E+00  0.82163933399E+03  0.36832008352E+04  0.35903867754E+04 0.  0.
        4    1    3    3  502    0 -0.10622074879E+03  0.13150074918E+04  0.16597439913E+04  0.21202073673E+04  0.12699999809E+01 0.  1.
       -4    1    3    3    0  502  0.10622074879E+03 -0.13150074918E+04 -0.83810465728E+03  0.15629934678E+04  0.12699999809E+01 0. -1.
</event>
<event>
 5   0  0.1648000E-07  0.3116837E+04  0.7818609E-02  0.8211132E-01
        1   -1    0    0  501    0  0.00000000000E+00  0.00000000000E+00  0.11234465955E+04  0.11234465956E+04  0.50400001928E-02 0.  1.
       -1   -1    0    0    0  501  0.00000000000E+00  0.00000000000E+00 -0.21618018780E+04  0.21618018780E+04  0.50400001928E-02 0. -1.
    10030    2    1    2    0    0  0.00000000000E+00  0.00000000000E+00 -0.10383552825E+04  0.32852484736E+04  0.31168374742E+04 0.  0.
        1    1    3    3  502    0  0.15158816302E+04 -0.35158657135E+03 -0.42999672261E+03  0.16144371822E+04  0.50400001928E-02 0.  1.
       -1    1    3    3    0  502 -0.15158816302E+04  0.35158657135E+03 -0.60835855987E+03  0.16708112913E+04  0.50400001928E-02 0. -1.
</event>
<event>
 5   0  0.1648000E-07  0.3235333E+04  0.7818609E-02  0.8179548E-01
       -1   -1    0    0    0  501  0.00000000000E+00  0.00000000000E+00  0.15922461677E+04  0.15922461677E+04  0.50400001928E-02 0.  1.
        1   -1    0    0  501    0  0.00000000000E+00  0.00000000000E+00 -0.16434928794E+04  0.16434928795E+04  0.50400001928E-02 0. -1.
    10030    2    1    2    0    0  0.00000000000E+00  0.00000000000E+00 -0.51246711782E+02  0.32357390471E+04  0.32353332063E+04 0.  0.
        3    1    3    3  502    0  0.15928262380E+04 -0.97946222905E+02  0.23928029394E+03  0.16136740551E+04  0.10100000352E+00 0.  1.
       -3    1    3    3    0  502 -0.15928262380E+04  0.97946222905E+02 -0.29052700573E+03  0.16220649920E+04  0.10100000352E+00 0. -1.
</event>
<event>
 5   0  0.1648000E-07  0.3813085E+04  0.7818609E-02  0.8043353E-01
       -1   -1    0    0    0  501  0.00000000000E+00  0.00000000000E+00  0.11555788537E+04  0.11555788537E+04  0.50400001928E-02 0. -1.
        1   -1    0    0  501    0  0.00000000000E+00  0.00000000000E+00 -0.31455264836E+04  0.31455264836E+04  0.50400001928E-02 0.  1.
    10030    2    1    2    0    0  0.00000000000E+00  0.00000000000E+00 -0.19899476299E+04  0.43011053373E+04  0.38130847818E+04 0.  0.
        3    1    3    3  502    0 -0.29135176761E+03 -0.40539592255E+03 -0.30704897360E+04  0.31108100127E+04  0.10100000352E+00 0.  1.
       -3    1    3    3    0  502  0.29135176761E+03  0.40539592255E+03  0.10805421061E+04  0.11902953246E+04  0.10100000352E+00 0. -1.
</event>
<event>
 5   0  0.5325362E-07  0.3807927E+04  0.7818609E-02  0.8044456E-01
        2   -1    0    0  501    0  0.00000000000E+00  0.00000000000E+00  0.23409133021E+04  0.23409133021E+04  0.25500000920E-02 0. -1.
       -2   -1    0    0    0  501  0.00000000000E+00  0.00000000000E+00 -0.15485735073E+04  0.15485735073E+04  0.25500000920E-02 0.  1.
    10030    2    1    2    0    0  0.00000000000E+00  0.00000000000E+00  0.79233979480E+03  0.38894868094E+04  0.38079266392E+04 0.  0.
        4    1    3    3  502    0  0.28063401073E+03  0.17415206340E+04  0.11280539704E+04  0.20938378494E+04  0.12699999809E+01 0. -1.
       -4    1    3    3    0  502 -0.28063401073E+03 -0.17415206340E+04 -0.33571417558E+03  0.17956489599E+04  0.12699999809E+01 0.  1.
</event>
<event>
 5   0  0.1648000E-07  0.3791946E+04  0.7818609E-02  0.8047885E-01
        1   -1    0    0  501    0  0.00000000000E+00  0.00000000000E+00  0.16208798084E+04  0.16208798084E+04  0.50400001928E-02 0. -1.
       -1   -1    0    0    0  501  0.00000000000E+00  0.00000000000E+00 -0.22177548221E+04  0.22177548221E+04  0.50400001928E-02 0.  1.
    10030    2    1    2    0    0  0.00000000000E+00  0.00000000000E+00 -0.59687501366E+03  0.38386346305E+04  0.37919462080E+04 0.  0.
        4    1    3    3  502    0  0.14011235823E+04 -0.12450494183E+04 -0.58728745473E+03  0.19642310237E+04  0.12699999809E+01 0.  1.
       -4    1    3    3    0  502 -0.14011235823E+04  0.12450494183E+04 -0.95875589320E+01  0.18744036068E+04  0.12699999809E+01 0. -1.
</event>
<event>
 5   0  0.5202788E-07  0.3684017E+04  0.7818609E-02  0.8071513E-01
       -2   -1    0    0    0  501  0.00000000000E+00  0.00000000000E+00  0.11705755333E+04  0.11705755333E+04  0.25500000920E-02 0. -1.
        2   -1    0    0  501    0  0.00000000000E+00  0.00000000000E+00 -0.28985701256E+04  0.28985701256E+04  0.25500000920E-02 0.  1.
    10030    2    1    2    0    0  0.00000000000E+00  0.00000000000E+00 -0.17279945923E+04  0.40691456588E+04  0.36840169763E+04 0.  0.
        1    1    3    3  502    0  0.13277054260E+04  0.12677049070E+04 -0.69605687073E+03  0.19632556117E+04  0.50400001928E-02 0.  1.
       -1    1    3    3    0  502 -0.13277054260E+04 -0.12677049070E+04 -0.10319377215E+04  0.21058900472E+04  0.50400001928E-02 0. -1.
</event>
<event>
 5   0  0.1656617E-07  0.3137486E+04  0.7818609E-02  0.8205525E-01
        1   -1    0    0  501    0  0.00000000000E+00  0.00000000000E+00  0.25389006096E+04  0.25389006096E+04  0.50400001928E-02 0. -1.
       -1   -1    0    0    0  501  0.00000000000E+00  0.00000000000E+00 -0.96929937614E+03  0.96929937615E+03  0.50400001928E-02 0.  1.
    10030    2    1    2    0    0  0.00000000000E+00  0.00000000000E+00  0.15696012335E+04  0.35081999858E+04  0.31374861128E+04 0.  0.
        5    1    3    3  502    0  0.14956655261E+04 -0.10830858947E+03  0.12998649497E+04  0.19845445558E+04  0.46999998093E+01 0.  1.
       -5    1    3    3    0  502 -0.14956655261E+04  0.10830858947E+03  0.26973628379E+03  0.15236554300E+04  0.46999998093E+01 0. -1.
</event>
<event>
 5   0  0.5132561E-07  0.3797412E+04  0.7818609E-02  0.8046711E-01
       -2   -1    0    0    0  501  0.00000000000E+00  0.00000000000E+00  0.24479848300E+04  0.24479848300E+04  0.25500000920E-02 0.  1.
        2   -1    0    0  501    0  0.00000000000E+00  0.00000000000E+00 -0.14726739655E+04  0.14726739655E+04  0.25500000920E-02 0. -1.
    10030    2    1    2    0    0  0.00000000000E+00  0.00000000000E+00  0.97531086451E+03  0.39206587955E+04  0.37974115011E+04 0.  0.
        3    1    3    3  502    0 -0.12920188529E+04  0.13591371315E+04  0.18048113462E+03  0.18839161097E+04  0.10100000352E+00 0. -1.
       -3    1    3    3    0  502  0.12920188529E+04 -0.13591371315E+04  0.79482972989E+03  0.20367426858E+04  0.10100000352E+00 0.  1.
</event>
<event>
 5   0  0.5202788E-07  0.3783250E+04  0.7818609E-02  0.8049759E-01
        2   -1    0    0  501    0  0.00000000000E+00  0.00000000000E+00  0.16958597622E+04  0.16958597622E+04  0.25500000920E-02 0.  1.
       -2   -1    0    0    0  501  0.00000000000E+00  0.00000000000E+00 -0.21099891434E+04  0.21099891434E+04  0.25500000920E-02 0. -1.
    10030    2    1    2    0    0  0.00000000000E+00  0.00000000000E+00 -0.41412938121E+03  0.38058489056E+04  0.37832502888E+04 0.  0.
        1    1    3    3  502    0  0.12548561152E+04  0.93569800582E+03  0.86137705305E+03  0.17866631063E+04  0.50400001928E-02 0.  1.
       -1    1    3    3    0  502 -0.12548561152E+04 -0.93569800582E+03 -0.12755064343E+04  0.20191857992E+04  0.50400001928E-02 0. -1.
</event>
<event>
 5   0  0.1656617E-07  0.2764555E+04  0.7818609E-02  0.8314358E-01
       -1   -1    0    0    0  501  0.00000000000E+00  0.00000000000E+00  0.87816551281E+03  0.87816551283E+03  0.50400001928E-02 0. -1.
        1   -1    0    0  501    0  0.00000000000E+00  0.00000000000E+00 -0.21757751480E+04  0.21757751481E+04  0.50400001928E-02 0.  1.
    10030    2    1    2    0    0  0.00000000000E+00  0.00000000000E+00 -0.12976096352E+04  0.30539406609E+04  0.27645547191E+04 0.  0.
        5    1    3    3  502    0  0.99754785434E+03 -0.71227086902E+03 -0.13546210418E+04  0.18268693903E+04  0.46999998093E+01 0.  1.
       -5    1    3    3    0  502 -0.99754785434E+03  0.71227086902E+03  0.57011406520E+02  0.12270712706E+04  0.46999998093E+01 0. -1.
</event>
<event>
 5   0  0.1648000E-07  0.3706092E+04  0.7818609E-02  0.8066613E-01
        1   -1    0    0  501    0  0.00000000000E+00  0.00000000000E+00  0.25902777658E+04  0.25902777658E+04  0.50400001928E-02 0. -1.
       -1   -1    0    0    0  501  0.00000000000E+00  0.00000000000E+00 -0.13256412988E+04  0.13256412988E+04  0.50400001928E-02 0.  1.
    10030    2    1    2    0    0  0.00000000000E+00  0.00000000000E+00  0.12646364670E+04  0.39159190646E+04  0.37060918400E+04 0.  0.
        2    1    3    3  502    0 -0.78845032009E+03 -0.16245461128E+04  0.10717682172E+04  0.20998788278E+04  0.25500000920E-02 0. -1.
       -2    1    3    3    0  502  0.78845032009E+03  0.16245461128E+04  0.19286824976E+03  0.18160402368E+04  0.25500000920E-02 0.  1.
</event>
<event>
 5   0  0.5158266E-07  0.3705872E+04  0.7818609E-02  0.8066662E-01
       -2   -1    0    0    0  501  0.00000000000E+00  0.00000000000E+00  0.20103041239E+04  0.20103041239E+04  0.25500000920E-02 0. -1.
        2   -1    0    0  501    0  0.00000000000E+00  0.00000000000E+00 -0.17078870719E+04  0.17078870719E+04  0.25500000920E-02 0.  1.
    10030    2    1    2    0    0  0.00000000000E+00  0.00000000000E+00  0.30241705196E+03  0.37181911958E+04  0.37058723258E+04 0.  0.
        2    1    3    3  502    0  0.45773179973E+03 -0.52061801079E+03 -0.15728781025E+04  0.17188679528E+04  0.25500000920E-02 0.  1.
       -2    1    3    3    0  502 -0.45773179973E+03  0.52061801079E+03  0.18752951545E+04  0.19993232430E+04  0.25500000920E-02 0. -1.
</event>
<event>
 5   0  0.5158266E-07  0.3868049E+04  0.7818609E-02  0.8031707E-01
       -2   -1    0    0    0  501  0.00000000000E+00  0.00000000000E+00  0.18620249771E+04  0.18620249771E+04  0.25500000920E-02 0. -1.
        2   -1    0    0  501    0  0.00000000000E+00  0.00000000000E+00 -0.20088084968E+04  0.20088084968E+04  0.25500000920E-02 0.  1.
    10030    2    1    2    0    0  0.00000000000E+00  0.00000000000E+00 -0.14678351971E+03  0.38708334739E+04  0.38680494285E+04 0.  0.
        2    1    3    3  502    0 -0.17711675298E+04  0.73631370060E+03  0.17429256750E+03  0.19260244504E+04  0.25500000920E-02 0.  1.
       -2    1    3    3    0  502  0.17711675298E+04 -0.73631370060E+03 -0.32107608721E+03  0.19448090236E+04  0.25500000920E-02 0. -1.
</event>
<event>
 5   0  0.1648000E-07  0.2778801E+04  0.7818609E-02  0.8309880E-01
       -1   -1    0    0    0  501  0.00000000000E+00  0.00000000000E+00  0.86814410449E+03  0.86814410450E+03  0.50400001928E-02 0. -1.
        1   -1    0    0  501    0  0.00000000000E+00  0.00000000000E+00 -0.22236335974E+04  0.22236335974E+04  0.50400001928E-02 0.  1.
    10030    2    1    2    0    0  0.00000000000E+00  0.00000000000E+00 -0.13554894929E+04  0.30917777019E+04  0.27788014670E+04 0.  0.
        3    1    3    3  502    0 -0.34671412586E+03  0.11270230927E+04 -0.14953897208E+04  0.19043587277E+04  0.10100000352E+00 0. -1.
       -3    1    3    3    0  502  0.34671412586E+03 -0.11270230927E+04  0.13990022782E+03  0.11874189743E+04  0.10100000352E+00 0.  1.
</event>
<event>
 5   0  0.1648000E-07  0.3816614E+04  0.7818609E-02  0.8042599E-01
        1   -1    0    0  501    0  0.00000000000E+00  0.00000000000E+00  0.15261161604E+04  0.15261161604E+04  0.50400001928E-02 0. -1.
       -1   -1    0    0    0  501  0.00000000000E+00  0.00000000000E+00 -0.23862114515E+04  0.23862114515E+04  0.50400001928E-02 0.  1.
    10030    2    1    2    0    0  0.00000000000E+00  0.00000000000E+00 -0.86009529104E+03  0.39123276119E+04  0.38166141321E+04 0.  0.
        2    1    3    3  502    0  0.59008221488E+02  0.10119650463E+04  0.12273108182E+04  0.15918062287E+04  0.25500000920E-02 0. -1.
       -2    1    3    3    0  502 -0.59008221488E+02 -0.10119650463E+04 -0.20874061092E+04  0.23205213832E+04  0.25500000920E-02 0.  1.
</event>
<event>
 5   0  0.5202788E-07  0.3797441E+04  0.7818609E-02  0.8046704E-01
       -2   -1    0    0    0  501  0.00000000000E+00  0.00000000000E+00  0.12984878809E+04  0.12984878809E+04  0.25500000920E-02 0.  1.
        2   -1    0    0  501    0  0.00000000000E+00  0.00000000000E+00 -0.27764140213E+04  0.27764140213E+04  0.25500000920E-02 0. -1.
    10030    2    1    2    0    0  0.00000000000E+00  0.00000000000E+00 -0.14779261404E+04  0.40749019022E+04  0.37974412222E+04 0.  0.
        1    1    3    3  502    0 -0.65510985906E+03 -0.74775363722E+03 -0.24748215348E+04  0.26670294447E+04  0.50400001928E-02 0. -1.
       -1    1    3    3    0  502  0.65510985906E+03  0.74775363722E+03  0.99689539438E+03  0.14078724576E+04  0.50400001928E-02 0.  1.
</event>
<event>
 5   0  0.1648000E-07  0.3843958E+04  0.7818609E-02  0.8036787E-01
       -1   -1    0    0    0  501  0.00000000000E+00  0.00000000000E+00  0.21743562558E+04  0.21743562558E+04  0.50400001928E-02 0.  1.
        1   -1    0    0  501    0  0.00000000000E+00  0.00000000000E+00 -0.16988952054E+04  0.16988952054E+04  0.50400001928E-02 0. -1.
    10030    2    1    2    0    0  0.00000000000E+00  0.00000000000E+00  0.47546105035E+03  0.38732514612E+04  0.38439580736E+04 0.  0.
        4    1    3    3  502    0  0.19035890444E+03 -0.80570922903E+03 -0.15100187371E+04  0.17220807396E+04  0.12699999809E+01 0. -1.
       -4    1    3    3    0  502 -0.19035890444E+03  0.80570922903E+03  0.19854797875E+04  0.21511707217E+04  0.12699999809E+01 0.  1.
</event>
<event>
 5   0  0.5202788E-07  0.3751276E+04  0.7818609E-02  0.8056692E-01
        2   -1    0    0  501    0  0.00000000000E+00  0.00000000000E+00  0.20455814003E+04  0.20455814003E+04  0.25500000920E-02 0.  1.
       -2   -1    0    0    0  501  0.00000000000E+00  0.00000000000E+00 -0.17198132850E+04  0.17198132850E+04  0.25500000920E-02 0. -1.
    10030    2    1    2    0    0  0.00000000000E+00  0.00000000000E+00  0.32576811529E+03  0.37653946854E+04  0.37512760858E+04 0.  0.
        1    1    3    3  502    0 -0.87963980395E+03 -0.51901621068E+03  0.17419782212E+04  0.20193147686E+04  0.50400001928E-02 0.  1.
       -1    1    3    3    0  502  0.87963980395E+03  0.51901621068E+03 -0.14162101059E+04  0.17460799168E+04  0.50400001928E-02 0. -1.
</event>
<event>
 5   0  0.1648000E-07  0.3810136E+04  0.7818609E-02  0.8043983E-01
        1   -1    0    0  501    0  0.00000000000E+00  0.00000000000E+00  0.13107560900E+04  0.13107560900E+04  0.50400001928E-02 0. -1.
       -1   -1    0    0    0  501  0.00000000000E+00  0.00000000000E+00 -0.27688478259E+04  0.27688478259E+04  0.50400001928E-02 0.  1.
    10030    2    1    2    0    0  0.00000000000E+00  0.00000000000E+00 -0.14580917359E+04  0.40796039159E+04  0.38101360344E+04 0.  0.
        1    1    3    3  502    0 -0.58750281329E+03 -0.14193319885E+03  0.12053761804E+04  0.13484199364E+04  0.50400001928E-02 0. -1.
       -1    1    3    3    0  502  0.58750281329E+03  0.14193319885E+03 -0.26634679163E+04  0.27311839795E+04  0.50400001928E-02 0.  1.
</event>
<event>
 5   0  0.5325362E-07  0.3777680E+04  0.7818609E-02  0.8050962E-01
        2   -1    0    0  501    0  0.00000000000E+00  0.00000000000E+00  0.26110693636E+04  0.26110693636E+04  0.25500000920E-02 0.  1.
       -2   -1    0    0    0  501  0.00000000000E+00  0.00000000000E+00 -0.13663815804E+04  0.13663815804E+04  0.25500000920E-02 0. -1.
    10030    2    1    2    0    0  0.00000000000E+00  0.00000000000E+00  0.12446877833E+04  0.39774509440E+04  0.37776802848E+04 0.  0.
        4    1    3    3  502    0 -0.96816549007E+03  0.13937170257E+04 -0.25092870761E+03  0.17154469951E+04  0.12699999809E+01 0.  1.
       -4    1    3    3    0  502  0.96816549007E+03 -0.13937170257E+04  0.14956164909E+04  0.22620039488E+04  0.12699999809E+01 0. -1.
</event>
<event>
 5   0  0.1648000E-07  0.3804505E+04  0.7818609E-02  0.8045189E-01
       -3   -1    0    0    0  501  0.00000000000E+00  0.00000000000E+00  0.20473198523E+04  0.20473198548E+04  0.10100000352E+00 0. -1.
        3   -1    0    0  501    0  0.00000000000E+00  0.00000000000E+00 -0.17674644120E+04  0.17674644149E+04  0.10100000352E+00 0.  1.
    10030    2    1    2    0    0  0.00000000000E+00  0.00000000000E+00  0.27985544024E+03  0.38147842697E+04  0.38045052184E+04 0.  0.
        5    1    3    3  502    0 -0.18837827086E+04  0.26211338412E+03  0.10516157788E+03  0.19048416645E+04  0.46999998093E+01 0.  1.
       -5    1    3    3    0  502  0.18837827086E+04 -0.26211338412E+03  0.17469386236E+03  0.19099426052E+04  0.46999998093E+01 0. -1.
</event>
<event>
 5   0  0.5132561E-07  0.3851553E+04  0.7818609E-02  0.8035181E-01
        2   -1    0    0  501    0  0.00000000000E+00  0.00000000000E+00  0.27608542491E+04  0.27608542491E+04  0.25500000920E-02 0.  1.
       -2   -1    0    0    0  501  0.00000000000E+00  0.00000000000E+00 -0.13432856987E+04  0.13432856987E+04  0.25500000920E-02 0. -1.
    10030    2    1    2    0    0  0.00000000000E+00  0.00000000000E+00  0.14175685505E+04  0.41041399478E+04  0.38515534679E+04 0.  0.
        3    1    3    3  502    0  0.92735376245E+03  0.71285543900E+03  0.23389719195E+04  0.26151362351E+04  0.10100000352E+00 0.  1.
       -3    1    3    3    0  502 -0.92735376245E+03 -0.71285543900E+03 -0.92140336906E+03  0.14890037127E+04  0.10100000352E+00 0. -1.
</event>
<event>
 5   0  0.5158266E-07  0.3788395E+04  0.7818609E-02  0.8048650E-01
       -2   -1    0    0    0  501  0.00000000000E+00  0.00000000000E+00  0.13418887171E+04  0.13418887171E+04  0.25500000920E-02 0. -1.
        2   -1    0    0  501    0  0.00000000000E+00  0.00000000000E+00 -0.26738312712E+04  0.26738312712E+04  0.25500000920E-02 0.  1.
    10030    2    1    2    0    0  0.00000000000E+00  0.00000000000E+00 -0.13319425541E+04  0.40157199884E+04  0.37883949184E+04 0.  0.
        2    1    3    3  502    0 -0.70776763438E+03 -0.64282057262E+03  0.10673342815E+04  0.14329535168E+04  0.25500000920E-02 0. -1.
       -2    1    3    3    0  502  0.70776763438E+03  0.64282057262E+03 -0.23992768356E+04  0.25827664715E+04  0.25500000920E-02 0.  1.
</event>
<event>
 5   0  0.5202788E-07  0.3975098E+04  0.7818609E-02  0.8009589E-01
       -2   -1    0    0    0  501  0.00000000000E+00  0.00000000000E+00  0.12135974796E+04  0.12135974796E+04  0.25500000920E-02 0. -1.
        2   -1    0    0  501    0  0.00000000000E+00  0.00000000000E+00 -0.32550754697E+04  0.32550754697E+04  0.25500000920E-02 0.  1.
    10030    2    1    2    0    0  0.00000000000E+00  0.00000000000E+00 -0.20414779901E+04  0.44686729493E+04  0.39750981804E+04 0.  0.
        1    1    3    3  502    0  0.18649272171E+03 -0.14885049271E+04  0.44496267624E+03  0.15647422269E+04  0.50400001928E-02 0. -1.
       -1    1    3    3    0  502 -0.18649272171E+03  0.14885049271E+04 -0.24864406664E+04  0.29039307224E+04  0.50400001928E-02 0.  1.
</event>
<event>
 5   0  0.1648000E-07  0.3636170E+04  0.7818609E-02  0.8082256E-01
       -1   -1    0    0    0  501  0.00000000000E+00  0.00000000000E+00  0.12800960454E+04  0.12800960454E+04  0.50400001928E-02 0.  1.
        1   -1    0    0  501    0  0.00000000000E+00  0.00000000000E+00 -0.25821763891E+04  0.25821763891E+04  0.50400001928E-02 0. -1.
    10030    2    1    2    0    0  0.00000000000E+00  0.00000000000E+00 -0.13020803438E+04  0.38622724345E+04  0.36361703944E+04 0.  0.
        4    1    3    3  502    0  0.10135743028E+04 -0.35460389700E+03  0.90727632459E+03  0.14057840279E+04  0.12699999809E+01 0.  1.
       -4    1    3    3    0  502 -0.10135743028E+04  0.35460389700E+03 -0.22093566684E+04  0.24564884066E+04  0.12699999809E+01 0. -1.
</event>
<event>
 5   0  0.5158266E-07  0.3721726E+04  0.7818609E-02  0.8063164E-01
       -2   -1    0    0    0  501  0.00000000000E+00  0.00000000000E+00  0.13752492029E+04  0.13752492029E+04  0.25500000920E-02 0.  1.
        2   -1    0    0  501    0  0.00000000000E+00  0.00000000000E+00 -0.25179512832E+04  0.25179512832E+04  0.25500000920E-02 0. -1.
    10030    2    1    2    0    0  0.00000000000E+00  0.00000000000E+00 -0.11427020803E+04  0.38932004862E+04  0.37217256725E+04 0.  0.
        2    1    3    3  502    0  0.14592929335E+04  0.39212503862E+03  0.56474147858E+03  0.16131431583E+04  0.25500000920E-02 0.  1.
       -2    1    3    3    0  502 -0.14592929335E+04 -0.39212503862E+03 -0.17074435589E+04  0.22800573279E+04  0.25500000920E-02 0. -1.
</event>
<event>
 5   0  0.1656617E-07  0.3689763E+04  0.7818609E-02  0.8070234E-01
       -1   -1    0    0    0  501  0.00000000000E+00  0.00000000000E+00  0.24866673573E+04  0.24866673573E+04  0.50400001928E-02 0. -1.
        1   -1    0    0  501    0  0.00000000000E+00  0.00000000000E+00 -0.13687347665E+04  0.13687347665E+04  0.50400001928E-02 0.  1.
    10030    2    1    2    0    0  0.00000000000E+00  0.00000000000E+00  0.11179325909E+04  0.38554021238E+04  0.36897631711E+04 0.  0.
        5    1    3    3  502    0 -0.14944324506E+04 -0.10713381089E+04  0.40232914457E+03  0.18822817333E+04  0.46999998093E+01 0.  1.
       -5    1    3    3    0  502  0.14944324506E+04  0.10713381089E+04  0.71560344631E+03  0.19731203905E+04  0.46999998093E+01 0. -1.
</event>
<event>
 5   0  0.1648000E-07  0.3812554E+04  0.7818609E-02  0.8043466E-01
       -1   -1    0    0    0  501  0.00000000000E+00  0.00000000000E+00  0.25878769607E+04  0.25878769607E+04  0.50400001928E-02 0.  1.
        1   -1    0    0  501    0  0.00000000000E+00  0.00000000000E+00 -0.14041984903E+04  0.14041984903E+04  0.50400001928E-02 0. -1.
    10030    2    1    2    0    0  0.00000000000E+00  0.00000000000E+00  0.11836784704E+04  0.39920754511E+04  0.38125544830E+04 0.  0.
        4    1    3    3  502    0  0.93328247111E+03  0.88874601179E+02 -0.11461281698E+04  0.14807181569E+04  0.12699999809E+01 0. -1.
       -4    1    3    3    0  502 -0.93328247111E+03 -0.88874601179E+02  0.23298066402E+04  0.25113572942E+04  0.12699999809E+01 0.  1.
</event>
<event>
 5   0  0.1648000E-07  0.3889664E+04  0.7818609E-02  0.8027182E-01
        1   -1    0    0  501    0  0.00000000000E+00  0.00000000000E+00  0.25340214984E+04  0.25340214984E+04  0.50400001928E-02 0.  1.
       -1   -1    0    0    0  501  0.00000000000E+00  0.00000000000E+00 -0.14926355357E+04  0.14926355357E+04  0.50400001928E-02 0. -1.
    10030    2    1    2    0    0  0.00000000000E+00  0.00000000000E+00  0.10413859627E+04  0.40266570341E+04  0.38896635004E+04 0.  0.
        2    1    3    3  502    0 -0.16845881937E+04  0.19256178884E+01 -0.48540519085E+03  0.17531284293E+04  0.25500000920E-02 0. -1.
       -2    1    3    3    0  502  0.16845881937E+04 -0.19256178884E+01  0.15267911536E+04  0.22735286048E+04  0.25500000920E-02 0.  1.
</event>
<event>
 5   0  0.1656617E-07  0.3778347E+04  0.7818609E-02  0.8050818E-01
       -1   -1    0    0    0  501  0.00000000000E+00  0.00000000000E+00  0.15576442393E+04  0.15576442393E+04  0.50400001928E-02 0. -1.
        1   -1    0    0  501    0  0.00000000000E+00  0.00000000000E+00 -0.22912649934E+04  0.22912649934E+04  0.50400001928E-02 0.  1.
    10030    2    1    2    0    0  0.00000000000E+00  0.00000000000E+00 -0.73362075409E+03  0.38489092326E+04  0.37783465789E+04 0.  0.
        5    1    3    3  502    0  0.76204828795E+03  0.13446694718E+04  0.73980140759E+03  0.17135290468E+04  0.46999998093E+01 0. -1.
       -5    1    3    3    0  502 -0.76204828795E+03 -0.13446694718E+04 -0.14734221617E+04  0.21353801858E+04  0.46999998093E+01 0.  1.
</event>
<event>
 5   0  0.5202788E-07  0.3815954E+04  0.7818609E-02  0.8042740E-01
       -2   -1    0    0    0  501  0.00000000000E+00  0.00000000000E+00  0.17887716397E+04  0.17887716397E+04  0.25500000920E-02 0. -1.
        2   -1    0    0  501    0  0.00000000000E+00  0.00000000000E+00 -0.20351264994E+04  0.20351264994E+04  0.25500000920E-02 0.  1.
    10030    2    1    2    0    0  0.00000000000E+00  0.00000000000E+00 -0.24635485965E+03  0.38238981391E+04  0.38159541744E+04 0.  0.
        1    1    3    3  502    0 -0.88649759172E+03 -0.24005210699E+03  0.15526896965E+04  0.18039812326E+04  0.50400001928E-02 0. -1.
       -1    1    3    3    0  502  0.88649759172E+03  0.24005210699E+03 -0.17990445561E+04  0.20199169065E+04  0.50400001928E-02 0.  1.
</event>
<event>
 5   0  0.5325362E-07  0.3883884E+04  0.7818609E-02  0.8028389E-01
        2   -1    0    0  501    0  0.00000000000E+00  0.00000000000E+00  0.19515137703E+04  0.19515137703E+04  0.25500000920E-02 0. -1.
       -2   -1    0    0    0  501  0.00000000000E+00  0.00000000000E+00 -0.19324173543E+04  0.19324173543E+04  0.25500000920E-02 0.  1.
    10030    2    1    2    0    0  0.00000000000E+00  0.00000000000E+00  0.19096415982E+02  0.38839311247E+04  0.38838841780E+04 0.  0.
        4    1    3    3  502    0 -0.38454759982E+03 -0.15809165128E+04  0.10697325123E+04  0.19471782502E+04  0.12699999809E+01 0. -1.
       -4    1    3    3    0  502  0.38454759982E+03  0.15809165128E+04 -0.10506360963E+04  0.19367528745E+04  0.12699999809E+01 0.  1.
</event>
<event>
 5   0  0.5132561E-07  0.3689589E+04  0.7818609E-02  0.8070273E-01
       -2   -1    0    0    0  501  0.00000000000E+00  0.00000000000E+00  0.21817170820E+04  0.21817170820E+04  0.25500000920E-02 0.  1.
        2   -1    0    0  501    0  0.00000000000E+00  0.00000000000E+00 -0.15599025632E+04  0.15599025632E+04  0.25500000920E-02 0. -1.
    10030    2    1    2    0    0  0.00000000000E+00  0.00000000000E+00  0.62181451877E+03  0.37416196452E+04  0.36895886320E+04 0.  0.
        3    1    3    3  502    0  0.91446994807E+03 -0.15570139875E+04 -0.72200891553E+02  0.18071416165E+04  0.10100000352E+00 0. -1.
       -3    1    3    3    0  502 -0.91446994807E+03  0.15570139875E+04  0.69401541033E+03  0.19344780286E+04  0.10100000352E+00 0.  1.
</event>
<event>
 5   0  0.1648000E-07  0.3708445E+04  0.7818609E-02  0.8066093E-01
       -1   -1    0    0    0  501  0.00000000000E+00  0.00000000000E+00  0.11271334806E+04  0.11271334806E+04  0.50400001928E-02 0.  1.
        1   -1    0    0  501    0  0.00000000000E+00  0.00000000000E+00 -0.30503407281E+04  0.30503407281E+04  0.50400001928E-02 0. -1.
    10030    2    1    2    0    0  0.00000000000E+00  0.00000000000E+00 -0.19232072476E+04  0.41774742087E+04  0.37084450444E+04 0.  0.
        2    1    3    3  502    0  0.18004872884E+04 -0.43885910223E+03 -0.89226013478E+03  0.20568130531E+04  0.25500000920E-02 0. -1.
       -2    1    3    3    0  502 -0.18004872884E+04  0.43885910223E+03 -0.10309471128E+04  0.21206611556E+04  0.25500000920E-02 0.  1.
</event>
<event>
 5   0  0.1648000E-07  0.3775121E+04  0.7818609E-02  0.8051515E-01
        1   -1    0    0  501    0  0.00000000000E+00  0.00000000000E+00  0.19683911856E+04  0.19683911856E+04  0.50400001928E-02 0. -1.
       -1   -1    0    0    0  501  0.00000000000E+00  0.00000000000E+00 -0.18100490889E+04  0.18100490889E+04  0.50400001928E-02 0.  1.
    10030    2    1    2    0    0  0.00000000000E+00  0.00000000000E+00  0.15834209674E+03  0.37784402745E+04  0.37751210163E+04 0.  0.
        2    1    3    3  502    0  0.89326021627E+03  0.92079866204E+03  0.14649824960E+04  0.19472949709E+04  0.25500000920E-02 0. -1.
       -2    1    3    3    0  502 -0.89326021627E+03 -0.92079866204E+03 -0.13066403992E+04  0.18311453036E+04  0.25500000920E-02 0.  1.
</event>
<event>
 5   0  0.1648000E-07  0.3843045E+04  0.7818609E-02  0.8036980E-01
        3   -1    0    0  501    0  0.00000000000E+00  0.00000000000E+00  0.20914942043E+04  0.20914942068E+04  0.10100000352E+00 0. -1.
       -3   -1    0    0    0  501  0.00000000000E+00  0.00000000000E+00 -0.17653638455E+04  0.17653638484E+04  0.10100000352E+00 0.  1.
    10030    2    1    2    0    0  0.00000000000E+00  0.00000000000E+00  0.32613035880E+03  0.38568580552E+04  0.38430447625E+04 0.  0.
        5    1    3    3  502    0  0.28371302478E+03 -0.16533095590E+04  0.11036106598E+04  0.20079601979E+04  0.46999998093E+01 0. -1.
       -5    1    3    3    0  502 -0.28371302478E+03  0.16533095590E+04 -0.77748030095E+03  0.18488978572E+04  0.46999998093E+01 0.  1.
</event>
<event>
 5   0  0.1648000E-07  0.3681673E+04  0.7818609E-02  0.8072035E-01
       -1   -1    0    0    0  501  0.00000000000E+00  0.00000000000E+00  0.24045886173E+04  0.24045886173E+04  0.50400001928E-02 0.  1.
        1   -1    0    0  501    0  0.00000000000E+00  0.00000000000E+00 -0.14092552777E+04  0.14092552777E+04  0.50400001928E-02 0. -1.
    10030    2    1    2    0    0  0.00000000000E+00  0.00000000000E+00  0.99533333955E+03  0.38138438950E+04  0.36816730977E+04 0.  0.
        4    1    3    3  502    0 -0.17208933011E+04 -0.38173388528E+02 -0.17825021577E+03  0.17305218038E+04  0.12699999809E+01 0. -1.
       -4    1    3    3    0  502  0.17208933011E+04  0.38173388528E+02  0.11735835553E+04  0.20833220912E+04  0.12699999809E+01 0.  1.
</event>
<event>
 5   0  0.1648000E-07  0.3782454E+04  0.7818609E-02  0.8049931E-01
        1   -1    0    0  501    0  0.00000000000E+00  0.00000000000E+00  0.27151813819E+04  0.27151813819E+04  0.50400001928E-02 0. -1.
       -1   -1    0    0    0  501  0.00000000000E+00  0.00000000000E+00 -0.13173113075E+04  0.13173113075E+04  0.50400001928E-02 0.  1.
    10030    2    1    2    0    0  0.00000000000E+00  0.00000000000E+00  0.13978700745E+04  0.40324926894E+04  0.37824537730E+04 0.  0.
        3    1    3    3  502    0  0.48642713606E+03 -0.88155337300E+03  0.24056992800E+04  0.26078989137E+04  0.10100000352E+00 0. -1.
       -3    1    3    3    0  502 -0.48642713606E+03  0.88155337300E+03 -0.10078292055E+04  0.14245937757E+04  0.10100000352E+00 0.  1.
</event>
<event>
 5   0  0.5325362E-07  0.3825825E+04  0.7818609E-02  0.8040636E-01
       -2   -1    0    0    0  501  0.00000000000E+00  0.00000000000E+00  0.11547801371E+04  0.11547801371E+04  0.25500000920E-02 0.  1.
        2   -1    0    0  501    0  0.00000000000E+00  0.00000000000E+00 -0.31687710938E+04  0.31687710938E+04  0.25500000920E-02 0. -1.
    10030    2    1    2    0    0  0.00000000000E+00  0.00000000000E+00 -0.20139909567E+04  0.43235512309E+04  0.38258248356E+04 0.  0.
        4    1    3    3  502    0 -0.10762523453E+04  0.77491615289E+02  0.77802341148E+03  0.13302804603E+04  0.12699999809E+01 0.  1.
       -4    1    3    3    0  502  0.10762523453E+04 -0.77491615289E+02 -0.27920143682E+04  0.29932707707E+04  0.12699999809E+01 0. -1.
</event>
<event>
 5   0  0.5134434E-07  0.3837510E+04  0.7818609E-02  0.8038153E-01
       -2   -1    0    0    0  501  0.00000000000E+00  0.00000000000E+00  0.17320805098E+04  0.17320805098E+04  0.25500000920E-02 0.  1.
        2   -1    0    0  501    0  0.00000000000E+00  0.00000000000E+00 -0.21255480643E+04  0.21255480643E+04  0.25500000920E-02 0. -1.
    10030    2    1    2    0    0  0.00000000000E+00  0.00000000000E+00 -0.39346755442E+03  0.38576285741E+04  0.38375098045E+04 0.  0.
        5    1    3    3  502    0  0.44091799208E+03 -0.14312561070E+04 -0.14024784848E+04  0.20517969465E+04  0.46999998093E+01 0. -1.
       -5    1    3    3    0  502 -0.44091799208E+03  0.14312561070E+04  0.10090109304E+04  0.18058316276E+04  0.46999998093E+01 0.  1.
</event>
<event>
 5   0  0.1656617E-07  0.3810699E+04  0.7818609E-02  0.8043863E-01
        1   -1    0    0  501    0  0.00000000000E+00  0.00000000000E+00  0.21638549159E+04  0.21638549159E+04  0.50400001928E-02 0. -1.
       -1   -1    0    0    0  501  0.00000000000E+00  0.00000000000E+00 -0.16777262207E+04  0.16777262207E+04  0.50400001928E-02 0.  1.
    10030    2    1    2    0    0  0.00000000000E+00  0.00000000000E+00  0.48612869528E+03  0.38415811366E+04  0.38106986919E+04 0.  0.
        5    1    3    3  502    0  0.16075669496E+04 -0.10212446106E+04  0.18673677551E+03  0.19136626571E+04  0.46999998093E+01 0. -1.
       -5    1    3    3    0  502 -0.16075669496E+04  0.10212446106E+04  0.29939191977E+03  0.19279184795E+04  0.46999998093E+01 0.  1.
</event>
<event>
 5   0  0.5202788E-07  0.3828564E+04  0.7818609E-02  0.8040053E-01
       -2   -1    0    0    0  501  0.00000000000E+00  0.00000000000E+00  0.15152448996E+04  0.15152448996E+04  0.25500000920E-02 0. -1.
        2   -1    0    0  501    0  0.00000000000E+00  0.00000000000E+00 -0.24184042144E+04  0.24184042144E+04  0.25500000920E-02 0.  1.
    10030    2    1    2    0    0  0.00000000000E+00  0.00000000000E+00 -0.90315931479E+03  0.39336491140E+04  0.38285635170E+04 0.  0.
        1    1    3    3  502    0  0.17013303265E+04 -0.98560568176E+02 -0.13474266878E+04  0.21725095499E+04  0.50400001928E-02 0. -1.
       -1    1    3    3    0  502 -0.17013303265E+04  0.98560568176E+02  0.44426737296E+03  0.17611395641E+04  0.50400001928E-02 0.  1.
</event>
<event>
 5   0  0.5158266E-07  0.3756872E+04  0.7818609E-02  0.8055474E-01
       -2   -1    0    0    0  501  0.00000000000E+00  0.00000000000E+00  0.14519677540E+04  0.14519677540E+04  0.25500000920E-02 0. -1.
        2   -1    0    0  501    0  0.00000000000E+00  0.00000000000E+00 -0.24301651212E+04  0.24301651212E+04  0.25500000920E-02 0.  1.
    10030    2    1    2    0    0  0.00000000000E+00  0.00000000000E+00 -0.97819736722E+03  0.38821328752E+04  0.37568717800E+04 0.  0.
        2    1    3    3  502    0  0.13664508583E+04 -0.69909068944E+03 -0.16080727328E+04  0.22230190405E+04  0.25500000920E-02 0.  1.
       -2    1    3    3    0  502 -0.13664508583E+04  0.69909068944E+03  0.62987536562E+03  0.16591138347E+04  0.25500000920E-02 0. -1.
</event>
<event>
 5   0  0.5158266E-07  0.3786252E+04  0.7818609E-02  0.8049112E-01
       -2   -1    0    0    0  501  0.00000000000E+00  0.00000000000E+00  0.22311476065E+04  0.22311476065E+04  0.25500000920E-02 0.  1.
        2   -1    0    0  501    0  0.00000000000E+00  0.00000000000E+00 -0.16063150960E+04  0.16063150960E+04  0.25500000920E-02 0. -1.
    10030    2    1    2    0    0  0.00000000000E+00  0.00000000000E+00  0.62483251043E+03  0.38374627025E+04  0.37862520158E+04 0.  0.
        2    1    3    3  502    0 -0.17560105576E+04  0.31598941431E+02 -0.40379169629E+03  0.18021152309E+04  0.25500000920E-02 0. -1.
       -2    1    3    3    0  502  0.17560105576E+04 -0.31598941431E+02  0.10286242067E+04  0.20353474716E+04  0.25500000920E-02 0.  1.
</event>
<event>
 5   0  0.1648000E-07  0.3806975E+04  0.7818609E-02  0.8044660E-01
        1   -1    0    0  501    0  0.00000000000E+00  0.00000000000E+00  0.14284363653E+04  0.14284363653E+04  0.50400001928E-02 0.  1.
       -1   -1    0    0    0  501  0.00000000000E+00  0.00000000000E+00 -0.25365245754E+04  0.25365245755E+04  0.50400001928E-02 0. -1.
    10030    2    1    2    0    0  0.00000000000E+00  0.00000000000E+00 -0.11080882101E+04  0.39649609408E+04  0.38069746230E+04 0.  0.
        4    1    3    3  502    0 -0.65225226865E+03  0.15504166699E+04  0.37402310182E+03  0.17231133932E+04  0.12699999809E+01 0.  1.
       -4    1    3    3    0  502  0.65225226865E+03 -0.15504166699E+04 -0.14821113120E+04  0.22418475475E+04  0.12699999809E+01 0. -1.
</event>
<event>
 5   0  0.1648000E-07  0.3034098E+04  0.7818609E-02  0.8234061E-01
        1   -1    0    0  501    0  0.00000000000E+00  0.00000000000E+00  0.16201773589E+04  0.16201773589E+04  0.50400001928E-02 0. -1.
       -1   -1    0    0    0  501  0.00000000000E+00  0.00000000000E+00 -0.14204848488E+04  0.14204848488E+04  0.50400001928E-02 0.  1.
    10030    2    1    2    0    0  0.00000000000E+00  0.00000000000E+00  0.19969251011E+03  0.30406622076E+04  0.30340978169E+04 0.  0.
        1    1    3    3  502    0 -0.11386590857E+03  0.90290152897E+03 -0.11165510896E+04  0.14404454005E+04  0.50400001928E-02 0.  1.
       -1    1    3    3    0  502  0.11386590857E+03 -0.90290152897E+03  0.13162435997E+04  0.16002168071E+04  0.50400001928E-02 0. -1.
</event>
<event>
 5   0  0.5134434E-07  0.2902650E+04  0.7818609E-02  0.8272089E-01
        2   -1    0    0  501    0  0.00000000000E+00  0.00000000000E+00  0.24398408917E+04  0.24398408917E+04  0.25500000920E-02 0.  1.
       -2   -1    0    0    0  501  0.00000000000E+00  0.00000000000E+00 -0.86331225006E+03  0.86331225006E+03  0.25500000920E-02 0. -1.
    10030    2    1    2    0    0  0.00000000000E+00  0.00000000000E+00  0.15765286416E+04  0.33031531417E+04  0.29026501890E+04 0.  0.
        5    1    3    3  502    0 -0.97559993841E+03  0.76505496397E+03 -0.70301035249E+02  0.12418005731E+04  0.46999998093E+01 0.  1.
       -5    1    3    3    0  502  0.97559993841E+03 -0.76505496397E+03  0.16468296769E+04  0.20613525687E+04  0.46999998093E+01 0. -1.
</event>
<event>
 5   0  0.1656617E-07  0.3757437E+04  0.7818609E-02  0.8055351E-01
        1   -1    0    0  501    0  0.00000000000E+00  0.00000000000E+00  0.28392761453E+04  0.28392761453E+04  0.50400001928E-02 0.  1.
       -1   -1    0    0    0  501  0.00000000000E+00  0.00000000000E+00 -0.12431278257E+04  0.12431278257E+04  0.50400001928E-02 0. -1.
    10030    2    1    2    0    0  0.00000000000E+00  0.00000000000E+00  0.15961483196E+04  0.40824039711E+04  0.37574369888E+04 0.  0.
        5    1    3    3  502    0 -0.12323117325E+04 -0.10872515391E+04 -0.19107781413E+03  0.16544609202E+04  0.46999998093E+01 0. -1.
       -5    1    3    3    0  502  0.12323117325E+04  0.10872515391E+04  0.17872261337E+04  0.24279430509E+04  0.46999998093E+01 0.  1.
</event>
<event>
 5   0  0.5158266E-07  0.3931137E+04  0.7818609E-02  0.8018584E-01
        2   -1    0    0  501    0  0.00000000000E+00  0.00000000000E+00  0.14495036346E+04  0.14495036346E+04  0.25500000920E-02 0. -1.
       -2   -1    0    0    0  501  0.00000000000E+00  0.00000000000E+00 -0.26653666685E+04  0.26653666685E+04  0.25500000920E-02 0.  1.
    10030    2    1    2    0    0  0.00000000000E+00  0.00000000000E+00 -0.12158630339E+04  0.41148703032E+04  0.39311365652E+04 0.  0.
        2    1    3    3  502    0  0.14446982777E+04  0.41291391638E+03  0.71849984685E+03  0.16655008393E+04  0.25500000920E-02 0. -1.
       -2    1    3    3    0  502 -0.14446982777E+04 -0.41291391638E+03 -0.19343628807E+04  0.24493694638E+04  0.25500000920E-02 0.  1.
</event>
<event>
 5   0  0.5325362E-07  0.3905065E+04  0.7818609E-02  0.8023977E-01
       -2   -1    0    0    0  501  0.00000000000E+00  0.00000000000E+00  0.16034660744E+04  0.16034660744E+04  0.25500000920E-02 0. -1.
        2   -1    0    0  501    0  0.00000000000E+00  0.00000000000E+00 -0.23775884999E+04  0.23775884999E+04  0.25500000920E-02 0.  1.
    10030    2    1    2    0    0  0.00000000000E+00  0.00000000000E+00 -0.77412242555E+03  0.39810545743E+04  0.39050646594E+04 0.  0.
        4    1    3    3  502    0  0.95681047093E+03  0.16582365791E+04 -0.77812195033E+03  0.20665696727E+04  0.12699999809E+01 0. -1.
       -4    1    3    3    0  502 -0.95681047093E+03 -0.16582365791E+04  0.39995247736E+01  0.19144849016E+04  0.12699999809E+01 0.  1.
</event>
<event>
 5   0  0.1648000E-07  0.3742553E+04  0.7818609E-02  0.8058596E-01
        1   -1    0    0  501    0  0.00000000000E+00  0.00000000000E+00  0.14889274949E+04  0.14889274949E+04  0.50400001928E-02 0. -1.
       -1   -1    0    0    0  501  0.00000000000E+00  0.00000000000E+00 -0.23518108638E+04  0.23518108638E+04  0.50400001928E-02 0.  1.
    10030    2    1    2    0    0  0.00000000000E+00  0.00000000000E+00 -0.86288336887E+03  0.38407383588E+04  0.37425530634E+04 0.  0.
        4    1    3    3  502    0  0.46256710493E+03  0.56861947064E+03 -0.21983480425E+04  0.23173329838E+04  0.12699999809E+01 0.  1.
       -4    1    3    3    0  502 -0.46256710493E+03 -0.56861947064E+03  0.13354646736E+04  0.15234053749E+04  0.12699999809E+01 0. -1.
</event>
<event>
 5   0  0.5134434E-07  0.3734935E+04  0.7818609E-02  0.8060264E-01
       -2   -1    0    0    0  501  0.00000000000E+00  0.00000000000E+00  0.22445281161E+04  0.22445281161E+04  0.25500000920E-02 0.  1.
        2   -1    0    0  501    0  0.00000000000E+00  0.00000000000E+00 -0.15537493973E+04  0.15537493973E+04  0.25500000920E-02 0. -1.
    10030    2    1    2    0    0  0.00000000000E+00  0.00000000000E+00  0.69077871875E+03  0.37982775134E+04  0.37349346487E+04 0.  0.
        5    1    3    3  502    0 -0.32710021318E+03  0.80305609623E+03 -0.13366010348E+04  0.15932413689E+04  0.46999998093E+01 0. -1.
       -5    1    3    3    0  502  0.32710021318E+03 -0.80305609623E+03  0.20273797536E+04  0.22050361445E+04  0.46999998093E+01 0.  1.
</event>
<event>
 5   0  0.5132561E-07  0.3800178E+04  0.7818609E-02  0.8046117E-01
       -2   -1    0    0    0  501  0.00000000000E+00  0.00000000000E+00  0.19644082833E+04  0.19644082833E+04  0.25500000920E-02 0. -1.
        2   -1    0    0  501    0  0.00000000000E+00  0.00000000000E+00 -0.18378754922E+04  0.18378754922E+04  0.25500000920E-02 0.  1.
    10030    2    1    2    0    0  0.00000000000E+00  0.00000000000E+00  0.12653279105E+03  0.38022837755E+04  0.38001778067E+04 0.  0.
        3    1    3    3  502    0  0.77695901941E+03 -0.97194839619E+03  0.15000248554E+04  0.19489544837E+04  0.10100000352E+00 0. -1.
       -3    1    3    3    0  502 -0.77695901941E+03  0.97194839619E+03 -0.13734920644E+04  0.18533292918E+04  0.10100000352E+00 0.  1.
</event>
<event>
 5   0  0.5325362E-07  0.3622995E+04  0.7818609E-02  0.8085245E-01
       -2   -1    0    0    0  501  0.00000000000E+00  0.00000000000E+00  0.16813746678E+04  0.16813746678E+04  0.25500000920E-02 0. -1.
        2   -1    0    0  501    0  0.00000000000E+00  0.00000000000E+00 -0.19516905280E+04  0.19516905280E+04  0.25500000920E-02 0.  1.
    10030    2    1    2    0    0  0.00000000000E+00  0.00000000000E+00 -0.27031586026E+03  0.36330651958E+04  0.36229949010E+04 0.  0.
        4    1    3    3  502    0  0.30072552397E+03 -0.11391401046E+04  0.12446920116E+04  0.17138657577E+04  0.12699999809E+01 0. -1.
       -4    1    3    3    0  502 -0.30072552397E+03  0.11391401046E+04 -0.15150078719E+04  0.19191994381E+04  0.12699999809E+01 0.  1.
</event>
<event>
 5   0  0.1648000E-07  0.3814527E+04  0.7818609E-02  0.8043045E-01
        1   -1    0    0  501    0  0.00000000000E+00  0.00000000000E+00  0.14122444285E+04  0.14122444285E+04  0.50400001928E-02 0. -1.
       -1   -1    0    0    0  501  0.00000000000E+00  0.00000000000E+00 -0.25757969821E+04  0.25757969821E+04  0.50400001928E-02 0.  1.
    10030    2    1    2    0    0  0.00000000000E+00  0.00000000000E+00 -0.11635525536E+04  0.39880414106E+04  0.38145274605E+04 0.  0.
        2    1    3    3  502    0  0.11015673559E+04 -0.20922591759E+03  0.10312688323E+04  0.15233980205E+04  0.25500000920E-02 0. -1.
       -2    1    3    3    0  502 -0.11015673559E+04  0.20922591759E+03 -0.21948213859E+04  0.24646433901E+04  0.25500000920E-02 0.  1.
</event>
<event>
 5   0  0.5132561E-07  0.3816017E+04  0.7818609E-02  0.8042726E-01
        2   -1    0    0  501    0  0.00000000000E+00  0.00000000000E+00  0.25968107206E+04  0.25968107206E+04  0.25500000920E-02 0.  1.
       -2   -1    0    0    0  501  0.00000000000E+00  0.00000000000E+00 -0.14019105562E+04  0.14019105562E+04  0.25500000920E-02 0. -1.
    10030    2    1    2    0    0  0.00000000000E+00  0.00000000000E+00  0.11949001644E+04  0.39987212768E+04  0.38160169610E+04 0.  0.
        3    1    3    3  502    0 -0.92635433501E+02  0.19019967380E+04  0.47203942166E+03  0.19618853536E+04  0.10100000352E+00 0. -1.
       -3    1    3    3    0  502  0.92635433501E+02 -0.19019967380E+04  0.72286074276E+03  0.20368359233E+04  0.10100000352E+00 0.  1.
</event>
<event>
 5   0  0.1656617E-07  0.3784735E+04  0.7818609E-02  0.8049439E-01
       -1   -1    0    0    0  501  0.00000000000E+00  0.00000000000E+00  0.17370956475E+04  0.17370956475E+04  0.50400001928E-02 0.  1.
        1   -1    0    0  501    0  0.00000000000E+00  0.00000000000E+00 -0.20615179898E+04  0.20615179898E+04  0.50400001928E-02 0. -1.
    10030    2    1    2    0    0  0.00000000000E+00  0.00000000000E+00 -0.32442234232E+03  0.37986136373E+04  0.37847345626E+04 0.  0.
        5    1    3    3  502    0 -0.14273925507E+04  0.94859524311E+03  0.64307106348E+03  0.18305313195E+04  0.46999998093E+01 0.  1.
       -5    1    3    3    0  502  0.14273925507E+04 -0.94859524311E+03 -0.96749340580E+03  0.19680823177E+04  0.46999998093E+01 0. -1.
</event>
<event>
 5   0  0.5325362E-07  0.3784382E+04  0.7818609E-02  0.8049515E-01
        2   -1    0    0  501    0  0.00000000000E+00  0.00000000000E+00  0.22736589608E+04  0.22736589608E+04  0.25500000920E-02 0. -1.
       -2   -1    0    0    0  501  0.00000000000E+00  0.00000000000E+00 -0.15747248825E+04  0.15747248825E+04  0.25500000920E-02 0.  1.
    10030    2    1    2    0    0  0.00000000000E+00  0.00000000000E+00  0.69893407827E+03  0.38483838433E+04  0.37843822957E+04 0.  0.
        4    1    3    3  502    0 -0.14332962746E+04  0.10914110233E+04 -0.23899868756E+03  0.18173162130E+04  0.12699999809E+01 0.  1.
       -4    1    3    3    0  502  0.14332962746E+04 -0.10914110233E+04  0.93793276583E+03  0.20310676303E+04  0.12699999809E+01 0. -1.
</event>
<event>
 5   0  0.1648000E-07  0.3747993E+04  0.7818609E-02  0.8057408E-01
        1   -1    0    0  501    0  0.00000000000E+00  0.00000000000E+00  0.18805146957E+04  0.18805146957E+04  0.50400001928E-02 0. -1.
       -1   -1    0    0    0  501  0.00000000000E+00  0.00000000000E+00 -0.18675012664E+04  0.18675012664E+04  0.50400001928E-02 0.  1.
    10030    2    1    2    0    0  0.00000000000E+00  0.00000000000E+00  0.13013429389E+02  0.37480159621E+04  0.37479933702E+04 0.  0.
        1    1    3    3  502    0  0.26510499682E+03  0.14992038153E+03  0.18556005508E+04  0.18804281917E+04  0.50400001928E-02 0. -1.
       -1    1    3    3    0  502 -0.26510499682E+03 -0.14992038153E+03 -0.18425871214E+04  0.18675877704E+04  0.50400001928E-02 0.  1.
</event>
<event>
 5   0  0.5134434E-07  0.3619685E+04  0.7818609E-02  0.8085997E-01
        2   -1    0    0  501    0  0.00000000000E+00  0.00000000000E+00  0.16593686710E+04  0.16593686710E+04  0.25500000920E-02 0. -1.
       -2   -1    0    0    0  501  0.00000000000E+00  0.00000000000E+00 -0.19739617596E+04  0.19739617596E+04  0.25500000920E-02 0.  1.
    10030    2    1    2    0    0  0.00000000000E+00  0.00000000000E+00 -0.31459308862E+03  0.36333304306E+04  0.36196852358E+04 0.  0.
        5    1    3    3  502    0  0.96978699993E+03  0.15117240908E+04 -0.38109816209E+03  0.18360431506E+04  0.46999998093E+01 0. -1.
       -5    1    3    3    0  502 -0.96978699993E+03 -0.15117240908E+04  0.66505073475E+02  0.17972872799E+04  0.46999998093E+01 0.  1.
</event>
<event>
 5   0  0.1656617E-07  0.3810637E+04  0.7818609E-02  0.8043876E-01
       -1   -1    0    0    0  501  0.00000000000E+00  0.00000000000E+00  0.25637000185E+04  0.25637000185E+04  0.50400001928E-02 0. -1.
        1   -1    0    0  501    0  0.00000000000E+00  0.00000000000E+00 -0.14160151958E+04  0.14160151958E+04  0.50400001928E-02 0.  1.
    10030    2    1    2    0    0  0.00000000000E+00  0.00000000000E+00  0.11476848228E+04  0.39797152143E+04  0.38106367886E+04 0.  0.
        5    1    3    3  502    0  0.53700329822E+02 -0.10994330437E+04 -0.10503392770E+04  0.15214701541E+04  0.46999998093E+01 0.  1.
       -5    1    3    3    0  502 -0.53700329822E+02  0.10994330437E+04  0.21980240998E+04  0.24582450602E+04  0.46999998093E+01 0. -1.
</event>
<event>
 5   0  0.1656617E-07  0.3794001E+04  0.7818609E-02  0.8047444E-01
       -1   -1    0    0    0  501  0.00000000000E+00  0.00000000000E+00  0.25610516231E+04  0.25610516231E+04  0.50400001928E-02 0. -1.
        1   -1    0    0  501    0  0.00000000000E+00  0.00000000000E+00 -0.14051298390E+04  0.14051298390E+04  0.50400001928E-02 0.  1.
    10030    2    1    2    0    0  0.00000000000E+00  0.00000000000E+00  0.11559217842E+04  0.39661814621E+04  0.37940005561E+04 0.  0.
        5    1    3    3  502    0  0.15578169876E+04  0.95234925177E+03  0.39994973412E+02  0.18263035214E+04  0.46999998093E+01 0.  1.
       -5    1    3    3    0  502 -0.15578169876E+04 -0.95234925177E+03  0.11159268107E+04  0.21398779407E+04  0.46999998093E+01 0. -1.
</event>
<event>
 5   0  0.5134434E-07  0.3055319E+04  0.7818609E-02  0.8228108E-01
       -2   -1    0    0    0  501  0.00000000000E+00  0.00000000000E+00  0.19380755664E+04  0.19380755664E+04  0.25500000920E-02 0. -1.
        2   -1    0    0  501    0  0.00000000000E+00  0.00000000000E+00 -0.12041552416E+04  0.12041552416E+04  0.25500000920E-02 0.  1.
    10030    2    1    2    0    0  0.00000000000E+00  0.00000000000E+00  0.73392032477E+03  0.31422308079E+04  0.30553191989E+04 0.  0.
        5    1    3    3  502    0 -0.11096621453E+04  0.98401366252E+03 -0.96376047546E+01  0.14831547249E+04  0.46999998093E+01 0. -1.
       -5    1    3    3    0  502  0.11096621453E+04 -0.98401366252E+03  0.74355792953E+03  0.16590760830E+04  0.46999998093E+01 0.  1.
</event>
<event>
 5   0  0.1648000E-07  0.3665733E+04  0.7818609E-02  0.8075599E-01
       -1   -1    0    0    0  501  0.00000000000E+00  0.00000000000E+00  0.14763989641E+04  0.14763989641E+04  0.50400001928E-02 0. -1.
        1   -1    0    0  501    0  0.00000000000E+00  0.00000000000E+00 -0.22754007413E+04  0.22754007413E+04  0.50400001928E-02 0.  1.
    10030    2    1    2    0    0  0.00000000000E+00  0.00000000000E+00 -0.79900177715E+03  0.37517997054E+04  0.36657328312E+04 0.  0.
        4    1    3    3  502    0  0.45275734259E+03  0.16939901938E+04  0.14670096744E+03  0.17595780104E+04  0.12699999809E+01 0. -1.
       -4    1    3    3    0  502 -0.45275734259E+03 -0.16939901938E+04 -0.94570274459E+03  0.19922216950E+04  0.12699999809E+01 0.  1.
</event>
<event>
 5   0  0.1648000E-07  0.3191849E+04  0.7818609E-02  0.8190973E-01
       -1   -1    0    0    0  501  0.00000000000E+00  0.00000000000E+00  0.20081522865E+04  0.20081522865E+04  0.50400001928E-02 0.  1.
        1   -1    0    0  501    0  0.00000000000E+00  0.00000000000E+00 -0.12683179950E+04  0.12683179950E+04  0.50400001928E-02 0. -1.
    10030    2    1    2    0    0  0.00000000000E+00  0.00000000000E+00  0.73983429153E+03  0.32764702815E+04  0.31918494210E+04 0.  0.
        4    1    3    3  502    0 -0.47099003038E+03 -0.16636499531E+03  0.19258408753E+04  0.19895661864E+04  0.12699999809E+01 0.  1.
       -4    1    3    3    0  502  0.47099003038E+03  0.16636499531E+03 -0.11860065837E+04  0.12869040951E+04  0.12699999809E+01 0. -1.
</event>
<event>
 5   0  0.1656617E-07  0.3819809E+04  0.7818609E-02  0.8041917E-01
        1   -1    0    0  501    0  0.00000000000E+00  0.00000000000E+00  0.20513873411E+04  0.20513873411E+04  0.50400001928E-02 0.  1.
       -1   -1    0    0    0  501  0.00000000000E+00  0.00000000000E+00 -0.17781798460E+04  0.17781798460E+04  0.50400001928E-02 0. -1.
    10030    2    1    2    0    0  0.00000000000E+00  0.00000000000E+00  0.27320749504E+03  0.38295671871E+04  0.38198092236E+04 0.  0.
        5    1    3    3  502    0  0.32175093856E+03  0.67521268734E+02  0.20228005304E+04  0.20493479119E+04  0.46999998093E+01 0.  1.
       -5    1    3    3    0  502 -0.32175093856E+03 -0.67521268734E+02 -0.17495930354E+04  0.17802192752E+04  0.46999998093E+01 0. -1.
</event>
<event>
 5   0  0.1648000E-07  0.3735250E+04  0.7818609E-02  0.8060195E-01
        1   -1    0    0  501    0  0.00000000000E+00  0.00000000000E+00  0.26785379383E+04  0.26785379383E+04  0.50400001928E-02 0. -1.
       -1   -1    0    0    0  501  0.00000000000E+00  0.00000000000E+00 -0.13022115303E+04  0.13022115303E+04  0.50400001928E-02 0.  1.
    10030    2    1    2    0    0  0.00000000000E+00  0.00000000000E+00  0.13763264080E+04  0.39807494686E+04  0.37352499180E+04 0.  0.
        4    1    3    3  502    0  0.13763870645E+04 -0.11466895119E+04  0.12507642883E+04  0.21848915547E+04  0.12699999809E+01 0. -1.
       -4    1    3    3    0  502 -0.13763870645E+04  0.11466895119E+04  0.12556211977E+03  0.17958579139E+04  0.12699999809E+01 0.  1.
</event>
<event>
 5   0  0.1648000E-07  0.3436953E+04  0.7818609E-02  0.8128896E-01
        1   -1    0    0  501    0  0.00000000000E+00  0.00000000000E+00  0.19445201742E+04  0.19445201742E+04  0.50400001928E-02 0. -1.
       -1   -1    0    0    0  501  0.00000000000E+00  0.00000000000E+00 -0.15187099320E+04  0.15187099320E+04  0.50400001928E-02 0.  1.
    10030    2    1    2    0    0  0.00000000000E+00  0.00000000000E+00  0.42581024215E+03  0.34632301062E+04  0.34369533610E+04 0.  0.
        4    1    3    3  502    0  0.35453219956E+03  0.13775070012E+04  0.11846127451E+04  0.18510882172E+04  0.12699999809E+01 0. -1.
       -4    1    3    3    0  502 -0.35453219956E+03 -0.13775070012E+04 -0.75880250295E+03  0.16121418890E+04  0.12699999809E+01 0.  1.
</event>
<event>
 5   0  0.1648000E-07  0.3750390E+04  0.7818609E-02  0.8056886E-01
        1   -1    0    0  501    0  0.00000000000E+00  0.00000000000E+00  0.31992806053E+04  0.31992806053E+04  0.50400001928E-02 0.  1.
       -1   -1    0    0    0  501  0.00000000000E+00  0.00000000000E+00 -0.10991081744E+04  0.10991081744E+04  0.50400001928E-02 0. -1.
    10030    2    1    2    0    0  0.00000000000E+00  0.00000000000E+00  0.21001724309E+04  0.42983887797E+04  0.37503895614E+04 0.  0.
        4    1    3    3  502    0 -0.11197130667E+04  0.11241513198E+04 -0.95389902783E+02  0.15895201754E+04  0.12699999809E+01 0. -1.
       -4    1    3    3    0  502  0.11197130667E+04 -0.11241513198E+04  0.21955623336E+04  0.27088686043E+04  0.12699999809E+01 0.  1.
</event>
<event>
 5   0  0.1648000E-07  0.2881244E+04  0.7818609E-02  0.8278480E-01
       -1   -1    0    0    0  501  0.00000000000E+00  0.00000000000E+00  0.23609997568E+04  0.23609997568E+04  0.50400001928E-02 0.  1.
        1   -1    0    0  501    0  0.00000000000E+00  0.00000000000E+00 -0.87903118257E+03  0.87903118259E+03  0.50400001928E-02 0. -1.
    10030    2    1    2    0    0  0.00000000000E+00  0.00000000000E+00  0.14819685742E+04  0.32400309394E+04  0.28812444591E+04 0.  0.
        1    1    3    3  502    0 -0.11559578799E+04 -0.64088814910E+03  0.96546029474E+02  0.13252537024E+04  0.50400001928E-02 0. -1.
       -1    1    3    3    0  502  0.11559578799E+04  0.64088814910E+03  0.13854225447E+04  0.19147772370E+04  0.50400001928E-02 0.  1.
</event>
<event>
 5   0  0.5158266E-07  0.3353296E+04  0.7818609E-02  0.8149465E-01
        2   -1    0    0  501    0  0.00000000000E+00  0.00000000000E+00  0.15171605392E+04  0.15171605392E+04  0.25500000920E-02 0. -1.
       -2   -1    0    0    0  501  0.00000000000E+00  0.00000000000E+00 -0.18529008788E+04  0.18529008788E+04  0.25500000920E-02 0.  1.
    10030    2    1    2    0    0  0.00000000000E+00  0.00000000000E+00 -0.33574033952E+03  0.33700614180E+04  0.33532957498E+04 0.  0.
        2    1    3    3  502    0  0.13539646898E+04  0.18718346725E+03  0.80800998658E+03  0.15878092360E+04  0.25500000920E-02 0. -1.
       -2    1    3    3    0  502 -0.13539646898E+04 -0.18718346725E+03 -0.11437503261E+04  0.17822521820E+04  0.25500000920E-02 0.  1.
</event>
<event>
 5   0  0.1648000E-07  0.3777205E+04  0.7818609E-02  0.8051064E-01
       -1   -1    0    0    0  501  0.00000000000E+00  0.00000000000E+00  0.28965684318E+04  0.28965684318E+04  0.50400001928E-02 0. -1.
        1   -1    0    0  501    0  0.00000000000E+00  0.00000000000E+00 -0.12313950709E+04  0.12313950709E+04  0.50400001928E-02 0.  1.
    10030    2    1    2    0    0  0.00000000000E+00  0.00000000000E+00  0.16651733609E+04  0.41279635027E+04  0.37772053635E+04 0.  0.
        1    1    3    3  502    0  0.76815887519E+03  0.98155855417E+03  0.23832550955E+04  0.26895036908E+04  0.50400001928E-02 0. -1.
       -1    1    3    3    0  502 -0.76815887519E+03 -0.98155855417E+03 -0.71808173460E+03  0.14384598119E+04  0.50400001928E-02 0.  1.
</event>
<event>
 5   0  0.1648000E-07  0.3741414E+04  0.7818609E-02  0.8058846E-01
        1   -1    0    0  501    0  0.00000000000E+00  0.00000000000E+00  0.19254780412E+04  0.19254780412E+04  0.50400001928E-02 0.  1.
       -1   -1    0    0    0  501  0.00000000000E+00  0.00000000000E+00 -0.18174936297E+04  0.18174936297E+04  0.50400001928E-02 0. -1.
    10030    2    1    2    0    0  0.00000000000E+00  0.00000000000E+00  0.10798441142E+03  0.37429716709E+04  0.37414136762E+04 0.  0.
        1    1    3    3  502    0 -0.85652352040E+03 -0.96461180250E+03  0.14093388556E+04  0.19105874700E+04  0.50400001928E-02 0.  1.
       -1    1    3    3    0  502  0.85652352040E+03  0.96461180250E+03 -0.13013544442E+04  0.18323842009E+04  0.50400001928E-02 0. -1.
</event>
<event>
 5   0  0.5134434E-07  0.3795584E+04  0.7818609E-02  0.8047103E-01
        2   -1    0    0  501    0  0.00000000000E+00  0.00000000000E+00  0.20892146290E+04  0.20892146290E+04  0.25500000920E-02 0.  1.
       -2   -1    0    0    0  501  0.00000000000E+00  0.00000000000E+00 -0.17239083716E+04  0.17239083716E+04  0.25500000920E-02 0. -1.
    10030    2    1    2    0    0  0.00000000000E+00  0.00000000000E+00  0.36530625741E+03  0.38131230006E+04  0.37955840600E+04 0.  0.
        5    1    3    3  502    0  0.60009353973E+03 -0.19022581550E+03 -0.16159533841E+04  0.17342507163E+04  0.46999998093E+01 0. -1.
       -5    1    3    3    0  502 -0.60009353973E+03  0.19022581550E+03  0.19812596415E+04  0.20788722843E+04  0.46999998093E+01 0.  1.
</event>
<event>
 5   0  0.5134434E-07  0.3786878E+04  0.7818609E-02  0.8048977E-01
       -2   -1    0    0    0  501  0.00000000000E+00  0.00000000000E+00  0.14282984740E+04  0.14282984740E+04  0.25500000920E-02 0. -1.
        2   -1    0    0  501    0  0.00000000000E+00  0.00000000000E+00 -0.25100571866E+04  0.25100571866E+04  0.25500000920E-02 0.  1.
    10030    2    1    2    0    0  0.00000000000E+00  0.00000000000E+00 -0.10817587125E+04  0.39383556606E+04  0.37868777901E+04 0.  0.
        5    1    3    3  502    0 -0.41807453046E+03  0.79766708166E+03 -0.22730440996E+04  0.24449561663E+04  0.46999998093E+01 0.  1.
       -5    1    3    3    0  502  0.41807453046E+03 -0.79766708166E+03  0.11912853871E+04  0.14933994943E+04  0.46999998093E+01 0. -1.
</event>
<event>
 5   0  0.1648000E-07  0.3547372E+04  0.7818609E-02  0.8102654E-01
        1   -1    0    0  501    0  0.00000000000E+00  0.00000000000E+00  0.11345767346E+04  0.11345767346E+04  0.50400001928E-02 0.  1.
       -1   -1    0    0    0  501  0.00000000000E+00  0.00000000000E+00 -0.27728068945E+04  0.27728068945E+04  0.50400001928E-02 0. -1.
    10030    2    1    2    0    0  0.00000000000E+00  0.00000000000E+00 -0.16382301599E+04  0.39073836291E+04  0.35473720933E+04 0.  0.
        3    1    3    3  502    0 -0.35531971150E+03 -0.88344756227E+03 -0.24673864185E+04  0.26447547034E+04  0.10100000352E+00 0. -1.
       -3    1    3    3    0  502  0.35531971150E+03  0.88344756227E+03  0.82915625865E+03  0.12626289257E+04  0.10100000352E+00 0.  1.
</event>
<event>
 5   0  0.1648000E-07  0.3824786E+04  0.7818609E-02  0.8040857E-01
       -1   -1    0    0    0  501  0.00000000000E+00  0.00000000000E+00  0.15480378621E+04  0.15480378621E+04  0.50400001928E-02 0.  1.
        1   -1    0    0  501    0  0.00000000000E+00  0.00000000000E+00 -0.23625044638E+04  0.23625044638E+04  0.50400001928E-02 0. -1.
    10030    2    1    2    0    0  0.00000000000E+00  0.00000000000E+00 -0.81446660176E+03  0.39105423259E+04  0.38247856721E+04 0.  0.
        4    1    3    3  502    0  0.27664274463E+03  0.22435018147E+03 -0.23282920521E+04  0.23553788878E+04  0.12699999809E+01 0. -1.
       -4    1    3    3    0  502 -0.27664274463E+03 -0.22435018147E+03  0.15138254504E+04  0.15551634381E+04  0.12699999809E+01 0.  1.
</event>
<event>
 5   0  0.1648000E-07  0.3769785E+04  0.7818609E-02  0.8052670E-01
       -1   -1    0    0    0  501  0.00000000000E+00  0.00000000000E+00  0.17669395673E+04  0.17669395673E+04  0.50400001928E-02 0. -1.
        1   -1    0    0  501    0  0.00000000000E+00  0.00000000000E+00 -0.20107189418E+04  0.20107189418E+04  0.50400001928E-02 0.  1.
    10030    2    1    2    0    0  0.00000000000E+00  0.00000000000E+00 -0.24377937453E+03  0.37776585091E+04  0.37697845334E+04 0.  0.
        4    1    3    3  502    0 -0.68121847006E+03  0.11313687760E+04  0.12258221430E+04  0.18018588875E+04  0.12699999809E+01 0. -1.
       -4    1    3    3    0  502  0.68121847006E+03 -0.11313687760E+04 -0.14696015176E+04  0.19757996216E+04  0.12699999809E+01 0.  1.
</event>
<event>
 5   0  0.5325362E-07  0.3760835E+04  0.7818609E-02  0.8054612E-01
        2   -1    0    0  501    0  0.00000000000E+00  0.00000000000E+00  0.28219769937E+04  0.28219769937E+04  0.25500000920E-02 0. -1.
       -2   -1    0    0    0  501  0.00000000000E+00  0.00000000000E+00 -0.12530117276E+04  0.12530117276E+04  0.25500000920E-02 0.  1.
    10030    2    1    2    0    0  0.00000000000E+00  0.00000000000E+00  0.15689652661E+04  0.40749887212E+04  0.37608351562E+04 0.  0.
        4    1    3    3  502    0 -0.15335020788E+04 -0.34459398867E+03  0.19029883355E+04  0.24681450243E+04  0.12699999809E+01 0. -1.
       -4    1    3    3    0  502  0.15335020788E+04  0.34459398867E+03 -0.33402306939E+03  0.16068436970E+04  0.12699999809E+01 0.  1.
</event>
<event>
 5   0  0.1648000E-07  0.3787562E+04  0.7818609E-02  0.8048829E-01
       -1   -1    0    0    0  501  0.00000000000E+00  0.00000000000E+00  0.23881314442E+04  0.23881314443E+04  0.50400001928E-02 0. -1.
        1   -1    0    0  501    0  0.00000000000E+00  0.00000000000E+00 -0.15017625635E+04  0.15017625635E+04  0.50400001928E-02 0.  1.
    10030    2    1    2    0    0  0.00000000000E+00  0.00000000000E+00  0.88636888077E+03  0.38898940077E+04  0.37875619597E+04 0.  0.
        3    1    3    3  502    0 -0.10831751524E+04  0.37534635533E+03  0.19913106856E+04  0.22977100675E+04  0.10100000352E+00 0. -1.
       -3    1    3    3    0  502  0.10831751524E+04 -0.37534635533E+03 -0.11049418048E+04  0.15921839403E+04  0.10100000352E+00 0.  1.
</event>
<event>
 5   0  0.5158266E-07  0.3840367E+04  0.7818609E-02  0.8037547E-01
       -2   -1    0    0    0  501  0.00000000000E+00  0.00000000000E+00  0.15978699074E+04  0.15978699075E+04  0.25500000920E-02 0. -1.
        2   -1    0    0  501    0  0.00000000000E+00  0.00000000000E+00 -0.23075126931E+04  0.23075126931E+04  0.25500000920E-02 0.  1.
    10030    2    1    2    0    0  0.00000000000E+00  0.00000000000E+00 -0.70964278567E+03  0.39053826006E+04  0.38403672186E+04 0.  0.
        2    1    3    3  502    0  0.14374408443E+04  0.12590017061E+04 -0.16245334007E+03  0.19177363126E+04  0.25500000920E-02 0. -1.
       -2    1    3    3    0  502 -0.14374408443E+04 -0.12590017061E+04 -0.54718944560E+03  0.19876462880E+04  0.25500000920E-02 0.  1.
</event>
<event>
 5   0  0.5134434E-07  0.3822216E+04  0.7818609E-02  0.8041404E-01
       -2   -1    0    0    0  501  0.00000000000E+00  0.00000000000E+00  0.22522022414E+04  0.22522022414E+04  0.25500000920E-02 0.  1.
        2   -1    0    0  501    0  0.00000000000E+00  0.00000000000E+00 -0.16216718645E+04  0.16216718645E+04  0.25500000920E-02 0. -1.
    10030    2    1    2    0    0  0.00000000000E+00  0.00000000000E+00  0.63053037687E+03  0.38738741059E+04  0.38222155921E+04 0.  0.
        5    1    3    3  502    0  0.14074619061E+04  0.94592745968E+03 -0.57788460553E+03  0.17915636978E+04  0.46999998093E+01 0. -1.
       -5    1    3    3    0  502 -0.14074619061E+04 -0.94592745968E+03  0.12084149824E+04  0.20823104081E+04  0.46999998093E+01 0.  1.
</event>
<event>
 5   0  0.5132561E-07  0.3859226E+04  0.7818609E-02  0.8033563E-01
        2   -1    0    0  501    0  0.00000000000E+00  0.00000000000E+00  0.24047676081E+04  0.24047676081E+04  0.25500000920E-02 0. -1.
       -2   -1    0    0    0  501  0.00000000000E+00  0.00000000000E+00 -0.15483437140E+04  0.15483437140E+04  0.25500000920E-02 0.  1.
    10030    2    1    2    0    0  0.00000000000E+00  0.00000000000E+00  0.85642389408E+03  0.39531113221E+04  0.38592262487E+04 0.  0.
        3    1    3    3  502    0 -0.38164433195E+03  0.62201697315E+03  0.22579627671E+04  0.23729629956E+04  0.10100000352E+00 0. -1.
       -3    1    3    3    0  502  0.38164433195E+03 -0.62201697315E+03 -0.14015388730E+04  0.15801483265E+04  0.10100000352E+00 0.  1.
</event>
<event>
 5   0  0.1648000E-07  0.3807756E+04  0.7818609E-02  0.8044492E-01
       -1   -1    0    0    0  501  0.00000000000E+00  0.00000000000E+00  0.19348283452E+04  0.19348283452E+04  0.50400001928E-02 0. -1.
        1   -1    0    0  501    0  0.00000000000E+00  0.00000000000E+00 -0.18734228650E+04  0.18734228650E+04  0.50400001928E-02 0.  1.
    10030    2    1    2    0    0  0.00000000000E+00  0.00000000000E+00  0.61405480220E+02  0.38082512101E+04  0.38077561170E+04 0.  0.
        2    1    3    3  502    0 -0.12240343081E+04 -0.45427392311E+03  0.14165693383E+04  0.19264717685E+04  0.25500000920E-02 0. -1.
       -2    1    3    3    0  502  0.12240343081E+04  0.45427392311E+03 -0.13551638581E+04  0.18817794416E+04  0.25500000920E-02 0.  1.
</event>
<event>
 5   0  0.5132561E-07  0.3837355E+04  0.7818609E-02  0.8038186E-01
       -2   -1    0    0    0  501  0.00000000000E+00  0.00000000000E+00  0.14105684488E+04  0.14105684488E+04  0.25500000920E-02 0.  1.
        2   -1    0    0  501    0  0.00000000000E+00  0.00000000000E+00 -0.26098154069E+04  0.26098154069E+04  0.25500000920E-02 0. -1.
    10030    2    1    2    0    0  0.00000000000E+00  0.00000000000E+00 -0.11992469581E+04  0.40203838557E+04  0.38373549589E+04 0.  0.
        3    1    3    3  502    0 -0.77902385183E+03  0.10253875956E+04  0.89054787983E+03  0.15656862455E+04  0.10100000352E+00 0.  1.
       -3    1    3    3    0  502  0.77902385183E+03 -0.10253875956E+04 -0.20897948379E+04  0.24546976102E+04  0.10100000352E+00 0. -1.
</event>
<event>
 5   0  0.1656617E-07  0.3725439E+04  0.7818609E-02  0.8062347E-01
       -1   -1    0    0    0  501  0.00000000000E+00  0.00000000000E+00  0.15785858489E+04  0.15785858489E+04  0.50400001928E-02 0.  1.
        1   -1    0    0  501    0  0.00000000000E+00  0.00000000000E+00 -0.21979954722E+04  0.21979954722E+04  0.50400001928E-02 0. -1.
    10030    2    1    2    0    0  0.00000000000E+00  0.00000000000E+00 -0.61940962336E+03  0.37765813211E+04  0.37254393289E+04 0.  0.
        5    1    3    3  502    0 -0.17863949263E+04 -0.13402424504E+03  0.20772663830E+03  0.18034250129E+04  0.46999998093E+01 0.  1.
       -5    1    3    3    0  502  0.17863949263E+04  0.13402424504E+03 -0.82713626166E+03  0.19731563082E+04  0.46999998093E+01 0. -1.
</event>
<event>
 5   0  0.1648000E-07  0.3779977E+04  0.7818609E-02  0.8050466E-01
        1   -1    0    0  501    0  0.00000000000E+00  0.00000000000E+00  0.20283961877E+04  0.20283961877E+04  0.50400001928E-02 0. -1.
       -1   -1    0    0    0  501  0.00000000000E+00  0.00000000000E+00 -0.17610247416E+04  0.17610247416E+04  0.50400001928E-02 0.  1.
    10030    2    1    2    0    0  0.00000000000E+00  0.00000000000E+00  0.26737144607E+03  0.37894209293E+04  0.37799766520E+04 0.  0.
        3    1    3    3  502    0  0.33813327612E+02  0.15947743265E+04 -0.88255673851E+03  0.18230071038E+04  0.10100000352E+00 0.  1.
       -3    1    3    3    0  502 -0.33813327612E+02 -0.15947743265E+04  0.11499281846E+04  0.19664138256E+04  0.10100000352E+00 0. -1.
</event>
<event>
 5   0  0.1648000E-07  0.3788104E+04  0.7818609E-02  0.8048713E-01
        1   -1    0    0  501    0  0.00000000000E+00  0.00000000000E+00  0.26810112899E+04  0.26810112899E+04  0.50400001928E-02 0. -1.
       -1   -1    0    0    0  501  0.00000000000E+00  0.00000000000E+00 -0.13380893172E+04  0.13380893173E+04  0.50400001928E-02 0.  1.
    10030    2    1    2    0    0  0.00000000000E+00  0.00000000000E+00  0.13429219726E+04  0.40191006071E+04  0.37881037823E+04 0.  0.
        4    1    3    3  502    0 -0.16765161641E+03 -0.10234753700E+04  0.23529786884E+04  0.25714041336E+04  0.12699999809E+01 0. -1.
       -4    1    3    3    0  502  0.16765161641E+03  0.10234753700E+04 -0.10100567158E+04  0.14476964735E+04  0.12699999809E+01 0.  1.
</event>
<event>
 5   0  0.5325362E-07  0.3274671E+04  0.7818609E-02  0.8169370E-01
        2   -1    0    0  501    0  0.00000000000E+00  0.00000000000E+00  0.18453622003E+04  0.18453622003E+04  0.25500000920E-02 0. -1.
       -2   -1    0    0    0  501  0.00000000000E+00  0.00000000000E+00 -0.14527594349E+04  0.14527594349E+04  0.25500000920E-02 0.  1.
    10030    2    1    2    0    0  0.00000000000E+00  0.00000000000E+00  0.39260276537E+03  0.32981216352E+04  0.32746708825E+04 0.  0.
        4    1    3    3  502    0 -0.28918644422E+03 -0.19070778291E+03 -0.14154296296E+04  0.14572031112E+04  0.12699999809E+01 0.  1.
       -4    1    3    3    0  502  0.28918644422E+03  0.19070778291E+03  0.18080323949E+04  0.18409185240E+04  0.12699999809E+01 0. -1.
</event>
<event>
 5   0  0.1648000E-07  0.4165794E+04  0.7818609E-02  0.7971911E-01
       -1   -1    0    0    0  501  0.00000000000E+00  0.00000000000E+00  0.19489753705E+04  0.19489753705E+04  0.50400001928E-02 0. -1.
        1   -1    0    0  501    0  0.00000000000E+00  0.00000000000E+00 -0.22260212611E+04  0.22260212611E+04  0.50400001928E-02 0.  1.
    10030    2    1    2    0    0  0.00000000000E+00  0.00000000000E+00 -0.27704589058E+03  0.41749966316E+04  0.41657943359E+04 0.  0.
        4    1    3    3  502    0 -0.51465619739E+03 -0.55275320985E+03  0.18069121291E+04  0.19584024529E+04  0.12699999809E+01 0. -1.
       -4    1    3    3    0  502  0.51465619739E+03  0.55275320985E+03 -0.20839580197E+04  0.22165941787E+04  0.12699999809E+01 0.  1.
</event>
<event>
 5   0  0.5134434E-07  0.3794952E+04  0.7818609E-02  0.8047239E-01
        2   -1    0    0  501    0  0.00000000000E+00  0.00000000000E+00  0.15386494713E+04  0.15386494713E+04  0.25500000920E-02 0. -1.
       -2   -1    0    0    0  501  0.00000000000E+00  0.00000000000E+00 -0.23399835155E+04  0.23399835155E+04  0.25500000920E-02 0.  1.
    10030    2    1    2    0    0  0.00000000000E+00  0.00000000000E+00 -0.80133404416E+03  0.38786329868E+04  0.37949515934E+04 0.  0.
        5    1    3    3  502    0 -0.83411409551E+03 -0.15923511883E+04 -0.10215690791E+04  0.20675962142E+04  0.46999998093E+01 0.  1.
       -5    1    3    3    0  502  0.83411409551E+03  0.15923511883E+04  0.22023503497E+03  0.18110367727E+04  0.46999998093E+01 0. -1.
</event>
<event>
 5   0  0.1648000E-07  0.3785364E+04  0.7818609E-02  0.8049303E-01
       -1   -1    0    0    0  501  0.00000000000E+00  0.00000000000E+00  0.16370340148E+04  0.16370340148E+04  0.50400001928E-02 0. -1.
        1   -1    0    0  501    0  0.00000000000E+00  0.00000000000E+00 -0.21882538792E+04  0.21882538792E+04  0.50400001928E-02 0.  1.
    10030    2    1    2    0    0  0.00000000000E+00  0.00000000000E+00 -0.55121986433E+03  0.38252878940E+04  0.37853644650E+04 0.  0.
        3    1    3    3  502    0  0.40685174754E+03 -0.24492647296E+03  0.15758509734E+04  0.16458504252E+04  0.10100000352E+00 0. -1.
       -3    1    3    3    0  502 -0.40685174754E+03  0.24492647296E+03 -0.21270708377E+04  0.21794374688E+04  0.10100000352E+00 0.  1.
</event>
<event>
 5   0  0.5158266E-07  0.3727894E+04  0.7818609E-02  0.8061808E-01
       -2   -1    0    0    0  501  0.00000000000E+00  0.00000000000E+00  0.14130202551E+04  0.14130202551E+04  0.25500000920E-02 0. -1.
        2   -1    0    0  501    0  0.00000000000E+00  0.00000000000E+00 -0.24587752939E+04  0.24587752939E+04  0.25500000920E-02 0.  1.
    10030    2    1    2    0    0  0.00000000000E+00  0.00000000000E+00 -0.10457550387E+04  0.38717955490E+04  0.37278944690E+04 0.  0.
        2    1    3    3  502    0  0.36361494020E+03  0.27882259122E+03  0.13536139531E+04  0.14290656374E+04  0.25500000920E-02 0. -1.
       -2    1    3    3    0  502 -0.36361494020E+03 -0.27882259122E+03 -0.23993689918E+04  0.24427299116E+04  0.25500000920E-02 0.  1.
</event>
<event>
 5   0  0.5325362E-07  0.3787614E+04  0.7818609E-02  0.8048818E-01
        2   -1    0    0  501    0  0.00000000000E+00  0.00000000000E+00  0.11963310223E+04  0.11963310223E+04  0.25500000920E-02 0. -1.
       -2   -1    0    0    0  501  0.00000000000E+00  0.00000000000E+00 -0.29979205488E+04  0.29979205488E+04  0.25500000920E-02 0.  1.
    10030    2    1    2    0    0  0.00000000000E+00  0.00000000000E+00 -0.18015895265E+04  0.41942515711E+04  0.37876142121E+04 0.  0.
        4    1    3    3  502    0 -0.24118727750E+02 -0.10555081893E+04  0.84020035719E+03  0.13493025991E+04  0.12699999809E+01 0. -1.
       -4    1    3    3    0  502  0.24118727750E+02  0.10555081893E+04 -0.26417898837E+04  0.28449489720E+04  0.12699999809E+01 0.  1.
</event>
<event>
 5   0  0.5158266E-07  0.3067449E+04  0.7818609E-02  0.8224728E-01
       -2   -1    0    0    0  501  0.00000000000E+00  0.00000000000E+00  0.10760771896E+04  0.10760771896E+04  0.25500000920E-02 0. -1.
        2   -1    0    0  501    0  0.00000000000E+00  0.00000000000E+00 -0.21860061156E+04  0.21860061156E+04  0.25500000920E-02 0.  1.
    10030    2    1    2    0    0  0.00000000000E+00  0.00000000000E+00 -0.11099289260E+04  0.32620833053E+04  0.30674493100E+04 0.  0.
        2    1    3    3  502    0  0.43567600266E+03 -0.51460047414E+03  0.91000850545E+03  0.11325823181E+04  0.25500000920E-02 0. -1.
       -2    1    3    3    0  502 -0.43567600266E+03  0.51460047414E+03 -0.20199374315E+04  0.21295009872E+04  0.25500000920E-02 0.  1.
</event>
<event>
 5   0  0.1648000E-07  0.3686412E+04  0.7818609E-02  0.8070980E-01
       -1   -1    0    0    0  501  0.00000000000E+00  0.00000000000E+00  0.17711500707E+04  0.17711500707E+04  0.50400001928E-02 0.  1.
        1   -1    0    0  501    0  0.00000000000E+00  0.00000000000E+00 -0.19181932465E+04  0.19181932465E+04  0.50400001928E-02 0. -1.
    10030    2    1    2    0    0  0.00000000000E+00  0.00000000000E+00 -0.14704317583E+03  0.36893433173E+04  0.36864118621E+04 0.  0.
        4    1    3    3  502    0 -0.67278813727E+03  0.22050522002E+03 -0.17766798149E+04  0.19125530600E+04  0.12699999809E+01 0. -1.
       -4    1    3    3    0  502  0.67278813727E+03 -0.22050522002E+03  0.16296366391E+04  0.17767902572E+04  0.12699999809E+01 0.  1.
</event>
<event>
 5   0  0.5134434E-07  0.3861381E+04  0.7818609E-02  0.8033109E-01
        2   -1    0    0  501    0  0.00000000000E+00  0.00000000000E+00  0.22059460237E+04  0.22059460237E+04  0.25500000920E-02 0. -1.
       -2   -1    0    0    0  501  0.00000000000E+00  0.00000000000E+00 -0.16897811413E+04  0.16897811413E+04  0.25500000920E-02 0.  1.
    10030    2    1    2    0    0  0.00000000000E+00  0.00000000000E+00  0.51616488237E+03  0.38957271650E+04  0.38613810947E+04 0.  0.
        5    1    3    3  502    0  0.14227381048E+04  0.10406226704E+04 -0.53661970685E+03  0.18425694170E+04  0.46999998093E+01 0.  1.
       -5    1    3    3    0  502 -0.14227381048E+04 -0.10406226704E+04  0.10527845892E+04  0.20531577480E+04  0.46999998093E+01 0. -1.
</event>
<event>
 5   0  0.1648000E-07  0.3786807E+04  0.7818609E-02  0.8048992E-01
       -1   -1    0    0    0  501  0.00000000000E+00  0.00000000000E+00  0.19964515649E+04  0.19964515649E+04  0.50400001928E-02 0. -1.
        1   -1    0    0  501    0  0.00000000000E+00  0.00000000000E+00 -0.17956744921E+04  0.17956744921E+04  0.50400001928E-02 0.  1.
    10030    2    1    2    0    0  0.00000000000E+00  0.00000000000E+00  0.20077707281E+03  0.37921260570E+04  0.37868071775E+04 0.  0.
        2    1    3    3  502    0  0.45523534768E+03 -0.27729726550E+03  0.19197629554E+04  0.19923912267E+04  0.25500000920E-02 0. -1.
       -2    1    3    3    0  502 -0.45523534768E+03  0.27729726550E+03 -0.17189858826E+04  0.17997348304E+04  0.25500000920E-02 0.  1.
</event>
<event>
 5   0  0.1648000E-07  0.3825591E+04  0.7818609E-02  0.8040685E-01
       -1   -1    0    0    0  501  0.00000000000E+00  0.00000000000E+00  0.17431490883E+04  0.17431490883E+04  0.50400001928E-02 0. -1.
        1   -1    0    0  501    0  0.00000000000E+00  0.00000000000E+00 -0.20989526688E+04  0.20989526688E+04  0.50400001928E-02 0.  1.
    10030    2    1    2    0    0  0.00000000000E+00  0.00000000000E+00 -0.35580358050E+03  0.38421017572E+04  0.38255914215E+04 0.  0.
        1    1    3    3  502    0  0.85488986056E+03  0.17077903022E+04 -0.70655909334E+02  0.19111192134E+04  0.50400001928E-02 0.  1.
       -1    1    3    3    0  502 -0.85488986056E+03 -0.17077903022E+04 -0.28514767117E+03  0.19309825438E+04  0.50400001928E-02 0. -1.
</event>
<event>
 5   0  0.1656617E-07  0.3892247E+04  0.7818609E-02  0.8026644E-01
        1   -1    0    0  501    0  0.00000000000E+00  0.00000000000E+00  0.24996972242E+04  0.24996972242E+04  0.50400001928E-02 0.  1.
       -1   -1    0    0    0  501  0.00000000000E+00  0.00000000000E+00 -0.15151423171E+04  0.15151423171E+04  0.50400001928E-02 0. -1.
    10030    2    1    2    0    0  0.00000000000E+00  0.00000000000E+00  0.98455490717E+03  0.40148395413E+04  0.38922471886E+04 0.  0.
        5    1    3    3  502    0 -0.14162339854E+04 -0.10286598370E+04  0.13696652846E+04  0.22225806720E+04  0.46999998093E+01 0.  1.
       -5    1    3    3    0  502  0.14162339854E+04  0.10286598370E+04 -0.38511037745E+03  0.17922588693E+04  0.46999998093E+01 0. -1.
</event>
<event>
 5   0  0.1648000E-07  0.3781234E+04  0.7818609E-02  0.8050194E-01
        1   -1    0    0  501    0  0.00000000000E+00  0.00000000000E+00  0.24833647484E+04  0.24833647484E+04  0.50400001928E-02 0. -1.
       -1   -1    0    0    0  501  0.00000000000E+00  0.00000000000E+00 -0.14393504912E+04  0.14393504912E+04  0.50400001928E-02 0.  1.
    10030    2    1    2    0    0  0.00000000000E+00  0.00000000000E+00  0.10440142572E+04  0.39227152396E+04  0.37812338041E+04 0.  0.
        4    1    3    3  502    0  0.18049639774E+02 -0.80494574943E+03 -0.12526024463E+04  0.14890527024E+04  0.12699999809E+01 0.  1.
       -4    1    3    3    0  502 -0.18049639774E+02  0.80494574943E+03  0.22966167036E+04  0.24336625372E+04  0.12699999809E+01 0. -1.
</event>
<event>
 5   0  0.5202788E-07  0.3835577E+04  0.7818609E-02  0.8038563E-01
       -2   -1    0    0    0  501  0.00000000000E+00  0.00000000000E+00  0.14789819350E+04  0.14789819350E+04  0.25500000920E-02 0. -1.
        2   -1    0    0  501    0  0.00000000000E+00  0.00000000000E+00 -0.24867863034E+04  0.24867863034E+04  0.25500000920E-02 0.  1.
    10030    2    1    2    0    0  0.00000000000E+00  0.00000000000E+00 -0.10078043684E+04  0.39657682384E+04  0.38355766288E+04 0.  0.
        1    1    3    3  502    0 -0.16339281638E+04 -0.10301890729E+03 -0.15365924223E+04  0.22453174412E+04  0.50400001928E-02 0. -1.
       -1    1    3    3    0  502  0.16339281638E+04  0.10301890729E+03  0.52878805385E+03  0.17204507972E+04  0.50400001928E-02 0.  1.
</event>
<event>
 5   0  0.1648000E-07  0.3857132E+04  0.7818609E-02  0.8034004E-01
       -1   -1    0    0    0  501  0.00000000000E+00  0.00000000000E+00  0.35306703925E+04  0.35306703925E+04  0.50400001928E-02 0. -1.
        1   -1    0    0  501    0  0.00000000000E+00  0.00000000000E+00 -0.10534448852E+04  0.10534448852E+04  0.50400001928E-02 0.  1.
    10030    2    1    2    0    0  0.00000000000E+00  0.00000000000E+00  0.24772255072E+04  0.45841152777E+04  0.38571319222E+04 0.  0.
        1    1    3    3  502    0  0.80187708448E+03 -0.13039034671E+04 -0.15560661937E+03  0.15386307322E+04  0.50400001928E-02 0.  1.
       -1    1    3    3    0  502 -0.80187708448E+03  0.13039034671E+04  0.26328321266E+04  0.30454845455E+04  0.50400001928E-02 0. -1.
</event>
<event>
 5   0  0.5132561E-07  0.3786250E+04  0.7818609E-02  0.8049112E-01
        2   -1    0    0  501    0  0.00000000000E+00  0.00000000000E+00  0.22081358909E+04  0.22081358909E+04  0.25500000920E-02 0.  1.
       -2   -1    0    0    0  501  0.00000000000E+00  0.00000000000E+00 -0.16230529823E+04  0.16230529823E+04  0.25500000920E-02 0. -1.
    10030    2    1    2    0    0  0.00000000000E+00  0.00000000000E+00  0.58508290869E+03  0.38311888732E+04  0.37862496183E+04 0.  0.
        3    1    3    3  502    0 -0.11764272647E+04 -0.13743764481E+04  0.85686129861E+03  0.20017749688E+04  0.10100000352E+00 0.  1.
       -3    1    3    3    0  502  0.11764272647E+04  0.13743764481E+04 -0.27177838992E+03  0.18294139044E+04  0.10100000352E+00 0. -1.
</event>
<event>
 5   0  0.5202788E-07  0.3803099E+04  0.7818609E-02  0.8045490E-01
        2   -1    0    0  501    0  0.00000000000E+00  0.00000000000E+00  0.27002545243E+04  0.27002545243E+04  0.25500000920E-02 0. -1.
       -2   -1    0    0    0  501  0.00000000000E+00  0.00000000000E+00 -0.13390926869E+04  0.13390926869E+04  0.25500000920E-02 0.  1.
    10030    2    1    2    0    0  0.00000000000E+00  0.00000000000E+00  0.13611618374E+04  0.40393472112E+04  0.38030993078E+04 0.  0.
        1    1    3    3  502    0 -0.26952181319E+03 -0.18242347174E+04  0.11735427324E+04  0.21857897558E+04  0.50400001928E-02 0. -1.
       -1    1    3    3    0  502  0.26952181319E+03  0.18242347174E+04  0.18761910502E+03  0.18535574554E+04  0.50400001928E-02 0.  1.
</event>
<event>
 5   0  0.5202788E-07  0.2770028E+04  0.7818609E-02  0.8312634E-01
        2   -1    0    0  501    0  0.00000000000E+00  0.00000000000E+00  0.11227608753E+04  0.11227608753E+04  0.25500000920E-02 0.  1.
       -2   -1    0    0    0  501  0.00000000000E+00  0.00000000000E+00 -0.17085242490E+04  0.17085242490E+04  0.25500000920E-02 0. -1.
    10030    2    1    2    0    0  0.00000000000E+00  0.00000000000E+00 -0.58576337376E+03  0.28312851243E+04  0.27700282896E+04 0.  0.
        1    1    3    3  502    0 -0.25709939881E+03  0.92104018200E+03  0.73119766994E+03  0.12037712201E+04  0.50400001928E-02 0.  1.
       -1    1    3    3    0  502  0.25709939881E+03 -0.92104018200E+03 -0.13169610437E+04  0.16275139042E+04  0.50400001928E-02 0. -1.
</event>
<event>
 5   0  0.5134434E-07  0.3776950E+04  0.7818609E-02  0.8051119E-01
        2   -1    0    0  501    0  0.00000000000E+00  0.00000000000E+00  0.22146238742E+04  0.22146238742E+04  0.25500000920E-02 0. -1.
       -2   -1    0    0    0  501  0.00000000000E+00  0.00000000000E+00 -0.16103585189E+04  0.16103585189E+04  0.25500000920E-02 0.  1.
    10030    2    1    2    0    0  0.00000000000E+00  0.00000000000E+00  0.60426535530E+03  0.38249823931E+04  0.37769503158E+04 0.  0.
        5    1    3    3  502    0 -0.13375687918E+04 -0.27499287205E+03  0.16231774670E+04  0.21211880001E+04  0.46999998093E+01 0. -1.
       -5    1    3    3    0  502  0.13375687918E+04  0.27499287205E+03 -0.10189121117E+04  0.17037943930E+04  0.46999998093E+01 0.  1.
</event>
<event>
 5   0  0.1656617E-07  0.3821714E+04  0.7818609E-02  0.8041511E-01
       -1   -1    0    0    0  501  0.00000000000E+00  0.00000000000E+00  0.25257517997E+04  0.25257517997E+04  0.50400001928E-02 0.  1.
        1   -1    0    0  501    0  0.00000000000E+00  0.00000000000E+00 -0.14456587869E+04  0.14456587869E+04  0.50400001928E-02 0. -1.
    10030    2    1    2    0    0  0.00000000000E+00  0.00000000000E+00  0.10800930128E+04  0.39714105866E+04  0.38217144230E+04 0.  0.
        5    1    3    3  502    0 -0.12727119864E+04  0.13060232681E+04  0.11332483535E+04  0.21470366783E+04  0.46999998093E+01 0.  1.
       -5    1    3    3    0  502  0.12727119864E+04 -0.13060232681E+04 -0.53155340712E+02  0.18243739083E+04  0.46999998093E+01 0. -1.
</event>
<event>
 5   0  0.5132561E-07  0.3810655E+04  0.7818609E-02  0.8043872E-01
        2   -1    0    0  501    0  0.00000000000E+00  0.00000000000E+00  0.13804141205E+04  0.13804141205E+04  0.25500000920E-02 0. -1.
       -2   -1    0    0    0  501  0.00000000000E+00  0.00000000000E+00 -0.26298429470E+04  0.26298429470E+04  0.25500000920E-02 0.  1.
    10030    2    1    2    0    0  0.00000000000E+00  0.00000000000E+00 -0.12494288266E+04  0.40102570675E+04  0.38106547147E+04 0.  0.
        3    1    3    3  502    0  0.44233528736E+02 -0.14230323542E+04  0.70782261083E+03  0.15899655797E+04  0.10100000352E+00 0. -1.
       -3    1    3    3    0  502 -0.44233528736E+02  0.14230323542E+04 -0.19572514374E+04  0.24202914877E+04  0.10100000352E+00 0.  1.
</event>
<event>
 5   0  0.1648000E-07  0.3418500E+04  0.7818609E-02  0.8133381E-01
        1   -1    0    0  501    0  0.00000000000E+00  0.00000000000E+00  0.27947867471E+04  0.27947867471E+04  0.50400001928E-02 0. -1.
       -1   -1    0    0    0  501  0.00000000000E+00  0.00000000000E+00 -0.10453519155E+04  0.10453519155E+04  0.50400001928E-02 0.  1.
    10030    2    1    2    0    0  0.00000000000E+00  0.00000000000E+00  0.17494348316E+04  0.38401386627E+04  0.34185000685E+04 0.  0.
        2    1    3    3  502    0 -0.10184783888E+04 -0.10760306329E+04  0.18321272729E+04  0.23562322669E+04  0.25500000920E-02 0. -1.
       -2    1    3    3    0  502  0.10184783888E+04  0.10760306329E+04 -0.82692441336E+02  0.14839063957E+04  0.25500000920E-02 0.  1.
</event>
<event>
 5   0  0.1648000E-07  0.3720875E+04  0.7818609E-02  0.8063351E-01
       -1   -1    0    0    0  501  0.00000000000E+00  0.00000000000E+00  0.19806150105E+04  0.19806150105E+04  0.50400001928E-02 0.  1.
        1   -1    0    0  501    0  0.00000000000E+00  0.00000000000E+00 -0.17475523548E+04  0.17475523549E+04  0.50400001928E-02 0. -1.
    10030    2    1    2    0    0  0.00000000000E+00  0.00000000000E+00  0.23306265564E+03  0.37281673653E+04  0.37208753947E+04 0.  0.
        1    1    3    3  502    0 -0.12782304387E+04 -0.10755043966E+04 -0.70400315058E+03  0.18127887901E+04  0.50400001928E-02 0. -1.
       -1    1    3    3    0  502  0.12782304387E+04  0.10755043966E+04  0.93706580622E+03  0.19153785753E+04  0.50400001928E-02 0.  1.
</event>
<event>
 5   0  0.1648000E-07  0.3743952E+04  0.7818609E-02  0.8058291E-01
       -1   -1    0    0    0  501  0.00000000000E+00  0.00000000000E+00  0.15342061032E+04  0.15342061032E+04  0.50400001928E-02 0. -1.
        1   -1    0    0  501    0  0.00000000000E+00  0.00000000000E+00 -0.22841089133E+04  0.22841089133E+04  0.50400001928E-02 0.  1.
    10030    2    1    2    0    0  0.00000000000E+00  0.00000000000E+00 -0.74990281007E+03  0.38183150165E+04  0.37439518347E+04 0.  0.
        3    1    3    3  502    0 -0.15593556993E+04  0.77461827297E+03 -0.10761169955E+04  0.20468638118E+04  0.10100000352E+00 0.  1.
       -3    1    3    3    0  502  0.15593556993E+04 -0.77461827297E+03  0.32621418547E+03  0.17714512047E+04  0.10100000352E+00 0. -1.
</event>
<event>
 5   0  0.1648000E-07  0.3824419E+04  0.7818609E-02  0.8040935E-01
       -1   -1    0    0    0  501  0.00000000000E+00  0.00000000000E+00  0.17987899236E+04  0.17987899236E+04  0.50400001928E-02 0. -1.
        1   -1    0    0  501    0  0.00000000000E+00  0.00000000000E+00 -0.20327808190E+04  0.20327808190E+04  0.50400001928E-02 0.  1.
    10030    2    1    2    0    0  0.00000000000E+00  0.00000000000E+00 -0.23399089536E+03  0.38315707426E+04  0.38244192522E+04 0.  0.
        3    1    3    3  502    0  0.30505859837E+03  0.11760484713E+04  0.13623817834E+04  0.18254410122E+04  0.10100000352E+00 0. -1.
       -3    1    3    3    0  502 -0.30505859837E+03 -0.11760484713E+04 -0.15963726787E+04  0.20061297303E+04  0.10100000352E+00 0.  1.
</event>
<event>
 5   0  0.5158266E-07  0.3791444E+04  0.7818609E-02  0.8047994E-01
       -2   -1    0    0    0  501  0.00000000000E+00  0.00000000000E+00  0.17975563513E+04  0.17975563513E+04  0.25500000920E-02 0.  1.
        2   -1    0    0  501    0  0.00000000000E+00  0.00000000000E+00 -0.19992480579E+04  0.19992480579E+04  0.25500000920E-02 0. -1.
    10030    2    1    2    0    0  0.00000000000E+00  0.00000000000E+00 -0.20169170657E+03  0.37968044092E+04  0.37914435479E+04 0.  0.
        2    1    3    3  502    0 -0.84126766358E+03 -0.12000369761E+04  0.11033272436E+04  0.18344347992E+04  0.25500000920E-02 0.  1.
       -2    1    3    3    0  502  0.84126766358E+03  0.12000369761E+04 -0.13050189502E+04  0.19623696100E+04  0.25500000920E-02 0. -1.
</event>
<event>
 5   0  0.1656617E-07  0.2804148E+04  0.7818609E-02  0.8301982E-01
        1   -1    0    0  501    0  0.00000000000E+00  0.00000000000E+00  0.20831628917E+04  0.20831628917E+04  0.50400001928E-02 0.  1.
       -1   -1    0    0    0  501  0.00000000000E+00  0.00000000000E+00 -0.94366702050E+03  0.94366702051E+03  0.50400001928E-02 0. -1.
    10030    2    1    2    0    0  0.00000000000E+00  0.00000000000E+00  0.11394958712E+04  0.30268299122E+04  0.28041484406E+04 0.  0.
        5    1    3    3  502    0  0.13193633651E+04  0.46971960369E+03  0.49787312142E+03  0.14863565959E+04  0.46999998093E+01 0.  1.
       -5    1    3    3    0  502 -0.13193633651E+04 -0.46971960369E+03  0.64162274978E+03  0.15404733163E+04  0.46999998093E+01 0. -1.
</event>
<event>
 5   0  0.5134434E-07  0.3854893E+04  0.7818609E-02  0.8034477E-01
        2   -1    0    0  501    0  0.00000000000E+00  0.00000000000E+00  0.21011117484E+04  0.21011117484E+04  0.25500000920E-02 0. -1.
       -2   -1    0    0    0  501  0.00000000000E+00  0.00000000000E+00 -0.17681354339E+04  0.17681354339E+04  0.25500000920E-02 0.  1.
    10030    2    1    2    0    0  0.00000000000E+00  0.00000000000E+00  0.33297631445E+03  0.38692471823E+04  0.38548930636E+04 0.  0.
        5    1    3    3  502    0 -0.14116452953E+04  0.56022183767E+03 -0.10247068584E+04  0.18321127648E+04  0.46999998093E+01 0.  1.
       -5    1    3    3    0  502  0.14116452953E+04 -0.56022183767E+03  0.13576831729E+04  0.20371344175E+04  0.46999998093E+01 0. -1.
</event>
<event>
 5   0  0.1648000E-07  0.3829226E+04  0.7818609E-02  0.8039912E-01
       -1   -1    0    0    0  501  0.00000000000E+00  0.00000000000E+00  0.16003578361E+04  0.16003578361E+04  0.50400001928E-02 0. -1.
        1   -1    0    0  501    0  0.00000000000E+00  0.00000000000E+00 -0.22905769041E+04  0.22905769041E+04  0.50400001928E-02 0.  1.
    10030    2    1    2    0    0  0.00000000000E+00  0.00000000000E+00 -0.69021906800E+03  0.38909347402E+04  0.38292258736E+04 0.  0.
        2    1    3    3  502    0 -0.26784284123E+03  0.14775184797E+04 -0.15520825223E+04  0.21595742176E+04  0.25500000920E-02 0.  1.
       -2    1    3    3    0  502  0.26784284123E+03 -0.14775184797E+04  0.86186345430E+03  0.17313605226E+04  0.25500000920E-02 0. -1.
</event>
<event>
 5   0  0.1648000E-07  0.3791412E+04  0.7818609E-02  0.8048000E-01
       -1   -1    0    0    0  501  0.00000000000E+00  0.00000000000E+00  0.15829700423E+04  0.15829700423E+04  0.50400001928E-02 0. -1.
        1   -1    0    0  501    0  0.00000000000E+00  0.00000000000E+00 -0.22702267443E+04  0.22702267443E+04  0.50400001928E-02 0.  1.
    10030    2    1    2    0    0  0.00000000000E+00  0.00000000000E+00 -0.68725670201E+03  0.38531967867E+04  0.37914118350E+04 0.  0.
        2    1    3    3  502    0 -0.63855647032E+03  0.49890756281E+03 -0.20853349459E+04  0.22372494181E+04  0.25500000920E-02 0.  1.
       -2    1    3    3    0  502  0.63855647032E+03 -0.49890756281E+03  0.13980782439E+04  0.16159473686E+04  0.25500000920E-02 0. -1.
</event>
<event>
 5   0  0.1648000E-07  0.3792120E+04  0.7818609E-02  0.8047848E-01
       -1   -1    0    0    0  501  0.00000000000E+00  0.00000000000E+00  0.12247498383E+04  0.12247498383E+04  0.50400001928E-02 0.  1.
        1   -1    0    0  501    0  0.00000000000E+00  0.00000000000E+00 -0.29353284209E+04  0.29353284209E+04  0.50400001928E-02 0. -1.
    10030    2    1    2    0    0  0.00000000000E+00  0.00000000000E+00 -0.17105785825E+04  0.41600782592E+04  0.37921197286E+04 0.  0.
        1    1    3    3  502    0 -0.47046604912E+03 -0.67859601003E+03  0.10171403901E+04  0.13101165679E+04  0.50400001928E-02 0.  1.
       -1    1    3    3    0  502  0.47046604912E+03  0.67859601003E+03 -0.27277189727E+04  0.28499616913E+04  0.50400001928E-02 0. -1.
</event>
<event>
 5   0  0.1648000E-07  0.4098476E+04  0.7818609E-02  0.7984970E-01
        1   -1    0    0  501    0  0.00000000000E+00  0.00000000000E+00  0.15643750767E+04  0.15643750767E+04  0.50400001928E-02 0.  1.
       -1   -1    0    0    0  501  0.00000000000E+00  0.00000000000E+00 -0.26843796518E+04  0.26843796518E+04  0.50400001928E-02 0. -1.
    10030    2    1    2    0    0  0.00000000000E+00  0.00000000000E+00 -0.11200045752E+04  0.42487547285E+04  0.40984761186E+04 0.  0.
        2    1    3    3  502    0  0.17906348788E+04 -0.81428306015E+03  0.35469216986E+02  0.19674064746E+04  0.25500000920E-02 0.  1.
       -2    1    3    3    0  502 -0.17906348788E+04  0.81428306015E+03 -0.11554737922E+04  0.22813482539E+04  0.25500000920E-02 0. -1.
</event>
<event>
 5   0  0.5202788E-07  0.3800787E+04  0.7818609E-02  0.8045986E-01
        2   -1    0    0  501    0  0.00000000000E+00  0.00000000000E+00  0.25594170239E+04  0.25594170239E+04  0.25500000920E-02 0. -1.
       -2   -1    0    0    0  501  0.00000000000E+00  0.00000000000E+00 -0.14110618813E+04  0.14110618813E+04  0.25500000920E-02 0.  1.
    10030    2    1    2    0    0  0.00000000000E+00  0.00000000000E+00  0.11483551426E+04  0.39704789052E+04  0.38007871821E+04 0.  0.
        1    1    3    3  502    0  0.99491466875E+03  0.51184697315E+03  0.21788760357E+04  0.24493556910E+04  0.50400001928E-02 0. -1.
       -1    1    3    3    0  502 -0.99491466875E+03 -0.51184697315E+03 -0.10305208930E+04  0.15211232143E+04  0.50400001928E-02 0.  1.
</event>
<event>
 5   0  0.5202788E-07  0.3747048E+04  0.7818609E-02  0.8057615E-01
       -2   -1    0    0    0  501  0.00000000000E+00  0.00000000000E+00  0.18921281170E+04  0.18921281170E+04  0.25500000920E-02 0.  1.
        2   -1    0    0  501    0  0.00000000000E+00  0.00000000000E+00 -0.18551026599E+04  0.18551026599E+04  0.25500000920E-02 0. -1.
    10030    2    1    2    0    0  0.00000000000E+00  0.00000000000E+00  0.37025457064E+02  0.37472307769E+04  0.37470478527E+04 0.  0.
        1    1    3    3  502    0  0.17292521748E+04  0.51676065564E+03 -0.48424160564E+03  0.18686477977E+04  0.50400001928E-02 0. -1.
       -1    1    3    3    0  502 -0.17292521748E+04 -0.51676065564E+03  0.52126706270E+03  0.18785829792E+04  0.50400001928E-02 0.  1.
</event>
<event>
 5   0  0.1648000E-07  0.3548313E+04  0.7818609E-02  0.8102435E-01
        1   -1    0    0  501    0  0.00000000000E+00  0.00000000000E+00  0.10536557950E+04  0.10536557950E+04  0.50400001928E-02 0. -1.
       -1   -1    0    0    0  501  0.00000000000E+00  0.00000000000E+00 -0.29873431281E+04  0.29873431281E+04  0.50400001928E-02 0.  1.
    10030    2    1    2    0    0  0.00000000000E+00  0.00000000000E+00 -0.19336873330E+04  0.40409989231E+04  0.35483130632E+04 0.  0.
        4    1    3    3  502    0  0.13397448559E+04  0.92946894884E+03 -0.17062411335E+03  0.16394947413E+04  0.12699999809E+01 0. -1.
       -4    1    3    3    0  502 -0.13397448559E+04 -0.92946894884E+03 -0.17630632197E+04  0.24015041818E+04  0.12699999809E+01 0.  1.
</event>
<event>
 5   0  0.5134434E-07  0.3817016E+04  0.7818609E-02  0.8042513E-01
        2   -1    0    0  501    0  0.00000000000E+00  0.00000000000E+00  0.19845884894E+04  0.19845884894E+04  0.25500000920E-02 0. -1.
       -2   -1    0    0    0  501  0.00000000000E+00  0.00000000000E+00 -0.18353445433E+04  0.18353445433E+04  0.25500000920E-02 0.  1.
    10030    2    1    2    0    0  0.00000000000E+00  0.00000000000E+00  0.14924394607E+03  0.38199330327E+04  0.38170164552E+04 0.  0.
        5    1    3    3  502    0  0.12693687943E+04  0.10053541598E+04  0.10855162950E+04  0.19494619359E+04  0.46999998093E+01 0. -1.
       -5    1    3    3    0  502 -0.12693687943E+04 -0.10053541598E+04 -0.93627234898E+03  0.18704710968E+04  0.46999998093E+01 0.  1.
</event>
<event>
 5   0  0.1656617E-07  0.3801383E+04  0.7818609E-02  0.8045858E-01
        1   -1    0    0  501    0  0.00000000000E+00  0.00000000000E+00  0.11293578377E+04  0.11293578377E+04  0.50400001928E-02 0.  1.
       -1   -1    0    0    0  501  0.00000000000E+00  0.00000000000E+00 -0.31988346031E+04  0.31988346031E+04  0.50400001928E-02 0. -1.
    10030    2    1    2    0    0  0.00000000000E+00  0.00000000000E+00 -0.20694767655E+04  0.43281924409E+04  0.38013833959E+04 0.  0.
        5    1    3    3  502    0 -0.15602767273E+03  0.79986975782E+03  0.92033601205E+03  0.12292992838E+04  0.46999998093E+01 0.  1.
       -5    1    3    3    0  502  0.15602767273E+03 -0.79986975782E+03 -0.29898127775E+04  0.30988931570E+04  0.46999998093E+01 0. -1.
</event>
<event>
 5   0  0.1648000E-07  0.3580165E+04  0.7818609E-02  0.8095050E-01
       -1   -1    0    0    0  501  0.00000000000E+00  0.00000000000E+00  0.12624798336E+04  0.12624798336E+04  0.50400001928E-02 0. -1.
        1   -1    0    0  501    0  0.00000000000E+00  0.00000000000E+00 -0.25381750383E+04  0.25381750383E+04  0.50400001928E-02 0.  1.
    10030    2    1    2    0    0  0.00000000000E+00  0.00000000000E+00 -0.12756952047E+04  0.38006548719E+04  0.35801646890E+04 0.  0.
        2    1    3    3  502    0  0.28806429643E+03 -0.89121090919E+03 -0.22573002716E+04  0.24438990240E+04  0.25500000920E-02 0.  1.
       -2    1    3    3    0  502 -0.28806429643E+03  0.89121090919E+03  0.98160506689E+03  0.13567558479E+04  0.25500000920E-02 0. -1.
</event>
<event>
 5   0  0.5134434E-07  0.3792528E+04  0.7818609E-02  0.8047760E-01
       -2   -1    0    0    0  501  0.00000000000E+00  0.00000000000E+00  0.19742081297E+04  0.19742081297E+04  0.25500000920E-02 0. -1.
        2   -1    0    0  501    0  0.00000000000E+00  0.00000000000E+00 -0.18213973461E+04  0.18213973461E+04  0.25500000920E-02 0.  1.
    10030    2    1    2    0    0  0.00000000000E+00  0.00000000000E+00  0.15281078366E+03  0.37956054758E+04  0.37925281532E+04 0.  0.
        5    1    3    3  502    0 -0.86367901668E+03 -0.10930117200E+04 -0.12111762428E+04  0.18459648006E+04  0.46999998093E+01 0.  1.
       -5    1    3    3    0  502  0.86367901668E+03  0.10930117200E+04  0.13639870265E+04  0.19496406752E+04  0.46999998093E+01 0. -1.
</event>
<event>
 5   0  0.5202788E-07  0.3824687E+04  0.7818609E-02  0.8040878E-01
       -2   -1    0    0    0  501  0.00000000000E+00  0.00000000000E+00  0.19504970959E+04  0.19504970959E+04  0.25500000920E-02 0.  1.
        2   -1    0    0  501    0  0.00000000000E+00  0.00000000000E+00 -0.18749361624E+04  0.18749361624E+04  0.25500000920E-02 0. -1.
    10030    2    1    2    0    0  0.00000000000E+00  0.00000000000E+00  0.75560933429E+02  0.38254332583E+04  0.38246869361E+04 0.  0.
        1    1    3    3  502    0  0.11515910263E+04  0.12452650735E+04 -0.84568716928E+03  0.18952661511E+04  0.50400001928E-02 0. -1.
       -1    1    3    3    0  502 -0.11515910263E+04 -0.12452650735E+04  0.92124810271E+03  0.19301671072E+04  0.50400001928E-02 0.  1.
</event>
<event>
 5   0  0.1648000E-07  0.3828032E+04  0.7818609E-02  0.8040166E-01
       -1   -1    0    0    0  501  0.00000000000E+00  0.00000000000E+00  0.16875702106E+04  0.16875702106E+04  0.50400001928E-02 0. -1.
        1   -1    0    0  501    0  0.00000000000E+00  0.00000000000E+00 -0.21708474838E+04  0.21708474838E+04  0.50400001928E-02 0.  1.
    10030    2    1    2    0    0  0.00000000000E+00  0.00000000000E+00 -0.48327727318E+03  0.38584176944E+04  0.38280321553E+04 0.  0.
        2    1    3    3  502    0  0.18591908473E+04 -0.44457170852E+03 -0.33843704809E+03  0.19413331106E+04  0.25500000920E-02 0. -1.
       -2    1    3    3    0  502 -0.18591908473E+04  0.44457170852E+03 -0.14484022509E+03  0.19170845838E+04  0.25500000920E-02 0.  1.
</event>
<event>
 5   0  0.1648000E-07  0.3814086E+04  0.7818609E-02  0.8043139E-01
       -3   -1    0    0    0  501  0.00000000000E+00  0.00000000000E+00  0.25749467398E+04  0.25749467417E+04  0.10100000352E+00 0. -1.
        3   -1    0    0  501    0  0.00000000000E+00  0.00000000000E+00 -0.14123835417E+04  0.14123835453E+04  0.10100000352E+00 0.  1.
    10030    2    1    2    0    0  0.00000000000E+00  0.00000000000E+00  0.11625631981E+04  0.39873302870E+04  0.38140856871E+04 0.  0.
        4    1    3    3  502    0  0.83544483889E+03  0.16900795788E+04  0.88150849175E+03  0.20812005899E+04  0.12699999809E+01 0.  1.
       -4    1    3    3    0  502 -0.83544483889E+03 -0.16900795788E+04  0.28105470632E+03  0.19061296971E+04  0.12699999809E+01 0. -1.
</event>
<event>
 5   0  0.1648000E-07  0.3745665E+04  0.7818609E-02  0.8057917E-01
        1   -1    0    0  501    0  0.00000000000E+00  0.00000000000E+00  0.12125736289E+04  0.12125736289E+04  0.50400001928E-02 0.  1.
       -1   -1    0    0    0  501  0.00000000000E+00  0.00000000000E+00 -0.28926086757E+04  0.28926086757E+04  0.50400001928E-02 0. -1.
    10030    2    1    2    0    0  0.00000000000E+00  0.00000000000E+00 -0.16800350468E+04  0.41051823047E+04  0.37456646935E+04 0.  0.
        3    1    3    3  502    0 -0.89829186843E+03 -0.16206800627E+04 -0.54194086971E+03  0.19306040668E+04  0.10100000352E+00 0.  1.
       -3    1    3    3    0  502  0.89829186843E+03  0.16206800627E+04 -0.11380941771E+04  0.21745782379E+04  0.10100000352E+00 0. -1.
</event>
<event>
 5   0  0.1648000E-07  0.3736288E+04  0.7818609E-02  0.8059967E-01
        1   -1    0    0  501    0  0.00000000000E+00  0.00000000000E+00  0.14778916724E+04  0.14778916724E+04  0.50400001928E-02 0.  1.
       -1   -1    0    0    0  501  0.00000000000E+00  0.00000000000E+00 -0.23614457991E+04  0.23614457991E+04  0.50400001928E-02 0. -1.
    10030    2    1    2    0    0  0.00000000000E+00  0.00000000000E+00 -0.88355412673E+03  0.38393374715E+04  0.37362875057E+04 0.  0.
        3    1    3    3  502    0  0.41795123368E+03 -0.51410614200E+03 -0.22366560024E+04  0.23327276829E+04  0.10100000352E+00 0. -1.
       -3    1    3    3    0  502 -0.41795123368E+03  0.51410614200E+03  0.13531018757E+04  0.15066097886E+04  0.10100000352E+00 0.  1.
</event>
<event>
 5   0  0.1656617E-07  0.3786243E+04  0.7818609E-02  0.8049114E-01
        1   -1    0    0  501    0  0.00000000000E+00  0.00000000000E+00  0.21053493141E+04  0.21053493141E+04  0.50400001928E-02 0.  1.
       -1   -1    0    0    0  501  0.00000000000E+00  0.00000000000E+00 -0.17022870221E+04  0.17022870221E+04  0.50400001928E-02 0. -1.
    10030    2    1    2    0    0  0.00000000000E+00  0.00000000000E+00  0.40306229200E+03  0.38076363362E+04  0.37862428947E+04 0.  0.
        5    1    3    3  502    0  0.90937173023E+03  0.40815385371E+03  0.18200784439E+04  0.20751515955E+04  0.46999998093E+01 0.  1.
       -5    1    3    3    0  502 -0.90937173023E+03 -0.40815385371E+03 -0.14170161519E+04  0.17324847407E+04  0.46999998093E+01 0. -1.
</event>
<event>
 5   0  0.1648000E-07  0.3846238E+04  0.7818609E-02  0.8036304E-01
        1   -1    0    0  501    0  0.00000000000E+00  0.00000000000E+00  0.12165689135E+04  0.12165689135E+04  0.50400001928E-02 0.  1.
       -1   -1    0    0    0  501  0.00000000000E+00  0.00000000000E+00 -0.30400143242E+04  0.30400143242E+04  0.50400001928E-02 0. -1.
    10030    2    1    2    0    0  0.00000000000E+00  0.00000000000E+00 -0.18234454108E+04  0.42565832377E+04  0.38462381223E+04 0.  0.
        4    1    3    3  502    0  0.17837895418E+04  0.12206404455E+03 -0.12794066830E+03  0.17925331763E+04  0.12699999809E+01 0.  1.
       -4    1    3    3    0  502 -0.17837895418E+04 -0.12206404455E+03 -0.16955047425E+04  0.24640500614E+04  0.12699999809E+01 0. -1.
</event>
<event>
 5   0  0.1656617E-07  0.3805775E+04  0.7818609E-02  0.8044917E-01
        1   -1    0    0  501    0  0.00000000000E+00  0.00000000000E+00  0.12743029724E+04  0.12743029724E+04  0.50400001928E-02 0. -1.
       -1   -1    0    0    0  501  0.00000000000E+00  0.00000000000E+00 -0.28415382476E+04  0.28415382477E+04  0.50400001928E-02 0.  1.
    10030    2    1    2    0    0  0.00000000000E+00  0.00000000000E+00 -0.15672352753E+04  0.41158412200E+04  0.38057748935E+04 0.  0.
        5    1    3    3  502    0  0.10042312400E+04 -0.11451730910E+04 -0.20171871753E+04  0.25276407937E+04  0.46999998093E+01 0. -1.
       -5    1    3    3    0  502 -0.10042312400E+04  0.11451730910E+04  0.44995190003E+03  0.15882004263E+04  0.46999998093E+01 0.  1.
</event>
<event>
 5   0  0.5325362E-07  0.3759823E+04  0.7818609E-02  0.8054832E-01
        2   -1    0    0  501    0  0.00000000000E+00  0.00000000000E+00  0.28877070528E+04  0.28877070528E+04  0.25500000920E-02 0.  1.
       -2   -1    0    0    0  501  0.00000000000E+00  0.00000000000E+00 -0.12238316238E+04  0.12238316238E+04  0.25500000920E-02 0. -1.
    10030    2    1    2    0    0  0.00000000000E+00  0.00000000000E+00  0.16638754290E+04  0.41115386766E+04  0.37598229806E+04 0.  0.
        4    1    3    3  502    0  0.48736145489E+03 -0.17386182062E+04  0.14040943689E+04  0.22873121921E+04  0.12699999809E+01 0. -1.
       -4    1    3    3    0  502 -0.48736145489E+03  0.17386182062E+04  0.25978106015E+03  0.18242264845E+04  0.12699999809E+01 0.  1.
</event>
<event>
 5   0  0.1656617E-07  0.3793765E+04  0.7818609E-02  0.8047494E-01
       -1   -1    0    0    0  501  0.00000000000E+00  0.00000000000E+00  0.22853795797E+04  0.22853795797E+04  0.50400001928E-02 0. -1.
        1   -1    0    0  501    0  0.00000000000E+00  0.00000000000E+00 -0.15744270537E+04  0.15744270537E+04  0.50400001928E-02 0.  1.
    10030    2    1    2    0    0  0.00000000000E+00  0.00000000000E+00  0.71095252598E+03  0.38598066334E+04  0.37937651157E+04 0.  0.
        5    1    3    3  502    0  0.14107491418E+04  0.95339012341E+03 -0.49512511082E+03  0.17732278009E+04  0.46999998093E+01 0.  1.
       -5    1    3    3    0  502 -0.14107491418E+04 -0.95339012341E+03  0.12060776368E+04  0.20865788325E+04  0.46999998093E+01 0. -1.
</event>
<event>
 5   0  0.5132561E-07  0.3821218E+04  0.7818609E-02  0.8041617E-01
        2   -1    0    0  501    0  0.00000000000E+00  0.00000000000E+00  0.19617028347E+04  0.19617028347E+04  0.25500000920E-02 0. -1.
       -2   -1    0    0    0  501  0.00000000000E+00  0.00000000000E+00 -0.18608459658E+04  0.18608459658E+04  0.25500000920E-02 0.  1.
    10030    2    1    2    0    0  0.00000000000E+00  0.00000000000E+00  0.10085686888E+03  0.38225488005E+04  0.38212180289E+04 0.  0.
        3    1    3    3  502    0 -0.18178670532E+03 -0.19002868491E+04  0.12976734671E+03  0.19133677350E+04  0.10100000352E+00 0.  1.
       -3    1    3    3    0  502  0.18178670532E+03  0.19002868491E+04 -0.28910477829E+02  0.19091810655E+04  0.10100000352E+00 0. -1.
</event>
<event>
 5   0  0.5132561E-07  0.3754003E+04  0.7818609E-02  0.8056098E-01
       -2   -1    0    0    0  501  0.00000000000E+00  0.00000000000E+00  0.18931888974E+04  0.18931888974E+04  0.25500000920E-02 0.  1.
        2   -1    0    0  501    0  0.00000000000E+00  0.00000000000E+00 -0.18609523305E+04  0.18609523305E+04  0.25500000920E-02 0. -1.
    10030    2    1    2    0    0  0.00000000000E+00  0.00000000000E+00  0.32236566907E+02  0.37541412279E+04  0.37540028187E+04 0.  0.
        3    1    3    3  502    0 -0.11191758307E+04  0.87954060573E+03 -0.12074414628E+04  0.18665639859E+04  0.10100000352E+00 0. -1.
       -3    1    3    3    0  502  0.11191758307E+04 -0.87954060573E+03  0.12396780297E+04  0.18875772420E+04  0.10100000352E+00 0.  1.
</event>
<event>
 5   0  0.1648000E-07  0.3783148E+04  0.7818609E-02  0.8049781E-01
       -1   -1    0    0    0  501  0.00000000000E+00  0.00000000000E+00  0.24289161596E+04  0.24289161596E+04  0.50400001928E-02 0. -1.
        1   -1    0    0  501    0  0.00000000000E+00  0.00000000000E+00 -0.14731065819E+04  0.14731065819E+04  0.50400001928E-02 0.  1.
    10030    2    1    2    0    0  0.00000000000E+00  0.00000000000E+00  0.95580957773E+03  0.39020227415E+04  0.37831480973E+04 0.  0.
        2    1    3    3  502    0  0.15649553305E+04 -0.10360655811E+04  0.23484056483E+03  0.18914722217E+04  0.25500000920E-02 0.  1.
       -2    1    3    3    0  502 -0.15649553305E+04  0.10360655811E+04  0.72096901290E+03  0.20105505197E+04  0.25500000920E-02 0. -1.
</event>
<event>
 5   0  0.5134434E-07  0.3330088E+04  0.7818609E-02  0.8155281E-01
        2   -1    0    0  501    0  0.00000000000E+00  0.00000000000E+00  0.19943321445E+04  0.19943321445E+04  0.25500000920E-02 0. -1.
       -2   -1    0    0    0  501  0.00000000000E+00  0.00000000000E+00 -0.13901251494E+04  0.13901251494E+04  0.25500000920E-02 0.  1.
    10030    2    1    2    0    0  0.00000000000E+00  0.00000000000E+00  0.60420699507E+03  0.33844572940E+04  0.33300878490E+04 0.  0.
        5    1    3    3  502    0 -0.96077453953E+03  0.86153680366E+02  0.16814049108E+04  0.19384671100E+04  0.46999998093E+01 0. -1.
       -5    1    3    3    0  502  0.96077453953E+03 -0.86153680366E+02 -0.10771979157E+04  0.14459901840E+04  0.46999998093E+01 0.  1.
</event>
<event>
 5   0  0.1656617E-07  0.3786941E+04  0.7818609E-02  0.8048963E-01
       -1   -1    0    0    0  501  0.00000000000E+00  0.00000000000E+00  0.13290511116E+04  0.13290511116E+04  0.50400001928E-02 0.  1.
        1   -1    0    0  501    0  0.00000000000E+00  0.00000000000E+00 -0.26975860114E+04  0.26975860114E+04  0.50400001928E-02 0. -1.
    10030    2    1    2    0    0  0.00000000000E+00  0.00000000000E+00 -0.13685348997E+04  0.40266371230E+04  0.37869405525E+04 0.  0.
        5    1    3    3  502    0  0.14054275534E+04  0.81187750355E+03 -0.17210956308E+04  0.23657058036E+04  0.46999998093E+01 0. -1.
       -5    1    3    3    0  502 -0.14054275534E+04 -0.81187750355E+03  0.35256073112E+03  0.16609313194E+04  0.46999998093E+01 0.  1.
</event>
<event>
 5   0  0.1648000E-07  0.3727848E+04  0.7818609E-02  0.8061818E-01
        1   -1    0    0  501    0  0.00000000000E+00  0.00000000000E+00  0.26141781780E+04  0.26141781780E+04  0.50400001928E-02 0. -1.
       -1   -1    0    0    0  501  0.00000000000E+00  0.00000000000E+00 -0.13289887655E+04  0.13289887655E+04  0.50400001928E-02 0.  1.
    10030    2    1    2    0    0  0.00000000000E+00  0.00000000000E+00  0.12851894125E+04  0.39431669435E+04  0.37278484033E+04 0.  0.
        2    1    3    3  502    0 -0.34651221286E+03  0.15921750571E+03  0.25724746094E+04  0.26005858078E+04  0.25500000920E-02 0. -1.
       -2    1    3    3    0  502  0.34651221286E+03 -0.15921750571E+03 -0.12872851969E+04  0.13425811357E+04  0.25500000920E-02 0.  1.
</event>
<event>
 5   0  0.5134434E-07  0.3210570E+04  0.7818609E-02  0.8186031E-01
       -2   -1    0    0    0  501  0.00000000000E+00  0.00000000000E+00  0.21094286735E+04  0.21094286735E+04  0.25500000920E-02 0. -1.
        2   -1    0    0  501    0  0.00000000000E+00  0.00000000000E+00 -0.12216292566E+04  0.12216292566E+04  0.25500000920E-02 0.  1.
    10030    2    1    2    0    0  0.00000000000E+00  0.00000000000E+00  0.88779941683E+03  0.33310579301E+04  0.32105699072E+04 0.  0.
        5    1    3    3  502    0  0.57406247471E+03  0.14990034739E+04  0.42425359589E+03  0.16602928486E+04  0.46999998093E+01 0.  1.
       -5    1    3    3    0  502 -0.57406247471E+03 -0.14990034739E+04  0.46354582094E+03  0.16707650815E+04  0.46999998093E+01 0. -1.
</event>
<event>
 5   0  0.5202788E-07  0.3762114E+04  0.7818609E-02  0.8054334E-01
       -2   -1    0    0    0  501  0.00000000000E+00  0.00000000000E+00  0.14604943031E+04  0.14604943031E+04  0.25500000920E-02 0. -1.
        2   -1    0    0  501    0  0.00000000000E+00  0.00000000000E+00 -0.24227242089E+04  0.24227242089E+04  0.25500000920E-02 0.  1.
    10030    2    1    2    0    0  0.00000000000E+00  0.00000000000E+00 -0.96222990580E+03  0.38832185120E+04  0.37621137171E+04 0.  0.
        1    1    3    3  502    0 -0.14017311627E+04  0.52633785016E+03  0.69417498721E+03  0.16503819854E+04  0.50400001928E-02 0. -1.
       -1    1    3    3    0  502  0.14017311627E+04 -0.52633785016E+03 -0.16564048930E+04  0.22328365266E+04  0.50400001928E-02 0.  1.
</event>
<event>
 5   0  0.1648000E-07  0.3818209E+04  0.7818609E-02  0.8042258E-01
       -1   -1    0    0    0  501  0.00000000000E+00  0.00000000000E+00  0.28411681555E+04  0.28411681555E+04  0.50400001928E-02 0.  1.
        1   -1    0    0  501    0  0.00000000000E+00  0.00000000000E+00 -0.12828107110E+04  0.12828107110E+04  0.50400001928E-02 0. -1.
    10030    2    1    2    0    0  0.00000000000E+00  0.00000000000E+00  0.15583574445E+04  0.41239788665E+04  0.38182094975E+04 0.  0.
        2    1    3    3  502    0 -0.50638908339E+03 -0.67611528548E+03 -0.10699766968E+04  0.13632358251E+04  0.25500000920E-02 0. -1.
       -2    1    3    3    0  502  0.50638908339E+03  0.67611528548E+03  0.26283341412E+04  0.27607430415E+04  0.25500000920E-02 0.  1.
</event>
<event>
 5   0  0.5202788E-07  0.3698104E+04  0.7818609E-02  0.8068382E-01
       -2   -1    0    0    0  501  0.00000000000E+00  0.00000000000E+00  0.11970098583E+04  0.11970098583E+04  0.25500000920E-02 0.  1.
        2   -1    0    0  501    0  0.00000000000E+00  0.00000000000E+00 -0.28562776621E+04  0.28562776621E+04  0.25500000920E-02 0. -1.
    10030    2    1    2    0    0  0.00000000000E+00  0.00000000000E+00 -0.16592678039E+04  0.40532875204E+04  0.36981035786E+04 0.  0.
        1    1    3    3  502    0  0.11893380029E+04  0.13765818112E+04 -0.11923074399E+04  0.21751090546E+04  0.50400001928E-02 0.  1.
       -1    1    3    3    0  502 -0.11893380029E+04 -0.13765818112E+04 -0.46696036397E+03  0.18781784658E+04  0.50400001928E-02 0. -1.
</event>
<event>
 5   0  0.1648000E-07  0.3793982E+04  0.7818609E-02  0.8047448E-01
       -1   -1    0    0    0  501  0.00000000000E+00  0.00000000000E+00  0.14356146289E+04  0.14356146289E+04  0.50400001928E-02 0. -1.
        1   -1    0    0  501    0  0.00000000000E+00  0.00000000000E+00 -0.25066442456E+04  0.25066442457E+04  0.50400001928E-02 0.  1.
    10030    2    1    2    0    0  0.00000000000E+00  0.00000000000E+00 -0.10710296167E+04  0.39422588746E+04  0.37939821553E+04 0.  0.
        4    1    3    3  502    0  0.81597907633E+03  0.16976334686E+04 -0.30133537678E+03  0.19075077638E+04  0.12699999809E+01 0.  1.
       -4    1    3    3    0  502 -0.81597907633E+03 -0.16976334686E+04 -0.76969423994E+03  0.20347511108E+04  0.12699999809E+01 0. -1.
</event>
<event>
 5   0  0.5132561E-07  0.3756489E+04  0.7818609E-02  0.8055557E-01
       -2   -1    0    0    0  501  0.00000000000E+00  0.00000000000E+00  0.13513362594E+04  0.13513362594E+04  0.25500000920E-02 0. -1.
        2   -1    0    0  501    0  0.00000000000E+00  0.00000000000E+00 -0.26106026796E+04  0.26106026796E+04  0.25500000920E-02 0.  1.
    10030    2    1    2    0    0  0.00000000000E+00  0.00000000000E+00 -0.12592664202E+04  0.39619389390E+04  0.37564888179E+04 0.  0.
        3    1    3    3  502    0 -0.52383894570E+03  0.12084587939E+04 -0.20419057184E+04  0.24298474995E+04  0.10100000352E+00 0.  1.
       -3    1    3    3    0  502  0.52383894570E+03 -0.12084587939E+04  0.78263929824E+03  0.15320914395E+04  0.10100000352E+00 0. -1.
</event>
<event>
 5   0  0.1648000E-07  0.4132100E+04  0.7818609E-02  0.7978415E-01
        1   -1    0    0  501    0  0.00000000000E+00  0.00000000000E+00  0.27475693086E+04  0.27475693086E+04  0.50400001928E-02 0.  1.
       -1   -1    0    0    0  501  0.00000000000E+00  0.00000000000E+00 -0.15535774320E+04  0.15535774320E+04  0.50400001928E-02 0. -1.
    10030    2    1    2    0    0  0.00000000000E+00  0.00000000000E+00  0.11939918766E+04  0.43011467406E+04  0.41320995490E+04 0.  0.
        4    1    3    3  502    0  0.49136385658E+03 -0.11376296374E+04  0.23177823857E+04  0.26282611042E+04  0.12699999809E+01 0.  1.
       -4    1    3    3    0  502 -0.49136385658E+03  0.11376296374E+04 -0.11237905091E+04  0.16728856364E+04  0.12699999809E+01 0. -1.
</event>
<event>
 5   0  0.5132561E-07  0.3787874E+04  0.7818609E-02  0.8048762E-01
       -2   -1    0    0    0  501  0.00000000000E+00  0.00000000000E+00  0.13310483816E+04  0.13310483816E+04  0.25500000920E-02 0.  1.
        2   -1    0    0  501    0  0.00000000000E+00  0.00000000000E+00 -0.26948668243E+04  0.26948668243E+04  0.25500000920E-02 0. -1.
    10030    2    1    2    0    0  0.00000000000E+00  0.00000000000E+00 -0.13638184427E+04  0.40259152059E+04  0.37878744040E+04 0.  0.
        3    1    3    3  502    0  0.10743813156E+03 -0.83746439053E+03  0.11199490881E+04  0.14025603472E+04  0.10100000352E+00 0.  1.
       -3    1    3    3    0  502 -0.10743813156E+03  0.83746439053E+03 -0.24837675308E+04  0.26233548587E+04  0.10100000352E+00 0. -1.
</event>
<event>
 5   0  0.5325362E-07  0.3813143E+04  0.7818609E-02  0.8043340E-01
       -2   -1    0    0    0  501  0.00000000000E+00  0.00000000000E+00  0.13177805693E+04  0.13177805693E+04  0.25500000920E-02 0.  1.
        2   -1    0    0  501    0  0.00000000000E+00  0.00000000000E+00 -0.27584375235E+04  0.27584375235E+04  0.25500000920E-02 0. -1.
    10030    2    1    2    0    0  0.00000000000E+00  0.00000000000E+00 -0.14406569542E+04  0.40762180927E+04  0.38131432546E+04 0.  0.
        4    1    3    3  502    0  0.17006827495E+04  0.86031324541E+03 -0.77434231260E+03  0.20571991456E+04  0.12699999809E+01 0.  1.
       -4    1    3    3    0  502 -0.17006827495E+04 -0.86031324541E+03 -0.66631464160E+03  0.20190189472E+04  0.12699999809E+01 0. -1.
</event>
<event>
 5   0  0.5158266E-07  0.2971795E+04  0.7818609E-02  0.8251831E-01
       -2   -1    0    0    0  501  0.00000000000E+00  0.00000000000E+00  0.96692674637E+03  0.96692674637E+03  0.25500000920E-02 0.  1.
        2   -1    0    0  501    0  0.00000000000E+00  0.00000000000E+00 -0.22834118340E+04  0.22834118340E+04  0.25500000920E-02 0. -1.
    10030    2    1    2    0    0  0.00000000000E+00  0.00000000000E+00 -0.13164850877E+04  0.32503385804E+04  0.29717954003E+04 0.  0.
        2    1    3    3  502    0 -0.10016015332E+04  0.43703459266E+03  0.44294593365E+03  0.11791547679E+04  0.25500000920E-02 0.  1.
       -2    1    3    3    0  502  0.10016015332E+04 -0.43703459266E+03 -0.17594310213E+04  0.20711838125E+04  0.25500000920E-02 0. -1.
</event>
<event>
 5   0  0.5158266E-07  0.3834106E+04  0.7818609E-02  0.8038875E-01
        2   -1    0    0  501    0  0.00000000000E+00  0.00000000000E+00  0.13779873740E+04  0.13779873740E+04  0.25500000920E-02 0. -1.
       -2   -1    0    0    0  501  0.00000000000E+00  0.00000000000E+00 -0.26670005013E+04  0.26670005013E+04  0.25500000920E-02 0.  1.
    10030    2    1    2    0    0  0.00000000000E+00  0.00000000000E+00 -0.12890131273E+04  0.40449878753E+04  0.38341064238E+04 0.  0.
        2    1    3    3  502    0 -0.53887582850E+03 -0.10286332512E+04 -0.22537277508E+04  0.25353031966E+04  0.25500000920E-02 0.  1.
       -2    1    3    3    0  502  0.53887582850E+03  0.10286332512E+04  0.96471462350E+03  0.15096846786E+04  0.25500000920E-02 0. -1.
</event>
<event>
 5   0  0.1648000E-07  0.3824839E+04  0.7818609E-02  0.8040845E-01
       -1   -1    0    0    0  501  0.00000000000E+00  0.00000000000E+00  0.17358587900E+04  0.17358587900E+04  0.50400001928E-02 0. -1.
        1   -1    0    0  501    0  0.00000000000E+00  0.00000000000E+00 -0.21069393289E+04  0.21069393289E+04  0.50400001928E-02 0.  1.
    10030    2    1    2    0    0  0.00000000000E+00  0.00000000000E+00 -0.37108053890E+03  0.38427981189E+04  0.38248394236E+04 0.  0.
        4    1    3    3  502    0  0.39650576320E+03  0.14631009132E+03  0.16883508539E+04  0.17404464030E+04  0.12699999809E+01 0. -1.
       -4    1    3    3    0  502 -0.39650576320E+03 -0.14631009132E+03 -0.20594313928E+04  0.21023517159E+04  0.12699999809E+01 0.  1.
</event>
<event>
 5   0  0.5158266E-07  0.3788231E+04  0.7818609E-02  0.8048685E-01
       -2   -1    0    0    0  501  0.00000000000E+00  0.00000000000E+00  0.14907780321E+04  0.14907780321E+04  0.25500000920E-02 0. -1.
        2   -1    0    0  501    0  0.00000000000E+00  0.00000000000E+00 -0.24065784932E+04  0.24065784932E+04  0.25500000920E-02 0.  1.
    10030    2    1    2    0    0  0.00000000000E+00  0.00000000000E+00 -0.91580046108E+03  0.38973565253E+04  0.37882314344E+04 0.  0.
        2    1    3    3  502    0 -0.15403265045E+04 -0.10397502959E+03  0.67109827563E+03  0.16833863023E+04  0.25500000920E-02 0. -1.
       -2    1    3    3    0  502  0.15403265045E+04  0.10397502959E+03 -0.15868987367E+04  0.22139702229E+04  0.25500000920E-02 0.  1.
</event>
<event>
 5   0  0.5134434E-07  0.3775951E+04  0.7818609E-02  0.8051336E-01
        2   -1    0    0  501    0  0.00000000000E+00  0.00000000000E+00  0.18596771363E+04  0.18596771363E+04  0.25500000920E-02 0. -1.
       -2   -1    0    0    0  501  0.00000000000E+00  0.00000000000E+00 -0.19167041079E+04  0.19167041079E+04  0.25500000920E-02 0.  1.
    10030    2    1    2    0    0  0.00000000000E+00  0.00000000000E+00 -0.57026971590E+02  0.37763812443E+04  0.37759506388E+04 0.  0.
        5    1    3    3  502    0  0.13716995455E+03  0.86009778874E+03  0.16467431816E+04  0.18628926429E+04  0.46999998093E+01 0. -1.
       -5    1    3    3    0  502 -0.13716995455E+03 -0.86009778874E+03 -0.17037701532E+04  0.19134886014E+04  0.46999998093E+01 0.  1.
</event>
<event>
 5   0  0.5134434E-07  0.3129511E+04  0.7818609E-02  0.8207685E-01
        2   -1    0    0  501    0  0.00000000000E+00  0.00000000000E+00  0.16631120593E+04  0.16631120593E+04  0.25500000920E-02 0.  1.
       -2   -1    0    0    0  501  0.00000000000E+00  0.00000000000E+00 -0.14722154411E+04  0.14722154411E+04  0.25500000920E-02 0. -1.
    10030    2    1    2    0    0  0.00000000000E+00  0.00000000000E+00  0.19089661826E+03  0.31353275004E+04  0.31295106672E+04 0.  0.
        5    1    3    3  502    0  0.92032125224E+02  0.61146431914E+03 -0.13446094093E+04  0.14799848240E+04  0.46999998093E+01 0. -1.
       -5    1    3    3    0  502 -0.92032125224E+02 -0.61146431914E+03  0.15355060276E+04  0.16553426764E+04  0.46999998093E+01 0.  1.
</event>
<event>
 5   0  0.5132561E-07  0.3843377E+04  0.7818609E-02  0.8036910E-01
        2   -1    0    0  501    0  0.00000000000E+00  0.00000000000E+00  0.21184443706E+04  0.21184443706E+04  0.25500000920E-02 0. -1.
       -2   -1    0    0    0  501  0.00000000000E+00  0.00000000000E+00 -0.17432071053E+04  0.17432071053E+04  0.25500000920E-02 0.  1.
    10030    2    1    2    0    0  0.00000000000E+00  0.00000000000E+00  0.37523726530E+03  0.38616514759E+04  0.38433773059E+04 0.  0.
        3    1    3    3  502    0 -0.67766703756E+03  0.81532024535E+03  0.17980205960E+04  0.20873087433E+04  0.10100000352E+00 0. -1.
       -3    1    3    3    0  502  0.67766703756E+03 -0.81532024535E+03 -0.14227833307E+04  0.17743427325E+04  0.10100000352E+00 0.  1.
</event>
<event>
 5   0  0.1656617E-07  0.3803577E+04  0.7818609E-02  0.8045388E-01
       -1   -1    0    0    0  501  0.00000000000E+00  0.00000000000E+00  0.11390488654E+04  0.11390488654E+04  0.50400001928E-02 0.  1.
        1   -1    0    0  501    0  0.00000000000E+00  0.00000000000E+00 -0.31752809672E+04  0.31752809672E+04  0.50400001928E-02 0. -1.
    10030    2    1    2    0    0  0.00000000000E+00  0.00000000000E+00 -0.20362321018E+04  0.43143298326E+04  0.38035773598E+04 0.  0.
        5    1    3    3  502    0 -0.91491697687E+03  0.29637414196E+02  0.87271104595E+03  0.12647521934E+04  0.46999998093E+01 0.  1.
       -5    1    3    3    0  502  0.91491697687E+03 -0.29637414196E+02 -0.29089431478E+04  0.30495776392E+04  0.46999998093E+01 0. -1.
</event>
<event>
 5   0  0.1648000E-07  0.3849980E+04  0.7818609E-02  0.8035513E-01
        1   -1    0    0  501    0  0.00000000000E+00  0.00000000000E+00  0.20166738700E+04  0.20166738700E+04  0.50400001928E-02 0.  1.
       -1   -1    0    0    0  501  0.00000000000E+00  0.00000000000E+00 -0.18374747371E+04  0.18374747371E+04  0.50400001928E-02 0. -1.
    10030    2    1    2    0    0  0.00000000000E+00  0.00000000000E+00  0.17919913292E+03  0.38541486072E+04  0.38499804099E+04 0.  0.
        1    1    3    3  502    0 -0.15599908334E+04  0.11172352748E+04  0.24404306614E+03  0.19342551739E+04  0.50400001928E-02 0. -1.
       -1    1    3    3    0  502  0.15599908334E+04 -0.11172352748E+04 -0.64843933225E+02  0.19198934333E+04  0.50400001928E-02 0.  1.
</event>
<event>
 5   0  0.5132561E-07  0.3820683E+04  0.7818609E-02  0.8041731E-01
        2   -1    0    0  501    0  0.00000000000E+00  0.00000000000E+00  0.26546805441E+04  0.26546805441E+04  0.25500000920E-02 0.  1.
       -2   -1    0    0    0  501  0.00000000000E+00  0.00000000000E+00 -0.13747061208E+04  0.13747061208E+04  0.25500000920E-02 0. -1.
    10030    2    1    2    0    0  0.00000000000E+00  0.00000000000E+00  0.12799744233E+04  0.40293866649E+04  0.38206834953E+04 0.  0.
        3    1    3    3  502    0  0.14652100958E+04 -0.31818831018E+03  0.18884244722E+04  0.24112717439E+04  0.10100000352E+00 0.  1.
       -3    1    3    3    0  502 -0.14652100958E+04  0.31818831018E+03 -0.60845004885E+03  0.16181149210E+04  0.10100000352E+00 0. -1.
</event>
<event>
 5   0  0.1648000E-07  0.3842127E+04  0.7818609E-02  0.8037174E-01
       -1   -1    0    0    0  501  0.00000000000E+00  0.00000000000E+00  0.23353754996E+04  0.23353754996E+04  0.50400001928E-02 0. -1.
        1   -1    0    0  501    0  0.00000000000E+00  0.00000000000E+00 -0.15802535693E+04  0.15802535693E+04  0.50400001928E-02 0.  1.
    10030    2    1    2    0    0  0.00000000000E+00  0.00000000000E+00  0.75512193030E+03  0.39156290689E+04  0.38421272592E+04 0.  0.
        2    1    3    3  502    0 -0.18723158316E+04  0.37368134348E+03  0.16069643869E+03  0.19159926057E+04  0.25500000920E-02 0.  1.
       -2    1    3    3    0  502  0.18723158316E+04 -0.37368134348E+03  0.59442549161E+03  0.19996364632E+04  0.25500000920E-02 0. -1.
</event>
<event>
 5   0  0.5325362E-07  0.3777621E+04  0.7818609E-02  0.8050974E-01
       -2   -1    0    0    0  501  0.00000000000E+00  0.00000000000E+00  0.14561731182E+04  0.14561731182E+04  0.25500000920E-02 0.  1.
        2   -1    0    0  501    0  0.00000000000E+00  0.00000000000E+00 -0.24499871509E+04  0.24499871509E+04  0.25500000920E-02 0. -1.
    10030    2    1    2    0    0  0.00000000000E+00  0.00000000000E+00 -0.99381403269E+03  0.39061602691E+04  0.37776211716E+04 0.  0.
        4    1    3    3  502    0 -0.11258965462E+04 -0.14648573050E+04 -0.90289095789E+03  0.20563714770E+04  0.12699999809E+01 0. -1.
       -4    1    3    3    0  502  0.11258965462E+04  0.14648573050E+04 -0.90923074796E+02  0.18497887920E+04  0.12699999809E+01 0.  1.
</event>
<event>
 5   0  0.1648000E-07  0.3760743E+04  0.7818609E-02  0.8054632E-01
        1   -1    0    0  501    0  0.00000000000E+00  0.00000000000E+00  0.34179176913E+04  0.34179176913E+04  0.50400001928E-02 0. -1.
       -1   -1    0    0    0  501  0.00000000000E+00  0.00000000000E+00 -0.10344888567E+04  0.10344888567E+04  0.50400001928E-02 0.  1.
    10030    2    1    2    0    0  0.00000000000E+00  0.00000000000E+00  0.23834288346E+04  0.44524065480E+04  0.37607434184E+04 0.  0.
        4    1    3    3  502    0 -0.12885690400E+04  0.13010310024E+04  0.16977668385E+04  0.24970994555E+04  0.12699999809E+01 0. -1.
       -4    1    3    3    0  502  0.12885690400E+04 -0.13010310024E+04  0.68566199615E+03  0.19553070925E+04  0.12699999809E+01 0.  1.
</event>
<event>
 5   0  0.5325362E-07  0.3809314E+04  0.7818609E-02  0.8044159E-01
        2   -1    0    0  501    0  0.00000000000E+00  0.00000000000E+00  0.15293345408E+04  0.15293345408E+04  0.25500000920E-02 0.  1.
       -2   -1    0    0    0  501  0.00000000000E+00  0.00000000000E+00 -0.23720893426E+04  0.23720893426E+04  0.25500000920E-02 0. -1.
    10030    2    1    2    0    0  0.00000000000E+00  0.00000000000E+00 -0.84275480184E+03  0.39014238835E+04  0.38093139359E+04 0.  0.
        4    1    3    3  502    0 -0.10671271803E+03 -0.15591998311E+04  0.69362741779E+03  0.17098573991E+04  0.12699999809E+01 0.  1.
       -4    1    3    3    0  502  0.10671271803E+03  0.15591998311E+04 -0.15363822196E+04  0.21915664844E+04  0.12699999809E+01 0. -1.
</event>
<event>
 5   0  0.5202788E-07  0.3730503E+04  0.7818609E-02  0.8061235E-01
        2   -1    0    0  501    0  0.00000000000E+00  0.00000000000E+00  0.22234916119E+04  0.22234916119E+04  0.25500000920E-02 0.  1.
       -2   -1    0    0    0  501  0.00000000000E+00  0.00000000000E+00 -0.15647294978E+04  0.15647294978E+04  0.25500000920E-02 0. -1.
    10030    2    1    2    0    0  0.00000000000E+00  0.00000000000E+00  0.65876211404E+03  0.37882211097E+04  0.37305028687E+04 0.  0.
        1    1    3    3  502    0 -0.72175640579E+03  0.10268436807E+04  0.17305199464E+04  0.21377650803E+04  0.50400001928E-02 0.  1.
       -1    1    3    3    0  502  0.72175640579E+03 -0.10268436807E+04 -0.10717578323E+04  0.16504560294E+04  0.50400001928E-02 0. -1.
</event>
<event>
 5   0  0.5158266E-07  0.3478475E+04  0.7818609E-02  0.8118910E-01
        2   -1    0    0  501    0  0.00000000000E+00  0.00000000000E+00  0.12147330415E+04  0.12147330415E+04  0.25500000920E-02 0. -1.
       -2   -1    0    0    0  501  0.00000000000E+00  0.00000000000E+00 -0.24902149447E+04  0.24902149447E+04  0.25500000920E-02 0.  1.
    10030    2    1    2    0    0  0.00000000000E+00  0.00000000000E+00 -0.12754819033E+04  0.37049479862E+04  0.34784745931E+04 0.  0.
        2    1    3    3  502    0 -0.85555386326E+03  0.14105316058E+04 -0.51085849359E+02  0.16505094934E+04  0.25500000920E-02 0. -1.
       -2    1    3    3    0  502  0.85555386326E+03 -0.14105316058E+04 -0.12243960539E+04  0.20544384928E+04  0.25500000920E-02 0.  1.
</event>
<event>
 5   0  0.1648000E-07  0.2933883E+04  0.7818609E-02  0.8262867E-01
        1   -1    0    0  501    0  0.00000000000E+00  0.00000000000E+00  0.18351535651E+04  0.18351535651E+04  0.50400001928E-02 0. -1.
       -1   -1    0    0    0  501  0.00000000000E+00  0.00000000000E+00 -0.11726086469E+04  0.11726086469E+04  0.50400001928E-02 0.  1.
    10030    2    1    2    0    0  0.00000000000E+00  0.00000000000E+00  0.66254491812E+03  0.30077622120E+04  0.29338827099E+04 0.  0.
        3    1    3    3  502    0  0.83477860856E+03  0.69993224900E+03  0.13384351042E+04  0.17257372386E+04  0.10100000352E+00 0. -1.
       -3    1    3    3    0  502 -0.83477860856E+03 -0.69993224900E+03 -0.67589018607E+03  0.12820249734E+04  0.10100000352E+00 0.  1.
</event>
<event>
 5   0  0.1648000E-07  0.3678737E+04  0.7818609E-02  0.8072690E-01
        1   -1    0    0  501    0  0.00000000000E+00  0.00000000000E+00  0.30026620568E+04  0.30026620568E+04  0.50400001928E-02 0.  1.
       -1   -1    0    0    0  501  0.00000000000E+00  0.00000000000E+00 -0.11267588123E+04  0.11267588123E+04  0.50400001928E-02 0. -1.
    10030    2    1    2    0    0  0.00000000000E+00  0.00000000000E+00  0.18759032445E+04  0.41294208691E+04  0.36787367032E+04 0.  0.
        1    1    3    3  502    0  0.11935548692E+04 -0.26550417306E+03 -0.60451443987E+03  0.13640027125E+04  0.50400001928E-02 0. -1.
       -1    1    3    3    0  502 -0.11935548692E+04  0.26550417306E+03  0.24804176844E+04  0.27654181566E+04  0.50400001928E-02 0.  1.
</event>
<event>
 5   0  0.1648000E-07  0.3795895E+04  0.7818609E-02  0.8047036E-01
       -1   -1    0    0    0  501  0.00000000000E+00  0.00000000000E+00  0.17418929916E+04  0.17418929916E+04  0.50400001928E-02 0.  1.
        1   -1    0    0  501    0  0.00000000000E+00  0.00000000000E+00 -0.20679824964E+04  0.20679824964E+04  0.50400001928E-02 0. -1.
    10030    2    1    2    0    0  0.00000000000E+00  0.00000000000E+00 -0.32608950481E+03  0.38098754880E+04  0.37958947389E+04 0.  0.
        2    1    3    3  502    0  0.15693163430E+04 -0.12424793504E+03 -0.12271443190E+04  0.19960146576E+04  0.25500000920E-02 0. -1.
       -2    1    3    3    0  502 -0.15693163430E+04  0.12424793504E+03  0.90105481420E+03  0.18138608304E+04  0.25500000920E-02 0.  1.
</event>
<event>
 5   0  0.5158266E-07  0.3756143E+04  0.7818609E-02  0.8055632E-01
        2   -1    0    0  501    0  0.00000000000E+00  0.00000000000E+00  0.25972045981E+04  0.25972045981E+04  0.25500000920E-02 0.  1.
       -2   -1    0    0    0  501  0.00000000000E+00  0.00000000000E+00 -0.13580574128E+04  0.13580574128E+04  0.25500000920E-02 0. -1.
    10030    2    1    2    0    0  0.00000000000E+00  0.00000000000E+00  0.12391471853E+04  0.39552620109E+04  0.37561432119E+04 0.  0.
        2    1    3    3  502    0 -0.50403930017E+03 -0.17632469604E+03 -0.12764340599E+04  0.13836292581E+04  0.25500000920E-02 0. -1.
       -2    1    3    3    0  502  0.50403930017E+03  0.17632469604E+03  0.25155812452E+04  0.25716327529E+04  0.25500000920E-02 0.  1.
</event>
<event>
 5   0  0.5134434E-07  0.3863710E+04  0.7818609E-02  0.8032620E-01
       -2   -1    0    0    0  501  0.00000000000E+00  0.00000000000E+00  0.20874973436E+04  0.20874973436E+04  0.25500000920E-02 0. -1.
        2   -1    0    0  501    0  0.00000000000E+00  0.00000000000E+00 -0.17878167970E+04  0.17878167970E+04  0.25500000920E-02 0.  1.
    10030    2    1    2    0    0  0.00000000000E+00  0.00000000000E+00  0.29968054655E+03  0.38753141406E+04  0.38637095204E+04 0.  0.
        5    1    3    3  502    0 -0.16396461803E+04  0.10312413780E+03 -0.86956193968E+03  0.18588260385E+04  0.46999998093E+01 0.  1.
       -5    1    3    3    0  502  0.16396461803E+04 -0.10312413780E+03  0.11692424862E+04  0.20164881021E+04  0.46999998093E+01 0. -1.
</event>
<event>
 5   0  0.1648000E-07  0.3753618E+04  0.7818609E-02  0.8056182E-01
       -1   -1    0    0    0  501  0.00000000000E+00  0.00000000000E+00  0.11584368188E+04  0.11584368188E+04  0.50400001928E-02 0. -1.
        1   -1    0    0  501    0  0.00000000000E+00  0.00000000000E+00 -0.30406602392E+04  0.30406602392E+04  0.50400001928E-02 0.  1.
    10030    2    1    2    0    0  0.00000000000E+00  0.00000000000E+00 -0.18822234204E+04  0.41990970580E+04  0.37536184008E+04 0.  0.
        1    1    3    3  502    0  0.10999165467E+04 -0.14305398515E+04 -0.15182378440E+04  0.23582423174E+04  0.50400001928E-02 0.  1.
       -1    1    3    3    0  502 -0.10999165467E+04  0.14305398515E+04 -0.36398557640E+03  0.18408547407E+04  0.50400001928E-02 0. -1.
</event>
<event>
 5   0  0.5202788E-07  0.2949899E+04  0.7818609E-02  0.8258184E-01
       -2   -1    0    0    0  501  0.00000000000E+00  0.00000000000E+00  0.12966227575E+04  0.12966227575E+04  0.25500000920E-02 0.  1.
        2   -1    0    0  501    0  0.00000000000E+00  0.00000000000E+00 -0.16778021885E+04  0.16778021885E+04  0.25500000920E-02 0. -1.
    10030    2    1    2    0    0  0.00000000000E+00  0.00000000000E+00 -0.38117943099E+03  0.29744249461E+04  0.29498993205E+04 0.  0.
        1    1    3    3  502    0 -0.57504033521E+02 -0.14144022283E+04  0.22714461566E+03  0.14336788531E+04  0.50400001928E-02 0. -1.
       -1    1    3    3    0  502  0.57504033521E+02  0.14144022283E+04 -0.60832404665E+03  0.15407460930E+04  0.50400001928E-02 0.  1.
</event>
<event>
 5   0  0.1648000E-07  0.2833169E+04  0.7818609E-02  0.8293044E-01
        1   -1    0    0  501    0  0.00000000000E+00  0.00000000000E+00  0.79428974848E+03  0.79428974850E+03  0.50400001928E-02 0.  1.
       -1   -1    0    0    0  501  0.00000000000E+00  0.00000000000E+00 -0.25264224300E+04  0.25264224300E+04  0.50400001928E-02 0. -1.
    10030    2    1    2    0    0  0.00000000000E+00  0.00000000000E+00 -0.17321326815E+04  0.33207121785E+04  0.28331688524E+04 0.  0.
        1    1    3    3  502    0 -0.84219639833E+03 -0.37254775037E+03  0.39555838937E+03  0.10022739342E+04  0.50400001928E-02 0.  1.
       -1    1    3    3    0  502  0.84219639833E+03  0.37254775037E+03 -0.21276910709E+04  0.23184382444E+04  0.50400001928E-02 0. -1.
</event>
<event>
 5   0  0.5134434E-07  0.3805362E+04  0.7818609E-02  0.8045005E-01
        2   -1    0    0  501    0  0.00000000000E+00  0.00000000000E+00  0.21386667896E+04  0.21386667896E+04  0.25500000920E-02 0. -1.
       -2   -1    0    0    0  501  0.00000000000E+00  0.00000000000E+00 -0.16927348967E+04  0.16927348967E+04  0.25500000920E-02 0.  1.
    10030    2    1    2    0    0  0.00000000000E+00  0.00000000000E+00  0.44593189282E+03  0.38314016863E+04  0.38053624832E+04 0.  0.
        5    1    3    3  502    0 -0.70892525521E+03 -0.18051139512E+03 -0.15454737465E+04  0.17098744318E+04  0.46999998093E+01 0.  1.
       -5    1    3    3    0  502  0.70892525521E+03  0.18051139512E+03  0.19914056394E+04  0.21215272545E+04  0.46999998093E+01 0. -1.
</event>
<event>
 5   0  0.5202788E-07  0.3834658E+04  0.7818609E-02  0.8038758E-01
        2   -1    0    0  501    0  0.00000000000E+00  0.00000000000E+00  0.22511124353E+04  0.22511124353E+04  0.25500000920E-02 0. -1.
       -2   -1    0    0    0  501  0.00000000000E+00  0.00000000000E+00 -0.16330368587E+04  0.16330368587E+04  0.25500000920E-02 0.  1.
    10030    2    1    2    0    0  0.00000000000E+00  0.00000000000E+00  0.61807557657E+03  0.38841492940E+04  0.38346575232E+04 0.  0.
        1    1    3    3  502    0 -0.45720342601E+03 -0.34979524888E+03  0.21615098855E+04  0.22368541915E+04  0.50400001928E-02 0. -1.
       -1    1    3    3    0  502  0.45720342601E+03  0.34979524888E+03 -0.15434343089E+04  0.16472951025E+04  0.50400001928E-02 0.  1.
</event>
<event>
 5   0  0.5134434E-07  0.3778071E+04  0.7818609E-02  0.8050877E-01
       -2   -1    0    0    0  501  0.00000000000E+00  0.00000000000E+00  0.17798874248E+04  0.17798874248E+04  0.25500000920E-02 0. -1.
        2   -1    0    0  501    0  0.00000000000E+00  0.00000000000E+00 -0.20048768530E+04  0.20048768530E+04  0.25500000920E-02 0.  1.
    10030    2    1    2    0    0  0.00000000000E+00  0.00000000000E+00 -0.22498942821E+03  0.37847642778E+04  0.37780709887E+04 0.  0.
        5    1    3    3  502    0 -0.16686095545E+03  0.18361399038E+04 -0.52453920346E+03  0.19168765716E+04  0.46999998093E+01 0.  1.
       -5    1    3    3    0  502  0.16686095545E+03 -0.18361399038E+04  0.29954977525E+03  0.18678877061E+04  0.46999998093E+01 0. -1.
</event>
<event>
 5   0  0.5134434E-07  0.3771491E+04  0.7818609E-02  0.8052301E-01
       -2   -1    0    0    0  501  0.00000000000E+00  0.00000000000E+00  0.16160065312E+04  0.16160065312E+04  0.25500000920E-02 0. -1.
        2   -1    0    0  501    0  0.00000000000E+00  0.00000000000E+00 -0.22005089767E+04  0.22005089767E+04  0.25500000920E-02 0.  1.
    10030    2    1    2    0    0  0.00000000000E+00  0.00000000000E+00 -0.58450244548E+03  0.38165155078E+04  0.37714914176E+04 0.  0.
        5    1    3    3  502    0 -0.10659714745E+04  0.94892486359E+03  0.95504650727E+03  0.17172330949E+04  0.46999998093E+01 0. -1.
       -5    1    3    3    0  502  0.10659714745E+04 -0.94892486359E+03 -0.15395489527E+04  0.20992824129E+04  0.46999998093E+01 0.  1.
</event>
<event>
 5   0  0.1648000E-07  0.3800229E+04  0.7818609E-02  0.8046106E-01
       -1   -1    0    0    0  501  0.00000000000E+00  0.00000000000E+00  0.20318666302E+04  0.20318666302E+04  0.50400001928E-02 0. -1.
        1   -1    0    0  501    0  0.00000000000E+00  0.00000000000E+00 -0.17769057655E+04  0.17769057655E+04  0.50400001928E-02 0.  1.
    10030    2    1    2    0    0  0.00000000000E+00  0.00000000000E+00  0.25496086468E+03  0.38087723957E+04  0.38002292193E+04 0.  0.
        2    1    3    3  502    0 -0.12213872611E+04 -0.79748443237E+03 -0.10929051777E+04  0.18226930595E+04  0.25500000920E-02 0.  1.
       -2    1    3    3    0  502  0.12213872611E+04  0.79748443237E+03  0.13478660424E+04  0.19860793362E+04  0.25500000920E-02 0. -1.
</event>
<event>
 5   0  0.5202788E-07  0.3771748E+04  0.7818609E-02  0.8052245E-01
       -2   -1    0    0    0  501  0.00000000000E+00  0.00000000000E+00  0.12155293081E+04  0.12155293081E+04  0.25500000920E-02 0.  1.
        2   -1    0    0  501    0  0.00000000000E+00  0.00000000000E+00 -0.29259029426E+04  0.29259029426E+04  0.25500000920E-02 0. -1.
    10030    2    1    2    0    0  0.00000000000E+00  0.00000000000E+00 -0.17103736345E+04  0.41414322506E+04  0.37717480187E+04 0.  0.
        1    1    3    3  502    0  0.14616050237E+04 -0.11384318688E+04 -0.46821761252E+03  0.19109013837E+04  0.50400001928E-02 0. -1.
       -1    1    3    3    0  502 -0.14616050237E+04  0.11384318688E+04 -0.12421560220E+04  0.22305308669E+04  0.50400001928E-02 0.  1.
</event>
<event>
 5   0  0.1648000E-07  0.3818445E+04  0.7818609E-02  0.8042208E-01
        1   -1    0    0  501    0  0.00000000000E+00  0.00000000000E+00  0.25083298508E+04  0.25083298508E+04  0.50400001928E-02 0. -1.
       -1   -1    0    0    0  501  0.00000000000E+00  0.00000000000E+00 -0.14532099898E+04  0.14532099898E+04  0.50400001928E-02 0.  1.
    10030    2    1    2    0    0  0.00000000000E+00  0.00000000000E+00  0.10551198610E+04  0.39615398406E+04  0.38184447079E+04 0.  0.
        2    1    3    3  502    0  0.88073339020E+03 -0.58362618054E+02 -0.12288184264E+04  0.15129746280E+04  0.25500000920E-02 0.  1.
       -2    1    3    3    0  502 -0.88073339020E+03  0.58362618054E+02  0.22839382874E+04  0.24485652126E+04  0.25500000920E-02 0. -1.
</event>
<event>
 5   0  0.5325362E-07  0.3750031E+04  0.7818609E-02  0.8056964E-01
        2   -1    0    0  501    0  0.00000000000E+00  0.00000000000E+00  0.21754155499E+04  0.21754155499E+04  0.25500000920E-02 0. -1.
       -2   -1    0    0    0  501  0.00000000000E+00  0.00000000000E+00 -0.16160969964E+04  0.16160969964E+04  0.25500000920E-02 0.  1.
    10030    2    1    2    0    0  0.00000000000E+00  0.00000000000E+00  0.55931855351E+03  0.37915125464E+04  0.37500306859E+04 0.  0.
        4    1    3    3  502    0 -0.15576095972E+04 -0.10349721646E+04  0.41667916272E+03  0.19159692524E+04  0.12699999809E+01 0.  1.
       -4    1    3    3    0  502  0.15576095972E+04  0.10349721646E+04  0.14263939080E+03  0.18755432939E+04  0.12699999809E+01 0. -1.
</event>
<event>
 5   0  0.1648000E-07  0.2724766E+04  0.7818609E-02  0.8327014E-01
       -1   -1    0    0    0  501  0.00000000000E+00  0.00000000000E+00  0.10523448181E+04  0.10523448181E+04  0.50400001928E-02 0. -1.
        1   -1    0    0  501    0  0.00000000000E+00  0.00000000000E+00 -0.17637637729E+04  0.17637637729E+04  0.50400001928E-02 0.  1.
    10030    2    1    2    0    0  0.00000000000E+00  0.00000000000E+00 -0.71141895485E+03  0.28161085910E+04  0.27247661674E+04 0.  0.
        3    1    3    3  502    0 -0.77320670174E+03  0.94763477224E+02 -0.15108807809E+04  0.16998792500E+04  0.10100000352E+00 0.  1.
       -3    1    3    3    0  502  0.77320670174E+03 -0.94763477224E+02  0.79946182604E+03  0.11162293410E+04  0.10100000352E+00 0. -1.
</event>
<event>
 5   0  0.5132561E-07  0.3807660E+04  0.7818609E-02  0.8044513E-01
       -2   -1    0    0    0  501  0.00000000000E+00  0.00000000000E+00  0.15971076412E+04  0.15971076412E+04  0.25500000920E-02 0. -1.
        2   -1    0    0  501    0  0.00000000000E+00  0.00000000000E+00 -0.22694575721E+04  0.22694575721E+04  0.25500000920E-02 0.  1.
    10030    2    1    2    0    0  0.00000000000E+00  0.00000000000E+00 -0.67234993097E+03  0.38665652133E+04  0.38076596643E+04 0.  0.
        3    1    3    3  502    0 -0.83483870007E+03 -0.12293238291E+04 -0.15447020456E+04  0.21434311633E+04  0.10100000352E+00 0.  1.
       -3    1    3    3    0  502  0.83483870007E+03  0.12293238291E+04  0.87235211467E+03  0.17231340500E+04  0.10100000352E+00 0. -1.
</event>
<event>
 5   0  0.1648000E-07  0.3821029E+04  0.7818609E-02  0.8041657E-01
        1   -1    0    0  501    0  0.00000000000E+00  0.00000000000E+00  0.28812519709E+04  0.28812519709E+04  0.50400001928E-02 0.  1.
       -1   -1    0    0    0  501  0.00000000000E+00  0.00000000000E+00 -0.12668332731E+04  0.12668332731E+04  0.50400001928E-02 0. -1.
    10030    2    1    2    0    0  0.00000000000E+00  0.00000000000E+00  0.16144186978E+04  0.41480852440E+04  0.38210291100E+04 0.  0.
        4    1    3    3  502    0  0.13993007933E+04 -0.11732718175E+04  0.14169369926E+04  0.23113462574E+04  0.12699999809E+01 0.  1.
       -4    1    3    3    0  502 -0.13993007933E+04  0.11732718175E+04  0.19748170521E+03  0.18367389866E+04  0.12699999809E+01 0. -1.
</event>
<event>
 5   0  0.5202788E-07  0.3914238E+04  0.7818609E-02  0.8022074E-01
       -2   -1    0    0    0  501  0.00000000000E+00  0.00000000000E+00  0.24294461602E+04  0.24294461602E+04  0.25500000920E-02 0.  1.
        2   -1    0    0  501    0  0.00000000000E+00  0.00000000000E+00 -0.15766209091E+04  0.15766209091E+04  0.25500000920E-02 0. -1.
    10030    2    1    2    0    0  0.00000000000E+00  0.00000000000E+00  0.85282525112E+03  0.40060670693E+04  0.39142384259E+04 0.  0.
        1    1    3    3  502    0 -0.12552099010E+03  0.67520015584E+03  0.23020733048E+04  0.24023305914E+04  0.50400001928E-02 0.  1.
       -1    1    3    3    0  502  0.12552099010E+03 -0.67520015584E+03 -0.14492480537E+04  0.16037364779E+04  0.50400001928E-02 0. -1.
</event>
<event>
 5   0  0.1656617E-07  0.3822299E+04  0.7818609E-02  0.8041386E-01
       -1   -1    0    0    0  501  0.00000000000E+00  0.00000000000E+00  0.16043069766E+04  0.16043069766E+04  0.50400001928E-02 0. -1.
        1   -1    0    0  501    0  0.00000000000E+00  0.00000000000E+00 -0.22766797210E+04  0.22766797210E+04  0.50400001928E-02 0.  1.
    10030    2    1    2    0    0  0.00000000000E+00  0.00000000000E+00 -0.67237274443E+03  0.38809866976E+04  0.38222993916E+04 0.  0.
        5    1    3    3  502    0  0.37577785348E+03  0.15466062535E+04  0.73801353822E+03  0.17543904842E+04  0.46999998093E+01 0. -1.
       -5    1    3    3    0  502 -0.37577785348E+03 -0.15466062535E+04 -0.14103862827E+04  0.21265962134E+04  0.46999998093E+01 0.  1.
</event>
<event>
 5   0  0.1648000E-07  0.3674955E+04  0.7818609E-02  0.8073535E-01
        1   -1    0    0  501    0  0.00000000000E+00  0.00000000000E+00  0.14870718593E+04  0.14870718593E+04  0.50400001928E-02 0. -1.
       -1   -1    0    0    0  501  0.00000000000E+00  0.00000000000E+00 -0.22704510824E+04  0.22704510824E+04  0.50400001928E-02 0.  1.
    10030    2    1    2    0    0  0.00000000000E+00  0.00000000000E+00 -0.78337922309E+03  0.37575229417E+04  0.36749551902E+04 0.  0.
        4    1    3    3  502    0  0.15614546313E+04  0.94990449239E+03 -0.58532023683E+03  0.19191301422E+04  0.12699999809E+01 0.  1.
       -4    1    3    3    0  502 -0.15614546313E+04 -0.94990449239E+03 -0.19805898626E+03  0.18383927995E+04  0.12699999809E+01 0. -1.
</event>
<event>
 5   0  0.5132561E-07  0.3824839E+04  0.7818609E-02  0.8040845E-01
       -2   -1    0    0    0  501  0.00000000000E+00  0.00000000000E+00  0.26889052456E+04  0.26889052456E+04  0.25500000920E-02 0. -1.
        2   -1    0    0  501    0  0.00000000000E+00  0.00000000000E+00 -0.13601626073E+04  0.13601626073E+04  0.25500000920E-02 0.  1.
    10030    2    1    2    0    0  0.00000000000E+00  0.00000000000E+00  0.13287426383E+04  0.40490678529E+04  0.38248390134E+04 0.  0.
        3    1    3    3  502    0 -0.29920027640E+02 -0.10081926948E+04 -0.10556899238E+04  0.14600784031E+04  0.10100000352E+00 0.  1.
       -3    1    3    3    0  502  0.29920027640E+02  0.10081926948E+04  0.23844325620E+04  0.25889894498E+04  0.10100000352E+00 0. -1.
</event>
<event>
 5   0  0.1656617E-07  0.3769914E+04  0.7818609E-02  0.8052642E-01
       -1   -1    0    0    0  501  0.00000000000E+00  0.00000000000E+00  0.26550435318E+04  0.26550435318E+04  0.50400001928E-02 0.  1.
        1   -1    0    0  501    0  0.00000000000E+00  0.00000000000E+00 -0.13382317480E+04  0.13382317480E+04  0.50400001928E-02 0. -1.
    10030    2    1    2    0    0  0.00000000000E+00  0.00000000000E+00  0.13168117838E+04  0.39932752798E+04  0.37699143473E+04 0.  0.
        5    1    3    3  502    0 -0.96363711479E+03 -0.16187762100E+04  0.59134159285E+03  0.19745226959E+04  0.46999998093E+01 0.  1.
       -5    1    3    3    0  502  0.96363711479E+03  0.16187762100E+04  0.72547019099E+03  0.20187525839E+04  0.46999998093E+01 0. -1.
</event>
<event>
 5   0  0.1648000E-07  0.3766957E+04  0.7818609E-02  0.8053283E-01
       -1   -1    0    0    0  501  0.00000000000E+00  0.00000000000E+00  0.13235473890E+04  0.13235473890E+04  0.50400001928E-02 0. -1.
        1   -1    0    0  501    0  0.00000000000E+00  0.00000000000E+00 -0.26802906530E+04  0.26802906530E+04  0.50400001928E-02 0.  1.
    10030    2    1    2    0    0  0.00000000000E+00  0.00000000000E+00 -0.13567432640E+04  0.40038380420E+04  0.37669572312E+04 0.  0.
        3    1    3    3  502    0  0.17467830537E+03  0.55756060273E+03 -0.25815290261E+04  0.26468242214E+04  0.10100000352E+00 0.  1.
       -3    1    3    3    0  502 -0.17467830537E+03 -0.55756060273E+03  0.12247857621E+04  0.13570138206E+04  0.10100000352E+00 0. -1.
</event>
<event>
 5   0  0.1648000E-07  0.3749397E+04  0.7818609E-02  0.8057102E-01
        1   -1    0    0  501    0  0.00000000000E+00  0.00000000000E+00  0.20140616943E+04  0.20140616944E+04  0.50400001928E-02 0.  1.
       -1   -1    0    0    0  501  0.00000000000E+00  0.00000000000E+00 -0.17449786920E+04  0.17449786920E+04  0.50400001928E-02 0. -1.
    10030    2    1    2    0    0  0.00000000000E+00  0.00000000000E+00  0.26908300238E+03  0.37590403863E+04  0.37493971467E+04 0.  0.
        2    1    3    3  502    0  0.11650974027E+04  0.17773600470E+03  0.15961843599E+04  0.19841488240E+04  0.25500000920E-02 0.  1.
       -2    1    3    3    0  502 -0.11650974027E+04 -0.17773600470E+03 -0.13271013575E+04  0.17748915623E+04  0.25500000920E-02 0. -1.
</event>
<event>
 5   0  0.5158266E-07  0.3797632E+04  0.7818609E-02  0.8046663E-01
        2   -1    0    0  501    0  0.00000000000E+00  0.00000000000E+00  0.11601455355E+04  0.11601455355E+04  0.25500000920E-02 0. -1.
       -2   -1    0    0    0  501  0.00000000000E+00  0.00000000000E+00 -0.31078023589E+04  0.31078023589E+04  0.25500000920E-02 0.  1.
    10030    2    1    2    0    0  0.00000000000E+00  0.00000000000E+00 -0.19476568234E+04  0.42679478945E+04  0.37976324372E+04 0.  0.
        2    1    3    3  502    0 -0.78382551217E+03 -0.47038170616E+02  0.96912530266E+03  0.12473166700E+04  0.25500000920E-02 0. -1.
       -2    1    3    3    0  502  0.78382551217E+03  0.47038170616E+02 -0.29167821261E+04  0.30206312245E+04  0.25500000920E-02 0.  1.
</event>
<event>
 5   0  0.1648000E-07  0.3767564E+04  0.7818609E-02  0.8053152E-01
        1   -1    0    0  501    0  0.00000000000E+00  0.00000000000E+00  0.12608238426E+04  0.12608238426E+04  0.50400001928E-02 0. -1.
       -1   -1    0    0    0  501  0.00000000000E+00  0.00000000000E+00 -0.28145366455E+04  0.28145366455E+04  0.50400001928E-02 0.  1.
    10030    2    1    2    0    0  0.00000000000E+00  0.00000000000E+00 -0.15537128029E+04  0.40753604881E+04  0.37675641513E+04 0.  0.
        2    1    3    3  502    0  0.17336768042E+04  0.68112574090E+03 -0.47269505146E+03  0.19217201014E+04  0.25500000920E-02 0. -1.
       -2    1    3    3    0  502 -0.17336768042E+04 -0.68112574090E+03 -0.10810177515E+04  0.21536403867E+04  0.25500000920E-02 0.  1.
</event>
<event>
 5   0  0.1648000E-07  0.3513177E+04  0.7818609E-02  0.8110674E-01
        1   -1    0    0  501    0  0.00000000000E+00  0.00000000000E+00  0.16718038649E+04  0.16718038649E+04  0.50400001928E-02 0.  1.
       -1   -1    0    0    0  501  0.00000000000E+00  0.00000000000E+00 -0.18456729856E+04  0.18456729856E+04  0.50400001928E-02 0. -1.
    10030    2    1    2    0    0  0.00000000000E+00  0.00000000000E+00 -0.17386912067E+03  0.35174768505E+04  0.35131770411E+04 0.  0.
        2    1    3    3  502    0  0.17177607748E+04 -0.23773445785E+03 -0.36724771504E+03  0.17725943236E+04  0.25500000920E-02 0. -1.
       -2    1    3    3    0  502 -0.17177607748E+04  0.23773445785E+03  0.19337859437E+03  0.17448825269E+04  0.25500000920E-02 0.  1.
</event>
<event>
 5   0  0.1648000E-07  0.3794709E+04  0.7818609E-02  0.8047291E-01
        1   -1    0    0  501    0  0.00000000000E+00  0.00000000000E+00  0.20247560199E+04  0.20247560199E+04  0.50400001928E-02 0.  1.
       -1   -1    0    0    0  501  0.00000000000E+00  0.00000000000E+00 -0.17779694545E+04  0.17779694545E+04  0.50400001928E-02 0. -1.
    10030    2    1    2    0    0  0.00000000000E+00  0.00000000000E+00  0.24678656546E+03  0.38027254744E+04  0.37947091357E+04 0.  0.
        3    1    3    3  502    0  0.58919729093E+03 -0.71024650202E+03  0.17847104934E+04  0.20091777166E+04  0.10100000352E+00 0.  1.
       -3    1    3    3    0  502 -0.58919729093E+03  0.71024650202E+03 -0.15379239279E+04  0.17935477578E+04  0.10100000352E+00 0. -1.
</event>
<event>
 5   0  0.5202788E-07  0.3789694E+04  0.7818609E-02  0.8048370E-01
        2   -1    0    0  501    0  0.00000000000E+00  0.00000000000E+00  0.19940097094E+04  0.19940097094E+04  0.25500000920E-02 0.  1.
       -2   -1    0    0    0  501  0.00000000000E+00  0.00000000000E+00 -0.18006155340E+04  0.18006155340E+04  0.25500000920E-02 0. -1.
    10030    2    1    2    0    0  0.00000000000E+00  0.00000000000E+00  0.19339417536E+03  0.37946252433E+04  0.37896938439E+04 0.  0.
        1    1    3    3  502    0 -0.35483624454E+03 -0.30484805425E+03  0.19352791980E+04  0.19910164918E+04  0.50400001928E-02 0.  1.
       -1    1    3    3    0  502  0.35483624454E+03  0.30484805425E+03 -0.17418850226E+04  0.18036087515E+04  0.50400001928E-02 0. -1.
</event>
<event>
 5   0  0.5325362E-07  0.3772335E+04  0.7818609E-02  0.8052118E-01
        2   -1    0    0  501    0  0.00000000000E+00  0.00000000000E+00  0.32492290136E+04  0.32492290136E+04  0.25500000920E-02 0.  1.
       -2   -1    0    0    0  501  0.00000000000E+00  0.00000000000E+00 -0.10949143656E+04  0.10949143656E+04  0.25500000920E-02 0. -1.
    10030    2    1    2    0    0  0.00000000000E+00  0.00000000000E+00  0.21543146480E+04  0.43441433793E+04  0.37723348336E+04 0.  0.
        4    1    3    3  502    0 -0.11658768162E+04 -0.12999972270E+04  0.18982297535E+04  0.25792517036E+04  0.12699999809E+01 0.  1.
       -4    1    3    3    0  502  0.11658768162E+04  0.12999972270E+04  0.25608489452E+03  0.17648916757E+04  0.12699999809E+01 0. -1.
</event>
<event>
 5   0  0.1648000E-07  0.3766830E+04  0.7818609E-02  0.8053311E-01
        1   -1    0    0  501    0  0.00000000000E+00  0.00000000000E+00  0.14098887079E+04  0.14098887079E+04  0.50400001928E-02 0. -1.
       -1   -1    0    0    0  501  0.00000000000E+00  0.00000000000E+00 -0.25159798320E+04  0.25159798320E+04  0.50400001928E-02 0.  1.
    10030    2    1    2    0    0  0.00000000000E+00  0.00000000000E+00 -0.11060911241E+04  0.39258685400E+04  0.37668297305E+04 0.  0.
        1    1    3    3  502    0 -0.10682747707E+04  0.60750560373E+03 -0.20405315399E+04  0.23820249809E+04  0.50400001928E-02 0.  1.
       -1    1    3    3    0  502  0.10682747707E+04 -0.60750560373E+03  0.93444041583E+03  0.15438435591E+04  0.50400001928E-02 0. -1.
</event>
<event>
 5   0  0.5202788E-07  0.3732493E+04  0.7818609E-02  0.8060799E-01
        2   -1    0    0  501    0  0.00000000000E+00  0.00000000000E+00  0.26810144065E+04  0.26810144065E+04  0.25500000920E-02 0.  1.
       -2   -1    0    0    0  501  0.00000000000E+00  0.00000000000E+00 -0.12990891000E+04  0.12990891000E+04  0.25500000920E-02 0. -1.
    10030    2    1    2    0    0  0.00000000000E+00  0.00000000000E+00  0.13819253065E+04  0.39801035064E+04  0.37324933180E+04 0.  0.
        1    1    3    3  502    0 -0.12715932194E+04 -0.34695691913E+03 -0.71787596244E+03  0.15008911742E+04  0.50400001928E-02 0. -1.
       -1    1    3    3    0  502  0.12715932194E+04  0.34695691913E+03  0.20998012689E+04  0.24792123322E+04  0.50400001928E-02 0.  1.
</event>
<event>
 5   0  0.5325362E-07  0.3666074E+04  0.7818609E-02  0.8075522E-01
       -2   -1    0    0    0  501  0.00000000000E+00  0.00000000000E+00  0.25160399954E+04  0.25160399954E+04  0.25500000920E-02 0.  1.
        2   -1    0    0  501    0  0.00000000000E+00  0.00000000000E+00 -0.13354415425E+04  0.13354415425E+04  0.25500000920E-02 0. -1.
    10030    2    1    2    0    0  0.00000000000E+00  0.00000000000E+00  0.11805984528E+04  0.38514815379E+04  0.36660738304E+04 0.  0.
        4    1    3    3  502    0 -0.96588706393E+03  0.88067275926E+02  0.22243821216E+04  0.24266378183E+04  0.12699999809E+01 0.  1.
       -4    1    3    3    0  502  0.96588706393E+03 -0.88067275926E+02 -0.10437836687E+04  0.14248437196E+04  0.12699999809E+01 0. -1.
</event>
<event>
 5   0  0.5134434E-07  0.3819890E+04  0.7818609E-02  0.8041900E-01
       -2   -1    0    0    0  501  0.00000000000E+00  0.00000000000E+00  0.14869719698E+04  0.14869719698E+04  0.25500000920E-02 0.  1.
        2   -1    0    0  501    0  0.00000000000E+00  0.00000000000E+00 -0.24532338245E+04  0.24532338245E+04  0.25500000920E-02 0. -1.
    10030    2    1    2    0    0  0.00000000000E+00  0.00000000000E+00 -0.96626185462E+03  0.39402057943E+04  0.38198900154E+04 0.  0.
        5    1    3    3  502    0  0.14695845769E+04  0.12195523564E+04 -0.51374856724E+03  0.19776113013E+04  0.46999998093E+01 0.  1.
       -5    1    3    3    0  502 -0.14695845769E+04 -0.12195523564E+04 -0.45251328739E+03  0.19625944930E+04  0.46999998093E+01 0. -1.
</event>
<event>
 5   0  0.5202788E-07  0.3691484E+04  0.7818609E-02  0.8069852E-01
        2   -1    0    0  501    0  0.00000000000E+00  0.00000000000E+00  0.19077077254E+04  0.19077077254E+04  0.25500000920E-02 0.  1.
       -2   -1    0    0    0  501  0.00000000000E+00  0.00000000000E+00 -0.17857893824E+04  0.17857893824E+04  0.25500000920E-02 0. -1.
    10030    2    1    2    0    0  0.00000000000E+00  0.00000000000E+00  0.12191834300E+03  0.36934971077E+04  0.36914843630E+04 0.  0.
        1    1    3    3  502    0 -0.15806885195E+04  0.62881441257E+03  0.77743650449E+03  0.18703986954E+04  0.50400001928E-02 0.  1.
       -1    1    3    3    0  502  0.15806885195E+04 -0.62881441257E+03 -0.65551816150E+03  0.18230984124E+04  0.50400001928E-02 0. -1.
</event>
<event>
 5   0  0.5134434E-07  0.4616813E+04  0.7818609E-02  0.7890499E-01
        2   -1    0    0  501    0  0.00000000000E+00  0.00000000000E+00  0.26847622254E+04  0.26847622254E+04  0.25500000920E-02 0.  1.
       -2   -1    0    0    0  501  0.00000000000E+00  0.00000000000E+00 -0.19848094955E+04  0.19848094955E+04  0.25500000920E-02 0. -1.
    10030    2    1    2    0    0  0.00000000000E+00  0.00000000000E+00  0.69995272989E+03  0.46695717208E+04  0.46168134283E+04 0.  0.
        5    1    3    3  502    0 -0.10982921124E+04  0.15989874505E+04  0.16155598810E+04  0.25244924738E+04  0.46999998093E+01 0.  1.
       -5    1    3    3    0  502  0.10982921124E+04 -0.15989874505E+04 -0.91560715110E+03  0.21450792471E+04  0.46999998093E+01 0. -1.
</event>
<event>
 5   0  0.5202788E-07  0.3746197E+04  0.7818609E-02  0.8057800E-01
        2   -1    0    0  501    0  0.00000000000E+00  0.00000000000E+00  0.11027391019E+04  0.11027391019E+04  0.25500000920E-02 0. -1.
       -2   -1    0    0    0  501  0.00000000000E+00  0.00000000000E+00 -0.31816208597E+04  0.31816208597E+04  0.25500000920E-02 0.  1.
    10030    2    1    2    0    0  0.00000000000E+00  0.00000000000E+00 -0.20788817578E+04  0.42843599616E+04  0.37461968605E+04 0.  0.
        1    1    3    3  502    0  0.40648477771E+03  0.13155091289E+04  0.41291361359E+03  0.14374601890E+04  0.50400001928E-02 0. -1.
       -1    1    3    3    0  502 -0.40648477771E+03 -0.13155091289E+04 -0.24917953714E+04  0.28468997726E+04  0.50400001928E-02 0.  1.
</event>
<event>
 5   0  0.1648000E-07  0.3825526E+04  0.7818609E-02  0.8040699E-01
       -1   -1    0    0    0  501  0.00000000000E+00  0.00000000000E+00  0.14295115861E+04  0.14295115861E+04  0.50400001928E-02 0.  1.
        1   -1    0    0  501    0  0.00000000000E+00  0.00000000000E+00 -0.25593794001E+04  0.25593794001E+04  0.50400001928E-02 0. -1.
    10030    2    1    2    0    0  0.00000000000E+00  0.00000000000E+00 -0.11298678140E+04  0.39888909862E+04  0.38255261105E+04 0.  0.
        4    1    3    3  502    0 -0.71115807451E+03 -0.25497682728E+03 -0.23972177185E+04  0.25134465167E+04  0.12699999809E+01 0. -1.
       -4    1    3    3    0  502  0.71115807451E+03  0.25497682728E+03  0.12673499045E+04  0.14754444695E+04  0.12699999809E+01 0.  1.
</event>
<event>
 5   0  0.1648000E-07  0.3779033E+04  0.7818609E-02  0.8050669E-01
        1   -1    0    0  501    0  0.00000000000E+00  0.00000000000E+00  0.23235086902E+04  0.23235086902E+04  0.50400001928E-02 0.  1.
       -1   -1    0    0    0  501  0.00000000000E+00  0.00000000000E+00 -0.15365871217E+04  0.15365871217E+04  0.50400001928E-02 0. -1.
    10030    2    1    2    0    0  0.00000000000E+00  0.00000000000E+00  0.78692156849E+03  0.38600958118E+04  0.37790334904E+04 0.  0.
        3    1    3    3  502    0 -0.99812807784E+02 -0.16168866212E+04  0.13869434410E+04  0.21325799074E+04  0.10100000352E+00 0.  1.
       -3    1    3    3    0  502  0.99812807784E+02  0.16168866212E+04 -0.60002187251E+03  0.17275159045E+04  0.10100000352E+00 0. -1.
</event>
<event>
 5   0  0.5202788E-07  0.3788973E+04  0.7818609E-02  0.8048525E-01
       -2   -1    0    0    0  501  0.00000000000E+00  0.00000000000E+00  0.21595178721E+04  0.21595178721E+04  0.25500000920E-02 0.  1.
        2   -1    0    0  501    0  0.00000000000E+00  0.00000000000E+00 -0.16619812435E+04  0.16619812435E+04  0.25500000920E-02 0. -1.
    10030    2    1    2    0    0  0.00000000000E+00  0.00000000000E+00  0.49753662859E+03  0.38214991157E+04  0.37889725249E+04 0.  0.
        1    1    3    3  502    0 -0.67580760150E+03  0.44424222391E+03 -0.14791260322E+04  0.16857879128E+04  0.50400001928E-02 0. -1.
       -1    1    3    3    0  502  0.67580760150E+03 -0.44424222391E+03  0.19766626608E+04  0.21357112029E+04  0.50400001928E-02 0.  1.
</event>
<event>
 5   0  0.1648000E-07  0.3788025E+04  0.7818609E-02  0.8048730E-01
       -1   -1    0    0    0  501  0.00000000000E+00  0.00000000000E+00  0.11426009978E+04  0.11426009978E+04  0.50400001928E-02 0. -1.
        1   -1    0    0  501    0  0.00000000000E+00  0.00000000000E+00 -0.31395765485E+04  0.31395765485E+04  0.50400001928E-02 0.  1.
    10030    2    1    2    0    0  0.00000000000E+00  0.00000000000E+00 -0.19969755507E+04  0.42821775463E+04  0.37880249719E+04 0.  0.
        2    1    3    3  502    0 -0.11826806924E+04  0.94276843944E+02  0.67047391720E+03  0.13627754830E+04  0.25500000920E-02 0.  1.
       -2    1    3    3    0  502  0.11826806924E+04 -0.94276843944E+02 -0.26674494679E+04  0.29194020633E+04  0.25500000920E-02 0. -1.
</event>
<event>
 5   0  0.5158266E-07  0.3798031E+04  0.7818609E-02  0.8046578E-01
        2   -1    0    0  501    0  0.00000000000E+00  0.00000000000E+00  0.24203978479E+04  0.24203978479E+04  0.25500000920E-02 0.  1.
       -2   -1    0    0    0  501  0.00000000000E+00  0.00000000000E+00 -0.14899447940E+04  0.14899447940E+04  0.25500000920E-02 0. -1.
    10030    2    1    2    0    0  0.00000000000E+00  0.00000000000E+00  0.93045305391E+03  0.39103426419E+04  0.37980306333E+04 0.  0.
        2    1    3    3  502    0 -0.10392152976E+04  0.65913315322E+03 -0.10238601665E+04  0.16008480843E+04  0.25500000920E-02 0. -1.
       -2    1    3    3    0  502  0.10392152976E+04 -0.65913315322E+03  0.19543132204E+04  0.23094945576E+04  0.25500000920E-02 0.  1.
</event>
<event>
 5   0  0.1648000E-07  0.3790375E+04  0.7818609E-02  0.8048224E-01
        1   -1    0    0  501    0  0.00000000000E+00  0.00000000000E+00  0.24635891804E+04  0.24635891805E+04  0.50400001928E-02 0.  1.
       -1   -1    0    0    0  501  0.00000000000E+00  0.00000000000E+00 -0.14579277594E+04  0.14579277595E+04  0.50400001928E-02 0. -1.
    10030    2    1    2    0    0  0.00000000000E+00  0.00000000000E+00  0.10056614210E+04  0.39215169399E+04  0.37903746802E+04 0.  0.
        4    1    3    3  502    0  0.14433314784E+02 -0.67306171237E+03 -0.13300488266E+04  0.14907219336E+04  0.12699999809E+01 0. -1.
       -4    1    3    3    0  502 -0.14433314784E+02  0.67306171237E+03  0.23357102476E+04  0.24307950063E+04  0.12699999809E+01 0.  1.
</event>
<event>
 5   0  0.5134434E-07  0.3753365E+04  0.7818609E-02  0.8056237E-01
       -2   -1    0    0    0  501  0.00000000000E+00  0.00000000000E+00  0.14543784095E+04  0.14543784095E+04  0.25500000920E-02 0. -1.
        2   -1    0    0  501    0  0.00000000000E+00  0.00000000000E+00 -0.24216100547E+04  0.24216100547E+04  0.25500000920E-02 0.  1.
    10030    2    1    2    0    0  0.00000000000E+00  0.00000000000E+00 -0.96723164516E+03  0.38759884642E+04  0.37533650927E+04 0.  0.
        5    1    3    3  502    0 -0.75853195618E+03  0.20003733828E+03 -0.22441685730E+04  0.23773305069E+04  0.46999998093E+01 0.  1.
       -5    1    3    3    0  502  0.75853195618E+03 -0.20003733828E+03  0.12769369278E+04  0.14986579572E+04  0.46999998093E+01 0. -1.
</event>
<event>
 5   0  0.1648000E-07  0.3790927E+04  0.7818609E-02  0.8048105E-01
        1   -1    0    0  501    0  0.00000000000E+00  0.00000000000E+00  0.18824478698E+04  0.18824478698E+04  0.50400001928E-02 0.  1.
       -1   -1    0    0    0  501  0.00000000000E+00  0.00000000000E+00 -0.19085689724E+04  0.19085689724E+04  0.50400001928E-02 0. -1.
    10030    2    1    2    0    0  0.00000000000E+00  0.00000000000E+00 -0.26121102635E+02  0.37910168421E+04  0.37909268504E+04 0.  0.
        1    1    3    3  502    0  0.16941857747E+04 -0.75619563830E+03 -0.40125054103E+03  0.18981831522E+04  0.50400001928E-02 0. -1.
       -1    1    3    3    0  502 -0.16941857747E+04  0.75619563830E+03  0.37512943840E+03  0.18928336900E+04  0.50400001928E-02 0.  1.
</event>
<event>
 5   0  0.5202788E-07  0.3772570E+04  0.7818609E-02  0.8052067E-01
       -2   -1    0    0    0  501  0.00000000000E+00  0.00000000000E+00  0.15942493310E+04  0.15942493310E+04  0.25500000920E-02 0. -1.
        2   -1    0    0  501    0  0.00000000000E+00  0.00000000000E+00 -0.22318162367E+04  0.22318162367E+04  0.25500000920E-02 0.  1.
    10030    2    1    2    0    0  0.00000000000E+00  0.00000000000E+00 -0.63756690574E+03  0.38260655677E+04  0.37725702338E+04 0.  0.
        1    1    3    3  502    0  0.38093860683E+03  0.28312103124E+03 -0.21702662786E+04  0.22215596910E+04  0.50400001928E-02 0.  1.
       -1    1    3    3    0  502 -0.38093860683E+03 -0.28312103124E+03  0.15326993729E+04  0.16045058767E+04  0.50400001928E-02 0. -1.
</event>
<event>
 5   0  0.1648000E-07  0.3722170E+04  0.7818609E-02  0.8063066E-01
        1   -1    0    0  501    0  0.00000000000E+00  0.00000000000E+00  0.19937275800E+04  0.19937275800E+04  0.50400001928E-02 0. -1.
       -1   -1    0    0    0  501  0.00000000000E+00  0.00000000000E+00 -0.17372674264E+04  0.17372674264E+04  0.50400001928E-02 0.  1.
    10030    2    1    2    0    0  0.00000000000E+00  0.00000000000E+00  0.25646015363E+03  0.37309950064E+04  0.37221703248E+04 0.  0.
        2    1    3    3  502    0 -0.15651193824E+03 -0.16365804562E+04  0.10025057210E+04  0.19255932325E+04  0.25500000920E-02 0. -1.
       -2    1    3    3    0  502  0.15651193824E+03  0.16365804562E+04 -0.74604556732E+03  0.18054017739E+04  0.25500000920E-02 0.  1.
</event>
<event>
 5   0  0.1648000E-07  0.3781984E+04  0.7818609E-02  0.8050032E-01
        1   -1    0    0  501    0  0.00000000000E+00  0.00000000000E+00  0.12772413592E+04  0.12772413592E+04  0.50400001928E-02 0. -1.
       -1   -1    0    0    0  501  0.00000000000E+00  0.00000000000E+00 -0.27996670313E+04  0.27996670313E+04  0.50400001928E-02 0.  1.
    10030    2    1    2    0    0  0.00000000000E+00  0.00000000000E+00 -0.15224256720E+04  0.40769083905E+04  0.37819838839E+04 0.  0.
        2    1    3    3  502    0  0.22968600591E+03  0.18436742432E+04 -0.38167740759E+03  0.18967256048E+04  0.25500000920E-02 0. -1.
       -2    1    3    3    0  502 -0.22968600591E+03 -0.18436742432E+04 -0.11407482644E+04  0.21801827857E+04  0.25500000920E-02 0.  1.
</event>
<event>
 5   0  0.1656617E-07  0.3742454E+04  0.7818609E-02  0.8058618E-01
        1   -1    0    0  501    0  0.00000000000E+00  0.00000000000E+00  0.10596007542E+04  0.10596007542E+04  0.50400001928E-02 0. -1.
       -1   -1    0    0    0  501  0.00000000000E+00  0.00000000000E+00 -0.33045371246E+04  0.33045371246E+04  0.50400001928E-02 0.  1.
    10030    2    1    2    0    0  0.00000000000E+00  0.00000000000E+00 -0.22449363704E+04  0.43641378789E+04  0.37424537564E+04 0.  0.
        5    1    3    3  502    0 -0.19032626760E+03 -0.71751545669E+03 -0.31254804337E+04  0.32124293845E+04  0.46999998093E+01 0.  1.
       -5    1    3    3    0  502  0.19032626760E+03  0.71751545669E+03  0.88054406329E+03  0.11517084944E+04  0.46999998093E+01 0. -1.
</event>
<event>
 5   0  0.1656617E-07  0.3713350E+04  0.7818609E-02  0.8065010E-01
       -1   -1    0    0    0  501  0.00000000000E+00  0.00000000000E+00  0.24271783730E+04  0.24271783731E+04  0.50400001928E-02 0.  1.
        1   -1    0    0  501    0  0.00000000000E+00  0.00000000000E+00 -0.14202674071E+04  0.14202674071E+04  0.50400001928E-02 0. -1.
    10030    2    1    2    0    0  0.00000000000E+00  0.00000000000E+00  0.10069109660E+04  0.38474457801E+04  0.37133501501E+04 0.  0.
        5    1    3    3  502    0  0.15526459952E+04 -0.44505548858E+03 -0.44527233297E+03  0.16754323367E+04  0.46999998093E+01 0. -1.
       -5    1    3    3    0  502 -0.15526459952E+04  0.44505548858E+03  0.14521832990E+04  0.21720134434E+04  0.46999998093E+01 0.  1.
</event>
<event>
 5   0  0.1648000E-07  0.3603030E+04  0.7818609E-02  0.8089798E-01
        1   -1    0    0  501    0  0.00000000000E+00  0.00000000000E+00  0.21340822673E+04  0.21340822673E+04  0.50400001928E-02 0.  1.
       -1   -1    0    0    0  501  0.00000000000E+00  0.00000000000E+00 -0.15207737118E+04  0.15207737118E+04  0.50400001928E-02 0. -1.
    10030    2    1    2    0    0  0.00000000000E+00  0.00000000000E+00  0.61330855553E+03  0.36548559791E+04  0.36030299532E+04 0.  0.
        4    1    3    3  502    0  0.99585008376E+03 -0.13162981418E+04 -0.42559918885E+03  0.17045511051E+04  0.12699999809E+01 0. -1.
       -4    1    3    3    0  502 -0.99585008376E+03  0.13162981418E+04  0.10389077444E+04  0.19503048740E+04  0.12699999809E+01 0.  1.
</event>
<event>
 5   0  0.5325362E-07  0.3777393E+04  0.7818609E-02  0.8051024E-01
       -2   -1    0    0    0  501  0.00000000000E+00  0.00000000000E+00  0.19960980766E+04  0.19960980766E+04  0.25500000920E-02 0.  1.
        2   -1    0    0  501    0  0.00000000000E+00  0.00000000000E+00 -0.17870738846E+04  0.17870738846E+04  0.25500000920E-02 0. -1.
    10030    2    1    2    0    0  0.00000000000E+00  0.00000000000E+00  0.20902419200E+03  0.37831719613E+04  0.37773931455E+04 0.  0.
        4    1    3    3  502    0 -0.36164969404E+03  0.16414743817E+04 -0.75816764558E+03  0.18439220262E+04  0.12699999809E+01 0. -1.
       -4    1    3    3    0  502  0.36164969404E+03 -0.16414743817E+04  0.96719183758E+03  0.19392499350E+04  0.12699999809E+01 0.  1.
</event>
<event>
 5   0  0.5202788E-07  0.3811837E+04  0.7818609E-02  0.8043620E-01
        2   -1    0    0  501    0  0.00000000000E+00  0.00000000000E+00  0.17282728731E+04  0.17282728731E+04  0.25500000920E-02 0.  1.
       -2   -1    0    0    0  501  0.00000000000E+00  0.00000000000E+00 -0.21018234776E+04  0.21018234776E+04  0.25500000920E-02 0. -1.
    10030    2    1    2    0    0  0.00000000000E+00  0.00000000000E+00 -0.37355060451E+03  0.38300963506E+04  0.38118365653E+04 0.  0.
        1    1    3    3  502    0 -0.11228769486E+04 -0.60384335453E+03 -0.16102638883E+04  0.20538815030E+04  0.50400001928E-02 0. -1.
       -1    1    3    3    0  502  0.11228769486E+04  0.60384335453E+03  0.12367132838E+04  0.17762148476E+04  0.50400001928E-02 0.  1.
</event>
<event>
 5   0  0.5134434E-07  0.2757144E+04  0.7818609E-02  0.8316698E-01
       -2   -1    0    0    0  501  0.00000000000E+00  0.00000000000E+00  0.14673803867E+04  0.14673803867E+04  0.25500000920E-02 0.  1.
        2   -1    0    0  501    0  0.00000000000E+00  0.00000000000E+00 -0.12951383658E+04  0.12951383658E+04  0.25500000920E-02 0. -1.
    10030    2    1    2    0    0  0.00000000000E+00  0.00000000000E+00  0.17224202083E+03  0.27625187525E+04  0.27571439107E+04 0.  0.
        5    1    3    3  502    0  0.34347993316E+03 -0.10552791125E+04 -0.73330338930E+03  0.13301685685E+04  0.46999998093E+01 0.  1.
       -5    1    3    3    0  502 -0.34347993316E+03  0.10552791125E+04  0.90554541013E+03  0.14323501840E+04  0.46999998093E+01 0. -1.
</event>
<event>
 5   0  0.5158266E-07  0.3811897E+04  0.7818609E-02  0.8043607E-01
       -2   -1    0    0    0  501  0.00000000000E+00  0.00000000000E+00  0.21993152608E+04  0.21993152608E+04  0.25500000920E-02 0.  1.
        2   -1    0    0  501    0  0.00000000000E+00  0.00000000000E+00 -0.16517140646E+04  0.16517140646E+04  0.25500000920E-02 0. -1.
    10030    2    1    2    0    0  0.00000000000E+00  0.00000000000E+00  0.54760119623E+03  0.38510293255E+04  0.38118971386E+04 0.  0.
        2    1    3    3  502    0 -0.16314620205E+04  0.87664698213E+03 -0.18077601132E+03  0.18608756600E+04  0.25500000920E-02 0. -1.
       -2    1    3    3    0  502  0.16314620205E+04 -0.87664698213E+03  0.72837720755E+03  0.19901536655E+04  0.25500000920E-02 0.  1.
</event>
<event>
 5   0  0.1648000E-07  0.3723747E+04  0.7818609E-02  0.8062720E-01
        1   -1    0    0  501    0  0.00000000000E+00  0.00000000000E+00  0.16210430649E+04  0.16210430649E+04  0.50400001928E-02 0. -1.
       -1   -1    0    0    0  501  0.00000000000E+00  0.00000000000E+00 -0.21384826715E+04  0.21384826715E+04  0.50400001928E-02 0.  1.
    10030    2    1    2    0    0  0.00000000000E+00  0.00000000000E+00 -0.51743960663E+03  0.37595257365E+04  0.37237467713E+04 0.  0.
        2    1    3    3  502    0  0.10405773918E+03  0.11651437423E+03  0.16144149008E+04  0.16219553275E+04  0.25500000920E-02 0. -1.
       -2    1    3    3    0  502 -0.10405773918E+03 -0.11651437423E+03 -0.21318545074E+04  0.21375704090E+04  0.25500000920E-02 0.  1.
</event>
<event>
 5   0  0.1648000E-07  0.3816270E+04  0.7818609E-02  0.8042672E-01
        1   -1    0    0  501    0  0.00000000000E+00  0.00000000000E+00  0.19723832723E+04  0.19723832723E+04  0.50400001928E-02 0.  1.
       -1   -1    0    0    0  501  0.00000000000E+00  0.00000000000E+00 -0.18459790710E+04  0.18459790710E+04  0.50400001928E-02 0. -1.
    10030    2    1    2    0    0  0.00000000000E+00  0.00000000000E+00  0.12640420129E+03  0.38183623433E+04  0.38162695087E+04 0.  0.
        1    1    3    3  502    0  0.62668650691E+03 -0.25987454186E+03 -0.17212297499E+04  0.18501088096E+04  0.50400001928E-02 0. -1.
       -1    1    3    3    0  502 -0.62668650691E+03  0.25987454186E+03  0.18476339512E+04  0.19682535337E+04  0.50400001928E-02 0.  1.
</event>
<event>
 5   0  0.5134434E-07  0.2847606E+04  0.7818609E-02  0.8288639E-01
        2   -1    0    0  501    0  0.00000000000E+00  0.00000000000E+00  0.17963050473E+04  0.17963050473E+04  0.25500000920E-02 0. -1.
       -2   -1    0    0    0  501  0.00000000000E+00  0.00000000000E+00 -0.11285470697E+04  0.11285470697E+04  0.25500000920E-02 0.  1.
    10030    2    1    2    0    0  0.00000000000E+00  0.00000000000E+00  0.66775797762E+03  0.29248521170E+04  0.28476058698E+04 0.  0.
        5    1    3    3  502    0 -0.15054416127E+03 -0.14029466624E+04  0.52949156218E+03  0.15070853613E+04  0.46999998093E+01 0. -1.
       -5    1    3    3    0  502  0.15054416127E+03  0.14029466624E+04  0.13826641544E+03  0.14177667557E+04  0.46999998093E+01 0.  1.
</event>
<event>
 5   0  0.5202788E-07  0.3819906E+04  0.7818609E-02  0.8041897E-01
       -2   -1    0    0    0  501  0.00000000000E+00  0.00000000000E+00  0.27561272396E+04  0.27561272396E+04  0.25500000920E-02 0.  1.
        2   -1    0    0  501    0  0.00000000000E+00  0.00000000000E+00 -0.13235676803E+04  0.13235676803E+04  0.25500000920E-02 0. -1.
    10030    2    1    2    0    0  0.00000000000E+00  0.00000000000E+00  0.14325595593E+04  0.40796949199E+04  0.38199062487E+04 0.  0.
        1    1    3    3  502    0 -0.62045529897E+03 -0.74595880874E+03 -0.10407500259E+04  0.14228773450E+04  0.50400001928E-02 0. -1.
       -1    1    3    3    0  502  0.62045529897E+03  0.74595880874E+03  0.24733095852E+04  0.26568175750E+04  0.50400001928E-02 0.  1.
</event>
<event>
 5   0  0.1656617E-07  0.3777803E+04  0.7818609E-02  0.8050935E-01
       -1   -1    0    0    0  501  0.00000000000E+00  0.00000000000E+00  0.30879768891E+04  0.30879768891E+04  0.50400001928E-02 0.  1.
        1   -1    0    0  501    0  0.00000000000E+00  0.00000000000E+00 -0.11554324019E+04  0.11554324019E+04  0.50400001928E-02 0. -1.
    10030    2    1    2    0    0  0.00000000000E+00  0.00000000000E+00  0.19325444872E+04  0.42434092910E+04  0.37778028292E+04 0.  0.
        5    1    3    3  502    0 -0.84691820613E+03  0.16793797666E+04  0.11619226133E+04  0.22108082453E+04  0.46999998093E+01 0.  1.
       -5    1    3    3    0  502  0.84691820613E+03 -0.16793797666E+04  0.77062187390E+03  0.20326010457E+04  0.46999998093E+01 0. -1.
</event>
<event>
 5   0  0.1648000E-07  0.3212238E+04  0.7818609E-02  0.8185593E-01
       -1   -1    0    0    0  501  0.00000000000E+00  0.00000000000E+00  0.23455991115E+04  0.23455991115E+04  0.50400001928E-02 0.  1.
        1   -1    0    0  501    0  0.00000000000E+00  0.00000000000E+00 -0.10997691921E+04  0.10997691921E+04  0.50400001928E-02 0. -1.
    10030    2    1    2    0    0  0.00000000000E+00  0.00000000000E+00  0.12458299194E+04  0.34453683037E+04  0.32122376250E+04 0.  0.
        3    1    3    3  502    0 -0.25273745617E+03  0.11780052365E+04  0.17620919792E+04  0.21346055168E+04  0.10100000352E+00 0.  1.
       -3    1    3    3    0  502  0.25273745617E+03 -0.11780052365E+04 -0.51626205978E+03  0.13107627869E+04  0.10100000352E+00 0. -1.
</event>
<event>
 5   0  0.5134434E-07  0.3772102E+04  0.7818609E-02  0.8052168E-01
       -2   -1    0    0    0  501  0.00000000000E+00  0.00000000000E+00  0.23857452284E+04  0.23857452284E+04  0.25500000920E-02 0.  1.
        2   -1    0    0  501    0  0.00000000000E+00  0.00000000000E+00 -0.14910174119E+04  0.14910174119E+04  0.25500000920E-02 0. -1.
    10030    2    1    2    0    0  0.00000000000E+00  0.00000000000E+00  0.89472781650E+03  0.38767626402E+04  0.37721016295E+04 0.  0.
        5    1    3    3  502    0 -0.33318706954E+03  0.15950730450E+04 -0.52866697947E+03  0.17131206926E+04  0.46999998093E+01 0. -1.
       -5    1    3    3    0  502  0.33318706954E+03 -0.15950730450E+04  0.14233947960E+04  0.21636419476E+04  0.46999998093E+01 0.  1.
</event>
<event>
 5   0  0.1648000E-07  0.3834502E+04  0.7818609E-02  0.8038791E-01
       -1   -1    0    0    0  501  0.00000000000E+00  0.00000000000E+00  0.20675312345E+04  0.20675312345E+04  0.50400001928E-02 0.  1.
        1   -1    0    0  501    0  0.00000000000E+00  0.00000000000E+00 -0.17778939490E+04  0.17778939490E+04  0.50400001928E-02 0. -1.
    10030    2    1    2    0    0  0.00000000000E+00  0.00000000000E+00  0.28963728551E+03  0.38454251835E+04  0.38345019343E+04 0.  0.
        3    1    3    3  502    0 -0.56240730922E+03  0.14745452149E+04  0.12366190732E+04  0.20049469606E+04  0.10100000352E+00 0.  1.
       -3    1    3    3    0  502  0.56240730922E+03 -0.14745452149E+04 -0.94698178769E+03  0.18404782229E+04  0.10100000352E+00 0. -1.
</event>
<event>
 5   0  0.5134434E-07  0.3937770E+04  0.7818609E-02  0.8017219E-01
        2   -1    0    0  501    0  0.00000000000E+00  0.00000000000E+00  0.28886105136E+04  0.28886105136E+04  0.25500000920E-02 0. -1.
       -2   -1    0    0    0  501  0.00000000000E+00  0.00000000000E+00 -0.13419977977E+04  0.13419977977E+04  0.25500000920E-02 0.  1.
    10030    2    1    2    0    0  0.00000000000E+00  0.00000000000E+00  0.15466127159E+04  0.42306083114E+04  0.39377704086E+04 0.  0.
        5    1    3    3  502    0  0.56181151814E+03  0.16350453619E+04 -0.23881372525E+03  0.17452964226E+04  0.46999998093E+01 0.  1.
       -5    1    3    3    0  502 -0.56181151814E+03 -0.16350453619E+04  0.17854264412E+04  0.24853118887E+04  0.46999998093E+01 0. -1.
</event>
<event>
 5   0  0.1648000E-07  0.2882042E+04  0.7818609E-02  0.8278241E-01
        1   -1    0    0  501    0  0.00000000000E+00  0.00000000000E+00  0.15563357845E+04  0.15563357845E+04  0.50400001928E-02 0.  1.
       -1   -1    0    0    0  501  0.00000000000E+00  0.00000000000E+00 -0.13342506239E+04  0.13342506239E+04  0.50400001928E-02 0. -1.
    10030    2    1    2    0    0  0.00000000000E+00  0.00000000000E+00  0.22208516061E+03  0.28905864084E+04  0.28820423255E+04 0.  0.
        2    1    3    3  502    0  0.89123410945E+03  0.70775175795E+03  0.99759248188E+03  0.15134072646E+04  0.25500000920E-02 0.  1.
       -2    1    3    3    0  502 -0.89123410945E+03 -0.70775175795E+03 -0.77550732127E+03  0.13771791438E+04  0.25500000920E-02 0. -1.
</event>
<event>
 5   0  0.5202788E-07  0.3814557E+04  0.7818609E-02  0.8043038E-01
        2   -1    0    0  501    0  0.00000000000E+00  0.00000000000E+00  0.31850761194E+04  0.31850761194E+04  0.25500000920E-02 0.  1.
       -2   -1    0    0    0  501  0.00000000000E+00  0.00000000000E+00 -0.11421112878E+04  0.11421112878E+04  0.25500000920E-02 0. -1.
    10030    2    1    2    0    0  0.00000000000E+00  0.00000000000E+00  0.20429648316E+04  0.43271874072E+04  0.38145570587E+04 0.  0.
        1    1    3    3  502    0  0.11147767494E+04 -0.52580037324E+03  0.26725987891E+04  0.29431237692E+04  0.50400001928E-02 0.  1.
       -1    1    3    3    0  502 -0.11147767494E+04  0.52580037324E+03 -0.62963395755E+03  0.13840636380E+04  0.50400001928E-02 0. -1.
</event>
<event>
 5   0  0.1648000E-07  0.3787047E+04  0.7818609E-02  0.8048940E-01
        1   -1    0    0  501    0  0.00000000000E+00  0.00000000000E+00  0.13081203511E+04  0.13081203511E+04  0.50400001928E-02 0. -1.
       -1   -1    0    0    0  501  0.00000000000E+00  0.00000000000E+00 -0.27409030385E+04  0.27409030385E+04  0.50400001928E-02 0.  1.
    10030    2    1    2    0    0  0.00000000000E+00  0.00000000000E+00 -0.14327826874E+04  0.40490233896E+04  0.37870468944E+04 0.  0.
        2    1    3    3  502    0 -0.18523942029E+02  0.63416336016E+03  0.11911009304E+04  0.13495287067E+04  0.25500000920E-02 0. -1.
       -2    1    3    3    0  502  0.18523942029E+02 -0.63416336016E+03 -0.26238836177E+04  0.26994946829E+04  0.25500000920E-02 0.  1.
</event>
<event>
 5   0  0.5325362E-07  0.2860783E+04  0.7818609E-02  0.8284642E-01
        2   -1    0    0  501    0  0.00000000000E+00  0.00000000000E+00  0.20428454444E+04  0.20428454444E+04  0.25500000920E-02 0. -1.
       -2   -1    0    0    0  501  0.00000000000E+00  0.00000000000E+00 -0.10015538661E+04  0.10015538661E+04  0.25500000920E-02 0.  1.
    10030    2    1    2    0    0  0.00000000000E+00  0.00000000000E+00  0.10412915783E+04  0.30443993105E+04  0.28607829366E+04 0.  0.
        4    1    3    3  502    0 -0.60622890910E+03 -0.11740927708E+04 -0.62242276826E+02  0.13228314475E+04  0.12699999809E+01 0.  1.
       -4    1    3    3    0  502  0.60622890910E+03  0.11740927708E+04  0.11035338551E+04  0.17215678630E+04  0.12699999809E+01 0. -1.
</event>
<event>
 5   0  0.1648000E-07  0.3562126E+04  0.7818609E-02  0.8099223E-01
        1   -1    0    0  501    0  0.00000000000E+00  0.00000000000E+00  0.14489490879E+04  0.14489490879E+04  0.50400001928E-02 0.  1.
       -1   -1    0    0    0  501  0.00000000000E+00  0.00000000000E+00 -0.21893011680E+04  0.21893011680E+04  0.50400001928E-02 0. -1.
    10030    2    1    2    0    0  0.00000000000E+00  0.00000000000E+00 -0.74035208008E+03  0.36382502559E+04  0.35621262923E+04 0.  0.
        4    1    3    3  502    0  0.89647616568E+03  0.15217620408E+04 -0.13558282188E+03  0.17713874616E+04  0.12699999809E+01 0.  1.
       -4    1    3    3    0  502 -0.89647616568E+03 -0.15217620408E+04 -0.60476925820E+03  0.18668627944E+04  0.12699999809E+01 0. -1.
</event>
<event>
 5   0  0.1648000E-07  0.3748888E+04  0.7818609E-02  0.8057213E-01
       -1   -1    0    0    0  501  0.00000000000E+00  0.00000000000E+00  0.14389359679E+04  0.14389359679E+04  0.50400001928E-02 0. -1.
        1   -1    0    0  501    0  0.00000000000E+00  0.00000000000E+00 -0.24417623747E+04  0.24417623747E+04  0.50400001928E-02 0.  1.
    10030    2    1    2    0    0  0.00000000000E+00  0.00000000000E+00 -0.10028264069E+04  0.38806983426E+04  0.37488876783E+04 0.  0.
        2    1    3    3  502    0 -0.15519362684E+04  0.85056316499E+03 -0.11408503822E+04  0.21055886287E+04  0.25500000920E-02 0.  1.
       -2    1    3    3    0  502  0.15519362684E+04 -0.85056316499E+03  0.13802397530E+03  0.17751097139E+04  0.25500000920E-02 0. -1.
</event>
<event>
 5   0  0.1656617E-07  0.3601721E+04  0.7818609E-02  0.8090098E-01
        1   -1    0    0  501    0  0.00000000000E+00  0.00000000000E+00  0.20015464764E+04  0.20015464764E+04  0.50400001928E-02 0. -1.
       -1   -1    0    0    0  501  0.00000000000E+00  0.00000000000E+00 -0.16202962102E+04  0.16202962102E+04  0.50400001928E-02 0.  1.
    10030    2    1    2    0    0  0.00000000000E+00  0.00000000000E+00  0.38125026623E+03  0.36218426866E+04  0.36017207944E+04 0.  0.
        5    1    3    3  502    0 -0.15703678923E+04 -0.87459824199E+03  0.30123363298E+03  0.18225644553E+04  0.46999998093E+01 0. -1.
       -5    1    3    3    0  502  0.15703678923E+04  0.87459824199E+03  0.80016633250E+02  0.17992782313E+04  0.46999998093E+01 0.  1.
</event>
<event>
 5   0  0.1648000E-07  0.3855503E+04  0.7818609E-02  0.8034348E-01
       -1   -1    0    0    0  501  0.00000000000E+00  0.00000000000E+00  0.26819720214E+04  0.26819720214E+04  0.50400001928E-02 0.  1.
        1   -1    0    0  501    0  0.00000000000E+00  0.00000000000E+00 -0.13856315361E+04  0.13856315361E+04  0.50400001928E-02 0. -1.
    10030    2    1    2    0    0  0.00000000000E+00  0.00000000000E+00  0.12963404853E+04  0.40676035575E+04  0.38555025674E+04 0.  0.
        2    1    3    3  502    0 -0.10874045009E+04  0.14741556204E+04  0.12817416572E+04  0.22357202458E+04  0.25500000920E-02 0.  1.
       -2    1    3    3    0  502  0.10874045009E+04 -0.14741556204E+04  0.14598828160E+02  0.18318833117E+04  0.25500000920E-02 0. -1.
</event>
<event>
 5   0  0.1648000E-07  0.3626441E+04  0.7818609E-02  0.8084462E-01
        1   -1    0    0  501    0  0.00000000000E+00  0.00000000000E+00  0.15760473230E+04  0.15760473230E+04  0.50400001928E-02 0.  1.
       -1   -1    0    0    0  501  0.00000000000E+00  0.00000000000E+00 -0.20860851929E+04  0.20860851929E+04  0.50400001928E-02 0. -1.
    10030    2    1    2    0    0  0.00000000000E+00  0.00000000000E+00 -0.51003786996E+03  0.36621325159E+04  0.36264412218E+04 0.  0.
        3    1    3    3  502    0  0.16576083557E+04  0.29183638254E+03 -0.93614595073E+03  0.19259291748E+04  0.10100000352E+00 0. -1.
       -3    1    3    3    0  502 -0.16576083557E+04 -0.29183638254E+03  0.42610808077E+03  0.17362033411E+04  0.10100000352E+00 0.  1.
</event>
<event>
 5   0  0.1656617E-07  0.3013352E+04  0.7818609E-02  0.8239928E-01
        1   -1    0    0  501    0  0.00000000000E+00  0.00000000000E+00  0.17680937243E+04  0.17680937243E+04  0.50400001928E-02 0. -1.
       -1   -1    0    0    0  501  0.00000000000E+00  0.00000000000E+00 -0.12839099563E+04  0.12839099563E+04  0.50400001928E-02 0.  1.
    10030    2    1    2    0    0  0.00000000000E+00  0.00000000000E+00  0.48418376798E+03  0.30520036805E+04  0.30133523765E+04 0.  0.
        5    1    3    3  502    0 -0.75871903483E+03  0.61517050088E+03  0.14039598076E+04  0.17103258608E+04  0.46999998093E+01 0. -1.
       -5    1    3    3    0  502  0.75871903483E+03 -0.61517050088E+03 -0.91977603958E+03  0.13416778197E+04  0.46999998093E+01 0.  1.
</event>
<event>
 5   0  0.1656617E-07  0.2872665E+04  0.7818609E-02  0.8281057E-01
        1   -1    0    0  501    0  0.00000000000E+00  0.00000000000E+00  0.14179986804E+04  0.14179986805E+04  0.50400001928E-02 0. -1.
       -1   -1    0    0    0  501  0.00000000000E+00  0.00000000000E+00 -0.14549035496E+04  0.14549035496E+04  0.50400001928E-02 0.  1.
    10030    2    1    2    0    0  0.00000000000E+00  0.00000000000E+00 -0.36904869163E+02  0.28729022301E+04  0.28726651831E+04 0.  0.
        5    1    3    3  502    0 -0.62788690238E+02  0.14217269779E+04 -0.21283720604E+03  0.14389481525E+04  0.46999998093E+01 0.  1.
       -5    1    3    3    0  502  0.62788690238E+02 -0.14217269779E+04  0.17593233687E+03  0.14339540776E+04  0.46999998093E+01 0. -1.
</event>
<event>
 5   0  0.1656617E-07  0.3784480E+04  0.7818609E-02  0.8049494E-01
        1   -1    0    0  501    0  0.00000000000E+00  0.00000000000E+00  0.12018838274E+04  0.12018838275E+04  0.50400001928E-02 0.  1.
       -1   -1    0    0    0  501  0.00000000000E+00  0.00000000000E+00 -0.29791336191E+04  0.29791336191E+04  0.50400001928E-02 0. -1.
    10030    2    1    2    0    0  0.00000000000E+00  0.00000000000E+00 -0.17772497916E+04  0.41810174465E+04  0.37844801580E+04 0.  0.
        5    1    3    3  502    0  0.99626825682E+03  0.90930743697E+03  0.57751411753E+03  0.14672883494E+04  0.46999998093E+01 0.  1.
       -5    1    3    3    0  502 -0.99626825682E+03 -0.90930743697E+03 -0.23547639092E+04  0.27137290971E+04  0.46999998093E+01 0. -1.
</event>
<event>
 5   0  0.5325362E-07  0.3787455E+04  0.7818609E-02  0.8048852E-01
       -2   -1    0    0    0  501  0.00000000000E+00  0.00000000000E+00  0.14665673975E+04  0.14665673975E+04  0.25500000920E-02 0. -1.
        2   -1    0    0  501    0  0.00000000000E+00  0.00000000000E+00 -0.24453046897E+04  0.24453046897E+04  0.25500000920E-02 0.  1.
    10030    2    1    2    0    0  0.00000000000E+00  0.00000000000E+00 -0.97873729223E+03  0.39118720872E+04  0.37874551535E+04 0.  0.
        4    1    3    3  502    0 -0.43454655168E+03 -0.16199736817E+04  0.41875070340E+03  0.17287276244E+04  0.12699999809E+01 0.  1.
       -4    1    3    3    0  502  0.43454655168E+03  0.16199736817E+04 -0.13974879956E+04  0.21831444628E+04  0.12699999809E+01 0. -1.
</event>
<event>
 5   0  0.1648000E-07  0.3395285E+04  0.7818609E-02  0.8139065E-01
       -1   -1    0    0    0  501  0.00000000000E+00  0.00000000000E+00  0.12753284277E+04  0.12753284277E+04  0.50400001928E-02 0. -1.
        1   -1    0    0  501    0  0.00000000000E+00  0.00000000000E+00 -0.22598017672E+04  0.22598017672E+04  0.50400001928E-02 0.  1.
    10030    2    1    2    0    0  0.00000000000E+00  0.00000000000E+00 -0.98447333946E+03  0.35351301949E+04  0.33952846329E+04 0.  0.
        4    1    3    3  502    0  0.87182789924E+03  0.99135649525E+03  0.61901709677E+03  0.14580999162E+04  0.12699999809E+01 0. -1.
       -4    1    3    3    0  502 -0.87182789924E+03 -0.99135649525E+03 -0.16034904362E+04  0.20770302787E+04  0.12699999809E+01 0.  1.
</event>
<event>
 5   0  0.5132561E-07  0.3861061E+04  0.7818609E-02  0.8033177E-01
       -2   -1    0    0    0  501  0.00000000000E+00  0.00000000000E+00  0.29586342504E+04  0.29586342504E+04  0.25500000920E-02 0. -1.
        2   -1    0    0  501    0  0.00000000000E+00  0.00000000000E+00 -0.12596851192E+04  0.12596851192E+04  0.25500000920E-02 0.  1.
    10030    2    1    2    0    0  0.00000000000E+00  0.00000000000E+00  0.16989491312E+04  0.42183193695E+04  0.38610607549E+04 0.  0.
        3    1    3    3  502    0  0.60689324988E+03 -0.17975897099E+04  0.45967090967E+03  0.19521643213E+04  0.10100000352E+00 0. -1.
       -3    1    3    3    0  502 -0.60689324988E+03  0.17975897099E+04  0.12392782215E+04  0.22661550482E+04  0.10100000352E+00 0.  1.
</event>
<event>
 5   0  0.5202788E-07  0.3792184E+04  0.7818609E-02  0.8047834E-01
        2   -1    0    0  501    0  0.00000000000E+00  0.00000000000E+00  0.12620160866E+04  0.12620160866E+04  0.25500000920E-02 0.  1.
       -2   -1    0    0    0  501  0.00000000000E+00  0.00000000000E+00 -0.28487467105E+04  0.28487467105E+04  0.25500000920E-02 0. -1.
    10030    2    1    2    0    0  0.00000000000E+00  0.00000000000E+00 -0.15867306239E+04  0.41107627971E+04  0.37921836323E+04 0.  0.
        1    1    3    3  502    0  0.47889876883E+03 -0.17732671226E+04 -0.13033613406E+04  0.22522369110E+04  0.50400001928E-02 0. -1.
       -1    1    3    3    0  502 -0.47889876883E+03  0.17732671226E+04 -0.28336928330E+03  0.18585258862E+04  0.50400001928E-02 0.  1.
</event>
<event>
 5   0  0.1648000E-07  0.4002052E+04  0.7818609E-02  0.8004133E-01
       -1   -1    0    0    0  501  0.00000000000E+00  0.00000000000E+00  0.23436995566E+04  0.23436995566E+04  0.50400001928E-02 0.  1.
        1   -1    0    0  501    0  0.00000000000E+00  0.00000000000E+00 -0.17084547611E+04  0.17084547611E+04  0.50400001928E-02 0. -1.
    10030    2    1    2    0    0  0.00000000000E+00  0.00000000000E+00  0.63524479548E+03  0.40521543176E+04  0.40020518067E+04 0.  0.
        4    1    3    3  502    0  0.19826545949E+04  0.27043466830E+03  0.32470284089E+03  0.20271871399E+04  0.12699999809E+01 0. -1.
       -4    1    3    3    0  502 -0.19826545949E+04 -0.27043466830E+03  0.31054195459E+03  0.20249671777E+04  0.12699999809E+01 0.  1.
</event>
<event>
 5   0  0.5202788E-07  0.3807683E+04  0.7818609E-02  0.8044508E-01
        2   -1    0    0  501    0  0.00000000000E+00  0.00000000000E+00  0.19883707934E+04  0.19883707934E+04  0.25500000920E-02 0. -1.
       -2   -1    0    0    0  501  0.00000000000E+00  0.00000000000E+00 -0.18229061187E+04  0.18229061187E+04  0.25500000920E-02 0.  1.
    10030    2    1    2    0    0  0.00000000000E+00  0.00000000000E+00  0.16546467474E+03  0.38112769121E+04  0.38076834352E+04 0.  0.
        1    1    3    3  502    0 -0.72978161894E+03  0.98365292810E+02 -0.16745886342E+04  0.18293452479E+04  0.50400001928E-02 0.  1.
       -1    1    3    3    0  502  0.72978161894E+03 -0.98365292810E+02  0.18400533089E+04  0.19819316643E+04  0.50400001928E-02 0. -1.
</event>
<event>
 5   0  0.5132561E-07  0.3808207E+04  0.7818609E-02  0.8044396E-01
       -2   -1    0    0    0  501  0.00000000000E+00  0.00000000000E+00  0.11900588460E+04  0.11900588460E+04  0.25500000920E-02 0. -1.
        2   -1    0    0  501    0  0.00000000000E+00  0.00000000000E+00 -0.30465808542E+04  0.30465808542E+04  0.25500000920E-02 0.  1.
    10030    2    1    2    0    0  0.00000000000E+00  0.00000000000E+00 -0.18565220081E+04  0.42366397002E+04  0.38082071875E+04 0.  0.
        3    1    3    3  502    0  0.58470640539E+03  0.17674384239E+04 -0.13731094244E+04  0.23132552095E+04  0.10100000352E+00 0.  1.
       -3    1    3    3    0  502 -0.58470640539E+03 -0.17674384239E+04 -0.48341258377E+03  0.19233844907E+04  0.10100000352E+00 0. -1.
</event>
<event>
 5   0  0.1648000E-07  0.3746977E+04  0.7818609E-02  0.8057630E-01
       -1   -1    0    0    0  501  0.00000000000E+00  0.00000000000E+00  0.10408311456E+04  0.10408311456E+04  0.50400001928E-02 0.  1.
        1   -1    0    0  501    0  0.00000000000E+00  0.00000000000E+00 -0.33722665834E+04  0.33722665834E+04  0.50400001928E-02 0. -1.
    10030    2    1    2    0    0  0.00000000000E+00  0.00000000000E+00 -0.23314354378E+04  0.44130977290E+04  0.37469774973E+04 0.  0.
        2    1    3    3  502    0  0.35171208391E+03 -0.62002583771E+03  0.87486998562E+03  0.11285082725E+04  0.25500000920E-02 0.  1.
       -2    1    3    3    0  502 -0.35171208391E+03  0.62002583771E+03 -0.32063054235E+04  0.32845894565E+04  0.25500000920E-02 0. -1.
</event>
<event>
 5   0  0.5132561E-07  0.3208164E+04  0.7818609E-02  0.8186664E-01
       -2   -1    0    0    0  501  0.00000000000E+00  0.00000000000E+00  0.10308549983E+04  0.10308549983E+04  0.25500000920E-02 0. -1.
        2   -1    0    0  501    0  0.00000000000E+00  0.00000000000E+00 -0.24960625287E+04  0.24960625287E+04  0.25500000920E-02 0.  1.
    10030    2    1    2    0    0  0.00000000000E+00  0.00000000000E+00 -0.14652075304E+04  0.35269175270E+04  0.32081636703E+04 0.  0.
        3    1    3    3  502    0  0.59156754714E+03  0.87391116498E+03 -0.20606915964E+04  0.23151938909E+04  0.10100000352E+00 0.  1.
       -3    1    3    3    0  502 -0.59156754714E+03 -0.87391116498E+03  0.59548406601E+03  0.12117236361E+04  0.10100000352E+00 0. -1.
</event>
<event>
 5   0  0.1648000E-07  0.3774618E+04  0.7818609E-02  0.8051624E-01
        1   -1    0    0  501    0  0.00000000000E+00  0.00000000000E+00  0.14365572262E+04  0.14365572262E+04  0.50400001928E-02 0.  1.
       -1   -1    0    0    0  501  0.00000000000E+00  0.00000000000E+00 -0.24794937790E+04  0.24794937790E+04  0.50400001928E-02 0. -1.
    10030    2    1    2    0    0  0.00000000000E+00  0.00000000000E+00 -0.10429365527E+04  0.39160510052E+04  0.37746177055E+04 0.  0.
        1    1    3    3  502    0  0.18185046878E+04 -0.53585976643E+02 -0.10423812710E+04  0.20967568935E+04  0.50400001928E-02 0. -1.
       -1    1    3    3    0  502 -0.18185046878E+04  0.53585976643E+02 -0.55528170148E+00  0.18192941117E+04  0.50400001928E-02 0.  1.
</event>
<event>
 5   0  0.1648000E-07  0.2724217E+04  0.7818609E-02  0.8327190E-01
        1   -1    0    0  501    0  0.00000000000E+00  0.00000000000E+00  0.15062797856E+04  0.15062797856E+04  0.50400001928E-02 0.  1.
       -1   -1    0    0    0  501  0.00000000000E+00  0.00000000000E+00 -0.12317360847E+04  0.12317360847E+04  0.50400001928E-02 0. -1.
    10030    2    1    2    0    0  0.00000000000E+00  0.00000000000E+00  0.27454370087E+03  0.27380158703E+04  0.27242167062E+04 0.  0.
        2    1    3    3  502    0 -0.61220686363E+03 -0.99759021181E+03  0.83747550367E+03  0.14392180842E+04  0.25500000920E-02 0.  1.
       -2    1    3    3    0  502  0.61220686363E+03  0.99759021181E+03 -0.56293180280E+03  0.12987977861E+04  0.25500000920E-02 0. -1.
</event>
<event>
 5   0  0.1648000E-07  0.3712238E+04  0.7818609E-02  0.8065255E-01
        1   -1    0    0  501    0  0.00000000000E+00  0.00000000000E+00  0.27270704286E+04  0.27270704286E+04  0.50400001928E-02 0.  1.
       -1   -1    0    0    0  501  0.00000000000E+00  0.00000000000E+00 -0.12633255382E+04  0.12633255383E+04  0.50400001928E-02 0. -1.
    10030    2    1    2    0    0  0.00000000000E+00  0.00000000000E+00  0.14637448904E+04  0.39903959669E+04  0.37122379865E+04 0.  0.
        1    1    3    3  502    0 -0.21069399425E+03  0.15730001277E+04  0.17665205462E+04  0.23747244474E+04  0.50400001928E-02 0.  1.
       -1    1    3    3    0  502  0.21069399425E+03 -0.15730001277E+04 -0.30277565587E+03  0.16156715194E+04  0.50400001928E-02 0. -1.
</event>
<event>
 5   0  0.5202788E-07  0.3743372E+04  0.7818609E-02  0.8058417E-01
       -2   -1    0    0    0  501  0.00000000000E+00  0.00000000000E+00  0.12723900047E+04  0.12723900047E+04  0.25500000920E-02 0.  1.
        2   -1    0    0  501    0  0.00000000000E+00  0.00000000000E+00 -0.27532512316E+04  0.27532512316E+04  0.25500000920E-02 0. -1.
    10030    2    1    2    0    0  0.00000000000E+00  0.00000000000E+00 -0.14808612268E+04  0.40256412363E+04  0.37433724622E+04 0.  0.
        1    1    3    3  502    0 -0.18082607680E+04  0.23941426708E+03 -0.28916636491E+03  0.18468198025E+04  0.50400001928E-02 0.  1.
       -1    1    3    3    0  502  0.18082607680E+04 -0.23941426708E+03 -0.11916948619E+04  0.21788214338E+04  0.50400001928E-02 0. -1.
</event>
<event>
 5   0  0.1648000E-07  0.3779147E+04  0.7818609E-02  0.8050645E-01
       -1   -1    0    0    0  501  0.00000000000E+00  0.00000000000E+00  0.16689604063E+04  0.16689604063E+04  0.50400001928E-02 0. -1.
        1   -1    0    0  501    0  0.00000000000E+00  0.00000000000E+00 -0.21393481968E+04  0.21393481968E+04  0.50400001928E-02 0.  1.
    10030    2    1    2    0    0  0.00000000000E+00  0.00000000000E+00 -0.47038779045E+03  0.38083086031E+04  0.37791466951E+04 0.  0.
        1    1    3    3  502    0  0.11002050430E+04  0.13078138479E+04  0.57704015675E+03  0.18038302415E+04  0.50400001928E-02 0.  1.
       -1    1    3    3    0  502 -0.11002050430E+04 -0.13078138479E+04 -0.10474279472E+04  0.20044783616E+04  0.50400001928E-02 0. -1.
</event>
<event>
 5   0  0.1648000E-07  0.3775582E+04  0.7818609E-02  0.8051415E-01
       -1   -1    0    0    0  501  0.00000000000E+00  0.00000000000E+00  0.16487743092E+04  0.16487743092E+04  0.50400001928E-02 0.  1.
        1   -1    0    0  501    0  0.00000000000E+00  0.00000000000E+00 -0.21614564949E+04  0.21614564949E+04  0.50400001928E-02 0. -1.
    10030    2    1    2    0    0  0.00000000000E+00  0.00000000000E+00 -0.51268218569E+03  0.38102308042E+04  0.37755815125E+04 0.  0.
        4    1    3    3  502    0  0.12436846967E+04 -0.38971133911E+03 -0.16345704446E+04  0.20905618154E+04  0.12699999809E+01 0. -1.
       -4    1    3    3    0  502 -0.12436846967E+04  0.38971133911E+03  0.11218882589E+04  0.17196689888E+04  0.12699999809E+01 0.  1.
</event>
<event>
 5   0  0.5158266E-07  0.3770426E+04  0.7818609E-02  0.8052531E-01
        2   -1    0    0  501    0  0.00000000000E+00  0.00000000000E+00  0.27943090711E+04  0.27943090711E+04  0.25500000920E-02 0.  1.
       -2   -1    0    0    0  501  0.00000000000E+00  0.00000000000E+00 -0.12718807633E+04  0.12718807633E+04  0.25500000920E-02 0. -1.
    10030    2    1    2    0    0  0.00000000000E+00  0.00000000000E+00  0.15224283078E+04  0.40661898344E+04  0.37704259463E+04 0.  0.
        2    1    3    3  502    0 -0.26293761809E+03  0.53238607381E+02  0.27736182784E+04  0.27865622000E+04  0.25500000920E-02 0.  1.
       -2    1    3    3    0  502  0.26293761809E+03 -0.53238607381E+02 -0.12511899705E+04  0.12796276344E+04  0.25500000920E-02 0. -1.
</event>
<event>
 5   0  0.5158266E-07  0.3813593E+04  0.7818609E-02  0.8043244E-01
        2   -1    0    0  501    0  0.00000000000E+00  0.00000000000E+00  0.25063246188E+04  0.25063246188E+04  0.25500000920E-02 0. -1.
       -2   -1    0    0    0  501  0.00000000000E+00  0.00000000000E+00 -0.14506790749E+04  0.14506790749E+04  0.25500000920E-02 0.  1.
    10030    2    1    2    0    0  0.00000000000E+00  0.00000000000E+00  0.10556455439E+04  0.39570036938E+04  0.38135928884E+04 0.  0.
        2    1    3    3  502    0 -0.72464266086E+03 -0.73530642726E+03  0.21912595729E+04  0.24222718765E+04  0.25500000920E-02 0. -1.
       -2    1    3    3    0  502  0.72464266086E+03  0.73530642726E+03 -0.11356140290E+04  0.15347318172E+04  0.25500000920E-02 0.  1.
</event>
<event>
 5   0  0.5134434E-07  0.3777706E+04  0.7818609E-02  0.8050956E-01
       -2   -1    0    0    0  501  0.00000000000E+00  0.00000000000E+00  0.21817628887E+04  0.21817628887E+04  0.25500000920E-02 0.  1.
        2   -1    0    0  501    0  0.00000000000E+00  0.00000000000E+00 -0.16352678003E+04  0.16352678003E+04  0.25500000920E-02 0. -1.
    10030    2    1    2    0    0  0.00000000000E+00  0.00000000000E+00  0.54649508841E+03  0.38170306890E+04  0.37777064998E+04 0.  0.
        5    1    3    3  502    0 -0.26331799143E+03 -0.65208372795E+03 -0.14980539714E+04  0.16549130926E+04  0.46999998093E+01 0. -1.
       -5    1    3    3    0  502  0.26331799143E+03  0.65208372795E+03  0.20445490598E+04  0.21621175964E+04  0.46999998093E+01 0.  1.
</event>
<event>
 5   0  0.5202788E-07  0.3828804E+04  0.7818609E-02  0.8040002E-01
        2   -1    0    0  501    0  0.00000000000E+00  0.00000000000E+00  0.21302563448E+04  0.21302563448E+04  0.25500000920E-02 0.  1.
       -2   -1    0    0    0  501  0.00000000000E+00  0.00000000000E+00 -0.17204197794E+04  0.17204197794E+04  0.25500000920E-02 0. -1.
    10030    2    1    2    0    0  0.00000000000E+00  0.00000000000E+00  0.40983656542E+03  0.38506761242E+04  0.38288040696E+04 0.  0.
        1    1    3    3  502    0  0.16674741461E+04  0.76769197826E+02 -0.73775767927E+03  0.18250068304E+04  0.50400001928E-02 0. -1.
       -1    1    3    3    0  502 -0.16674741461E+04 -0.76769197826E+02  0.11475942447E+04  0.20256692938E+04  0.50400001928E-02 0.  1.
</event>
<event>
 5   0  0.1648000E-07  0.3632819E+04  0.7818609E-02  0.8083015E-01
       -1   -1    0    0    0  501  0.00000000000E+00  0.00000000000E+00  0.14867659357E+04  0.14867659357E+04  0.50400001928E-02 0.  1.
        1   -1    0    0  501    0  0.00000000000E+00  0.00000000000E+00 -0.22191410970E+04  0.22191410970E+04  0.50400001928E-02 0. -1.
    10030    2    1    2    0    0  0.00000000000E+00  0.00000000000E+00 -0.73237516132E+03  0.37059070327E+04  0.36328189547E+04 0.  0.
        3    1    3    3  502    0  0.15181345366E+04  0.82312536263E+02  0.64770767789E+03  0.16525837561E+04  0.10100000352E+00 0.  1.
       -3    1    3    3    0  502 -0.15181345366E+04 -0.82312536263E+02 -0.13800828392E+04  0.20533232765E+04  0.10100000352E+00 0. -1.
</event>
<event>
 5   0  0.5325362E-07  0.3640960E+04  0.7818609E-02  0.8081173E-01
        2   -1    0    0  501    0  0.00000000000E+00  0.00000000000E+00  0.23666589820E+04  0.23666589820E+04  0.25500000920E-02 0.  1.
       -2   -1    0    0    0  501  0.00000000000E+00  0.00000000000E+00 -0.14003489055E+04  0.14003489055E+04  0.25500000920E-02 0. -1.
    10030    2    1    2    0    0  0.00000000000E+00  0.00000000000E+00  0.96631007646E+03  0.37670078875E+04  0.36409604860E+04 0.  0.
        4    1    3    3  502    0  0.19026287549E+03 -0.12791821691E+04  0.18087763861E+04  0.22235513512E+04  0.12699999809E+01 0.  1.
       -4    1    3    3    0  502 -0.19026287549E+03  0.12791821691E+04 -0.84246630968E+03  0.15434565363E+04  0.12699999809E+01 0. -1.
</event>
<event>
 5   0  0.5134434E-07  0.3819799E+04  0.7818609E-02  0.8041919E-01
        2   -1    0    0  501    0  0.00000000000E+00  0.00000000000E+00  0.19299920979E+04  0.19299920979E+04  0.25500000920E-02 0. -1.
       -2   -1    0    0    0  501  0.00000000000E+00  0.00000000000E+00 -0.18900164646E+04  0.18900164646E+04  0.25500000920E-02 0.  1.
    10030    2    1    2    0    0  0.00000000000E+00  0.00000000000E+00  0.39975633290E+02  0.38200085626E+04  0.38197993883E+04 0.  0.
        5    1    3    3  502    0 -0.14127377262E+04  0.82073262499E+03  0.10091146895E+04  0.19203552982E+04  0.46999998093E+01 0. -1.
       -5    1    3    3    0  502  0.14127377262E+04 -0.82073262499E+03 -0.96913905621E+03  0.18996532644E+04  0.46999998093E+01 0.  1.
</event>
<event>
 5   0  0.5132561E-07  0.3809023E+04  0.7818609E-02  0.8044221E-01
       -2   -1    0    0    0  501  0.00000000000E+00  0.00000000000E+00  0.21644836500E+04  0.21644836500E+04  0.25500000920E-02 0.  1.
        2   -1    0    0  501    0  0.00000000000E+00  0.00000000000E+00 -0.16757644804E+04  0.16757644804E+04  0.25500000920E-02 0. -1.
    10030    2    1    2    0    0  0.00000000000E+00  0.00000000000E+00  0.48871916961E+03  0.38402481304E+04  0.38090234019E+04 0.  0.
        3    1    3    3  502    0  0.69629797077E+03  0.14042262661E+04 -0.84639768213E+03  0.17813116844E+04  0.10100000352E+00 0. -1.
       -3    1    3    3    0  502 -0.69629797077E+03 -0.14042262661E+04  0.13351168517E+04  0.20589364460E+04  0.10100000352E+00 0.  1.
</event>
<event>
 5   0  0.1648000E-07  0.3637841E+04  0.7818609E-02  0.8081878E-01
       -1   -1    0    0    0  501  0.00000000000E+00  0.00000000000E+00  0.14829076540E+04  0.14829076540E+04  0.50400001928E-02 0.  1.
        1   -1    0    0  501    0  0.00000000000E+00  0.00000000000E+00 -0.22310702229E+04  0.22310702230E+04  0.50400001928E-02 0. -1.
    10030    2    1    2    0    0  0.00000000000E+00  0.00000000000E+00 -0.74816256898E+03  0.37139778769E+04  0.36378406288E+04 0.  0.
        1    1    3    3  502    0  0.14051818410E+04  0.12654664717E+03 -0.15461156360E+04  0.20930894917E+04  0.50400001928E-02 0.  1.
       -1    1    3    3    0  502 -0.14051818410E+04 -0.12654664717E+03  0.79795306706E+03  0.16208883852E+04  0.50400001928E-02 0. -1.
</event>
<event>
 5   0  0.1648000E-07  0.3803656E+04  0.7818609E-02  0.8045371E-01
        1   -1    0    0  501    0  0.00000000000E+00  0.00000000000E+00  0.22914985632E+04  0.22914985632E+04  0.50400001928E-02 0. -1.
       -1   -1    0    0    0  501  0.00000000000E+00  0.00000000000E+00 -0.15784207303E+04  0.15784207303E+04  0.50400001928E-02 0.  1.
    10030    2    1    2    0    0  0.00000000000E+00  0.00000000000E+00  0.71307783289E+03  0.38699192935E+04  0.38036555236E+04 0.  0.
        2    1    3    3  502    0 -0.26315468946E+01 -0.15480033505E+04  0.14806062094E+04  0.21420821753E+04  0.25500000920E-02 0. -1.
       -2    1    3    3    0  502  0.26315468946E+01  0.15480033505E+04 -0.76752837650E+03  0.17278371182E+04  0.25500000920E-02 0.  1.
</event>
<event>
 5   0  0.1648000E-07  0.3803535E+04  0.7818609E-02  0.8045397E-01
        1   -1    0    0  501    0  0.00000000000E+00  0.00000000000E+00  0.24776454953E+04  0.24776454953E+04  0.50400001928E-02 0.  1.
       -1   -1    0    0    0  501  0.00000000000E+00  0.00000000000E+00 -0.14597403686E+04  0.14597403686E+04  0.50400001928E-02 0. -1.
    10030    2    1    2    0    0  0.00000000000E+00  0.00000000000E+00  0.10179051267E+04  0.39373858639E+04  0.38035347500E+04 0.  0.
        2    1    3    3  502    0 -0.21835790063E+03  0.18650785567E+04  0.82040744919E+03  0.20492112088E+04  0.25500000920E-02 0. -1.
       -2    1    3    3    0  502  0.21835790063E+03 -0.18650785567E+04  0.19749767749E+03  0.18881746551E+04  0.25500000920E-02 0.  1.
</event>
<event>
 5   0  0.5158266E-07  0.3776839E+04  0.7818609E-02  0.8051144E-01
        2   -1    0    0  501    0  0.00000000000E+00  0.00000000000E+00  0.12812106990E+04  0.12812106990E+04  0.25500000920E-02 0. -1.
       -2   -1    0    0    0  501  0.00000000000E+00  0.00000000000E+00 -0.27834046387E+04  0.27834046387E+04  0.25500000920E-02 0.  1.
    10030    2    1    2    0    0  0.00000000000E+00  0.00000000000E+00 -0.15021939397E+04  0.40646153377E+04  0.37768387854E+04 0.  0.
        2    1    3    3  502    0  0.23218984643E+03 -0.88808875233E+03  0.10249555900E+04  0.13759170463E+04  0.25500000920E-02 0. -1.
       -2    1    3    3    0  502 -0.23218984643E+03  0.88808875233E+03 -0.25271495297E+04  0.26886982914E+04  0.25500000920E-02 0.  1.
</event>
<event>
 5   0  0.5325362E-07  0.3781752E+04  0.7818609E-02  0.8050082E-01
       -2   -1    0    0    0  501  0.00000000000E+00  0.00000000000E+00  0.21121317491E+04  0.21121317491E+04  0.25500000920E-02 0.  1.
        2   -1    0    0  501    0  0.00000000000E+00  0.00000000000E+00 -0.16927980365E+04  0.16927980365E+04  0.25500000920E-02 0. -1.
    10030    2    1    2    0    0  0.00000000000E+00  0.00000000000E+00  0.41933371257E+03  0.38049297856E+04  0.37817522276E+04 0.  0.
        4    1    3    3  502    0  0.66109164978E+03 -0.94068615574E+03 -0.13006923985E+04  0.17360112158E+04  0.12699999809E+01 0. -1.
       -4    1    3    3    0  502 -0.66109164978E+03  0.94068615574E+03  0.17200261110E+04  0.20689185698E+04  0.12699999809E+01 0.  1.
</event>
<event>
 5   0  0.5134434E-07  0.3844796E+04  0.7818609E-02  0.8036610E-01
        2   -1    0    0  501    0  0.00000000000E+00  0.00000000000E+00  0.28675069505E+04  0.28675069505E+04  0.25500000920E-02 0. -1.
       -2   -1    0    0    0  501  0.00000000000E+00  0.00000000000E+00 -0.12887898022E+04  0.12887898022E+04  0.25500000920E-02 0.  1.
    10030    2    1    2    0    0  0.00000000000E+00  0.00000000000E+00  0.15787171483E+04  0.41562967527E+04  0.38447958154E+04 0.  0.
        5    1    3    3  502    0 -0.12833363784E+04  0.14017791570E+04  0.11020227168E+04  0.21969099261E+04  0.46999998093E+01 0.  1.
       -5    1    3    3    0  502  0.12833363784E+04 -0.14017791570E+04  0.47669443154E+03  0.19593868266E+04  0.46999998093E+01 0. -1.
</event>
<event>
 5   0  0.1648000E-07  0.3774354E+04  0.7818609E-02  0.8051681E-01
        1   -1    0    0  501    0  0.00000000000E+00  0.00000000000E+00  0.22005409457E+04  0.22005409457E+04  0.50400001928E-02 0. -1.
       -1   -1    0    0    0  501  0.00000000000E+00  0.00000000000E+00 -0.16184372891E+04  0.16184372891E+04  0.50400001928E-02 0.  1.
    10030    2    1    2    0    0  0.00000000000E+00  0.00000000000E+00  0.58210365655E+03  0.38189782348E+04  0.37743542615E+04 0.  0.
        1    1    3    3  502    0 -0.50792847981E+03 -0.12672409366E+04 -0.10272515771E+04  0.17085481365E+04  0.50400001928E-02 0.  1.
       -1    1    3    3    0  502  0.50792847981E+03  0.12672409366E+04  0.16093552337E+04  0.21104300984E+04  0.50400001928E-02 0. -1.
</event>
<event>
 5   0  0.1648000E-07  0.3768287E+04  0.7818609E-02  0.8052995E-01
       -1   -1    0    0    0  501  0.00000000000E+00  0.00000000000E+00  0.14686297873E+04  0.14686297873E+04  0.50400001928E-02 0.  1.
        1   -1    0    0  501    0  0.00000000000E+00  0.00000000000E+00 -0.24172167903E+04  0.24172167903E+04  0.50400001928E-02 0. -1.
    10030    2    1    2    0    0  0.00000000000E+00  0.00000000000E+00 -0.94858700299E+03  0.38858465777E+04  0.37682869215E+04 0.  0.
        4    1    3    3  502    0  0.95399577797E+02  0.16703921705E+04  0.41915645719E+03  0.17248202316E+04  0.12699999809E+01 0.  1.
       -4    1    3    3    0  502 -0.95399577797E+02 -0.16703921705E+04 -0.13677434602E+04  0.21610263461E+04  0.12699999809E+01 0. -1.
</event>
<event>
 5   0  0.5158266E-07  0.3811593E+04  0.7818609E-02  0.8043672E-01
       -2   -1    0    0    0  501  0.00000000000E+00  0.00000000000E+00  0.13106718952E+04  0.13106718952E+04  0.25500000920E-02 0. -1.
        2   -1    0    0  501    0  0.00000000000E+00  0.00000000000E+00 -0.27711433503E+04  0.27711433503E+04  0.25500000920E-02 0.  1.
    10030    2    1    2    0    0  0.00000000000E+00  0.00000000000E+00 -0.14604714552E+04  0.40818152455E+04  0.38115926890E+04 0.  0.
        2    1    3    3  502    0  0.10160379231E+04  0.15257785435E+04 -0.17200615330E+03  0.18411733600E+04  0.25500000920E-02 0. -1.
       -2    1    3    3    0  502 -0.10160379231E+04 -0.15257785435E+04 -0.12884653019E+04  0.22406418855E+04  0.25500000920E-02 0.  1.
</event>
<event>
 5   0  0.5202788E-07  0.3834772E+04  0.7818609E-02  0.8038734E-01
       -2   -1    0    0    0  501  0.00000000000E+00  0.00000000000E+00  0.16884562630E+04  0.16884562630E+04  0.25500000920E-02 0. -1.
        2   -1    0    0  501    0  0.00000000000E+00  0.00000000000E+00 -0.21773553881E+04  0.21773553881E+04  0.25500000920E-02 0.  1.
    10030    2    1    2    0    0  0.00000000000E+00  0.00000000000E+00 -0.48889912514E+03  0.38658116511E+04  0.38347721402E+04 0.  0.
        1    1    3    3  502    0  0.14271626040E+04  0.10135922631E+04  0.54432021369E+03  0.18331521675E+04  0.50400001928E-02 0. -1.
       -1    1    3    3    0  502 -0.14271626040E+04 -0.10135922631E+04 -0.10332193388E+04  0.20326594836E+04  0.50400001928E-02 0.  1.
</event>
<event>
 5   0  0.5202788E-07  0.3822564E+04  0.7818609E-02  0.8041330E-01
        2   -1    0    0  501    0  0.00000000000E+00  0.00000000000E+00  0.22795634104E+04  0.22795634104E+04  0.25500000920E-02 0.  1.
       -2   -1    0    0    0  501  0.00000000000E+00  0.00000000000E+00 -0.16024994378E+04  0.16024994378E+04  0.25500000920E-02 0. -1.
    10030    2    1    2    0    0  0.00000000000E+00  0.00000000000E+00  0.67706397259E+03  0.38820628483E+04  0.38225641048E+04 0.  0.
        1    1    3    3  502    0  0.12638673621E+03 -0.14524458666E+04  0.15936597681E+04  0.21599361239E+04  0.50400001928E-02 0.  1.
       -1    1    3    3    0  502 -0.12638673621E+03  0.14524458666E+04 -0.91659579552E+03  0.17221267244E+04  0.50400001928E-02 0. -1.
</event>
<event>
 5   0  0.1648000E-07  0.3903004E+04  0.7818609E-02  0.8024405E-01
        1   -1    0    0  501    0  0.00000000000E+00  0.00000000000E+00  0.24196481962E+04  0.24196481962E+04  0.50400001928E-02 0. -1.
       -1   -1    0    0    0  501  0.00000000000E+00  0.00000000000E+00 -0.15739310209E+04  0.15739310209E+04  0.50400001928E-02 0.  1.
    10030    2    1    2    0    0  0.00000000000E+00  0.00000000000E+00  0.84571717531E+03  0.39935792171E+04  0.39030036411E+04 0.  0.
        2    1    3    3  502    0  0.72473025883E+03  0.34332940756E+02 -0.14307972623E+04  0.16042423460E+04  0.25500000920E-02 0.  1.
       -2    1    3    3    0  502 -0.72473025883E+03 -0.34332940756E+02  0.22765144376E+04  0.23893368711E+04  0.25500000920E-02 0. -1.
</event>
<event>
 5   0  0.5134434E-07  0.3477387E+04  0.7818609E-02  0.8119170E-01
        2   -1    0    0  501    0  0.00000000000E+00  0.00000000000E+00  0.26240355969E+04  0.26240355969E+04  0.25500000920E-02 0. -1.
       -2   -1    0    0    0  501  0.00000000000E+00  0.00000000000E+00 -0.11520633872E+04  0.11520633872E+04  0.25500000920E-02 0.  1.
    10030    2    1    2    0    0  0.00000000000E+00  0.00000000000E+00  0.14719722097E+04  0.37760989841E+04  0.34773871443E+04 0.  0.
        5    1    3    3  502    0  0.14250253171E+04  0.37120526608E+03  0.17398092876E+04  0.22793527483E+04  0.46999998093E+01 0. -1.
       -5    1    3    3    0  502 -0.14250253171E+04 -0.37120526608E+03 -0.26783707784E+03  0.14967462358E+04  0.46999998093E+01 0.  1.
</event>
<event>
 5   0  0.1648000E-07  0.3825295E+04  0.7818609E-02  0.8040748E-01
       -1   -1    0    0    0  501  0.00000000000E+00  0.00000000000E+00  0.13359557855E+04  0.13359557855E+04  0.50400001928E-02 0.  1.
        1   -1    0    0  501    0  0.00000000000E+00  0.00000000000E+00 -0.27382790442E+04  0.27382790442E+04  0.50400001928E-02 0. -1.
    10030    2    1    2    0    0  0.00000000000E+00  0.00000000000E+00 -0.14023232587E+04  0.40742348296E+04  0.38252946194E+04 0.  0.
        4    1    3    3  502    0  0.74943954849E+03 -0.82394851815E+03  0.95491122203E+03  0.14671086709E+04  0.12699999809E+01 0.  1.
       -4    1    3    3    0  502 -0.74943954849E+03  0.82394851815E+03 -0.23572344807E+04  0.26071261587E+04  0.12699999809E+01 0. -1.
</event>
<event>
 5   0  0.1648000E-07  0.4167984E+04  0.7818609E-02  0.7971490E-01
       -1   -1    0    0    0  501  0.00000000000E+00  0.00000000000E+00  0.28082146034E+04  0.28082146034E+04  0.50400001928E-02 0.  1.
        1   -1    0    0  501    0  0.00000000000E+00  0.00000000000E+00 -0.15465424502E+04  0.15465424502E+04  0.50400001928E-02 0. -1.
    10030    2    1    2    0    0  0.00000000000E+00  0.00000000000E+00  0.12616721531E+04  0.43547570536E+04  0.41679842099E+04 0.  0.
        1    1    3    3  502    0  0.34322734637E+03 -0.41525515551E+02 -0.15163703204E+04  0.15552840024E+04  0.50400001928E-02 0. -1.
       -1    1    3    3    0  502 -0.34322734637E+03  0.41525515551E+02  0.27780424735E+04  0.27994730512E+04  0.50400001928E-02 0.  1.
</event>
<event>
 5   0  0.1648000E-07  0.3812514E+04  0.7818609E-02  0.8043475E-01
        1   -1    0    0  501    0  0.00000000000E+00  0.00000000000E+00  0.16550934786E+04  0.16550934786E+04  0.50400001928E-02 0.  1.
       -1   -1    0    0    0  501  0.00000000000E+00  0.00000000000E+00 -0.21955353634E+04  0.21955353634E+04  0.50400001928E-02 0. -1.
    10030    2    1    2    0    0  0.00000000000E+00  0.00000000000E+00 -0.54044188474E+03  0.38506288420E+04  0.38125142686E+04 0.  0.
        1    1    3    3  502    0 -0.28691643087E+03  0.12334258242E+04 -0.17093007615E+04  0.21272915633E+04  0.50400001928E-02 0. -1.
       -1    1    3    3    0  502  0.28691643087E+03 -0.12334258242E+04  0.11688588768E+04  0.17233372786E+04  0.50400001928E-02 0.  1.
</event>
<event>
 5   0  0.1648000E-07  0.3789395E+04  0.7818609E-02  0.8048434E-01
       -1   -1    0    0    0  501  0.00000000000E+00  0.00000000000E+00  0.26351764436E+04  0.26351764436E+04  0.50400001928E-02 0. -1.
        1   -1    0    0  501    0  0.00000000000E+00  0.00000000000E+00 -0.13622917341E+04  0.13622917341E+04  0.50400001928E-02 0.  1.
    10030    2    1    2    0    0  0.00000000000E+00  0.00000000000E+00  0.12728847094E+04  0.39974681777E+04  0.37893952483E+04 0.  0.
        2    1    3    3  502    0 -0.18518439708E+03  0.16084931400E+04 -0.40163105885E+03  0.16681879240E+04  0.25500000920E-02 0.  1.
       -2    1    3    3    0  502  0.18518439708E+03 -0.16084931400E+04  0.16745157683E+04  0.23292802537E+04  0.25500000920E-02 0. -1.
</event>
<event>
 5   0  0.1648000E-07  0.3712143E+04  0.7818609E-02  0.8065276E-01
        1   -1    0    0  501    0  0.00000000000E+00  0.00000000000E+00  0.15471286567E+04  0.15471286567E+04  0.50400001928E-02 0. -1.
       -1   -1    0    0    0  501  0.00000000000E+00  0.00000000000E+00 -0.22267065654E+04  0.22267065654E+04  0.50400001928E-02 0.  1.
    10030    2    1    2    0    0  0.00000000000E+00  0.00000000000E+00 -0.67957790870E+03  0.37738352221E+04  0.37121430669E+04 0.  0.
        3    1    3    3  502    0  0.68329911615E+03 -0.15478633531E+04 -0.11155051589E+04  0.20266056379E+04  0.10100000352E+00 0.  1.
       -3    1    3    3    0  502 -0.68329911615E+03  0.15478633531E+04  0.43592725020E+03  0.17472295841E+04  0.10100000352E+00 0. -1.
</event>
<event>
 5   0  0.5132561E-07  0.3799023E+04  0.7818609E-02  0.8046365E-01
        2   -1    0    0  501    0  0.00000000000E+00  0.00000000000E+00  0.18359816482E+04  0.18359816482E+04  0.25500000920E-02 0.  1.
       -2   -1    0    0    0  501  0.00000000000E+00  0.00000000000E+00 -0.19652395429E+04  0.19652395429E+04  0.25500000920E-02 0. -1.
    10030    2    1    2    0    0  0.00000000000E+00  0.00000000000E+00 -0.12925789476E+03  0.38012211911E+04  0.37990228928E+04 0.  0.
        3    1    3    3  502    0 -0.18690304701E+03 -0.17646077644E+04 -0.74278983929E+03  0.19236709871E+04  0.10100000352E+00 0. -1.
       -3    1    3    3    0  502  0.18690304701E+03  0.17646077644E+04  0.61353194453E+03  0.18775502039E+04  0.10100000352E+00 0.  1.
</event>
<event>
 5   0  0.1648000E-07  0.3883372E+04  0.7818609E-02  0.8028496E-01
       -1   -1    0    0    0  501  0.00000000000E+00  0.00000000000E+00  0.20358278851E+04  0.20358278851E+04  0.50400001928E-02 0.  1.
        1   -1    0    0  501    0  0.00000000000E+00  0.00000000000E+00 -0.18518974442E+04  0.18518974442E+04  0.50400001928E-02 0. -1.
    10030    2    1    2    0    0  0.00000000000E+00  0.00000000000E+00  0.18393044095E+03  0.38877253293E+04  0.38833719664E+04 0.  0.
        3    1    3    3  502    0  0.36306003253E+03 -0.66184552240E+03  0.18829067637E+04  0.20285931021E+04  0.10100000352E+00 0.  1.
       -3    1    3    3    0  502 -0.36306003253E+03  0.66184552240E+03 -0.16989763228E+04  0.18591322272E+04  0.10100000352E+00 0. -1.
</event>
<event>
 5   0  0.5325362E-07  0.3732844E+04  0.7818609E-02  0.8060722E-01
        2   -1    0    0  501    0  0.00000000000E+00  0.00000000000E+00  0.13292978066E+04  0.13292978066E+04  0.25500000920E-02 0.  1.
       -2   -1    0    0    0  501  0.00000000000E+00  0.00000000000E+00 -0.26205794808E+04  0.26205794808E+04  0.25500000920E-02 0. -1.
    10030    2    1    2    0    0  0.00000000000E+00  0.00000000000E+00 -0.12912816742E+04  0.39498772875E+04  0.37328437181E+04 0.  0.
        4    1    3    3  502    0 -0.36998919293E+03  0.96218435675E+03  0.10007262590E+04  0.14367134014E+04  0.12699999809E+01 0.  1.
       -4    1    3    3    0  502  0.36998919293E+03 -0.96218435675E+03 -0.22920079333E+04  0.25131638861E+04  0.12699999809E+01 0. -1.
</event>
<event>
 5   0  0.5132561E-07  0.3770633E+04  0.7818609E-02  0.8052487E-01
        2   -1    0    0  501    0  0.00000000000E+00  0.00000000000E+00  0.20272637312E+04  0.20272637312E+04  0.25500000920E-02 0. -1.
       -2   -1    0    0    0  501  0.00000000000E+00  0.00000000000E+00 -0.17533079223E+04  0.17533079223E+04  0.25500000920E-02 0.  1.
    10030    2    1    2    0    0  0.00000000000E+00  0.00000000000E+00  0.27395580893E+03  0.37805716535E+04  0.37706326050E+04 0.  0.
        3    1    3    3  502    0  0.40874515619E+03  0.13357925113E+03 -0.17034808288E+04  0.17569185989E+04  0.10100000352E+00 0.  1.
       -3    1    3    3    0  502 -0.40874515619E+03 -0.13357925113E+03  0.19774366377E+04  0.20236530546E+04  0.10100000352E+00 0. -1.
</event>
<event>
 5   0  0.5158266E-07  0.3749727E+04  0.7818609E-02  0.8057030E-01
        2   -1    0    0  501    0  0.00000000000E+00  0.00000000000E+00  0.26794739673E+04  0.26794739673E+04  0.25500000920E-02 0.  1.
       -2   -1    0    0    0  501  0.00000000000E+00  0.00000000000E+00 -0.13118671925E+04  0.13118671926E+04  0.25500000920E-02 0. -1.
    10030    2    1    2    0    0  0.00000000000E+00  0.00000000000E+00  0.13676067748E+04  0.39913411599E+04  0.37497274520E+04 0.  0.
        2    1    3    3  502    0 -0.50578857273E+03 -0.17693183934E+04  0.10658218791E+04  0.21265667014E+04  0.25500000920E-02 0. -1.
       -2    1    3    3    0  502  0.50578857273E+03  0.17693183934E+04  0.30178489564E+03  0.18647744584E+04  0.25500000920E-02 0.  1.
</event>
<event>
 5   0  0.1656617E-07  0.3797767E+04  0.7818609E-02  0.8046634E-01
        1   -1    0    0  501    0  0.00000000000E+00  0.00000000000E+00  0.19252818236E+04  0.19252818236E+04  0.50400001928E-02 0. -1.
       -1   -1    0    0    0  501  0.00000000000E+00  0.00000000000E+00 -0.18728468732E+04  0.18728468732E+04  0.50400001928E-02 0.  1.
    10030    2    1    2    0    0  0.00000000000E+00  0.00000000000E+00  0.52434950392E+02  0.37981286968E+04  0.37977667349E+04 0.  0.
        5    1    3    3  502    0  0.11306526850E+04  0.14557393076E+04 -0.43009734256E+03  0.18927647080E+04  0.46999998093E+01 0.  1.
       -5    1    3    3    0  502 -0.11306526850E+04 -0.14557393076E+04  0.48253229295E+03  0.19053639887E+04  0.46999998093E+01 0. -1.
</event>
<event>
 5   0  0.1648000E-07  0.3835131E+04  0.7818609E-02  0.8038658E-01
       -1   -1    0    0    0  501  0.00000000000E+00  0.00000000000E+00  0.13623931429E+04  0.13623931429E+04  0.50400001928E-02 0.  1.
        1   -1    0    0  501    0  0.00000000000E+00  0.00000000000E+00 -0.26989696789E+04  0.26989696789E+04  0.50400001928E-02 0. -1.
    10030    2    1    2    0    0  0.00000000000E+00  0.00000000000E+00 -0.13365765360E+04  0.40613628219E+04  0.38351311756E+04 0.  0.
        1    1    3    3  502    0  0.13300505232E+04  0.13674362222E+04 -0.46146907775E+03  0.19626181304E+04  0.50400001928E-02 0.  1.
       -1    1    3    3    0  502 -0.13300505232E+04 -0.13674362222E+04 -0.87510745827E+03  0.20987446914E+04  0.50400001928E-02 0. -1.
</event>
<event>
 5   0  0.5325362E-07  0.2745561E+04  0.7818609E-02  0.8320372E-01
        2   -1    0    0  501    0  0.00000000000E+00  0.00000000000E+00  0.19601803350E+04  0.19601803350E+04  0.25500000920E-02 0.  1.
       -2   -1    0    0    0  501  0.00000000000E+00  0.00000000000E+00 -0.96140423816E+03  0.96140423816E+03  0.25500000920E-02 0. -1.
    10030    2    1    2    0    0  0.00000000000E+00  0.00000000000E+00  0.99877609683E+03  0.29215845732E+04  0.27455605487E+04 0.  0.
        4    1    3    3  502    0 -0.12985084464E+04  0.43189521557E+03  0.61530502351E+03  0.15004197904E+04  0.12699999809E+01 0. -1.
       -4    1    3    3    0  502  0.12985084464E+04 -0.43189521557E+03  0.38347107332E+03  0.14211647827E+04  0.12699999809E+01 0.  1.
</event>
<event>
 5   0  0.5325362E-07  0.4194433E+04  0.7818609E-02  0.7966432E-01
       -2   -1    0    0    0  501  0.00000000000E+00  0.00000000000E+00  0.19118744772E+04  0.19118744772E+04  0.25500000920E-02 0. -1.
        2   -1    0    0  501    0  0.00000000000E+00  0.00000000000E+00 -0.23005260270E+04  0.23005260270E+04  0.25500000920E-02 0.  1.
    10030    2    1    2    0    0  0.00000000000E+00  0.00000000000E+00 -0.38865154988E+03  0.42124005042E+04  0.41944329749E+04 0.  0.
        4    1    3    3  502    0  0.60560059839E+03 -0.40894595120E+03 -0.21685355779E+04  0.22883481032E+04  0.12699999809E+01 0.  1.
       -4    1    3    3    0  502 -0.60560059839E+03  0.40894595120E+03  0.17798840280E+04  0.19240524010E+04  0.12699999809E+01 0. -1.
</event>
<event>
 5   0  0.5134434E-07  0.3827086E+04  0.7818609E-02  0.8040367E-01
        2   -1    0    0  501    0  0.00000000000E+00  0.00000000000E+00  0.22024725643E+04  0.22024725643E+04  0.25500000920E-02 0. -1.
       -2   -1    0    0    0  501  0.00000000000E+00  0.00000000000E+00 -0.16625166488E+04  0.16625166488E+04  0.25500000920E-02 0.  1.
    10030    2    1    2    0    0  0.00000000000E+00  0.00000000000E+00  0.53995591548E+03  0.38649892130E+04  0.38270862580E+04 0.  0.
        5    1    3    3  502    0  0.13813408903E+04 -0.13238099143E+04  0.30270059124E+03  0.19370661017E+04  0.46999998093E+01 0.  1.
       -5    1    3    3    0  502 -0.13813408903E+04  0.13238099143E+04  0.23725532424E+03  0.19279231113E+04  0.46999998093E+01 0. -1.
</event>
<event>
 5   0  0.5132561E-07  0.3926620E+04  0.7818609E-02  0.8019515E-01
        2   -1    0    0  501    0  0.00000000000E+00  0.00000000000E+00  0.15388114855E+04  0.15388114855E+04  0.25500000920E-02 0. -1.
       -2   -1    0    0    0  501  0.00000000000E+00  0.00000000000E+00 -0.25049111533E+04  0.25049111533E+04  0.25500000920E-02 0.  1.
    10030    2    1    2    0    0  0.00000000000E+00  0.00000000000E+00 -0.96609966780E+03  0.40437226387E+04  0.39266199474E+04 0.  0.
        3    1    3    3  502    0  0.10674270364E+03 -0.19363942855E+04 -0.16803647662E+03  0.19466003960E+04  0.10100000352E+00 0.  1.
       -3    1    3    3    0  502 -0.10674270364E+03  0.19363942855E+04 -0.79806319119E+03  0.20971222428E+04  0.10100000352E+00 0. -1.
</event>
<event>
 5   0  0.5325362E-07  0.3847698E+04  0.7818609E-02  0.8035996E-01
        2   -1    0    0  501    0  0.00000000000E+00  0.00000000000E+00  0.22097168971E+04  0.22097168971E+04  0.25500000920E-02 0. -1.
       -2   -1    0    0    0  501  0.00000000000E+00  0.00000000000E+00 -0.16749632077E+04  0.16749632077E+04  0.25500000920E-02 0.  1.
    10030    2    1    2    0    0  0.00000000000E+00  0.00000000000E+00  0.53475368943E+03  0.38846801047E+04  0.38476977542E+04 0.  0.
        4    1    3    3  502    0 -0.12851959939E+04  0.10971578680E+04 -0.66108642124E+03  0.18145305176E+04  0.12699999809E+01 0.  1.
       -4    1    3    3    0  502  0.12851959939E+04 -0.10971578680E+04  0.11958401107E+04  0.20701495872E+04  0.12699999809E+01 0. -1.
</event>
<event>
 5   0  0.1656617E-07  0.3696571E+04  0.7818609E-02  0.8068722E-01
       -1   -1    0    0    0  501  0.00000000000E+00  0.00000000000E+00  0.15109647932E+04  0.15109647932E+04  0.50400001928E-02 0.  1.
        1   -1    0    0  501    0  0.00000000000E+00  0.00000000000E+00 -0.22609123801E+04  0.22609123801E+04  0.50400001928E-02 0. -1.
    10030    2    1    2    0    0  0.00000000000E+00  0.00000000000E+00 -0.74994758686E+03  0.37718771733E+04  0.36965708471E+04 0.  0.
        5    1    3    3  502    0  0.85296756500E+03  0.15827366106E+04 -0.81210293305E+03  0.19728512639E+04  0.46999998093E+01 0. -1.
       -5    1    3    3    0  502 -0.85296756500E+03 -0.15827366106E+04  0.62155346197E+02  0.17990259094E+04  0.46999998093E+01 0.  1.
</event>
<event>
 5   0  0.1648000E-07  0.3841050E+04  0.7818609E-02  0.8037403E-01
       -1   -1    0    0    0  501  0.00000000000E+00  0.00000000000E+00  0.18611036705E+04  0.18611036705E+04  0.50400001928E-02 0. -1.
        1   -1    0    0  501    0  0.00000000000E+00  0.00000000000E+00 -0.19818437465E+04  0.19818437465E+04  0.50400001928E-02 0.  1.
    10030    2    1    2    0    0  0.00000000000E+00  0.00000000000E+00 -0.12074007596E+03  0.38429474170E+04  0.38410502058E+04 0.  0.
        2    1    3    3  502    0 -0.14311542732E+04  0.20813530519E+03 -0.13246768480E+04  0.19611964743E+04  0.25500000920E-02 0.  1.
       -2    1    3    3    0  502  0.14311542732E+04 -0.20813530519E+03  0.12039367721E+04  0.18817509427E+04  0.25500000920E-02 0. -1.
</event>
<event>
 5   0  0.5325362E-07  0.3777226E+04  0.7818609E-02  0.8051060E-01
       -2   -1    0    0    0  501  0.00000000000E+00  0.00000000000E+00  0.12721273794E+04  0.12721273794E+04  0.25500000920E-02 0.  1.
        2   -1    0    0  501    0  0.00000000000E+00  0.00000000000E+00 -0.28038536021E+04  0.28038536021E+04  0.25500000920E-02 0. -1.
    10030    2    1    2    0    0  0.00000000000E+00  0.00000000000E+00 -0.15317262227E+04  0.40759809815E+04  0.37772259318E+04 0.  0.
        4    1    3    3  502    0 -0.26988448872E+03 -0.11147696220E+04  0.85324809912E+03  0.14295393940E+04  0.12699999809E+01 0.  1.
       -4    1    3    3    0  502  0.26988448872E+03  0.11147696220E+04 -0.23849743218E+04  0.26464415875E+04  0.12699999809E+01 0. -1.
</event>
<event>
 5   0  0.5132561E-07  0.3718230E+04  0.7818609E-02  0.8063934E-01
       -2   -1    0    0    0  501  0.00000000000E+00  0.00000000000E+00  0.11596053250E+04  0.11596053250E+04  0.25500000920E-02 0. -1.
        2   -1    0    0  501    0  0.00000000000E+00  0.00000000000E+00 -0.29805900127E+04  0.29805900127E+04  0.25500000920E-02 0.  1.
    10030    2    1    2    0    0  0.00000000000E+00  0.00000000000E+00 -0.18209846878E+04  0.41401953377E+04  0.37182297133E+04 0.  0.
        3    1    3    3  502    0  0.17465086164E+04 -0.23745292003E+03 -0.15688927349E+04  0.23596823219E+04  0.10100000352E+00 0.  1.
       -3    1    3    3    0  502 -0.17465086164E+04  0.23745292003E+03 -0.25209195288E+03  0.17805130158E+04  0.10100000352E+00 0. -1.
</event>
<event>
 5   0  0.5158266E-07  0.3807797E+04  0.7818609E-02  0.8044484E-01
       -2   -1    0    0    0  501  0.00000000000E+00  0.00000000000E+00  0.19441997416E+04  0.19441997416E+04  0.25500000920E-02 0.  1.
        2   -1    0    0  501    0  0.00000000000E+00  0.00000000000E+00 -0.18644327365E+04  0.18644327365E+04  0.25500000920E-02 0. -1.
    10030    2    1    2    0    0  0.00000000000E+00  0.00000000000E+00  0.79767005083E+02  0.38086324781E+04  0.38077970768E+04 0.  0.
        2    1    3    3  502    0 -0.83758474792E+03  0.73706027548E+03  0.15829544721E+04  0.19366339149E+04  0.25500000920E-02 0.  1.
       -2    1    3    3    0  502  0.83758474792E+03 -0.73706027548E+03 -0.15031874670E+04  0.18719985632E+04  0.25500000920E-02 0. -1.
</event>
<event>
 5   0  0.5325362E-07  0.3821956E+04  0.7818609E-02  0.8041460E-01
       -2   -1    0    0    0  501  0.00000000000E+00  0.00000000000E+00  0.13938992376E+04  0.13938992376E+04  0.25500000920E-02 0.  1.
        2   -1    0    0  501    0  0.00000000000E+00  0.00000000000E+00 -0.26198709589E+04  0.26198709589E+04  0.25500000920E-02 0. -1.
    10030    2    1    2    0    0  0.00000000000E+00  0.00000000000E+00 -0.12259717213E+04  0.40137701965E+04  0.38219555896E+04 0.  0.
        4    1    3    3  502    0  0.67424032983E+03 -0.99940722016E+03  0.94413445738E+03  0.15312760367E+04  0.12699999809E+01 0.  1.
       -4    1    3    3    0  502 -0.67424032983E+03  0.99940722016E+03 -0.21701061786E+04  0.24824941598E+04  0.12699999809E+01 0. -1.
</event>
<event>
 5   0  0.1648000E-07  0.3775842E+04  0.7818609E-02  0.8051359E-01
        1   -1    0    0  501    0  0.00000000000E+00  0.00000000000E+00  0.22806073869E+04  0.22806073869E+04  0.50400001928E-02 0.  1.
       -1   -1    0    0    0  501  0.00000000000E+00  0.00000000000E+00 -0.15628491570E+04  0.15628491570E+04  0.50400001928E-02 0. -1.
    10030    2    1    2    0    0  0.00000000000E+00  0.00000000000E+00  0.71775822984E+03  0.38434565439E+04  0.37758418040E+04 0.  0.
        1    1    3    3  502    0 -0.12316693305E+04  0.12684237334E+04  0.10328053476E+04  0.20475827195E+04  0.50400001928E-02 0.  1.
       -1    1    3    3    0  502  0.12316693305E+04 -0.12684237334E+04 -0.31504711777E+03  0.17958738245E+04  0.50400001928E-02 0. -1.
</event>
<event>
 5   0  0.5158266E-07  0.3795153E+04  0.7818609E-02  0.8047196E-01
        2   -1    0    0  501    0  0.00000000000E+00  0.00000000000E+00  0.27378907444E+04  0.27378907444E+04  0.25500000920E-02 0. -1.
       -2   -1    0    0    0  501  0.00000000000E+00  0.00000000000E+00 -0.13151714821E+04  0.13151714821E+04  0.25500000920E-02 0.  1.
    10030    2    1    2    0    0  0.00000000000E+00  0.00000000000E+00  0.14227192623E+04  0.40530622265E+04  0.37951526073E+04 0.  0.
        2    1    3    3  502    0  0.59266435952E+03  0.15445163851E+04  0.17040513465E+04  0.23749890313E+04  0.25500000920E-02 0. -1.
       -2    1    3    3    0  502 -0.59266435952E+03 -0.15445163851E+04 -0.28133208421E+03  0.16780731953E+04  0.25500000920E-02 0.  1.
</event>
<event>
 5   0  0.1656617E-07  0.3867881E+04  0.7818609E-02  0.8031743E-01
        1   -1    0    0  501    0  0.00000000000E+00  0.00000000000E+00  0.25553745976E+04  0.25553745976E+04  0.50400001928E-02 0. -1.
       -1   -1    0    0    0  501  0.00000000000E+00  0.00000000000E+00 -0.14636310753E+04  0.14636310753E+04  0.50400001928E-02 0.  1.
    10030    2    1    2    0    0  0.00000000000E+00  0.00000000000E+00  0.10917435223E+04  0.40190056729E+04  0.38678809030E+04 0.  0.
        5    1    3    3  502    0  0.47685728111E+03  0.14882161594E+04 -0.63790566297E+03  0.16879354041E+04  0.46999998093E+01 0.  1.
       -5    1    3    3    0  502 -0.47685728111E+03 -0.14882161594E+04  0.17296491853E+04  0.23310702687E+04  0.46999998093E+01 0. -1.
</event>
<event>
 5   0  0.1648000E-07  0.3871674E+04  0.7818609E-02  0.8030946E-01
        1   -1    0    0  501    0  0.00000000000E+00  0.00000000000E+00  0.16610382848E+04  0.16610382848E+04  0.50400001928E-02 0.  1.
       -1   -1    0    0    0  501  0.00000000000E+00  0.00000000000E+00 -0.22560978128E+04  0.22560978128E+04  0.50400001928E-02 0. -1.
    10030    2    1    2    0    0  0.00000000000E+00  0.00000000000E+00 -0.59505952800E+03  0.39171360976E+04  0.38716739746E+04 0.  0.
        3    1    3    3  502    0  0.16883047382E+03  0.14835160399E+02 -0.22485772920E+04  0.22549553563E+04  0.10100000352E+00 0. -1.
       -3    1    3    3    0  502 -0.16883047382E+03 -0.14835160399E+02  0.16535177640E+04  0.16621807413E+04  0.10100000352E+00 0.  1.
</event>
<event>
 5   0  0.5134434E-07  0.3767884E+04  0.7818609E-02  0.8053082E-01
        2   -1    0    0  501    0  0.00000000000E+00  0.00000000000E+00  0.30346856977E+04  0.30346856977E+04  0.25500000920E-02 0. -1.
       -2   -1    0    0    0  501  0.00000000000E+00  0.00000000000E+00 -0.11695566273E+04  0.11695566273E+04  0.25500000920E-02 0.  1.
    10030    2    1    2    0    0  0.00000000000E+00  0.00000000000E+00  0.18651290704E+04  0.42042423250E+04  0.37678836339E+04 0.  0.
        5    1    3    3  502    0 -0.55216638904E+03 -0.29736278130E+03 -0.10496562952E+04  0.12227480415E+04  0.46999998093E+01 0.  1.
       -5    1    3    3    0  502  0.55216638904E+03  0.29736278130E+03  0.29147853657E+04  0.29814942835E+04  0.46999998093E+01 0. -1.
</event>
<event>
 5   0  0.1656617E-07  0.3772547E+04  0.7818609E-02  0.8052072E-01
        1   -1    0    0  501    0  0.00000000000E+00  0.00000000000E+00  0.18858928485E+04  0.18858928485E+04  0.50400001928E-02 0.  1.
       -1   -1    0    0    0  501  0.00000000000E+00  0.00000000000E+00 -0.18866547155E+04  0.18866547155E+04  0.50400001928E-02 0. -1.
    10030    2    1    2    0    0  0.00000000000E+00  0.00000000000E+00 -0.76186699143E+00  0.37725475640E+04  0.37725474870E+04 0.  0.
        5    1    3    3  502    0 -0.39537191338E+03  0.33517829319E+03  0.18132737308E+04  0.18859075139E+04  0.46999998093E+01 0.  1.
       -5    1    3    3    0  502  0.39537191338E+03 -0.33517829319E+03 -0.18140355978E+04  0.18866400500E+04  0.46999998093E+01 0. -1.
</event>
<event>
 5   0  0.5132561E-07  0.3757285E+04  0.7818609E-02  0.8055384E-01
       -2   -1    0    0    0  501  0.00000000000E+00  0.00000000000E+00  0.20733714822E+04  0.20733714822E+04  0.25500000920E-02 0.  1.
        2   -1    0    0  501    0  0.00000000000E+00  0.00000000000E+00 -0.17022023605E+04  0.17022023605E+04  0.25500000920E-02 0. -1.
    10030    2    1    2    0    0  0.00000000000E+00  0.00000000000E+00  0.37116912175E+03  0.37755738427E+04  0.37572851003E+04 0.  0.
        3    1    3    3  502    0 -0.14527240069E+04 -0.21037306450E+03  0.13637393471E+04  0.20036089647E+04  0.10100000352E+00 0.  1.
       -3    1    3    3    0  502  0.14527240069E+04  0.21037306450E+03 -0.99257022536E+03  0.17719648780E+04  0.10100000352E+00 0. -1.
</event>
<event>
 5   0  0.1648000E-07  0.3681623E+04  0.7818609E-02  0.8072047E-01
       -1   -1    0    0    0  501  0.00000000000E+00  0.00000000000E+00  0.14678262168E+04  0.14678262168E+04  0.50400001928E-02 0.  1.
        1   -1    0    0  501    0  0.00000000000E+00  0.00000000000E+00 -0.23085744440E+04  0.23085744440E+04  0.50400001928E-02 0. -1.
    10030    2    1    2    0    0  0.00000000000E+00  0.00000000000E+00 -0.84074822720E+03  0.37764006608E+04  0.36816225186E+04 0.  0.
        1    1    3    3  502    0 -0.15228355808E+04  0.10118048458E+04 -0.63991401067E+03  0.19370769714E+04  0.50400001928E-02 0.  1.
       -1    1    3    3    0  502  0.15228355808E+04 -0.10118048458E+04 -0.20083421653E+03  0.18393236894E+04  0.50400001928E-02 0. -1.
</event>
<event>
 5   0  0.1656617E-07  0.3773393E+04  0.7818609E-02  0.8051889E-01
        1   -1    0    0  501    0  0.00000000000E+00  0.00000000000E+00  0.13784635746E+04  0.13784635746E+04  0.50400001928E-02 0. -1.
       -1   -1    0    0    0  501  0.00000000000E+00  0.00000000000E+00 -0.25823118556E+04  0.25823118556E+04  0.50400001928E-02 0.  1.
    10030    2    1    2    0    0  0.00000000000E+00  0.00000000000E+00 -0.12038482811E+04  0.39607754302E+04  0.37733925485E+04 0.  0.
        5    1    3    3  502    0 -0.77169310699E+03  0.14395992851E+04  0.38923655573E+03  0.16791317814E+04  0.46999998093E+01 0. -1.
       -5    1    3    3    0  502  0.77169310699E+03 -0.14395992851E+04 -0.15930848368E+04  0.22816436488E+04  0.46999998093E+01 0.  1.
</event>
<event>
 5   0  0.5132561E-07  0.3790879E+04  0.7818609E-02  0.8048115E-01
        2   -1    0    0  501    0  0.00000000000E+00  0.00000000000E+00  0.33024979728E+04  0.33024979729E+04  0.25500000920E-02 0.  1.
       -2   -1    0    0    0  501  0.00000000000E+00  0.00000000000E+00 -0.10878706202E+04  0.10878706202E+04  0.25500000920E-02 0. -1.
    10030    2    1    2    0    0  0.00000000000E+00  0.00000000000E+00  0.22146273527E+04  0.43903685930E+04  0.37908787994E+04 0.  0.
        3    1    3    3  502    0 -0.11370215135E+04 -0.52719691088E+03  0.27541285700E+04  0.30258847790E+04  0.10100000352E+00 0.  1.
       -3    1    3    3    0  502  0.11370215135E+04  0.52719691088E+03 -0.53950121736E+03  0.13644838141E+04  0.10100000352E+00 0. -1.
</event>
<event>
 5   0  0.5134434E-07  0.3807578E+04  0.7818609E-02  0.8044531E-01
        2   -1    0    0  501    0  0.00000000000E+00  0.00000000000E+00  0.32147687829E+04  0.32147687829E+04  0.25500000920E-02 0. -1.
       -2   -1    0    0    0  501  0.00000000000E+00  0.00000000000E+00 -0.11274253616E+04  0.11274253617E+04  0.25500000920E-02 0.  1.
    10030    2    1    2    0    0  0.00000000000E+00  0.00000000000E+00  0.20873434213E+04  0.43421941446E+04  0.38075776330E+04 0.  0.
        5    1    3    3  502    0 -0.18372786589E+04  0.14352428957E+03  0.49889807876E+03  0.19092180271E+04  0.46999998093E+01 0.  1.
       -5    1    3    3    0  502  0.18372786589E+04 -0.14352428957E+03  0.15884453425E+04  0.24329761175E+04  0.46999998093E+01 0. -1.
</event>
<event>
 5   0  0.5134434E-07  0.3526429E+04  0.7818609E-02  0.8107555E-01
       -2   -1    0    0    0  501  0.00000000000E+00  0.00000000000E+00  0.11454454457E+04  0.11454454457E+04  0.25500000920E-02 0. -1.
        2   -1    0    0  501    0  0.00000000000E+00  0.00000000000E+00 -0.27141633034E+04  0.27141633034E+04  0.25500000920E-02 0.  1.
    10030    2    1    2    0    0  0.00000000000E+00  0.00000000000E+00 -0.15687178577E+04  0.38596087491E+04  0.35264293526E+04 0.  0.
        5    1    3    3  502    0 -0.19509541698E+03  0.12890276816E+04  0.51491885107E+03  0.14017196934E+04  0.46999998093E+01 0. -1.
       -5    1    3    3    0  502  0.19509541698E+03 -0.12890276816E+04 -0.20836367088E+04  0.24578890557E+04  0.46999998093E+01 0.  1.
</event>
<event>
 5   0  0.1648000E-07  0.2876321E+04  0.7818609E-02  0.8279958E-01
       -1   -1    0    0    0  501  0.00000000000E+00  0.00000000000E+00  0.13387660345E+04  0.13387660345E+04  0.50400001928E-02 0.  1.
        1   -1    0    0  501    0  0.00000000000E+00  0.00000000000E+00 -0.15449341111E+04  0.15449341111E+04  0.50400001928E-02 0. -1.
    10030    2    1    2    0    0  0.00000000000E+00  0.00000000000E+00 -0.20616807663E+03  0.28837001457E+04  0.28763207843E+04 0.  0.
        4    1    3    3  502    0 -0.13577076793E+04  0.46052022723E+03  0.10585315789E+02  0.14337233638E+04  0.12699999809E+01 0. -1.
       -4    1    3    3    0  502  0.13577076793E+04 -0.46052022723E+03 -0.21675339242E+03  0.14499767819E+04  0.12699999809E+01 0.  1.
</event>
<event>
 5   0  0.1648000E-07  0.3745603E+04  0.7818609E-02  0.8057930E-01
        3   -1    0    0  501    0  0.00000000000E+00  0.00000000000E+00  0.12337982410E+04  0.12337982451E+04  0.10100000352E+00 0. -1.
       -3   -1    0    0    0  501  0.00000000000E+00  0.00000000000E+00 -0.28427540311E+04  0.28427540329E+04  0.10100000352E+00 0.  1.
    10030    2    1    2    0    0  0.00000000000E+00  0.00000000000E+00 -0.16089557901E+04  0.40765522780E+04  0.37456027206E+04 0.  0.
        1    1    3    3  502    0  0.14021072509E+04 -0.12751834649E+03  0.53964025394E+03  0.15077722889E+04  0.50400001928E-02 0. -1.
       -1    1    3    3    0  502 -0.14021072509E+04  0.12751834649E+03 -0.21485960440E+04  0.25687799890E+04  0.50400001928E-02 0.  1.
</event>
<event>
 5   0  0.1648000E-07  0.3807646E+04  0.7818609E-02  0.8044516E-01
        1   -1    0    0  501    0  0.00000000000E+00  0.00000000000E+00  0.28281312072E+04  0.28281312072E+04  0.50400001928E-02 0. -1.
       -1   -1    0    0    0  501  0.00000000000E+00  0.00000000000E+00 -0.12816034665E+04  0.12816034665E+04  0.50400001928E-02 0.  1.
    10030    2    1    2    0    0  0.00000000000E+00  0.00000000000E+00  0.15465277407E+04  0.41097346737E+04  0.38076463906E+04 0.  0.
        4    1    3    3  502    0  0.10259442085E+04  0.45251700991E+03 -0.88737570466E+03  0.14299546907E+04  0.12699999809E+01 0.  1.
       -4    1    3    3    0  502 -0.10259442085E+04 -0.45251700991E+03  0.24339034454E+04  0.26797799831E+04  0.12699999809E+01 0. -1.
</event>
<event>
 5   0  0.1648000E-07  0.3756181E+04  0.7818609E-02  0.8055624E-01
       -1   -1    0    0    0  501  0.00000000000E+00  0.00000000000E+00  0.16896765729E+04  0.16896765729E+04  0.50400001928E-02 0.  1.
        1   -1    0    0  501    0  0.00000000000E+00  0.00000000000E+00 -0.20875147611E+04  0.20875147611E+04  0.50400001928E-02 0. -1.
    10030    2    1    2    0    0  0.00000000000E+00  0.00000000000E+00 -0.39783818817E+03  0.37771913341E+04  0.37561814586E+04 0.  0.
        3    1    3    3  502    0  0.21994614653E+03  0.10177831086E+04  0.13728224503E+04  0.17230496957E+04  0.10100000352E+00 0.  1.
       -3    1    3    3    0  502 -0.21994614653E+03 -0.10177831086E+04 -0.17706606385E+04  0.20541416384E+04  0.10100000352E+00 0. -1.
</event>
<event>
 5   0  0.1648000E-07  0.3658028E+04  0.7818609E-02  0.8077327E-01
        1   -1    0    0  501    0  0.00000000000E+00  0.00000000000E+00  0.10777645400E+04  0.10777645400E+04  0.50400001928E-02 0. -1.
       -1   -1    0    0    0  501  0.00000000000E+00  0.00000000000E+00 -0.31039180501E+04  0.31039180501E+04  0.50400001928E-02 0.  1.
    10030    2    1    2    0    0  0.00000000000E+00  0.00000000000E+00 -0.20261535101E+04  0.41816825901E+04  0.36580283265E+04 0.  0.
        1    1    3    3  502    0  0.89476310883E+02  0.13683259877E+04  0.37054850876E+03  0.14204324047E+04  0.50400001928E-02 0. -1.
       -1    1    3    3    0  502 -0.89476310883E+02 -0.13683259877E+04 -0.23967020189E+04  0.27612501854E+04  0.50400001928E-02 0.  1.
</event>
<event>
 5   0  0.5132561E-07  0.3767067E+04  0.7818609E-02  0.8053259E-01
        2   -1    0    0  501    0  0.00000000000E+00  0.00000000000E+00  0.19863440203E+04  0.19863440203E+04  0.25500000920E-02 0. -1.
       -2   -1    0    0    0  501  0.00000000000E+00  0.00000000000E+00 -0.17860443091E+04  0.17860443091E+04  0.25500000920E-02 0.  1.
    10030    2    1    2    0    0  0.00000000000E+00  0.00000000000E+00  0.20029971113E+03  0.37723883294E+04  0.37670669935E+04 0.  0.
        3    1    3    3  502    0 -0.69669055960E+03  0.17383064207E+04 -0.10165770405E+03  0.18754789381E+04  0.10100000352E+00 0. -1.
       -3    1    3    3    0  502  0.69669055960E+03 -0.17383064207E+04  0.30195741518E+03  0.18969093913E+04  0.10100000352E+00 0.  1.
</event>
<event>
 5   0  0.5134434E-07  0.3524827E+04  0.7818609E-02  0.8107931E-01
       -2   -1    0    0    0  501  0.00000000000E+00  0.00000000000E+00  0.30372200779E+04  0.30372200779E+04  0.25500000920E-02 0. -1.
        2   -1    0    0  501    0  0.00000000000E+00  0.00000000000E+00 -0.10226789526E+04  0.10226789526E+04  0.25500000920E-02 0.  1.
    10030    2    1    2    0    0  0.00000000000E+00  0.00000000000E+00  0.20145411253E+04  0.40598990306E+04  0.35248268316E+04 0.  0.
        5    1    3    3  502    0 -0.57365995217E+03  0.72413630163E+03  0.27359775960E+04  0.28877421318E+04  0.46999998093E+01 0. -1.
       -5    1    3    3    0  502  0.57365995217E+03 -0.72413630163E+03 -0.72143647069E+03  0.11721568988E+04  0.46999998093E+01 0.  1.
</event>
<event>
 5   0  0.5134434E-07  0.3748258E+04  0.7818609E-02  0.8057351E-01
        2   -1    0    0  501    0  0.00000000000E+00  0.00000000000E+00  0.20667308985E+04  0.20667308985E+04  0.25500000920E-02 0.  1.
       -2   -1    0    0    0  501  0.00000000000E+00  0.00000000000E+00 -0.16994761112E+04  0.16994761112E+04  0.25500000920E-02 0. -1.
    10030    2    1    2    0    0  0.00000000000E+00  0.00000000000E+00  0.36725478729E+03  0.37662070097E+04  0.37482581503E+04 0.  0.
        5    1    3    3  502    0 -0.60660310336E+03  0.17661329046E+04  0.34295828359E+03  0.18986403651E+04  0.46999998093E+01 0.  1.
       -5    1    3    3    0  502  0.60660310336E+03 -0.17661329046E+04  0.24296503701E+02  0.18675666446E+04  0.46999998093E+01 0. -1.
</event>
<event>
 5   0  0.1648000E-07  0.3721592E+04  0.7818609E-02  0.8063194E-01
        1   -1    0    0  501    0  0.00000000000E+00  0.00000000000E+00  0.23110827076E+04  0.23110827076E+04  0.50400001928E-02 0.  1.
       -1   -1    0    0    0  501  0.00000000000E+00  0.00000000000E+00 -0.14982423027E+04  0.14982423027E+04  0.50400001928E-02 0. -1.
    10030    2    1    2    0    0  0.00000000000E+00  0.00000000000E+00  0.81284040490E+03  0.38093250103E+04  0.37215920666E+04 0.  0.
        1    1    3    3  502    0 -0.29253551194E+03 -0.17267390489E+04  0.10500172406E+04  0.20419943620E+04  0.50400001928E-02 0.  1.
       -1    1    3    3    0  502  0.29253551194E+03  0.17267390489E+04 -0.23717683572E+03  0.17673306483E+04  0.50400001928E-02 0. -1.
</event>
<event>
 5   0  0.5202788E-07  0.3842601E+04  0.7818609E-02  0.8037074E-01
       -2   -1    0    0    0  501  0.00000000000E+00  0.00000000000E+00  0.15105700800E+04  0.15105700800E+04  0.25500000920E-02 0. -1.
        2   -1    0    0  501    0  0.00000000000E+00  0.00000000000E+00 -0.24437099623E+04  0.24437099623E+04  0.25500000920E-02 0.  1.
    10030    2    1    2    0    0  0.00000000000E+00  0.00000000000E+00 -0.93313988226E+03  0.39542800423E+04  0.38426007616E+04 0.  0.
        1    1    3    3  502    0  0.97315092231E+03 -0.14890061534E+04  0.28064147169E+03  0.18008113943E+04  0.50400001928E-02 0. -1.
       -1    1    3    3    0  502 -0.97315092231E+03  0.14890061534E+04 -0.12137813539E+04  0.21534686479E+04  0.50400001928E-02 0.  1.
</event>
<event>
 5   0  0.5202788E-07  0.3793994E+04  0.7818609E-02  0.8047445E-01
        2   -1    0    0  501    0  0.00000000000E+00  0.00000000000E+00  0.30089637011E+04  0.30089637011E+04  0.25500000920E-02 0.  1.
       -2   -1    0    0    0  501  0.00000000000E+00  0.00000000000E+00 -0.11959593535E+04  0.11959593535E+04  0.25500000920E-02 0. -1.
    10030    2    1    2    0    0  0.00000000000E+00  0.00000000000E+00  0.18130043476E+04  0.42049230546E+04  0.37939943504E+04 0.  0.
        1    1    3    3  502    0 -0.33741024435E+03 -0.27598963817E+03 -0.11396987074E+04  0.12202168238E+04  0.50400001928E-02 0. -1.
       -1    1    3    3    0  502  0.33741024435E+03  0.27598963817E+03  0.29527030550E+04  0.29847062308E+04  0.50400001928E-02 0.  1.
</event>
<event>
 5   0  0.1648000E-07  0.3784787E+04  0.7818609E-02  0.8049428E-01
        1   -1    0    0  501    0  0.00000000000E+00  0.00000000000E+00  0.11853825143E+04  0.11853825143E+04  0.50400001928E-02 0.  1.
       -1   -1    0    0    0  501  0.00000000000E+00  0.00000000000E+00 -0.30210944946E+04  0.30210944946E+04  0.50400001928E-02 0. -1.
    10030    2    1    2    0    0  0.00000000000E+00  0.00000000000E+00 -0.18357119803E+04  0.42064770089E+04  0.37847866983E+04 0.  0.
        3    1    3    3  502    0 -0.72503458117E+03  0.14068334789E+04  0.23518082759E+03  0.16000517532E+04  0.10100000352E+00 0.  1.
       -3    1    3    3    0  502  0.72503458117E+03 -0.14068334789E+04 -0.20708928079E+04  0.26064252556E+04  0.10100000352E+00 0. -1.
</event>
<event>
 5   0  0.5325362E-07  0.3352967E+04  0.7818609E-02  0.8149547E-01
        2   -1    0    0  501    0  0.00000000000E+00  0.00000000000E+00  0.25012720490E+04  0.25012720490E+04  0.25500000920E-02 0. -1.
       -2   -1    0    0    0  501  0.00000000000E+00  0.00000000000E+00 -0.11236670401E+04  0.11236670401E+04  0.25500000920E-02 0.  1.
    10030    2    1    2    0    0  0.00000000000E+00  0.00000000000E+00  0.13776050089E+04  0.36249390892E+04  0.33529670204E+04 0.  0.
        4    1    3    3  502    0  0.13038040215E+03 -0.11577102520E+04  0.19921179948E+04  0.23077755080E+04  0.12699999809E+01 0. -1.
       -4    1    3    3    0  502 -0.13038040215E+03  0.11577102520E+04 -0.61451298592E+03  0.13171635812E+04  0.12699999809E+01 0.  1.
</event>
<event>
 5   0  0.1648000E-07  0.3642213E+04  0.7818609E-02  0.8080890E-01
        1   -1    0    0  501    0  0.00000000000E+00  0.00000000000E+00  0.26546952320E+04  0.26546952320E+04  0.50400001928E-02 0. -1.
       -1   -1    0    0    0  501  0.00000000000E+00  0.00000000000E+00 -0.12492694512E+04  0.12492694512E+04  0.50400001928E-02 0.  1.
    10030    2    1    2    0    0  0.00000000000E+00  0.00000000000E+00  0.14054257808E+04  0.39039646832E+04  0.36422134235E+04 0.  0.
        2    1    3    3  502    0 -0.32483749307E+03  0.12130919474E+04  0.21163241915E+04  0.24608818650E+04  0.25500000920E-02 0. -1.
       -2    1    3    3    0  502  0.32483749307E+03 -0.12130919474E+04 -0.71089841073E+03  0.14430828182E+04  0.25500000920E-02 0.  1.
</event>
<event>
 5   0  0.5158266E-07  0.3860840E+04  0.7818609E-02  0.8033223E-01
        2   -1    0    0  501    0  0.00000000000E+00  0.00000000000E+00  0.17810984089E+04  0.17810984089E+04  0.25500000920E-02 0. -1.
       -2   -1    0    0    0  501  0.00000000000E+00  0.00000000000E+00 -0.20922607254E+04  0.20922607254E+04  0.25500000920E-02 0.  1.
    10030    2    1    2    0    0  0.00000000000E+00  0.00000000000E+00 -0.31116231646E+03  0.38733591343E+04  0.38608404520E+04 0.  0.
        2    1    3    3  502    0 -0.19169535638E+04  0.19575815794E+03 -0.27210433601E+03  0.19460403366E+04  0.25500000920E-02 0.  1.
       -2    1    3    3    0  502  0.19169535638E+04 -0.19575815794E+03 -0.39057980450E+02  0.19273187977E+04  0.25500000920E-02 0. -1.
</event>
<event>
 5   0  0.1648000E-07  0.3738215E+04  0.7818609E-02  0.8059545E-01
       -1   -1    0    0    0  501  0.00000000000E+00  0.00000000000E+00  0.18887410784E+04  0.18887410784E+04  0.50400001928E-02 0. -1.
        1   -1    0    0  501    0  0.00000000000E+00  0.00000000000E+00 -0.18496775921E+04  0.18496775921E+04  0.50400001928E-02 0.  1.
    10030    2    1    2    0    0  0.00000000000E+00  0.00000000000E+00  0.39063486294E+02  0.37384186706E+04  0.37382145739E+04 0.  0.
        1    1    3    3  502    0 -0.17263991675E+04  0.59113217570E+03 -0.38505272004E+03  0.18649817511E+04  0.50400001928E-02 0.  1.
       -1    1    3    3    0  502  0.17263991675E+04 -0.59113217570E+03  0.42411620633E+03  0.18734369195E+04  0.50400001928E-02 0. -1.
</event>
<event>
 5   0  0.5158266E-07  0.3815163E+04  0.7818609E-02  0.8042909E-01
       -2   -1    0    0    0  501  0.00000000000E+00  0.00000000000E+00  0.12277285162E+04  0.12277285162E+04  0.25500000920E-02 0. -1.
        2   -1    0    0  501    0  0.00000000000E+00  0.00000000000E+00 -0.29639016733E+04  0.29639016733E+04  0.25500000920E-02 0.  1.
    10030    2    1    2    0    0  0.00000000000E+00  0.00000000000E+00 -0.17361731571E+04  0.41916301895E+04  0.38151626982E+04 0.  0.
        2    1    3    3  502    0  0.15541193281E+04  0.90611760742E+03 -0.17102788788E+03  0.18070933963E+04  0.25500000920E-02 0. -1.
       -2    1    3    3    0  502 -0.15541193281E+04 -0.90611760742E+03 -0.15651452693E+04  0.23845367932E+04  0.25500000920E-02 0.  1.
</event>
<event>
 5   0  0.5134434E-07  0.3796207E+04  0.7818609E-02  0.8046969E-01
        2   -1    0    0  501    0  0.00000000000E+00  0.00000000000E+00  0.22553445839E+04  0.22553445839E+04  0.25500000920E-02 0.  1.
       -2   -1    0    0    0  501  0.00000000000E+00  0.00000000000E+00 -0.15974487380E+04  0.15974487380E+04  0.25500000920E-02 0. -1.
    10030    2    1    2    0    0  0.00000000000E+00  0.00000000000E+00  0.65789584589E+03  0.38527933219E+04  0.37962072437E+04 0.  0.
        5    1    3    3  502    0 -0.13757311258E+04  0.33469963500E+03 -0.95406151968E+03  0.17073123468E+04  0.46999998093E+01 0. -1.
       -5    1    3    3    0  502  0.13757311258E+04 -0.33469963500E+03  0.16119573656E+04  0.21454809751E+04  0.46999998093E+01 0.  1.
</event>
<event>
 5   0  0.5134434E-07  0.3763089E+04  0.7818609E-02  0.8054123E-01
       -2   -1    0    0    0  501  0.00000000000E+00  0.00000000000E+00  0.28434520834E+04  0.28434520834E+04  0.25500000920E-02 0. -1.
        2   -1    0    0  501    0  0.00000000000E+00  0.00000000000E+00 -0.12450391017E+04  0.12450391017E+04  0.25500000920E-02 0.  1.
    10030    2    1    2    0    0  0.00000000000E+00  0.00000000000E+00  0.15984129817E+04  0.40884911851E+04  0.37630886397E+04 0.  0.
        5    1    3    3  502    0  0.75370209072E+03  0.16986849965E+04  0.47950038584E+03  0.19192551338E+04  0.46999998093E+01 0.  1.
       -5    1    3    3    0  502 -0.75370209072E+03 -0.16986849965E+04  0.11189125959E+04  0.21692360512E+04  0.46999998093E+01 0. -1.
</event>
<event>
 5   0  0.5134434E-07  0.3808928E+04  0.7818609E-02  0.8044242E-01
       -2   -1    0    0    0  501  0.00000000000E+00  0.00000000000E+00  0.27292892736E+04  0.27292892736E+04  0.25500000920E-02 0.  1.
        2   -1    0    0  501    0  0.00000000000E+00  0.00000000000E+00 -0.13289113989E+04  0.13289113989E+04  0.25500000920E-02 0. -1.
    10030    2    1    2    0    0  0.00000000000E+00  0.00000000000E+00  0.14003778747E+04  0.40582006726E+04  0.38089282622E+04 0.  0.
        5    1    3    3  502    0 -0.13578007737E+04  0.82283932103E+03 -0.42044065691E+03  0.16424006592E+04  0.46999998093E+01 0. -1.
       -5    1    3    3    0  502  0.13578007737E+04 -0.82283932103E+03  0.18208185316E+04  0.24158000134E+04  0.46999998093E+01 0.  1.
</event>
<event>
 5   0  0.1648000E-07  0.3250658E+04  0.7818609E-02  0.8175565E-01
        1   -1    0    0  501    0  0.00000000000E+00  0.00000000000E+00  0.10673689409E+04  0.10673689409E+04  0.50400001928E-02 0.  1.
       -1   -1    0    0    0  501  0.00000000000E+00  0.00000000000E+00 -0.24749587977E+04  0.24749587977E+04  0.50400001928E-02 0. -1.
    10030    2    1    2    0    0  0.00000000000E+00  0.00000000000E+00 -0.14075898568E+04  0.35423277386E+04  0.32506578723E+04 0.  0.
        3    1    3    3  502    0  0.12103671477E+04 -0.50155376004E+03  0.34435497165E+03  0.13546679162E+04  0.10100000352E+00 0.  1.
       -3    1    3    3    0  502 -0.12103671477E+04  0.50155376004E+03 -0.17519448284E+04  0.21876598224E+04  0.10100000352E+00 0. -1.
</event>
<event>
 5   0  0.1648000E-07  0.3845536E+04  0.7818609E-02  0.8036453E-01
       -1   -1    0    0    0  501  0.00000000000E+00  0.00000000000E+00  0.19197393267E+04  0.19197393267E+04  0.50400001928E-02 0.  1.
        1   -1    0    0  501    0  0.00000000000E+00  0.00000000000E+00 -0.19258009585E+04  0.19258009585E+04  0.50400001928E-02 0. -1.
    10030    2    1    2    0    0  0.00000000000E+00  0.00000000000E+00 -0.60616317767E+01  0.38455402853E+04  0.38455355079E+04 0.  0.
        3    1    3    3  502    0 -0.65878810031E+03 -0.13812292513E+04 -0.11671799416E+04  0.19246051626E+04  0.10100000352E+00 0. -1.
       -3    1    3    3    0  502  0.65878810031E+03  0.13812292513E+04  0.11611183098E+04  0.19209351226E+04  0.10100000352E+00 0.  1.
</event>
<event>
 5   0  0.1656617E-07  0.3979852E+04  0.7818609E-02  0.8008623E-01
       -1   -1    0    0    0  501  0.00000000000E+00  0.00000000000E+00  0.16951283083E+04  0.16951283083E+04  0.50400001928E-02 0. -1.
        1   -1    0    0  501    0  0.00000000000E+00  0.00000000000E+00 -0.23359918454E+04  0.23359918454E+04  0.50400001928E-02 0.  1.
    10030    2    1    2    0    0  0.00000000000E+00  0.00000000000E+00 -0.64086353710E+03  0.40311201538E+04  0.39798522110E+04 0.  0.
        5    1    3    3  502    0 -0.35480443415E+02  0.66809635976E+03  0.15777889049E+04  0.17137828119E+04  0.46999998093E+01 0. -1.
       -5    1    3    3    0  502  0.35480443415E+02 -0.66809635976E+03 -0.22186524420E+04  0.23173373419E+04  0.46999998093E+01 0.  1.
</event>
<event>
 5   0  0.5202788E-07  0.3788078E+04  0.7818609E-02  0.8048718E-01
       -2   -1    0    0    0  501  0.00000000000E+00  0.00000000000E+00  0.14355343335E+04  0.14355343336E+04  0.25500000920E-02 0.  1.
        2   -1    0    0  501    0  0.00000000000E+00  0.00000000000E+00 -0.24989889606E+04  0.24989889606E+04  0.25500000920E-02 0. -1.
    10030    2    1    2    0    0  0.00000000000E+00  0.00000000000E+00 -0.10634546271E+04  0.39345232942E+04  0.37880783794E+04 0.  0.
        1    1    3    3  502    0  0.96429751774E+03 -0.90905088913E+03  0.87378315650E+03  0.15873689635E+04  0.50400001928E-02 0.  1.
       -1    1    3    3    0  502 -0.96429751774E+03  0.90905088913E+03 -0.19372377836E+04  0.23471543306E+04  0.50400001928E-02 0. -1.
</event>
<event>
 5   0  0.1656617E-07  0.3785802E+04  0.7818609E-02  0.8049209E-01
       -1   -1    0    0    0  501  0.00000000000E+00  0.00000000000E+00  0.15010379987E+04  0.15010379987E+04  0.50400001928E-02 0.  1.
        1   -1    0    0  501    0  0.00000000000E+00  0.00000000000E+00 -0.23870639204E+04  0.23870639204E+04  0.50400001928E-02 0. -1.
    10030    2    1    2    0    0  0.00000000000E+00  0.00000000000E+00 -0.88602592172E+03  0.38881019191E+04  0.37858017116E+04 0.  0.
        5    1    3    3  502    0  0.41920473717E+03  0.13710750213E+03  0.14475225304E+04  0.15132331760E+04  0.46999998093E+01 0.  1.
       -5    1    3    3    0  502 -0.41920473717E+03 -0.13710750213E+03 -0.23335484521E+04  0.23748687432E+04  0.46999998093E+01 0. -1.
</event>
<event>
 5   0  0.5202788E-07  0.3787842E+04  0.7818609E-02  0.8048769E-01
       -2   -1    0    0    0  501  0.00000000000E+00  0.00000000000E+00  0.22974359062E+04  0.22974359062E+04  0.25500000920E-02 0.  1.
        2   -1    0    0  501    0  0.00000000000E+00  0.00000000000E+00 -0.15612784284E+04  0.15612784284E+04  0.25500000920E-02 0. -1.
    10030    2    1    2    0    0  0.00000000000E+00  0.00000000000E+00  0.73615747783E+03  0.38587143346E+04  0.37878421936E+04 0.  0.
        1    1    3    3  502    0 -0.18839011896E+04 -0.19445999658E+03  0.37441922473E+03  0.19305667920E+04  0.50400001928E-02 0. -1.
       -1    1    3    3    0  502  0.18839011896E+04  0.19445999658E+03  0.36173825310E+03  0.19281475426E+04  0.50400001928E-02 0.  1.
</event>
<event>
 5   0  0.5132561E-07  0.3826749E+04  0.7818609E-02  0.8040439E-01
       -2   -1    0    0    0  501  0.00000000000E+00  0.00000000000E+00  0.15102634900E+04  0.15102634900E+04  0.25500000920E-02 0. -1.
        2   -1    0    0  501    0  0.00000000000E+00  0.00000000000E+00 -0.24240816519E+04  0.24240816519E+04  0.25500000920E-02 0.  1.
    10030    2    1    2    0    0  0.00000000000E+00  0.00000000000E+00 -0.91381816185E+03  0.39343451419E+04  0.38267490201E+04 0.  0.
        3    1    3    3  502    0 -0.97668908923E+03  0.10925397328E+04  0.80789920374E+03  0.16733994677E+04  0.10100000352E+00 0. -1.
       -3    1    3    3    0  502  0.97668908923E+03 -0.10925397328E+04 -0.17217173656E+04  0.22609456743E+04  0.10100000352E+00 0.  1.
</event>
<event>
 5   0  0.5158266E-07  0.3782970E+04  0.7818609E-02  0.8049819E-01
       -2   -1    0    0    0  501  0.00000000000E+00  0.00000000000E+00  0.23750396801E+04  0.23750396801E+04  0.25500000920E-02 0. -1.
        2   -1    0    0  501    0  0.00000000000E+00  0.00000000000E+00 -0.15063810962E+04  0.15063810962E+04  0.25500000920E-02 0.  1.
    10030    2    1    2    0    0  0.00000000000E+00  0.00000000000E+00  0.86865858394E+03  0.38814207763E+04  0.37829696678E+04 0.  0.
        2    1    3    3  502    0 -0.12357588370E+04 -0.12971682847E+04 -0.18806231591E+03  0.18014196892E+04  0.25500000920E-02 0.  1.
       -2    1    3    3    0  502  0.12357588370E+04  0.12971682847E+04  0.10567208998E+04  0.20800010871E+04  0.25500000920E-02 0. -1.
</event>
<event>
 5   0  0.1648000E-07  0.3779945E+04  0.7818609E-02  0.8050472E-01
       -1   -1    0    0    0  501  0.00000000000E+00  0.00000000000E+00  0.24275927279E+04  0.24275927279E+04  0.50400001928E-02 0. -1.
        1   -1    0    0  501    0  0.00000000000E+00  0.00000000000E+00 -0.14714150760E+04  0.14714150760E+04  0.50400001928E-02 0.  1.
    10030    2    1    2    0    0  0.00000000000E+00  0.00000000000E+00  0.95617765197E+03  0.38990078039E+04  0.37799452579E+04 0.  0.
        2    1    3    3  502    0  0.76332161189E+03 -0.29598977420E+03 -0.12790126667E+04  0.15185991015E+04  0.25500000920E-02 0.  1.
       -2    1    3    3    0  502 -0.76332161189E+03  0.29598977420E+03  0.22351903187E+04  0.23804087024E+04  0.25500000920E-02 0. -1.
</event>
<event>
 5   0  0.5134434E-07  0.3786533E+04  0.7818609E-02  0.8049051E-01
       -2   -1    0    0    0  501  0.00000000000E+00  0.00000000000E+00  0.16278366450E+04  0.16278366450E+04  0.25500000920E-02 0. -1.
        2   -1    0    0  501    0  0.00000000000E+00  0.00000000000E+00 -0.22019759369E+04  0.22019759369E+04  0.25500000920E-02 0.  1.
    10030    2    1    2    0    0  0.00000000000E+00  0.00000000000E+00 -0.57413929189E+03  0.38298125820E+04  0.37865325149E+04 0.  0.
        5    1    3    3  502    0 -0.55052991582E+03 -0.15664598479E+04 -0.12071682388E+04  0.20528411751E+04  0.46999998093E+01 0.  1.
       -5    1    3    3    0  502  0.55052991582E+03  0.15664598479E+04  0.63302894689E+03  0.17769714069E+04  0.46999998093E+01 0. -1.
</event>
<event>
 5   0  0.5134434E-07  0.3794765E+04  0.7818609E-02  0.8047279E-01
        2   -1    0    0  501    0  0.00000000000E+00  0.00000000000E+00  0.16473673064E+04  0.16473673064E+04  0.25500000920E-02 0. -1.
       -2   -1    0    0    0  501  0.00000000000E+00  0.00000000000E+00 -0.21853420602E+04  0.21853420602E+04  0.25500000920E-02 0.  1.
    10030    2    1    2    0    0  0.00000000000E+00  0.00000000000E+00 -0.53797475377E+03  0.38327093667E+04  0.37947653753E+04 0.  0.
        5    1    3    3  502    0 -0.18551209112E+04  0.64327258811E+02 -0.66588921779E+03  0.19720654481E+04  0.46999998093E+01 0.  1.
       -5    1    3    3    0  502  0.18551209112E+04 -0.64327258811E+02  0.12791446402E+03  0.18606439185E+04  0.46999998093E+01 0. -1.
</event>
<event>
 5   0  0.5202788E-07  0.3199500E+04  0.7818609E-02  0.8188949E-01
        2   -1    0    0  501    0  0.00000000000E+00  0.00000000000E+00  0.25753964184E+04  0.25753964184E+04  0.25500000920E-02 0.  1.
       -2   -1    0    0    0  501  0.00000000000E+00  0.00000000000E+00 -0.99371126897E+03  0.99371126897E+03  0.25500000920E-02 0. -1.
    10030    2    1    2    0    0  0.00000000000E+00  0.00000000000E+00  0.15816851494E+04  0.35691076874E+04  0.31995002379E+04 0.  0.
        1    1    3    3  502    0 -0.19945259447E+03 -0.13435547455E+04 -0.15194027656E+03  0.13667503573E+04  0.50400001928E-02 0. -1.
       -1    1    3    3    0  502  0.19945259447E+03  0.13435547455E+04  0.17336254260E+04  0.22023573300E+04  0.50400001928E-02 0.  1.
</event>
<event>
 5   0  0.5325362E-07  0.3796431E+04  0.7818609E-02  0.8046921E-01
        2   -1    0    0  501    0  0.00000000000E+00  0.00000000000E+00  0.24764415153E+04  0.24764415153E+04  0.25500000920E-02 0.  1.
       -2   -1    0    0    0  501  0.00000000000E+00  0.00000000000E+00 -0.14550001286E+04  0.14550001286E+04  0.25500000920E-02 0. -1.
    10030    2    1    2    0    0  0.00000000000E+00  0.00000000000E+00  0.10214413868E+04  0.39314416439E+04  0.37964313365E+04 0.  0.
        4    1    3    3  502    0  0.16397064717E+03  0.50314727121E+03  0.23985079821E+04  0.24561933358E+04  0.12699999809E+01 0.  1.
       -4    1    3    3    0  502 -0.16397064717E+03 -0.50314727121E+03 -0.13770665953E+04  0.14752483081E+04  0.12699999809E+01 0. -1.
</event>
<event>
 5   0  0.1648000E-07  0.3774302E+04  0.7818609E-02  0.8051692E-01
        1   -1    0    0  501    0  0.00000000000E+00  0.00000000000E+00  0.21900015962E+04  0.21900015962E+04  0.50400001928E-02 0.  1.
       -1   -1    0    0    0  501  0.00000000000E+00  0.00000000000E+00 -0.16261813197E+04  0.16261813197E+04  0.50400001928E-02 0. -1.
    10030    2    1    2    0    0  0.00000000000E+00  0.00000000000E+00  0.56382027646E+03  0.38161829159E+04  0.37743024181E+04 0.  0.
        2    1    3    3  502    0  0.55715644749E+03  0.13397909075E+04  0.15018959668E+04  0.20883377308E+04  0.25500000920E-02 0.  1.
       -2    1    3    3    0  502 -0.55715644749E+03 -0.13397909075E+04 -0.93807569036E+03  0.17278451851E+04  0.25500000920E-02 0. -1.
</event>
<event>
 5   0  0.1648000E-07  0.3791833E+04  0.7818609E-02  0.8047910E-01
       -1   -1    0    0    0  501  0.00000000000E+00  0.00000000000E+00  0.17232575340E+04  0.17232575340E+04  0.50400001928E-02 0.  1.
        1   -1    0    0  501    0  0.00000000000E+00  0.00000000000E+00 -0.20858752722E+04  0.20858752722E+04  0.50400001928E-02 0. -1.
    10030    2    1    2    0    0  0.00000000000E+00  0.00000000000E+00 -0.36261773827E+03  0.38091328062E+04  0.37918334762E+04 0.  0.
        2    1    3    3  502    0  0.47719936007E+03 -0.11716190859E+04 -0.15998737719E+04  0.20396094228E+04  0.25500000920E-02 0. -1.
       -2    1    3    3    0  502 -0.47719936007E+03  0.11716190859E+04  0.12372560336E+04  0.17695233834E+04  0.25500000920E-02 0.  1.
</event>
<event>
 5   0  0.5134434E-07  0.3620699E+04  0.7818609E-02  0.8085767E-01
       -2   -1    0    0    0  501  0.00000000000E+00  0.00000000000E+00  0.16061002929E+04  0.16061002929E+04  0.25500000920E-02 0.  1.
        2   -1    0    0  501    0  0.00000000000E+00  0.00000000000E+00 -0.20405728945E+04  0.20405728945E+04  0.25500000920E-02 0. -1.
    10030    2    1    2    0    0  0.00000000000E+00  0.00000000000E+00 -0.43447260158E+03  0.36466731873E+04  0.36206986748E+04 0.  0.
        5    1    3    3  502    0  0.16529265742E+04  0.73179535630E+03 -0.31618533154E+03  0.18351255971E+04  0.46999998093E+01 0. -1.
       -5    1    3    3    0  502 -0.16529265742E+04 -0.73179535630E+03 -0.11828727004E+03  0.18115475902E+04  0.46999998093E+01 0.  1.
</event>
<event>
 5   0  0.5132561E-07  0.3797215E+04  0.7818609E-02  0.8046753E-01
       -2   -1    0    0    0  501  0.00000000000E+00  0.00000000000E+00  0.17701110335E+04  0.17701110335E+04  0.25500000920E-02 0. -1.
        2   -1    0    0  501    0  0.00000000000E+00  0.00000000000E+00 -0.20364319846E+04  0.20364319846E+04  0.25500000920E-02 0.  1.
    10030    2    1    2    0    0  0.00000000000E+00  0.00000000000E+00 -0.26632095114E+03  0.38065430181E+04  0.37972151506E+04 0.  0.
        3    1    3    3  502    0  0.80572608183E+03 -0.16765254312E+04 -0.51459309903E+03  0.19299580587E+04  0.10100000352E+00 0. -1.
       -3    1    3    3    0  502 -0.80572608183E+03  0.16765254312E+04  0.24827214788E+03  0.18765849595E+04  0.10100000352E+00 0.  1.
</event>
<event>
 5   0  0.1648000E-07  0.3815265E+04  0.7818609E-02  0.8042887E-01
        1   -1    0    0  501    0  0.00000000000E+00  0.00000000000E+00  0.29888168690E+04  0.29888168690E+04  0.50400001928E-02 0.  1.
       -1   -1    0    0    0  501  0.00000000000E+00  0.00000000000E+00 -0.12175591673E+04  0.12175591673E+04  0.50400001928E-02 0. -1.
    10030    2    1    2    0    0  0.00000000000E+00  0.00000000000E+00  0.17712577017E+04  0.42063760363E+04  0.38152648024E+04 0.  0.
        2    1    3    3  502    0 -0.13482318518E+04 -0.78817942850E+03  0.20934235268E+04  0.26117767899E+04  0.25500000920E-02 0.  1.
       -2    1    3    3    0  502  0.13482318518E+04  0.78817942850E+03 -0.32216582513E+03  0.15945992464E+04  0.25500000920E-02 0. -1.
</event>
<event>
 5   0  0.5325362E-07  0.3862993E+04  0.7818609E-02  0.8032770E-01
       -2   -1    0    0    0  501  0.00000000000E+00  0.00000000000E+00  0.15119817620E+04  0.15119817620E+04  0.25500000920E-02 0.  1.
        2   -1    0    0  501    0  0.00000000000E+00  0.00000000000E+00 -0.24674099681E+04  0.24674099681E+04  0.25500000920E-02 0. -1.
    10030    2    1    2    0    0  0.00000000000E+00  0.00000000000E+00 -0.95542820611E+03  0.39793917300E+04  0.38629930733E+04 0.  0.
        4    1    3    3  502    0 -0.79457263005E+03  0.91911730814E+02  0.13333511768E+04  0.15548698994E+04  0.12699999809E+01 0.  1.
       -4    1    3    3    0  502  0.79457263005E+03 -0.91911730814E+02 -0.22887793829E+04  0.24245218306E+04  0.12699999809E+01 0. -1.
</event>
<event>
 5   0  0.1648000E-07  0.2725822E+04  0.7818609E-02  0.8326675E-01
       -1   -1    0    0    0  501  0.00000000000E+00  0.00000000000E+00  0.90210820597E+03  0.90210820598E+03  0.50400001928E-02 0.  1.
        1   -1    0    0  501    0  0.00000000000E+00  0.00000000000E+00 -0.20590947922E+04  0.20590947922E+04  0.50400001928E-02 0. -1.
    10030    2    1    2    0    0  0.00000000000E+00  0.00000000000E+00 -0.11569865862E+04  0.29612029982E+04  0.27258219376E+04 0.  0.
        4    1    3    3  502    0 -0.10770951648E+04  0.44513218654E+03  0.18909595297E+03  0.11806928262E+04  0.12699999809E+01 0.  1.
       -4    1    3    3    0  502  0.10770951648E+04 -0.44513218654E+03 -0.13460825392E+04  0.17805101720E+04  0.12699999809E+01 0. -1.
</event>
<event>
 5   0  0.1648000E-07  0.3811472E+04  0.7818609E-02  0.8043697E-01
       -1   -1    0    0    0  501  0.00000000000E+00  0.00000000000E+00  0.12021652828E+04  0.12021652828E+04  0.50400001928E-02 0.  1.
        1   -1    0    0  501    0  0.00000000000E+00  0.00000000000E+00 -0.30210738034E+04  0.30210738034E+04  0.50400001928E-02 0. -1.
    10030    2    1    2    0    0  0.00000000000E+00  0.00000000000E+00 -0.18189085206E+04  0.42232390862E+04  0.38114721792E+04 0.  0.
        3    1    3    3  502    0 -0.11242307781E+04  0.57438811690E+01 -0.26144951348E+04  0.28459642750E+04  0.10100000352E+00 0. -1.
       -3    1    3    3    0  502  0.11242307781E+04 -0.57438811690E+01  0.79558661419E+03  0.13772748112E+04  0.10100000352E+00 0.  1.
</event>
<event>
 5   0  0.5202788E-07  0.3799628E+04  0.7818609E-02  0.8046235E-01
        2   -1    0    0  501    0  0.00000000000E+00  0.00000000000E+00  0.10372639214E+04  0.10372639214E+04  0.25500000920E-02 0.  1.
       -2   -1    0    0    0  501  0.00000000000E+00  0.00000000000E+00 -0.34796287683E+04  0.34796287683E+04  0.25500000920E-02 0. -1.
    10030    2    1    2    0    0  0.00000000000E+00  0.00000000000E+00 -0.24423648469E+04  0.45168926897E+04  0.37996280771E+04 0.  0.
        1    1    3    3  502    0 -0.13792631254E+04 -0.10553744822E+04 -0.21367002162E+04  0.27534832269E+04  0.50400001928E-02 0. -1.
       -1    1    3    3    0  502  0.13792631254E+04  0.10553744822E+04 -0.30566463065E+03  0.17634094627E+04  0.50400001928E-02 0.  1.
</event>
<event>
 5   0  0.1648000E-07  0.3762766E+04  0.7818609E-02  0.8054193E-01
        1   -1    0    0  501    0  0.00000000000E+00  0.00000000000E+00  0.15309369810E+04  0.15309369810E+04  0.50400001928E-02 0.  1.
       -1   -1    0    0    0  501  0.00000000000E+00  0.00000000000E+00 -0.23120489427E+04  0.23120489427E+04  0.50400001928E-02 0. -1.
    10030    2    1    2    0    0  0.00000000000E+00  0.00000000000E+00 -0.78111196164E+03  0.38429859237E+04  0.37627655937E+04 0.  0.
        2    1    3    3  502    0 -0.52411498001E+03  0.93816809511E+03 -0.19677409662E+04  0.22420661001E+04  0.25500000920E-02 0. -1.
       -2    1    3    3    0  502  0.52411498001E+03 -0.93816809511E+03  0.11866290046E+04  0.16009198236E+04  0.25500000920E-02 0.  1.
</event>
<event>
 5   0  0.5202788E-07  0.3738641E+04  0.7818609E-02  0.8059452E-01
        2   -1    0    0  501    0  0.00000000000E+00  0.00000000000E+00  0.17225142534E+04  0.17225142534E+04  0.25500000920E-02 0.  1.
       -2   -1    0    0    0  501  0.00000000000E+00  0.00000000000E+00 -0.20286389885E+04  0.20286389885E+04  0.25500000920E-02 0. -1.
    10030    2    1    2    0    0  0.00000000000E+00  0.00000000000E+00 -0.30612473516E+03  0.37511532419E+04  0.37386412359E+04 0.  0.
        1    1    3    3  502    0  0.99504502978E+03 -0.10189827461E+04  0.10617410915E+04  0.17764387390E+04  0.50400001928E-02 0.  1.
       -1    1    3    3    0  502 -0.99504502978E+03  0.10189827461E+04 -0.13678658266E+04  0.19747145029E+04  0.50400001928E-02 0. -1.
</event>
<event>
 5   0  0.5132561E-07  0.3536340E+04  0.7818609E-02  0.8105231E-01
        2   -1    0    0  501    0  0.00000000000E+00  0.00000000000E+00  0.17897373007E+04  0.17897373007E+04  0.25500000920E-02 0. -1.
       -2   -1    0    0    0  501  0.00000000000E+00  0.00000000000E+00 -0.17468624845E+04  0.17468624845E+04  0.25500000920E-02 0.  1.
    10030    2    1    2    0    0  0.00000000000E+00  0.00000000000E+00  0.42874816149E+02  0.35365997852E+04  0.35363398862E+04 0.  0.
        3    1    3    3  502    0  0.14927946042E+04  0.80994162300E+03  0.51339202432E+03  0.17742639442E+04  0.10100000352E+00 0. -1.
       -3    1    3    3    0  502 -0.14927946042E+04 -0.80994162300E+03 -0.47051720817E+03  0.17623358409E+04  0.10100000352E+00 0.  1.
</event>
<event>
 5   0  0.1648000E-07  0.3246960E+04  0.7818609E-02  0.8176524E-01
        1   -1    0    0  501    0  0.00000000000E+00  0.00000000000E+00  0.93227669587E+03  0.93227669588E+03  0.50400001928E-02 0.  1.
       -1   -1    0    0    0  501  0.00000000000E+00  0.00000000000E+00 -0.28271505748E+04  0.28271505748E+04  0.50400001928E-02 0. -1.
    10030    2    1    2    0    0  0.00000000000E+00  0.00000000000E+00 -0.18948738790E+04  0.37594272707E+04  0.32469595604E+04 0.  0.
        1    1    3    3  502    0 -0.66611094328E+02 -0.15006783126E+04 -0.16604329194E+04  0.22390868486E+04  0.50400001928E-02 0. -1.
       -1    1    3    3    0  502  0.66611094328E+02  0.15006783126E+04 -0.23444095958E+03  0.15203404221E+04  0.50400001928E-02 0.  1.
</event>
<event>
 5   0  0.1648000E-07  0.3826038E+04  0.7818609E-02  0.8040590E-01
        1   -1    0    0  501    0  0.00000000000E+00  0.00000000000E+00  0.30614200857E+04  0.30614200857E+04  0.50400001928E-02 0.  1.
       -1   -1    0    0    0  501  0.00000000000E+00  0.00000000000E+00 -0.11954063135E+04  0.11954063135E+04  0.50400001928E-02 0. -1.
    10030    2    1    2    0    0  0.00000000000E+00  0.00000000000E+00  0.18660137723E+04  0.42568263992E+04  0.38260375841E+04 0.  0.
        1    1    3    3  502    0 -0.10329811343E+03 -0.13389832712E+04  0.24487887760E+04  0.27928682694E+04  0.50400001928E-02 0.  1.
       -1    1    3    3    0  502  0.10329811343E+03  0.13389832712E+04 -0.58277500370E+03  0.14639581298E+04  0.50400001928E-02 0. -1.
</event>
<event>
 5   0  0.5202788E-07  0.3498105E+04  0.7818609E-02  0.8114239E-01
        2   -1    0    0  501    0  0.00000000000E+00  0.00000000000E+00  0.23630718895E+04  0.23630718895E+04  0.25500000920E-02 0.  1.
       -2   -1    0    0    0  501  0.00000000000E+00  0.00000000000E+00 -0.12945799529E+04  0.12945799529E+04  0.25500000920E-02 0. -1.
    10030    2    1    2    0    0  0.00000000000E+00  0.00000000000E+00  0.10684919366E+04  0.36576518423E+04  0.34981054845E+04 0.  0.
        1    1    3    3  502    0  0.14042011952E+04  0.28886616307E+03  0.15819240283E+04  0.21348789868E+04  0.50400001928E-02 0.  1.
       -1    1    3    3    0  502 -0.14042011952E+04 -0.28886616307E+03 -0.51343209173E+03  0.15227728555E+04  0.50400001928E-02 0. -1.
</event>
<event>
 5   0  0.1648000E-07  0.3789938E+04  0.7818609E-02  0.8048318E-01
       -1   -1    0    0    0  501  0.00000000000E+00  0.00000000000E+00  0.26797874933E+04  0.26797874933E+04  0.50400001928E-02 0.  1.
        1   -1    0    0  501    0  0.00000000000E+00  0.00000000000E+00 -0.13399972806E+04  0.13399972806E+04  0.50400001928E-02 0. -1.
    10030    2    1    2    0    0  0.00000000000E+00  0.00000000000E+00  0.13397902127E+04  0.40197847739E+04  0.37899382336E+04 0.  0.
        2    1    3    3  502    0 -0.16108152693E+04 -0.99490362050E+03  0.58538275633E+03  0.19817245059E+04  0.25500000920E-02 0. -1.
       -2    1    3    3    0  502  0.16108152693E+04  0.99490362050E+03  0.75440745637E+03  0.20380602680E+04  0.25500000920E-02 0.  1.
</event>
<event>
 5   0  0.1648000E-07  0.3507561E+04  0.7818609E-02  0.8112000E-01
       -1   -1    0    0    0  501  0.00000000000E+00  0.00000000000E+00  0.30970306651E+04  0.30970306651E+04  0.50400001928E-02 0. -1.
        1   -1    0    0  501    0  0.00000000000E+00  0.00000000000E+00 -0.99312733223E+03  0.99312733225E+03  0.50400001928E-02 0.  1.
    10030    2    1    2    0    0  0.00000000000E+00  0.00000000000E+00  0.21039033329E+04  0.40901579974E+04  0.35075608632E+04 0.  0.
        1    1    3    3  502    0  0.34258033758E+03  0.11152003289E+04  0.25789218481E+04  0.28305248559E+04  0.50400001928E-02 0. -1.
       -1    1    3    3    0  502 -0.34258033758E+03 -0.11152003289E+04 -0.47501851520E+03  0.12596331415E+04  0.50400001928E-02 0.  1.
</event>
<event>
 5   0  0.5132561E-07  0.3784327E+04  0.7818609E-02  0.8049527E-01
       -2   -1    0    0    0  501  0.00000000000E+00  0.00000000000E+00  0.15745279872E+04  0.15745279872E+04  0.25500000920E-02 0.  1.
        2   -1    0    0  501    0  0.00000000000E+00  0.00000000000E+00 -0.22738767245E+04  0.22738767245E+04  0.25500000920E-02 0. -1.
    10030    2    1    2    0    0  0.00000000000E+00  0.00000000000E+00 -0.69934873730E+03  0.38484047118E+04  0.37843269110E+04 0.  0.
        3    1    3    3  502    0 -0.77530334626E+02  0.15078706993E+04  0.81007342410E+03  0.17134479745E+04  0.10100000352E+00 0.  1.
       -3    1    3    3    0  502  0.77530334626E+02 -0.15078706993E+04 -0.15094221614E+04  0.21349567373E+04  0.10100000352E+00 0. -1.
</event>
<event>
 5   0  0.1648000E-07  0.3792602E+04  0.7818609E-02  0.8047744E-01
        1   -1    0    0  501    0  0.00000000000E+00  0.00000000000E+00  0.14614408382E+04  0.14614408382E+04  0.50400001928E-02 0. -1.
       -1   -1    0    0    0  501  0.00000000000E+00  0.00000000000E+00 -0.24605565118E+04  0.24605565118E+04  0.50400001928E-02 0.  1.
    10030    2    1    2    0    0  0.00000000000E+00  0.00000000000E+00 -0.99911567359E+03  0.39219973499E+04  0.37926021521E+04 0.  0.
        4    1    3    3  502    0 -0.24985677876E+03 -0.41786070697E+03 -0.23948224346E+04  0.24438109760E+04  0.12699999809E+01 0.  1.
       -4    1    3    3    0  502  0.24985677876E+03  0.41786070697E+03  0.13957067610E+04  0.14781863739E+04  0.12699999809E+01 0. -1.
</event>
<event>
 5   0  0.1648000E-07  0.3812890E+04  0.7818609E-02  0.8043394E-01
        1   -1    0    0  501    0  0.00000000000E+00  0.00000000000E+00  0.17374006891E+04  0.17374006891E+04  0.50400001928E-02 0.  1.
       -1   -1    0    0    0  501  0.00000000000E+00  0.00000000000E+00 -0.20919365626E+04  0.20919365626E+04  0.50400001928E-02 0. -1.
    10030    2    1    2    0    0  0.00000000000E+00  0.00000000000E+00 -0.35453587346E+03  0.38293372517E+04  0.38128897311E+04 0.  0.
        1    1    3    3  502    0  0.39551418797E+03 -0.19135822408E+03 -0.20403936468E+04  0.20871645064E+04  0.50400001928E-02 0. -1.
       -1    1    3    3    0  502 -0.39551418797E+03  0.19135822408E+03  0.16858577733E+04  0.17421727454E+04  0.50400001928E-02 0.  1.
</event>
<event>
 5   0  0.1648000E-07  0.3770198E+04  0.7818609E-02  0.8052581E-01
        1   -1    0    0  501    0  0.00000000000E+00  0.00000000000E+00  0.17853892540E+04  0.17853892540E+04  0.50400001928E-02 0. -1.
       -1   -1    0    0    0  501  0.00000000000E+00  0.00000000000E+00 -0.19903776124E+04  0.19903776124E+04  0.50400001928E-02 0.  1.
    10030    2    1    2    0    0  0.00000000000E+00  0.00000000000E+00 -0.20498835834E+03  0.37757668664E+04  0.37701982975E+04 0.  0.
        1    1    3    3  502    0  0.10029094433E+04  0.16227734133E+03 -0.16927430031E+04  0.19742188737E+04  0.50400001928E-02 0.  1.
       -1    1    3    3    0  502 -0.10029094433E+04 -0.16227734133E+03  0.14877546448E+04  0.18015479927E+04  0.50400001928E-02 0. -1.
</event>
<event>
 5   0  0.5158266E-07  0.3770680E+04  0.7818609E-02  0.8052476E-01
        2   -1    0    0  501    0  0.00000000000E+00  0.00000000000E+00  0.11488519667E+04  0.11488519667E+04  0.25500000920E-02 0.  1.
       -2   -1    0    0    0  501  0.00000000000E+00  0.00000000000E+00 -0.30939646998E+04  0.30939646998E+04  0.25500000920E-02 0. -1.
    10030    2    1    2    0    0  0.00000000000E+00  0.00000000000E+00 -0.19451127330E+04  0.42428166665E+04  0.37706802730E+04 0.  0.
        2    1    3    3  502    0  0.14405207364E+04 -0.11993343901E+04 -0.74470580695E+03  0.20169505969E+04  0.25500000920E-02 0. -1.
       -2    1    3    3    0  502 -0.14405207364E+04  0.11993343901E+04 -0.12004069261E+04  0.22258660696E+04  0.25500000920E-02 0.  1.
</event>
<event>
 5   0  0.5325362E-07  0.3247167E+04  0.7818609E-02  0.8176471E-01
        2   -1    0    0  501    0  0.00000000000E+00  0.00000000000E+00  0.13923517786E+04  0.13923517786E+04  0.25500000920E-02 0. -1.
       -2   -1    0    0    0  501  0.00000000000E+00  0.00000000000E+00 -0.18932159435E+04  0.18932159435E+04  0.25500000920E-02 0.  1.
    10030    2    1    2    0    0  0.00000000000E+00  0.00000000000E+00 -0.50086416487E+03  0.32855677221E+04  0.32471665102E+04 0.  0.
        4    1    3    3  502    0  0.64092056340E+02  0.14200341089E+04 -0.10441941947E+04  0.17637879100E+04  0.12699999809E+01 0.  1.
       -4    1    3    3    0  502 -0.64092056340E+02 -0.14200341089E+04  0.54333002984E+03  0.15217798121E+04  0.12699999809E+01 0. -1.
</event>
<event>
 5   0  0.5132561E-07  0.3784859E+04  0.7818609E-02  0.8049412E-01
       -2   -1    0    0    0  501  0.00000000000E+00  0.00000000000E+00  0.13928868038E+04  0.13928868038E+04  0.25500000920E-02 0.  1.
        2   -1    0    0  501    0  0.00000000000E+00  0.00000000000E+00 -0.25711277936E+04  0.25711277936E+04  0.25500000920E-02 0. -1.
    10030    2    1    2    0    0  0.00000000000E+00  0.00000000000E+00 -0.11782409898E+04  0.39640145973E+04  0.37848592970E+04 0.  0.
        3    1    3    3  502    0  0.95883493196E+03 -0.68291069447E+03  0.96275907091E+03  0.15207355070E+04  0.10100000352E+00 0.  1.
       -3    1    3    3    0  502 -0.95883493196E+03  0.68291069447E+03 -0.21410000607E+04  0.24432790904E+04  0.10100000352E+00 0. -1.
</event>
<event>
 5   0  0.1648000E-07  0.3818942E+04  0.7818609E-02  0.8042102E-01
        1   -1    0    0  501    0  0.00000000000E+00  0.00000000000E+00  0.18303076662E+04  0.18303076662E+04  0.50400001928E-02 0.  1.
       -1   -1    0    0    0  501  0.00000000000E+00  0.00000000000E+00 -0.19920578336E+04  0.19920578336E+04  0.50400001928E-02 0. -1.
    10030    2    1    2    0    0  0.00000000000E+00  0.00000000000E+00 -0.16175016740E+03  0.38223654997E+04  0.38189415938E+04 0.  0.
        3    1    3    3  502    0  0.64407775947E+03 -0.13723933491E+04 -0.12428547991E+04  0.19603539800E+04  0.10100000352E+00 0. -1.
       -3    1    3    3    0  502 -0.64407775947E+03  0.13723933491E+04  0.10811046317E+04  0.18620115198E+04  0.10100000352E+00 0.  1.
</event>
<event>
 5   0  0.5134434E-07  0.3837333E+04  0.7818609E-02  0.8038191E-01
       -2   -1    0    0    0  501  0.00000000000E+00  0.00000000000E+00  0.26501307624E+04  0.26501307624E+04  0.25500000920E-02 0.  1.
        2   -1    0    0  501    0  0.00000000000E+00  0.00000000000E+00 -0.13890938191E+04  0.13890938191E+04  0.25500000920E-02 0. -1.
    10030    2    1    2    0    0  0.00000000000E+00  0.00000000000E+00  0.12610369433E+04  0.40392245815E+04  0.38373325433E+04 0.  0.
        5    1    3    3  502    0  0.14394451932E+04  0.97252503913E+03  0.14878976068E+04  0.22872841525E+04  0.46999998093E+01 0.  1.
       -5    1    3    3    0  502 -0.14394451932E+04 -0.97252503913E+03 -0.22686066354E+03  0.17519404290E+04  0.46999998093E+01 0. -1.
</event>
<event>
 5   0  0.5158266E-07  0.3811277E+04  0.7818609E-02  0.8043739E-01
        2   -1    0    0  501    0  0.00000000000E+00  0.00000000000E+00  0.23094852727E+04  0.23094852727E+04  0.25500000920E-02 0. -1.
       -2   -1    0    0    0  501  0.00000000000E+00  0.00000000000E+00 -0.15724104210E+04  0.15724104210E+04  0.25500000920E-02 0.  1.
    10030    2    1    2    0    0  0.00000000000E+00  0.00000000000E+00  0.73707485172E+03  0.38818956937E+04  0.38112773239E+04 0.  0.
        2    1    3    3  502    0  0.77450946231E+03 -0.67307501763E+03 -0.12670066543E+04  0.16303989538E+04  0.25500000920E-02 0.  1.
       -2    1    3    3    0  502 -0.77450946231E+03  0.67307501763E+03  0.20040815060E+04  0.22514967398E+04  0.25500000920E-02 0. -1.
</event>
<event>
 5   0  0.1648000E-07  0.3800444E+04  0.7818609E-02  0.8046060E-01
        1   -1    0    0  501    0  0.00000000000E+00  0.00000000000E+00  0.30587218127E+04  0.30587218127E+04  0.50400001928E-02 0. -1.
       -1   -1    0    0    0  501  0.00000000000E+00  0.00000000000E+00 -0.11805076698E+04  0.11805076698E+04  0.50400001928E-02 0.  1.
    10030    2    1    2    0    0  0.00000000000E+00  0.00000000000E+00  0.18782141429E+04  0.42392294826E+04  0.38004444791E+04 0.  0.
        3    1    3    3  502    0 -0.86699405968E+03 -0.16762242139E+03 -0.93773499575E+03  0.12880694500E+04  0.10100000352E+00 0.  1.
       -3    1    3    3    0  502  0.86699405968E+03  0.16762242139E+03  0.28159491387E+04  0.29511600325E+04  0.10100000352E+00 0. -1.
</event>
<event>
 5   0  0.5134434E-07  0.3829195E+04  0.7818609E-02  0.8039919E-01
       -2   -1    0    0    0  501  0.00000000000E+00  0.00000000000E+00  0.16006602236E+04  0.16006602236E+04  0.25500000920E-02 0. -1.
        2   -1    0    0  501    0  0.00000000000E+00  0.00000000000E+00 -0.22901067294E+04  0.22901067294E+04  0.25500000920E-02 0.  1.
    10030    2    1    2    0    0  0.00000000000E+00  0.00000000000E+00 -0.68944650576E+03  0.38907669530E+04  0.38291945626E+04 0.  0.
        5    1    3    3  502    0  0.89795047667E+03 -0.18624839313E+02  0.13733226576E+04  0.16409445923E+04  0.46999998093E+01 0. -1.
       -5    1    3    3    0  502 -0.89795047667E+03  0.18624839313E+02 -0.20627691634E+04  0.22498223607E+04  0.46999998093E+01 0.  1.
</event>
<event>
 5   0  0.1648000E-07  0.3037472E+04  0.7818609E-02  0.8233111E-01
       -3   -1    0    0    0  501  0.00000000000E+00  0.00000000000E+00  0.14663227073E+04  0.14663227108E+04  0.10100000352E+00 0.  1.
        3   -1    0    0  501    0  0.00000000000E+00  0.00000000000E+00 -0.15730227928E+04  0.15730227960E+04  0.10100000352E+00 0. -1.
    10030    2    1    2    0    0  0.00000000000E+00  0.00000000000E+00 -0.10670008548E+03  0.30393455068E+04  0.30374720083E+04 0.  0.
        3    1    3    3  502    0 -0.35500827719E+03 -0.11950607380E+04 -0.92127076711E+03  0.15501422131E+04  0.10100000352E+00 0. -1.
       -3    1    3    3    0  502  0.35500827719E+03  0.11950607380E+04  0.81457068163E+03  0.14892032937E+04  0.10100000352E+00 0.  1.
</event>
<event>
 5   0  0.5134434E-07  0.3785090E+04  0.7818609E-02  0.8049362E-01
        2   -1    0    0  501    0  0.00000000000E+00  0.00000000000E+00  0.17682732595E+04  0.17682732595E+04  0.25500000920E-02 0.  1.
       -2   -1    0    0    0  501  0.00000000000E+00  0.00000000000E+00 -0.20255501667E+04  0.20255501667E+04  0.25500000920E-02 0. -1.
    10030    2    1    2    0    0  0.00000000000E+00  0.00000000000E+00 -0.25727690722E+03  0.37938234262E+04  0.37850897984E+04 0.  0.
        5    1    3    3  502    0 -0.38731249934E+03  0.12362656320E+03  0.17239796081E+04  0.17712770191E+04  0.46999998093E+01 0.  1.
       -5    1    3    3    0  502  0.38731249934E+03 -0.12362656320E+03 -0.19812565153E+04  0.20225464071E+04  0.46999998093E+01 0. -1.
</event>
<event>
 5   0  0.5202788E-07  0.3770536E+04  0.7818609E-02  0.8052507E-01
        2   -1    0    0  501    0  0.00000000000E+00  0.00000000000E+00  0.26450443402E+04  0.26450443402E+04  0.25500000920E-02 0. -1.
       -2   -1    0    0    0  501  0.00000000000E+00  0.00000000000E+00 -0.13437338675E+04  0.13437338675E+04  0.25500000920E-02 0.  1.
    10030    2    1    2    0    0  0.00000000000E+00  0.00000000000E+00  0.13013104727E+04  0.39887782078E+04  0.37705361216E+04 0.  0.
        1    1    3    3  502    0  0.11057649964E+04  0.39850042681E+03  0.22099863637E+04  0.25031097749E+04  0.50400001928E-02 0. -1.
       -1    1    3    3    0  502 -0.11057649964E+04 -0.39850042681E+03 -0.90867589101E+03  0.14856684328E+04  0.50400001928E-02 0.  1.
</event>
<event>
 5   0  0.5325362E-07  0.3622356E+04  0.7818609E-02  0.8085390E-01
        2   -1    0    0  501    0  0.00000000000E+00  0.00000000000E+00  0.21539438231E+04  0.21539438231E+04  0.25500000920E-02 0. -1.
       -2   -1    0    0    0  501  0.00000000000E+00  0.00000000000E+00 -0.15229582237E+04  0.15229582237E+04  0.25500000920E-02 0.  1.
    10030    2    1    2    0    0  0.00000000000E+00  0.00000000000E+00  0.63098559947E+03  0.36769020468E+04  0.36223563926E+04 0.  0.
        4    1    3    3  502    0 -0.94950752049E+03 -0.66346607514E+03 -0.10978140143E+04  0.15959163472E+04  0.12699999809E+01 0.  1.
       -4    1    3    3    0  502  0.94950752049E+03  0.66346607514E+03  0.17287996138E+04  0.20809856996E+04  0.12699999809E+01 0. -1.
</event>
<event>
 5   0  0.1648000E-07  0.3831466E+04  0.7818609E-02  0.8039436E-01
        1   -1    0    0  501    0  0.00000000000E+00  0.00000000000E+00  0.19907448592E+04  0.19907448592E+04  0.50400001928E-02 0.  1.
       -1   -1    0    0    0  501  0.00000000000E+00  0.00000000000E+00 -0.18435480894E+04  0.18435480894E+04  0.50400001928E-02 0. -1.
    10030    2    1    2    0    0  0.00000000000E+00  0.00000000000E+00  0.14719676977E+03  0.38342929486E+04  0.38314664982E+04 0.  0.
        3    1    3    3  502    0 -0.83694367542E+03  0.83659256462E+03  0.15812528278E+04  0.19750246456E+04  0.10100000352E+00 0.  1.
       -3    1    3    3    0  502  0.83694367542E+03 -0.83659256462E+03 -0.14340560580E+04  0.18592683030E+04  0.10100000352E+00 0. -1.
</event>
<event>
 5   0  0.1648000E-07  0.3793157E+04  0.7818609E-02  0.8047625E-01
        1   -1    0    0  501    0  0.00000000000E+00  0.00000000000E+00  0.18046911015E+04  0.18046911015E+04  0.50400001928E-02 0. -1.
       -1   -1    0    0    0  501  0.00000000000E+00  0.00000000000E+00 -0.19931441349E+04  0.19931441349E+04  0.50400001928E-02 0.  1.
    10030    2    1    2    0    0  0.00000000000E+00  0.00000000000E+00 -0.18845303345E+03  0.37978352364E+04  0.37931567245E+04 0.  0.
        4    1    3    3  502    0  0.13462456294E+03  0.12364340533E+04  0.13393617462E+04  0.18277812892E+04  0.12699999809E+01 0. -1.
       -4    1    3    3    0  502 -0.13462456294E+03 -0.12364340533E+04 -0.15278147796E+04  0.19700539472E+04  0.12699999809E+01 0.  1.
</event>
<event>
 5   0  0.5202788E-07  0.3927418E+04  0.7818609E-02  0.8019351E-01
        2   -1    0    0  501    0  0.00000000000E+00  0.00000000000E+00  0.28563181415E+04  0.28563181415E+04  0.25500000920E-02 0. -1.
       -2   -1    0    0    0  501  0.00000000000E+00  0.00000000000E+00 -0.13500430711E+04  0.13500430711E+04  0.25500000920E-02 0.  1.
    10030    2    1    2    0    0  0.00000000000E+00  0.00000000000E+00  0.15062750704E+04  0.42063612126E+04  0.39274177347E+04 0.  0.
        1    1    3    3  502    0 -0.76743443219E+03 -0.63844127643E+03  0.25642746274E+04  0.27517389476E+04  0.50400001928E-02 0. -1.
       -1    1    3    3    0  502  0.76743443219E+03  0.63844127643E+03 -0.10579995570E+04  0.14546222650E+04  0.50400001928E-02 0.  1.
</event>
<event>
 5   0  0.1648000E-07  0.3667234E+04  0.7818609E-02  0.8075262E-01
        1   -1    0    0  501    0  0.00000000000E+00  0.00000000000E+00  0.18225134424E+04  0.18225134424E+04  0.50400001928E-02 0.  1.
       -1   -1    0    0    0  501  0.00000000000E+00  0.00000000000E+00 -0.18447879382E+04  0.18447879382E+04  0.50400001928E-02 0. -1.
    10030    2    1    2    0    0  0.00000000000E+00  0.00000000000E+00 -0.22274495836E+02  0.36673013806E+04  0.36672337345E+04 0.  0.
        1    1    3    3  502    0 -0.14111396368E+04  0.70219065178E+03  0.92577065192E+03  0.18279600887E+04  0.50400001928E-02 0.  1.
       -1    1    3    3    0  502  0.14111396368E+04 -0.70219065178E+03 -0.94804514775E+03  0.18393412919E+04  0.50400001928E-02 0. -1.
</event>
<event>
 5   0  0.5325362E-07  0.3569553E+04  0.7818609E-02  0.8097502E-01
        2   -1    0    0  501    0  0.00000000000E+00  0.00000000000E+00  0.18161271067E+04  0.18161271067E+04  0.25500000920E-02 0. -1.
       -2   -1    0    0    0  501  0.00000000000E+00  0.00000000000E+00 -0.17539669382E+04  0.17539669382E+04  0.25500000920E-02 0.  1.
    10030    2    1    2    0    0  0.00000000000E+00  0.00000000000E+00  0.62160168501E+02  0.35700940448E+04  0.35695528575E+04 0.  0.
        4    1    3    3  502    0 -0.77391075684E+03 -0.90739955560E+03 -0.12969440623E+04  0.17619243249E+04  0.12699999809E+01 0.  1.
       -4    1    3    3    0  502  0.77391075684E+03  0.90739955560E+03  0.13591042308E+04  0.18081697199E+04  0.12699999809E+01 0. -1.
</event>
<event>
 5   0  0.5134434E-07  0.3788081E+04  0.7818609E-02  0.8048717E-01
       -2   -1    0    0    0  501  0.00000000000E+00  0.00000000000E+00  0.13031633587E+04  0.13031633587E+04  0.25500000920E-02 0.  1.
        2   -1    0    0  501    0  0.00000000000E+00  0.00000000000E+00 -0.27528322935E+04  0.27528322935E+04  0.25500000920E-02 0. -1.
    10030    2    1    2    0    0  0.00000000000E+00  0.00000000000E+00 -0.14496689348E+04  0.40559956523E+04  0.37880814023E+04 0.  0.
        5    1    3    3  502    0  0.43934360574E+03  0.41195721322E+03  0.11978966860E+04  0.13407871232E+04  0.46999998093E+01 0.  1.
       -5    1    3    3    0  502 -0.43934360574E+03 -0.41195721322E+03 -0.26475656208E+04  0.27152085290E+04  0.46999998093E+01 0. -1.
</event>
<event>
 5   0  0.5134434E-07  0.3852074E+04  0.7818609E-02  0.8035071E-01
        2   -1    0    0  501    0  0.00000000000E+00  0.00000000000E+00  0.22009888308E+04  0.22009888308E+04  0.25500000920E-02 0. -1.
       -2   -1    0    0    0  501  0.00000000000E+00  0.00000000000E+00 -0.16854329084E+04  0.16854329084E+04  0.25500000920E-02 0.  1.
    10030    2    1    2    0    0  0.00000000000E+00  0.00000000000E+00  0.51555592245E+03  0.38864217392E+04  0.38520742498E+04 0.  0.
        5    1    3    3  502    0 -0.17669509219E+04 -0.10462961230E+02  0.10310135838E+04  0.20457849677E+04  0.46999998093E+01 0. -1.
       -5    1    3    3    0  502  0.17669509219E+04  0.10462961230E+02 -0.51545766137E+03  0.18406367715E+04  0.46999998093E+01 0.  1.
</event>
<event>
 5   0  0.1648000E-07  0.3802062E+04  0.7818609E-02  0.8045713E-01
        1   -1    0    0  501    0  0.00000000000E+00  0.00000000000E+00  0.20115405638E+04  0.20115405638E+04  0.50400001928E-02 0. -1.
       -1   -1    0    0    0  501  0.00000000000E+00  0.00000000000E+00 -0.17965926013E+04  0.17965926013E+04  0.50400001928E-02 0.  1.
    10030    2    1    2    0    0  0.00000000000E+00  0.00000000000E+00  0.21494796254E+03  0.38081331651E+04  0.38020620164E+04 0.  0.
        4    1    3    3  502    0  0.26144966601E+03 -0.17849379183E+04  0.70806301333E+03  0.19379664971E+04  0.12699999809E+01 0. -1.
       -4    1    3    3    0  502 -0.26144966601E+03  0.17849379183E+04 -0.49311505079E+03  0.18701666681E+04  0.12699999809E+01 0.  1.
</event>
<event>
 5   0  0.1648000E-07  0.3519721E+04  0.7818609E-02  0.8109132E-01
       -1   -1    0    0    0  501  0.00000000000E+00  0.00000000000E+00  0.14259284405E+04  0.14259284405E+04  0.50400001928E-02 0. -1.
        1   -1    0    0  501    0  0.00000000000E+00  0.00000000000E+00 -0.21719945522E+04  0.21719945522E+04  0.50400001928E-02 0.  1.
    10030    2    1    2    0    0  0.00000000000E+00  0.00000000000E+00 -0.74606611169E+03  0.35979229928E+04  0.35197209007E+04 0.  0.
        4    1    3    3  502    0 -0.66871773970E+03 -0.54268977000E+03 -0.19418672282E+04  0.21242752992E+04  0.12699999809E+01 0.  1.
       -4    1    3    3    0  502  0.66871773970E+03  0.54268977000E+03  0.11958011165E+04  0.14736476936E+04  0.12699999809E+01 0. -1.
</event>
<event>
 5   0  0.1648000E-07  0.3784361E+04  0.7818609E-02  0.8049519E-01
       -1   -1    0    0    0  501  0.00000000000E+00  0.00000000000E+00  0.32463496573E+04  0.32463496573E+04  0.50400001928E-02 0. -1.
        1   -1    0    0  501    0  0.00000000000E+00  0.00000000000E+00 -0.11028839750E+04  0.11028839750E+04  0.50400001928E-02 0.  1.
    10030    2    1    2    0    0  0.00000000000E+00  0.00000000000E+00  0.21434656824E+04  0.43492336323E+04  0.37843609840E+04 0.  0.
        1    1    3    3  502    0 -0.55604983280E+03  0.17381417904E+04  0.16463868490E+04  0.24578278941E+04  0.50400001928E-02 0. -1.
       -1    1    3    3    0  502  0.55604983280E+03 -0.17381417904E+04  0.49707883334E+03  0.18914057382E+04  0.50400001928E-02 0.  1.
</event>
<event>
 5   0  0.5134434E-07  0.3961560E+04  0.7818609E-02  0.8012346E-01
        2   -1    0    0  501    0  0.00000000000E+00  0.00000000000E+00  0.21102705559E+04  0.21102705559E+04  0.25500000920E-02 0.  1.
       -2   -1    0    0    0  501  0.00000000000E+00  0.00000000000E+00 -0.18592352726E+04  0.18592352726E+04  0.25500000920E-02 0. -1.
    10030    2    1    2    0    0  0.00000000000E+00  0.00000000000E+00  0.25103528335E+03  0.39695058285E+04  0.39615600222E+04 0.  0.
        5    1    3    3  502    0 -0.18187363406E+03 -0.16676649862E+04 -0.92981980960E+03  0.19180123809E+04  0.46999998093E+01 0. -1.
       -5    1    3    3    0  502  0.18187363406E+03  0.16676649862E+04  0.11808550930E+04  0.20514934476E+04  0.46999998093E+01 0.  1.
</event>
<event>
 5   0  0.5325362E-07  0.3811364E+04  0.7818609E-02  0.8043721E-01
       -2   -1    0    0    0  501  0.00000000000E+00  0.00000000000E+00  0.17171955854E+04  0.17171955854E+04  0.25500000920E-02 0.  1.
        2   -1    0    0  501    0  0.00000000000E+00  0.00000000000E+00 -0.21148579316E+04  0.21148579316E+04  0.25500000920E-02 0. -1.
    10030    2    1    2    0    0  0.00000000000E+00  0.00000000000E+00 -0.39766234625E+03  0.38320535170E+04  0.38113644296E+04 0.  0.
        4    1    3    3  502    0  0.43246229876E+03  0.16458575083E+04  0.66358514681E+03  0.18265315320E+04  0.12699999809E+01 0.  1.
       -4    1    3    3    0  502 -0.43246229876E+03 -0.16458575083E+04 -0.10612474931E+04  0.20055219849E+04  0.12699999809E+01 0. -1.
</event>
<event>
 5   0  0.5202788E-07  0.3724655E+04  0.7818609E-02  0.8062520E-01
        2   -1    0    0  501    0  0.00000000000E+00  0.00000000000E+00  0.21531069098E+04  0.21531069098E+04  0.25500000920E-02 0. -1.
       -2   -1    0    0    0  501  0.00000000000E+00  0.00000000000E+00 -0.16108178706E+04  0.16108178706E+04  0.25500000920E-02 0.  1.
    10030    2    1    2    0    0  0.00000000000E+00  0.00000000000E+00  0.54228903928E+03  0.37639247804E+04  0.37246546619E+04 0.  0.
        1    1    3    3  502    0 -0.16871078402E+04  0.75044781985E+03  0.26187714993E+02  0.18466701360E+04  0.50400001928E-02 0.  1.
       -1    1    3    3    0  502  0.16871078402E+04 -0.75044781985E+03  0.51610132428E+03  0.19172546444E+04  0.50400001928E-02 0. -1.
</event>
<event>
 5   0  0.5202788E-07  0.3799250E+04  0.7818609E-02  0.8046316E-01
        2   -1    0    0  501    0  0.00000000000E+00  0.00000000000E+00  0.20528323154E+04  0.20528323154E+04  0.25500000920E-02 0.  1.
       -2   -1    0    0    0  501  0.00000000000E+00  0.00000000000E+00 -0.17578517204E+04  0.17578517204E+04  0.25500000920E-02 0. -1.
    10030    2    1    2    0    0  0.00000000000E+00  0.00000000000E+00  0.29498059497E+03  0.38106840358E+04  0.37992498298E+04 0.  0.
        1    1    3    3  502    0 -0.12592536793E+04  0.13157213923E+04 -0.39425765189E+03  0.18634059427E+04  0.50400001928E-02 0. -1.
       -1    1    3    3    0  502  0.12592536793E+04 -0.13157213923E+04  0.68923824687E+03  0.19472780931E+04  0.50400001928E-02 0.  1.
</event>
<event>
 5   0  0.1648000E-07  0.3827130E+04  0.7818609E-02  0.8040358E-01
        1   -1    0    0  501    0  0.00000000000E+00  0.00000000000E+00  0.21260637168E+04  0.21260637169E+04  0.50400001928E-02 0.  1.
       -1   -1    0    0    0  501  0.00000000000E+00  0.00000000000E+00 -0.17223052106E+04  0.17223052106E+04  0.50400001928E-02 0. -1.
    10030    2    1    2    0    0  0.00000000000E+00  0.00000000000E+00  0.40375850622E+03  0.38483689275E+04  0.38271297954E+04 0.  0.
        2    1    3    3  502    0  0.56039938694E+03 -0.12214380198E+04 -0.11679481598E+04  0.17804665717E+04  0.25500000920E-02 0. -1.
       -2    1    3    3    0  502 -0.56039938694E+03  0.12214380198E+04  0.15717066660E+04  0.20679023558E+04  0.25500000920E-02 0.  1.
</event>
<event>
 5   0  0.1656617E-07  0.3542595E+04  0.7818609E-02  0.8103769E-01
       -1   -1    0    0    0  501  0.00000000000E+00  0.00000000000E+00  0.11194857305E+04  0.11194857305E+04  0.50400001928E-02 0. -1.
        1   -1    0    0  501    0  0.00000000000E+00  0.00000000000E+00 -0.28026209776E+04  0.28026209776E+04  0.50400001928E-02 0.  1.
    10030    2    1    2    0    0  0.00000000000E+00  0.00000000000E+00 -0.16831352471E+04  0.39221067081E+04  0.35425946381E+04 0.  0.
        5    1    3    3  502    0  0.13216505158E+04  0.23124900910E+03  0.43870352903E+03  0.14116370166E+04  0.46999998093E+01 0. -1.
       -5    1    3    3    0  502 -0.13216505158E+04 -0.23124900910E+03 -0.21218387762E+04  0.25104696916E+04  0.46999998093E+01 0.  1.
</event>
<event>
 5   0  0.5134434E-07  0.3785638E+04  0.7818609E-02  0.8049244E-01
       -2   -1    0    0    0  501  0.00000000000E+00  0.00000000000E+00  0.12149144291E+04  0.12149144291E+04  0.25500000920E-02 0. -1.
        2   -1    0    0  501    0  0.00000000000E+00  0.00000000000E+00 -0.29489838950E+04  0.29489838950E+04  0.25500000920E-02 0.  1.
    10030    2    1    2    0    0  0.00000000000E+00  0.00000000000E+00 -0.17340694659E+04  0.41638983241E+04  0.37856376400E+04 0.  0.
        5    1    3    3  502    0  0.16754020290E+04  0.32007268150E+03 -0.17695875863E+04  0.24578203344E+04  0.46999998093E+01 0.  1.
       -5    1    3    3    0  502 -0.16754020290E+04 -0.32007268150E+03  0.35518120441E+02  0.17060779898E+04  0.46999998093E+01 0. -1.
</event>
<event>
 5   0  0.1648000E-07  0.3817227E+04  0.7818609E-02  0.8042468E-01
        1   -1    0    0  501    0  0.00000000000E+00  0.00000000000E+00  0.33446466367E+04  0.33446466367E+04  0.50400001928E-02 0.  1.
       -1   -1    0    0    0  501  0.00000000000E+00  0.00000000000E+00 -0.10891452486E+04  0.10891452486E+04  0.50400001928E-02 0. -1.
    10030    2    1    2    0    0  0.00000000000E+00  0.00000000000E+00  0.22555013881E+04  0.44337918853E+04  0.38172272620E+04 0.  0.
        4    1    3    3  502    0  0.98922295303E+03 -0.16301058820E+04  0.10305906646E+04  0.21674699463E+04  0.12699999809E+01 0. -1.
       -4    1    3    3    0  502 -0.98922295303E+03  0.16301058820E+04  0.12249107235E+04  0.22663219389E+04  0.12699999809E+01 0.  1.
</event>
<event>
 5   0  0.5158266E-07  0.3869736E+04  0.7818609E-02  0.8031353E-01
       -2   -1    0    0    0  501  0.00000000000E+00  0.00000000000E+00  0.33420836985E+04  0.33420836985E+04  0.25500000920E-02 0. -1.
        2   -1    0    0  501    0  0.00000000000E+00  0.00000000000E+00 -0.11201738603E+04  0.11201738603E+04  0.25500000920E-02 0.  1.
    10030    2    1    2    0    0  0.00000000000E+00  0.00000000000E+00  0.22219098382E+04  0.44622575588E+04  0.38697363207E+04 0.  0.
        2    1    3    3  502    0  0.65398777488E+03 -0.14601445239E+04 -0.14376786160E+03  0.16063596230E+04  0.25500000920E-02 0.  1.
       -2    1    3    3    0  502 -0.65398777488E+03  0.14601445239E+04  0.23656776998E+04  0.28558979358E+04  0.25500000920E-02 0. -1.
</event>
<event>
 5   0  0.1648000E-07  0.3803201E+04  0.7818609E-02  0.8045468E-01
        1   -1    0    0  501    0  0.00000000000E+00  0.00000000000E+00  0.19618433972E+04  0.19618433972E+04  0.50400001928E-02 0.  1.
       -1   -1    0    0    0  501  0.00000000000E+00  0.00000000000E+00 -0.18432070159E+04  0.18432070159E+04  0.50400001928E-02 0. -1.
    10030    2    1    2    0    0  0.00000000000E+00  0.00000000000E+00  0.11863638133E+03  0.38050504131E+04  0.38032005016E+04 0.  0.
        1    1    3    3  502    0  0.10038851065E+04 -0.15730558029E+04  0.42527424859E+03  0.19139352269E+04  0.50400001928E-02 0. -1.
       -1    1    3    3    0  502 -0.10038851065E+04  0.15730558029E+04 -0.30663786726E+03  0.18911151863E+04  0.50400001928E-02 0.  1.
</event>
<event>
 5   0  0.5132561E-07  0.3419266E+04  0.7818609E-02  0.8133194E-01
        2   -1    0    0  501    0  0.00000000000E+00  0.00000000000E+00  0.18732492586E+04  0.18732492586E+04  0.25500000920E-02 0. -1.
       -2   -1    0    0    0  501  0.00000000000E+00  0.00000000000E+00 -0.15603077959E+04  0.15603077959E+04  0.25500000920E-02 0.  1.
    10030    2    1    2    0    0  0.00000000000E+00  0.00000000000E+00  0.31294146270E+03  0.34335570544E+04  0.34192662498E+04 0.  0.
        3    1    3    3  502    0  0.14096891736E+04  0.84968933356E+02 -0.81109262397E+03  0.16285928099E+04  0.10100000352E+00 0.  1.
       -3    1    3    3    0  502 -0.14096891736E+04 -0.84968933356E+02  0.11240340867E+04  0.18049642445E+04  0.10100000352E+00 0. -1.
</event>
<event>
 5   0  0.5134434E-07  0.3769500E+04  0.7818609E-02  0.8052732E-01
       -2   -1    0    0    0  501  0.00000000000E+00  0.00000000000E+00  0.22065198917E+04  0.22065198917E+04  0.25500000920E-02 0. -1.
        2   -1    0    0  501    0  0.00000000000E+00  0.00000000000E+00 -0.16099030372E+04  0.16099030372E+04  0.25500000920E-02 0.  1.
    10030    2    1    2    0    0  0.00000000000E+00  0.00000000000E+00  0.59661685452E+03  0.38164229289E+04  0.37695002720E+04 0.  0.
        5    1    3    3  502    0  0.83544454022E+03  0.66098687265E+03 -0.12758413651E+04  0.16621265008E+04  0.46999998093E+01 0.  1.
       -5    1    3    3    0  502 -0.83544454022E+03 -0.66098687265E+03  0.18724582197E+04  0.21542964281E+04  0.46999998093E+01 0. -1.
</event>
<event>
 5   0  0.1648000E-07  0.3719900E+04  0.7818609E-02  0.8063566E-01
        1   -1    0    0  501    0  0.00000000000E+00  0.00000000000E+00  0.20060235606E+04  0.20060235607E+04  0.50400001928E-02 0. -1.
       -1   -1    0    0    0  501  0.00000000000E+00  0.00000000000E+00 -0.17245127009E+04  0.17245127009E+04  0.50400001928E-02 0.  1.
    10030    2    1    2    0    0  0.00000000000E+00  0.00000000000E+00  0.28151085971E+03  0.37305362616E+04  0.37198995195E+04 0.  0.
        1    1    3    3  502    0  0.15628482205E+04 -0.49957256213E+03  0.10192429939E+04  0.19315598841E+04  0.50400001928E-02 0.  1.
       -1    1    3    3    0  502 -0.15628482205E+04  0.49957256213E+03 -0.73773213421E+03  0.17989763775E+04  0.50400001928E-02 0. -1.
</event>
<event>
 5   0  0.1648000E-07  0.3781717E+04  0.7818609E-02  0.8050090E-01
       -1   -1    0    0    0  501  0.00000000000E+00  0.00000000000E+00  0.15674466925E+04  0.15674466925E+04  0.50400001928E-02 0.  1.
        1   -1    0    0  501    0  0.00000000000E+00  0.00000000000E+00 -0.22809993723E+04  0.22809993723E+04  0.50400001928E-02 0. -1.
    10030    2    1    2    0    0  0.00000000000E+00  0.00000000000E+00 -0.71355267975E+03  0.38484460648E+04  0.37817165001E+04 0.  0.
        4    1    3    3  502    0  0.49449858374E+03 -0.56522709361E+03 -0.21227158067E+04  0.22516515107E+04  0.12699999809E+01 0. -1.
       -4    1    3    3    0  502 -0.49449858374E+03  0.56522709361E+03  0.14091631270E+04  0.15967945541E+04  0.12699999809E+01 0.  1.
</event>
<event>
 5   0  0.1648000E-07  0.3817267E+04  0.7818609E-02  0.8042459E-01
        3   -1    0    0  501    0  0.00000000000E+00  0.00000000000E+00  0.28151479925E+04  0.28151479943E+04  0.10100000352E+00 0.  1.
       -3   -1    0    0    0  501  0.00000000000E+00  0.00000000000E+00 -0.12940288547E+04  0.12940288587E+04  0.10100000352E+00 0. -1.
    10030    2    1    2    0    0  0.00000000000E+00  0.00000000000E+00  0.15211191378E+04  0.41091768530E+04  0.38172674753E+04 0.  0.
        3    1    3    3  502    0 -0.16576854292E+03 -0.16949952967E+04 -0.16695257559E+03  0.17112455810E+04  0.10100000352E+00 0. -1.
       -3    1    3    3    0  502  0.16576854292E+03  0.16949952967E+04  0.16880717133E+04  0.23979312720E+04  0.10100000352E+00 0.  1.
</event>
<event>
 5   0  0.1656617E-07  0.3804737E+04  0.7818609E-02  0.8045139E-01
        1   -1    0    0  501    0  0.00000000000E+00  0.00000000000E+00  0.11678492096E+04  0.11678492096E+04  0.50400001928E-02 0.  1.
       -1   -1    0    0    0  501  0.00000000000E+00  0.00000000000E+00 -0.30988634124E+04  0.30988634125E+04  0.50400001928E-02 0. -1.
    10030    2    1    2    0    0  0.00000000000E+00  0.00000000000E+00 -0.19310142028E+04  0.42667126221E+04  0.38047366200E+04 0.  0.
        5    1    3    3  502    0 -0.59789225247E+03 -0.48029683826E+03 -0.29178184287E+04  0.30169266930E+04  0.46999998093E+01 0. -1.
       -5    1    3    3    0  502  0.59789225247E+03  0.48029683826E+03  0.98680422582E+03  0.12497859291E+04  0.46999998093E+01 0.  1.
</event>
<event>
 5   0  0.5134434E-07  0.3306439E+04  0.7818609E-02  0.8161259E-01
        2   -1    0    0  501    0  0.00000000000E+00  0.00000000000E+00  0.17932688733E+04  0.17932688733E+04  0.25500000920E-02 0. -1.
       -2   -1    0    0    0  501  0.00000000000E+00  0.00000000000E+00 -0.15241077200E+04  0.15241077200E+04  0.25500000920E-02 0.  1.
    10030    2    1    2    0    0  0.00000000000E+00  0.00000000000E+00  0.26916115332E+03  0.33173765934E+04  0.33064391323E+04 0.  0.
        5    1    3    3  502    0  0.34717081454E+03  0.16163380745E+04  0.12851919848E+03  0.16581964962E+04  0.46999998093E+01 0. -1.
       -5    1    3    3    0  502 -0.34717081454E+03 -0.16163380745E+04  0.14064195484E+03  0.16591800972E+04  0.46999998093E+01 0.  1.
</event>
<event>
 5   0  0.5134434E-07  0.3784580E+04  0.7818609E-02  0.8049472E-01
        2   -1    0    0  501    0  0.00000000000E+00  0.00000000000E+00  0.19056201885E+04  0.19056201885E+04  0.25500000920E-02 0.  1.
       -2   -1    0    0    0  501  0.00000000000E+00  0.00000000000E+00 -0.18790533100E+04  0.18790533100E+04  0.25500000920E-02 0. -1.
    10030    2    1    2    0    0  0.00000000000E+00  0.00000000000E+00  0.26566878437E+02  0.37846734985E+04  0.37845802530E+04 0.  0.
        5    1    3    3  502    0  0.35472723736E+03  0.17705473421E+03 -0.18370486240E+04  0.18793481660E+04  0.46999998093E+01 0. -1.
       -5    1    3    3    0  502 -0.35472723736E+03 -0.17705473421E+03  0.18636155025E+04  0.19053253326E+04  0.46999998093E+01 0.  1.
</event>
<event>
 5   0  0.5132561E-07  0.3811588E+04  0.7818609E-02  0.8043673E-01
        2   -1    0    0  501    0  0.00000000000E+00  0.00000000000E+00  0.23988346137E+04  0.23988346137E+04  0.25500000920E-02 0. -1.
       -2   -1    0    0    0  501  0.00000000000E+00  0.00000000000E+00 -0.15140896153E+04  0.15140896153E+04  0.25500000920E-02 0.  1.
    10030    2    1    2    0    0  0.00000000000E+00  0.00000000000E+00  0.88474499838E+03  0.39129242290E+04  0.38115878987E+04 0.  0.
        3    1    3    3  502    0 -0.35442399560E+03 -0.14266377899E+04  0.16875243711E+04  0.22380013998E+04  0.10100000352E+00 0. -1.
       -3    1    3    3    0  502  0.35442399560E+03  0.14266377899E+04 -0.80277937268E+03  0.16749228292E+04  0.10100000352E+00 0.  1.
</event>
<event>
 5   0  0.5134434E-07  0.3919245E+04  0.7818609E-02  0.8021038E-01
       -2   -1    0    0    0  501  0.00000000000E+00  0.00000000000E+00  0.13650236426E+04  0.13650236426E+04  0.25500000920E-02 0.  1.
        2   -1    0    0  501    0  0.00000000000E+00  0.00000000000E+00 -0.28132268966E+04  0.28132268966E+04  0.25500000920E-02 0. -1.
    10030    2    1    2    0    0  0.00000000000E+00  0.00000000000E+00 -0.14482032540E+04  0.41782505392E+04  0.39192454508E+04 0.  0.
        5    1    3    3  502    0  0.15736046982E+04  0.10244478320E+04 -0.13218457925E+04  0.22963064899E+04  0.46999998093E+01 0. -1.
       -5    1    3    3    0  502 -0.15736046982E+04 -0.10244478320E+04 -0.12635746151E+03  0.18819440493E+04  0.46999998093E+01 0.  1.
</event>
<event>
 5   0  0.1648000E-07  0.3686397E+04  0.7818609E-02  0.8070983E-01
       -1   -1    0    0    0  501  0.00000000000E+00  0.00000000000E+00  0.19491996060E+04  0.19491996060E+04  0.50400001928E-02 0. -1.
        1   -1    0    0  501    0  0.00000000000E+00  0.00000000000E+00 -0.17429619089E+04  0.17429619089E+04  0.50400001928E-02 0.  1.
    10030    2    1    2    0    0  0.00000000000E+00  0.00000000000E+00  0.20623769711E+03  0.36921615150E+04  0.36863969761E+04 0.  0.
        2    1    3    3  502    0 -0.11135182355E+04 -0.10881732600E+04  0.10912399031E+04  0.19012754747E+04  0.25500000920E-02 0. -1.
       -2    1    3    3    0  502  0.11135182355E+04  0.10881732600E+04 -0.88500220600E+03  0.17908860403E+04  0.25500000920E-02 0.  1.
</event>
<event>
 5   0  0.5132561E-07  0.3800340E+04  0.7818609E-02  0.8046082E-01
       -2   -1    0    0    0  501  0.00000000000E+00  0.00000000000E+00  0.15162641539E+04  0.15162641539E+04  0.25500000920E-02 0.  1.
        2   -1    0    0  501    0  0.00000000000E+00  0.00000000000E+00 -0.23812771176E+04  0.23812771176E+04  0.25500000920E-02 0. -1.
    10030    2    1    2    0    0  0.00000000000E+00  0.00000000000E+00 -0.86501296377E+03  0.38975412715E+04  0.38003395290E+04 0.  0.
        3    1    3    3  502    0 -0.86046714218E+03 -0.59932460362E+03 -0.20576664968E+04  0.23094555864E+04  0.10100000352E+00 0. -1.
       -3    1    3    3    0  502  0.86046714218E+03  0.59932460362E+03  0.11926535330E+04  0.15880856851E+04  0.10100000352E+00 0.  1.
</event>
<event>
 5   0  0.5158266E-07  0.3816295E+04  0.7818609E-02  0.8042667E-01
       -2   -1    0    0    0  501  0.00000000000E+00  0.00000000000E+00  0.17221728703E+04  0.17221728703E+04  0.25500000920E-02 0. -1.
        2   -1    0    0  501    0  0.00000000000E+00  0.00000000000E+00 -0.21142053313E+04  0.21142053313E+04  0.25500000920E-02 0.  1.
    10030    2    1    2    0    0  0.00000000000E+00  0.00000000000E+00 -0.39203246104E+03  0.38363782016E+04  0.38162950954E+04 0.  0.
        2    1    3    3  502    0 -0.18390637104E+04 -0.38236514759E+03  0.14141165131E+03  0.18837079636E+04  0.25500000920E-02 0. -1.
       -2    1    3    3    0  502  0.18390637104E+04  0.38236514759E+03 -0.53344411235E+03  0.19526702379E+04  0.25500000920E-02 0.  1.
</event>
<event>
 5   0  0.5132561E-07  0.3807247E+04  0.7818609E-02  0.8044602E-01
        2   -1    0    0  501    0  0.00000000000E+00  0.00000000000E+00  0.22395348373E+04  0.22395348373E+04  0.25500000920E-02 0.  1.
       -2   -1    0    0    0  501  0.00000000000E+00  0.00000000000E+00 -0.16180958619E+04  0.16180958619E+04  0.25500000920E-02 0. -1.
    10030    2    1    2    0    0  0.00000000000E+00  0.00000000000E+00  0.62143897539E+03  0.38576306992E+04  0.38072468020E+04 0.  0.
        3    1    3    3  502    0  0.17129742940E+04 -0.44102308522E+03 -0.40215341679E+03  0.18139762056E+04  0.10100000352E+00 0. -1.
       -3    1    3    3    0  502 -0.17129742940E+04  0.44102308522E+03  0.10235923922E+04  0.20436544936E+04  0.10100000352E+00 0.  1.
</event>
<event>
 5   0  0.1648000E-07  0.3318439E+04  0.7818609E-02  0.8158219E-01
        1   -1    0    0  501    0  0.00000000000E+00  0.00000000000E+00  0.21120763707E+04  0.21120763707E+04  0.50400001928E-02 0.  1.
       -1   -1    0    0    0  501  0.00000000000E+00  0.00000000000E+00 -0.13034613190E+04  0.13034613190E+04  0.50400001928E-02 0. -1.
    10030    2    1    2    0    0  0.00000000000E+00  0.00000000000E+00  0.80861505173E+03  0.34155376897E+04  0.33184393031E+04 0.  0.
        2    1    3    3  502    0  0.13490249220E+04  0.95700016952E+03  0.53965539558E+03  0.17398119182E+04  0.25500000920E-02 0. -1.
       -2    1    3    3    0  502 -0.13490249220E+04 -0.95700016952E+03  0.26895965615E+03  0.16757257715E+04  0.25500000920E-02 0.  1.
</event>
<event>
 5   0  0.5158266E-07  0.3774124E+04  0.7818609E-02  0.8051731E-01
        2   -1    0    0  501    0  0.00000000000E+00  0.00000000000E+00  0.18303921887E+04  0.18303921887E+04  0.25500000920E-02 0. -1.
       -2   -1    0    0    0  501  0.00000000000E+00  0.00000000000E+00 -0.19454863510E+04  0.19454863510E+04  0.25500000920E-02 0.  1.
    10030    2    1    2    0    0  0.00000000000E+00  0.00000000000E+00 -0.11509416230E+03  0.37758785396E+04  0.37741240149E+04 0.  0.
        2    1    3    3  502    0 -0.39053962939E+03 -0.25211564826E+03  0.17722152615E+04  0.18321655044E+04  0.25500000920E-02 0. -1.
       -2    1    3    3    0  502  0.39053962939E+03  0.25211564826E+03 -0.18873094238E+04  0.19437130353E+04  0.25500000920E-02 0.  1.
</event>
<event>
 5   0  0.1648000E-07  0.3766372E+04  0.7818609E-02  0.8053410E-01
       -1   -1    0    0    0  501  0.00000000000E+00  0.00000000000E+00  0.18237007607E+04  0.18237007607E+04  0.50400001928E-02 0.  1.
        1   -1    0    0  501    0  0.00000000000E+00  0.00000000000E+00 -0.19446114567E+04  0.19446114567E+04  0.50400001928E-02 0. -1.
    10030    2    1    2    0    0  0.00000000000E+00  0.00000000000E+00 -0.12091069599E+03  0.37683122174E+04  0.37663719375E+04 0.  0.
        4    1    3    3  502    0  0.12302396331E+04  0.12441873001E+04  0.63624825692E+03  0.18618015603E+04  0.12699999809E+01 0.  1.
       -4    1    3    3    0  502 -0.12302396331E+04 -0.12441873001E+04 -0.75715895291E+03  0.19065106571E+04  0.12699999809E+01 0. -1.
</event>
<event>
 5   0  0.1648000E-07  0.3836693E+04  0.7818609E-02  0.8038326E-01
        1   -1    0    0  501    0  0.00000000000E+00  0.00000000000E+00  0.21129527396E+04  0.21129527396E+04  0.50400001928E-02 0. -1.
       -1   -1    0    0    0  501  0.00000000000E+00  0.00000000000E+00 -0.17416634303E+04  0.17416634303E+04  0.50400001928E-02 0.  1.
    10030    2    1    2    0    0  0.00000000000E+00  0.00000000000E+00  0.37128930925E+03  0.38546161699E+04  0.38366925947E+04 0.  0.
        4    1    3    3  502    0  0.17447272872E+04 -0.11124191724E+03 -0.60772973063E+03  0.18508876544E+04  0.12699999809E+01 0.  1.
       -4    1    3    3    0  502 -0.17447272872E+04  0.11124191724E+03  0.97901903987E+03  0.20037285156E+04  0.12699999809E+01 0. -1.
</event>
<event>
 5   0  0.5325362E-07  0.3731282E+04  0.7818609E-02  0.8061064E-01
        2   -1    0    0  501    0  0.00000000000E+00  0.00000000000E+00  0.26570297679E+04  0.26570297679E+04  0.25500000920E-02 0. -1.
       -2   -1    0    0    0  501  0.00000000000E+00  0.00000000000E+00 -0.13099653716E+04  0.13099653716E+04  0.25500000920E-02 0.  1.
    10030    2    1    2    0    0  0.00000000000E+00  0.00000000000E+00  0.13470643963E+04  0.39669951394E+04  0.37312823464E+04 0.  0.
        4    1    3    3  502    0  0.12339245090E+04  0.11387455149E+04  0.15381103150E+04  0.22770805861E+04  0.12699999809E+01 0.  1.
       -4    1    3    3    0  502 -0.12339245090E+04 -0.11387455149E+04 -0.19104591868E+03  0.16899145533E+04  0.12699999809E+01 0. -1.
</event>
<event>
 5   0  0.1648000E-07  0.3786520E+04  0.7818609E-02  0.8049054E-01
       -1   -1    0    0    0  501  0.00000000000E+00  0.00000000000E+00  0.17005028201E+04  0.17005028201E+04  0.50400001928E-02 0. -1.
        1   -1    0    0  501    0  0.00000000000E+00  0.00000000000E+00 -0.21078667266E+04  0.21078667266E+04  0.50400001928E-02 0.  1.
    10030    2    1    2    0    0  0.00000000000E+00  0.00000000000E+00 -0.40736390647E+03  0.38083695467E+04  0.37865199395E+04 0.  0.
        3    1    3    3  502    0  0.78359022723E+03  0.86478326913E+03  0.12957491530E+04  0.17437974723E+04  0.10100000352E+00 0. -1.
       -3    1    3    3    0  502 -0.78359022723E+03 -0.86478326913E+03 -0.17031130595E+04  0.20645720744E+04  0.10100000352E+00 0.  1.
</event>
<event>
 5   0  0.1648000E-07  0.4110802E+04  0.7818609E-02  0.7982560E-01
       -1   -1    0    0    0  501  0.00000000000E+00  0.00000000000E+00  0.22252126775E+04  0.22252126775E+04  0.50400001928E-02 0.  1.
        1   -1    0    0  501    0  0.00000000000E+00  0.00000000000E+00 -0.18985483795E+04  0.18985483795E+04  0.50400001928E-02 0. -1.
    10030    2    1    2    0    0  0.00000000000E+00  0.00000000000E+00  0.32666429800E+03  0.41237610570E+04  0.41108023173E+04 0.  0.
        2    1    3    3  502    0 -0.82375219768E+03  0.14525782851E+04  0.13654932010E+04  0.21571098812E+04  0.25500000920E-02 0.  1.
       -2    1    3    3    0  502  0.82375219768E+03 -0.14525782851E+04 -0.10388289030E+04  0.19666511758E+04  0.25500000920E-02 0. -1.
</event>
<event>
 5   0  0.5132561E-07  0.3775409E+04  0.7818609E-02  0.8051453E-01
       -2   -1    0    0    0  501  0.00000000000E+00  0.00000000000E+00  0.16625547711E+04  0.16625547711E+04  0.25500000920E-02 0. -1.
        2   -1    0    0  501    0  0.00000000000E+00  0.00000000000E+00 -0.21433446568E+04  0.21433446568E+04  0.25500000920E-02 0.  1.
    10030    2    1    2    0    0  0.00000000000E+00  0.00000000000E+00 -0.48078988575E+03  0.38058994279E+04  0.37754087913E+04 0.  0.
        3    1    3    3  502    0 -0.14828410939E+04  0.20024431847E+03  0.91977426770E+03  0.17563883997E+04  0.10100000352E+00 0. -1.
       -3    1    3    3    0  502  0.14828410939E+04 -0.20024431847E+03 -0.14005641534E+04  0.20495110282E+04  0.10100000352E+00 0.  1.
</event>
<event>
 5   0  0.5132561E-07  0.3786113E+04  0.7818609E-02  0.8049142E-01
       -2   -1    0    0    0  501  0.00000000000E+00  0.00000000000E+00  0.14624507779E+04  0.14624507779E+04  0.25500000920E-02 0. -1.
        2   -1    0    0  501    0  0.00000000000E+00  0.00000000000E+00 -0.24504499048E+04  0.24504499048E+04  0.25500000920E-02 0.  1.
    10030    2    1    2    0    0  0.00000000000E+00  0.00000000000E+00 -0.98799912693E+03  0.39129006827E+04  0.37861127133E+04 0.  0.
        3    1    3    3  502    0 -0.42158173155E+03 -0.11150016787E+04  0.10258607434E+04  0.15726888360E+04  0.10100000352E+00 0. -1.
       -3    1    3    3    0  502  0.42158173155E+03  0.11150016787E+04 -0.20138598703E+04  0.23402118467E+04  0.10100000352E+00 0.  1.
</event>
<event>
 5   0  0.5325362E-07  0.3695571E+04  0.7818609E-02  0.8068944E-01
       -2   -1    0    0    0  501  0.00000000000E+00  0.00000000000E+00  0.21794773061E+04  0.21794773061E+04  0.25500000920E-02 0. -1.
        2   -1    0    0  501    0  0.00000000000E+00  0.00000000000E+00 -0.15665730496E+04  0.15665730496E+04  0.25500000920E-02 0.  1.
    10030    2    1    2    0    0  0.00000000000E+00  0.00000000000E+00  0.61290425650E+03  0.37460503557E+04  0.36955705432E+04 0.  0.
        4    1    3    3  502    0  0.16660857238E+04  0.43257695249E+03  0.98745056301E+03  0.19844456874E+04  0.12699999809E+01 0. -1.
       -4    1    3    3    0  502 -0.16660857238E+04 -0.43257695249E+03 -0.37454630651E+03  0.17616046683E+04  0.12699999809E+01 0.  1.
</event>
<event>
 5   0  0.1648000E-07  0.2922482E+04  0.7818609E-02  0.8266220E-01
       -1   -1    0    0    0  501  0.00000000000E+00  0.00000000000E+00  0.16066393869E+04  0.16066393869E+04  0.50400001928E-02 0. -1.
        1   -1    0    0  501    0  0.00000000000E+00  0.00000000000E+00 -0.13290012547E+04  0.13290012548E+04  0.50400001928E-02 0.  1.
    10030    2    1    2    0    0  0.00000000000E+00  0.00000000000E+00  0.27763813218E+03  0.29356406417E+04  0.29224823429E+04 0.  0.
        1    1    3    3  502    0 -0.13802047778E+04 -0.46487112369E+03  0.19307037028E+02  0.14565174740E+04  0.50400001928E-02 0.  1.
       -1    1    3    3    0  502  0.13802047778E+04  0.46487112369E+03  0.25833109515E+03  0.14791231677E+04  0.50400001928E-02 0. -1.
</event>
<event>
 5   0  0.5325362E-07  0.3754392E+04  0.7818609E-02  0.8056014E-01
        2   -1    0    0  501    0  0.00000000000E+00  0.00000000000E+00  0.20278836171E+04  0.20278836171E+04  0.25500000920E-02 0. -1.
       -2   -1    0    0    0  501  0.00000000000E+00  0.00000000000E+00 -0.17377054514E+04  0.17377054514E+04  0.25500000920E-02 0.  1.
    10030    2    1    2    0    0  0.00000000000E+00  0.00000000000E+00  0.29017816577E+03  0.37655890685E+04  0.37543917836E+04 0.  0.
        4    1    3    3  502    0 -0.14134084172E+04 -0.80456653186E+03  0.10853347893E+04  0.19552503358E+04  0.12699999809E+01 0. -1.
       -4    1    3    3    0  502  0.14134084172E+04  0.80456653186E+03 -0.79515662352E+03  0.18103387326E+04  0.12699999809E+01 0.  1.
</event>
<event>
 5   0  0.1648000E-07  0.3803395E+04  0.7818609E-02  0.8045427E-01
        1   -1    0    0  501    0  0.00000000000E+00  0.00000000000E+00  0.11971204441E+04  0.11971204441E+04  0.50400001928E-02 0. -1.
       -1   -1    0    0    0  501  0.00000000000E+00  0.00000000000E+00 -0.30209598567E+04  0.30209598567E+04  0.50400001928E-02 0.  1.
    10030    2    1    2    0    0  0.00000000000E+00  0.00000000000E+00 -0.18238394126E+04  0.42180803008E+04  0.38033946970E+04 0.  0.
        3    1    3    3  502    0 -0.18983985467E+04  0.41731885578E+02 -0.79669682470E+03  0.20592193747E+04  0.10100000352E+00 0. -1.
       -3    1    3    3    0  502  0.18983985467E+04 -0.41731885578E+02 -0.10271425879E+04  0.21588609261E+04  0.10100000352E+00 0.  1.
</event>
<event>
 5   0  0.5132561E-07  0.3788434E+04  0.7818609E-02  0.8048641E-01
        2   -1    0    0  501    0  0.00000000000E+00  0.00000000000E+00  0.21671766737E+04  0.21671766737E+04  0.25500000920E-02 0. -1.
       -2   -1    0    0    0  501  0.00000000000E+00  0.00000000000E+00 -0.16556372659E+04  0.16556372659E+04  0.25500000920E-02 0.  1.
    10030    2    1    2    0    0  0.00000000000E+00  0.00000000000E+00  0.51153940784E+03  0.38228139396E+04  0.37884342216E+04 0.  0.
        3    1    3    3  502    0 -0.10089389371E+04 -0.10854247452E+04 -0.93474789515E+03  0.17521011084E+04  0.10100000352E+00 0.  1.
       -3    1    3    3    0  502  0.10089389371E+04  0.10854247452E+04  0.14462873030E+04  0.20707128312E+04  0.10100000352E+00 0. -1.
</event>
<event>
 5   0  0.5132561E-07  0.3813659E+04  0.7818609E-02  0.8043230E-01
        2   -1    0    0  501    0  0.00000000000E+00  0.00000000000E+00  0.15916077691E+04  0.15916077691E+04  0.25500000920E-02 0. -1.
       -2   -1    0    0    0  501  0.00000000000E+00  0.00000000000E+00 -0.22844818938E+04  0.22844818938E+04  0.25500000920E-02 0.  1.
    10030    2    1    2    0    0  0.00000000000E+00  0.00000000000E+00 -0.69287412469E+03  0.38760896630E+04  0.38136592038E+04 0.  0.
        3    1    3    3  502    0 -0.16297493457E+04  0.98721114948E+03 -0.27223272885E+03  0.19247803647E+04  0.10100000352E+00 0.  1.
       -3    1    3    3    0  502  0.16297493457E+04 -0.98721114948E+03 -0.42064139584E+03  0.19513092983E+04  0.10100000352E+00 0. -1.
</event>
<event>
 5   0  0.1648000E-07  0.3820204E+04  0.7818609E-02  0.8041833E-01
        1   -1    0    0  501    0  0.00000000000E+00  0.00000000000E+00  0.29441582597E+04  0.29441582597E+04  0.50400001928E-02 0.  1.
       -1   -1    0    0    0  501  0.00000000000E+00  0.00000000000E+00 -0.12392303783E+04  0.12392303783E+04  0.50400001928E-02 0. -1.
    10030    2    1    2    0    0  0.00000000000E+00  0.00000000000E+00  0.17049278814E+04  0.41833886380E+04  0.38202043683E+04 0.  0.
        1    1    3    3  502    0 -0.17854119900E+04  0.67874417006E+03  0.84147327271E+03  0.20872151042E+04  0.50400001928E-02 0. -1.
       -1    1    3    3    0  502  0.17854119900E+04 -0.67874417006E+03  0.86345460867E+03  0.20961735338E+04  0.50400001928E-02 0.  1.
</event>
<event>
 5   0  0.1648000E-07  0.3736306E+04  0.7818609E-02  0.8059963E-01
        1   -1    0    0  501    0  0.00000000000E+00  0.00000000000E+00  0.27129710229E+04  0.27129710229E+04  0.50400001928E-02 0.  1.
       -1   -1    0    0    0  501  0.00000000000E+00  0.00000000000E+00 -0.12864108586E+04  0.12864108586E+04  0.50400001928E-02 0. -1.
    10030    2    1    2    0    0  0.00000000000E+00  0.00000000000E+00  0.14265601643E+04  0.39993818815E+04  0.37363058670E+04 0.  0.
        1    1    3    3  502    0 -0.75676393103E+03 -0.61191708380E+03  0.24201946387E+04  0.26085391034E+04  0.50400001928E-02 0.  1.
       -1    1    3    3    0  502  0.75676393103E+03  0.61191708380E+03 -0.99363447440E+03  0.13908427781E+04  0.50400001928E-02 0. -1.
</event>
<event>
 5   0  0.5202788E-07  0.3816559E+04  0.7818609E-02  0.8042611E-01
       -2   -1    0    0    0  501  0.00000000000E+00  0.00000000000E+00  0.23676333352E+04  0.23676333352E+04  0.25500000920E-02 0.  1.
        2   -1    0    0  501    0  0.00000000000E+00  0.00000000000E+00 -0.15380470734E+04  0.15380470734E+04  0.25500000920E-02 0. -1.
    10030    2    1    2    0    0  0.00000000000E+00  0.00000000000E+00  0.82958626177E+03  0.39056804086E+04  0.38165594569E+04 0.  0.
        1    1    3    3  502    0  0.78838742514E+03 -0.17376660988E+04  0.43752256033E+03  0.19576680500E+04  0.50400001928E-02 0.  1.
       -1    1    3    3    0  502 -0.78838742514E+03  0.17376660988E+04  0.39206370144E+03  0.19480123586E+04  0.50400001928E-02 0. -1.
</event>
<event>
 5   0  0.1648000E-07  0.3482574E+04  0.7818609E-02  0.8117932E-01
       -1   -1    0    0    0  501  0.00000000000E+00  0.00000000000E+00  0.17301301636E+04  0.17301301636E+04  0.50400001928E-02 0. -1.
        1   -1    0    0  501    0  0.00000000000E+00  0.00000000000E+00 -0.17525154475E+04  0.17525154475E+04  0.50400001928E-02 0.  1.
    10030    2    1    2    0    0  0.00000000000E+00  0.00000000000E+00 -0.22385283965E+02  0.34826456111E+04  0.34825736678E+04 0.  0.
        4    1    3    3  502    0  0.63428651839E+03  0.80074835840E+03 -0.14213852050E+04  0.17503870528E+04  0.12699999809E+01 0.  1.
       -4    1    3    3    0  502 -0.63428651839E+03 -0.80074835840E+03  0.13989999210E+04  0.17322585583E+04  0.12699999809E+01 0. -1.
</event>
<event>
 5   0  0.5134434E-07  0.3799733E+04  0.7818609E-02  0.8046212E-01
        2   -1    0    0  501    0  0.00000000000E+00  0.00000000000E+00  0.18545215358E+04  0.18545215358E+04  0.25500000920E-02 0.  1.
       -2   -1    0    0    0  501  0.00000000000E+00  0.00000000000E+00 -0.19463197771E+04  0.19463197771E+04  0.25500000920E-02 0. -1.
    10030    2    1    2    0    0  0.00000000000E+00  0.00000000000E+00 -0.91798241282E+02  0.38008413129E+04  0.37997325918E+04 0.  0.
        5    1    3    3  502    0 -0.19169628280E+03 -0.54761456465E+03 -0.18555264066E+04  0.19441269279E+04  0.46999998093E+01 0. -1.
       -5    1    3    3    0  502  0.19169628280E+03  0.54761456465E+03  0.17637281653E+04  0.18567143850E+04  0.46999998093E+01 0.  1.
</event>
<event>
 5   0  0.1648000E-07  0.3682357E+04  0.7818609E-02  0.8071883E-01
       -1   -1    0    0    0  501  0.00000000000E+00  0.00000000000E+00  0.16291529172E+04  0.16291529173E+04  0.50400001928E-02 0. -1.
        1   -1    0    0  501    0  0.00000000000E+00  0.00000000000E+00 -0.20807985745E+04  0.20807985745E+04  0.50400001928E-02 0.  1.
    10030    2    1    2    0    0  0.00000000000E+00  0.00000000000E+00 -0.45164565724E+03  0.37099514918E+04  0.36823574340E+04 0.  0.
        2    1    3    3  502    0  0.13766381459E+04  0.11258995009E+04 -0.70600403401E+03  0.19134325091E+04  0.25500000920E-02 0.  1.
       -2    1    3    3    0  502 -0.13766381459E+04 -0.11258995009E+04  0.25435837677E+03  0.17965189826E+04  0.25500000920E-02 0. -1.
</event>
<event>
 5   0  0.1656617E-07  0.3802676E+04  0.7818609E-02  0.8045581E-01
        1   -1    0    0  501    0  0.00000000000E+00  0.00000000000E+00  0.15904156820E+04  0.15904156820E+04  0.50400001928E-02 0. -1.
       -1   -1    0    0    0  501  0.00000000000E+00  0.00000000000E+00 -0.22730453495E+04  0.22730453495E+04  0.50400001928E-02 0.  1.
    10030    2    1    2    0    0  0.00000000000E+00  0.00000000000E+00 -0.68262966748E+03  0.38634610316E+04  0.38026764100E+04 0.  0.
        5    1    3    3  502    0  0.12713760449E+04  0.11748331055E+04  0.45766202003E+03  0.17905603837E+04  0.46999998093E+01 0. -1.
       -5    1    3    3    0  502 -0.12713760449E+04 -0.11748331055E+04 -0.11402916875E+04  0.20729006478E+04  0.46999998093E+01 0.  1.
</event>
<event>
 5   0  0.1648000E-07  0.3803865E+04  0.7818609E-02  0.8045326E-01
        1   -1    0    0  501    0  0.00000000000E+00  0.00000000000E+00  0.24577586553E+04  0.24577586553E+04  0.50400001928E-02 0.  1.
       -1   -1    0    0    0  501  0.00000000000E+00  0.00000000000E+00 -0.14718071012E+04  0.14718071013E+04  0.50400001928E-02 0. -1.
    10030    2    1    2    0    0  0.00000000000E+00  0.00000000000E+00  0.98595155401E+03  0.39295657565E+04  0.38038646884E+04 0.  0.
        1    1    3    3  502    0  0.51415311737E+03  0.97647295276E+03 -0.11072428286E+04  0.15632784580E+04  0.50400001928E-02 0. -1.
       -1    1    3    3    0  502 -0.51415311737E+03 -0.97647295276E+03  0.20931943827E+04  0.23662872985E+04  0.50400001928E-02 0.  1.
</event>
<event>
 5   0  0.5134434E-07  0.3769173E+04  0.7818609E-02  0.8052803E-01
        2   -1    0    0  501    0  0.00000000000E+00  0.00000000000E+00  0.21261415267E+04  0.21261415267E+04  0.25500000920E-02 0. -1.
       -2   -1    0    0    0  501  0.00000000000E+00  0.00000000000E+00 -0.16704750171E+04  0.16704750171E+04  0.25500000920E-02 0.  1.
    10030    2    1    2    0    0  0.00000000000E+00  0.00000000000E+00  0.45566650957E+03  0.37966165438E+04  0.37691730145E+04 0.  0.
        5    1    3    3  502    0  0.11965711728E+04  0.48324673365E+03 -0.11556056551E+04  0.17322691758E+04  0.46999998093E+01 0.  1.
       -5    1    3    3    0  502 -0.11965711728E+04 -0.48324673365E+03  0.16112721647E+04  0.20643473680E+04  0.46999998093E+01 0. -1.
</event>
<event>
 5   0  0.1648000E-07  0.3846213E+04  0.7818609E-02  0.8036310E-01
        1   -1    0    0  501    0  0.00000000000E+00  0.00000000000E+00  0.15395288475E+04  0.15395288475E+04  0.50400001928E-02 0.  1.
       -1   -1    0    0    0  501  0.00000000000E+00  0.00000000000E+00 -0.24022540780E+04  0.24022540780E+04  0.50400001928E-02 0. -1.
    10030    2    1    2    0    0  0.00000000000E+00  0.00000000000E+00 -0.86272523045E+03  0.39417829255E+04  0.38462134377E+04 0.  0.
        2    1    3    3  502    0  0.35019322918E+03  0.18904547498E+04 -0.38686730705E+03  0.19611529191E+04  0.25500000920E-02 0. -1.
       -2    1    3    3    0  502 -0.35019322918E+03 -0.18904547498E+04 -0.47585792340E+03  0.19806300064E+04  0.25500000920E-02 0.  1.
</event>
<event>
 5   0  0.1648000E-07  0.3766613E+04  0.7818609E-02  0.8053358E-01
        1   -1    0    0  501    0  0.00000000000E+00  0.00000000000E+00  0.17857507405E+04  0.17857507406E+04  0.50400001928E-02 0. -1.
       -1   -1    0    0    0  501  0.00000000000E+00  0.00000000000E+00 -0.19861915357E+04  0.19861915357E+04  0.50400001928E-02 0.  1.
    10030    2    1    2    0    0  0.00000000000E+00  0.00000000000E+00 -0.20044079512E+03  0.37719422762E+04  0.37666128050E+04 0.  0.
        3    1    3    3  502    0  0.12106888972E+04 -0.11587610883E+04 -0.96070806233E+03  0.19316974030E+04  0.10100000352E+00 0.  1.
       -3    1    3    3    0  502 -0.12106888972E+04  0.11587610883E+04  0.76026726721E+03  0.18402448732E+04  0.10100000352E+00 0. -1.
</event>
<event>
 5   0  0.5132561E-07  0.3802090E+04  0.7818609E-02  0.8045707E-01
       -2   -1    0    0    0  501  0.00000000000E+00  0.00000000000E+00  0.16029132578E+04  0.16029132578E+04  0.25500000920E-02 0.  1.
        2   -1    0    0  501    0  0.00000000000E+00  0.00000000000E+00 -0.22546273196E+04  0.22546273196E+04  0.25500000920E-02 0. -1.
    10030    2    1    2    0    0  0.00000000000E+00  0.00000000000E+00 -0.65171406186E+03  0.38575405774E+04  0.38020899631E+04 0.  0.
        3    1    3    3  502    0 -0.94505932605E+03 -0.95988261333E+03 -0.16868605346E+04  0.21587056850E+04  0.10100000352E+00 0. -1.
       -3    1    3    3    0  502  0.94505932605E+03  0.95988261333E+03  0.10351464728E+04  0.16988348923E+04  0.10100000352E+00 0.  1.
</event>
<event>
 5   0  0.5134434E-07  0.3765952E+04  0.7818609E-02  0.8053501E-01
        2   -1    0    0  501    0  0.00000000000E+00  0.00000000000E+00  0.12261111361E+04  0.12261111361E+04  0.25500000920E-02 0.  1.
       -2   -1    0    0    0  501  0.00000000000E+00  0.00000000000E+00 -0.28917436783E+04  0.28917436783E+04  0.25500000920E-02 0. -1.
    10030    2    1    2    0    0  0.00000000000E+00  0.00000000000E+00 -0.16656325422E+04  0.41178548144E+04  0.37659522709E+04 0.  0.
        5    1    3    3  502    0 -0.77477764425E+03 -0.13646090194E+04  0.30517331583E+03  0.15986215989E+04  0.46999998093E+01 0.  1.
       -5    1    3    3    0  502  0.77477764425E+03  0.13646090194E+04 -0.19708058580E+04  0.25192332155E+04  0.46999998093E+01 0. -1.
</event>
<event>
 5   0  0.5202788E-07  0.2983543E+04  0.7818609E-02  0.8248446E-01
       -2   -1    0    0    0  501  0.00000000000E+00  0.00000000000E+00  0.97447262986E+03  0.97447262986E+03  0.25500000920E-02 0. -1.
        2   -1    0    0  501    0  0.00000000000E+00  0.00000000000E+00 -0.22836777740E+04  0.22836777740E+04  0.25500000920E-02 0.  1.
    10030    2    1    2    0    0  0.00000000000E+00  0.00000000000E+00 -0.13092051441E+04  0.32581504038E+04  0.29835425160E+04 0.  0.
        1    1    3    3  502    0 -0.11416016906E+04  0.62315289808E+03 -0.14524709374E+04  0.19496783782E+04  0.50400001928E-02 0.  1.
       -1    1    3    3    0  502  0.11416016906E+04 -0.62315289808E+03  0.14326579333E+03  0.13084720256E+04  0.50400001928E-02 0. -1.
</event>
<event>
 5   0  0.1648000E-07  0.3809267E+04  0.7818609E-02  0.8044169E-01
        1   -1    0    0  501    0  0.00000000000E+00  0.00000000000E+00  0.24470548531E+04  0.24470548531E+04  0.50400001928E-02 0.  1.
       -1   -1    0    0    0  501  0.00000000000E+00  0.00000000000E+00 -0.14824471763E+04  0.14824471764E+04  0.50400001928E-02 0. -1.
    10030    2    1    2    0    0  0.00000000000E+00  0.00000000000E+00  0.96460767676E+03  0.39295020295E+04  0.38092674138E+04 0.  0.
        4    1    3    3  502    0 -0.23697216696E+03 -0.16314040499E+04 -0.50174141929E+03  0.17231892080E+04  0.12699999809E+01 0. -1.
       -4    1    3    3    0  502  0.23697216696E+03  0.16314040499E+04  0.14663490961E+04  0.22063128215E+04  0.12699999809E+01 0.  1.
</event>
<event>
 5   0  0.1656617E-07  0.3858122E+04  0.7818609E-02  0.8033796E-01
        1   -1    0    0  501    0  0.00000000000E+00  0.00000000000E+00  0.10992603542E+04  0.10992603543E+04  0.50400001928E-02 0.  1.
       -1   -1    0    0    0  501  0.00000000000E+00  0.00000000000E+00 -0.33852544030E+04  0.33852544031E+04  0.50400001928E-02 0. -1.
    10030    2    1    2    0    0  0.00000000000E+00  0.00000000000E+00 -0.22859940488E+04  0.44845147573E+04  0.38581217992E+04 0.  0.
        5    1    3    3  502    0  0.25467940548E+03  0.18668294206E+04 -0.66185960794E+03  0.19969962233E+04  0.46999998093E+01 0. -1.
       -5    1    3    3    0  502 -0.25467940548E+03 -0.18668294206E+04 -0.16241344409E+04  0.24875185340E+04  0.46999998093E+01 0.  1.
</event>
<event>
 5   0  0.1648000E-07  0.3725181E+04  0.7818609E-02  0.8062404E-01
        1   -1    0    0  501    0  0.00000000000E+00  0.00000000000E+00  0.22251171707E+04  0.22251171707E+04  0.50400001928E-02 0. -1.
       -1   -1    0    0    0  501  0.00000000000E+00  0.00000000000E+00 -0.15591280346E+04  0.15591280346E+04  0.50400001928E-02 0.  1.
    10030    2    1    2    0    0  0.00000000000E+00  0.00000000000E+00  0.66598913612E+03  0.37842452053E+04  0.37251805653E+04 0.  0.
        3    1    3    3  502    0 -0.46597857458E+01  0.13368380934E+04  0.16505105057E+04  0.21239921707E+04  0.10100000352E+00 0. -1.
       -3    1    3    3    0  502  0.46597857458E+01 -0.13368380934E+04 -0.98452136954E+03  0.16602530346E+04  0.10100000352E+00 0.  1.
</event>
<event>
 5   0  0.5158266E-07  0.3812466E+04  0.7818609E-02  0.8043485E-01
       -2   -1    0    0    0  501  0.00000000000E+00  0.00000000000E+00  0.23163730023E+04  0.23163730023E+04  0.25500000920E-02 0.  1.
        2   -1    0    0  501    0  0.00000000000E+00  0.00000000000E+00 -0.15687132229E+04  0.15687132230E+04  0.25500000920E-02 0. -1.
    10030    2    1    2    0    0  0.00000000000E+00  0.00000000000E+00  0.74765977939E+03  0.38850862253E+04  0.38124663713E+04 0.  0.
        2    1    3    3  502    0  0.14335070904E+04 -0.10681194149E+04  0.10481773824E+04  0.20723169371E+04  0.25500000920E-02 0.  1.
       -2    1    3    3    0  502 -0.14335070904E+04  0.10681194149E+04 -0.30051760296E+03  0.18127692882E+04  0.25500000920E-02 0. -1.
</event>
<event>
 5   0  0.1648000E-07  0.3814579E+04  0.7818609E-02  0.8043033E-01
        1   -1    0    0  501    0  0.00000000000E+00  0.00000000000E+00  0.18465679183E+04  0.18465679183E+04  0.50400001928E-02 0.  1.
       -1   -1    0    0    0  501  0.00000000000E+00  0.00000000000E+00 -0.19700079139E+04  0.19700079139E+04  0.50400001928E-02 0. -1.
    10030    2    1    2    0    0  0.00000000000E+00  0.00000000000E+00 -0.12343999553E+03  0.38165758322E+04  0.38145790922E+04 0.  0.
        3    1    3    3  502    0  0.43309348319E+03 -0.16683339310E+04 -0.87875343307E+03  0.19347133320E+04  0.10100000352E+00 0. -1.
       -3    1    3    3    0  502 -0.43309348319E+03  0.16683339310E+04  0.75531343754E+03  0.18818625002E+04  0.10100000352E+00 0.  1.
</event>
<event>
 5   0  0.1648000E-07  0.3995866E+04  0.7818609E-02  0.8005381E-01
       -1   -1    0    0    0  501  0.00000000000E+00  0.00000000000E+00  0.17998132365E+04  0.17998132365E+04  0.50400001928E-02 0.  1.
        1   -1    0    0  501    0  0.00000000000E+00  0.00000000000E+00 -0.22178609837E+04  0.22178609837E+04  0.50400001928E-02 0. -1.
    10030    2    1    2    0    0  0.00000000000E+00  0.00000000000E+00 -0.41804774721E+03  0.40176742202E+04  0.39958656410E+04 0.  0.
        2    1    3    3  502    0 -0.28292906487E+03  0.15281515279E+04 -0.14714399322E+04  0.21401942487E+04  0.25500000920E-02 0. -1.
       -2    1    3    3    0  502  0.28292906487E+03 -0.15281515279E+04  0.10533921850E+04  0.18774799715E+04  0.25500000920E-02 0.  1.
</event>
<event>
 5   0  0.1648000E-07  0.3820016E+04  0.7818609E-02  0.8041873E-01
        1   -1    0    0  501    0  0.00000000000E+00  0.00000000000E+00  0.20215897881E+04  0.20215897881E+04  0.50400001928E-02 0.  1.
       -1   -1    0    0    0  501  0.00000000000E+00  0.00000000000E+00 -0.18045848363E+04  0.18045848363E+04  0.50400001928E-02 0. -1.
    10030    2    1    2    0    0  0.00000000000E+00  0.00000000000E+00  0.21700495176E+03  0.38261746244E+04  0.38200158517E+04 0.  0.
        4    1    3    3  502    0  0.71592473339E+03 -0.11429140610E+04  0.14632095535E+04  0.19899207484E+04  0.12699999809E+01 0.  1.
       -4    1    3    3    0  502 -0.71592473339E+03  0.11429140610E+04 -0.12462046017E+04  0.18362538760E+04  0.12699999809E+01 0. -1.
</event>
<event>
 5   0  0.5202788E-07  0.3281810E+04  0.7818609E-02  0.8167539E-01
       -2   -1    0    0    0  501  0.00000000000E+00  0.00000000000E+00  0.12031563305E+04  0.12031563305E+04  0.25500000920E-02 0. -1.
        2   -1    0    0  501    0  0.00000000000E+00  0.00000000000E+00 -0.22379214759E+04  0.22379214759E+04  0.25500000920E-02 0.  1.
    10030    2    1    2    0    0  0.00000000000E+00  0.00000000000E+00 -0.10347651454E+04  0.34410778065E+04  0.32818101048E+04 0.  0.
        1    1    3    3  502    0 -0.59471380934E+03 -0.15289492111E+04 -0.48107273429E+03  0.17096201861E+04  0.50400001928E-02 0.  1.
       -1    1    3    3    0  502  0.59471380934E+03  0.15289492111E+04 -0.55369241111E+03  0.17314576204E+04  0.50400001928E-02 0. -1.
</event>
<event>
 5   0  0.5132561E-07  0.3887109E+04  0.7818609E-02  0.8027716E-01
       -2   -1    0    0    0  501  0.00000000000E+00  0.00000000000E+00  0.23868168541E+04  0.23868168541E+04  0.25500000920E-02 0. -1.
        2   -1    0    0  501    0  0.00000000000E+00  0.00000000000E+00 -0.15826116197E+04  0.15826116197E+04  0.25500000920E-02 0.  1.
    10030    2    1    2    0    0  0.00000000000E+00  0.00000000000E+00  0.80420523440E+03  0.39694284738E+04  0.38871089963E+04 0.  0.
        3    1    3    3  502    0 -0.28834559286E+03 -0.17059138041E+04 -0.50215514986E+03  0.18015118353E+04  0.10100000352E+00 0.  1.
       -3    1    3    3    0  502  0.28834559286E+03  0.17059138041E+04  0.13063603843E+04  0.21679166385E+04  0.10100000352E+00 0. -1.
</event>
<event>
 5   0  0.1648000E-07  0.3777821E+04  0.7818609E-02  0.8050931E-01
        1   -1    0    0  501    0  0.00000000000E+00  0.00000000000E+00  0.20078082103E+04  0.20078082103E+04  0.50400001928E-02 0.  1.
       -1   -1    0    0    0  501  0.00000000000E+00  0.00000000000E+00 -0.17770540561E+04  0.17770540561E+04  0.50400001928E-02 0. -1.
    10030    2    1    2    0    0  0.00000000000E+00  0.00000000000E+00  0.23075415422E+03  0.37848622664E+04  0.37778214484E+04 0.  0.
        2    1    3    3  502    0 -0.38607396972E+03  0.61693905796E+02 -0.17360726359E+04  0.17795525970E+04  0.25500000920E-02 0. -1.
       -2    1    3    3    0  502  0.38607396972E+03 -0.61693905796E+02  0.19668267901E+04  0.20053096695E+04  0.25500000920E-02 0.  1.
</event>
<event>
 5   0  0.1656617E-07  0.3766626E+04  0.7818609E-02  0.8053355E-01
        1   -1    0    0  501    0  0.00000000000E+00  0.00000000000E+00  0.30821655894E+04  0.30821655894E+04  0.50400001928E-02 0. -1.
       -1   -1    0    0    0  501  0.00000000000E+00  0.00000000000E+00 -0.11507714347E+04  0.11507714347E+04  0.50400001928E-02 0.  1.
    10030    2    1    2    0    0  0.00000000000E+00  0.00000000000E+00  0.19313941546E+04  0.42329370241E+04  0.37666261388E+04 0.  0.
        5    1    3    3  502    0 -0.37143412248E+03  0.13173845987E+04 -0.48804261479E+03  0.14531597201E+04  0.46999998093E+01 0.  1.
       -5    1    3    3    0  502  0.37143412248E+03 -0.13173845987E+04  0.24194367694E+04  0.27797773040E+04  0.46999998093E+01 0. -1.
</event>
<event>
 5   0  0.5134434E-07  0.2975941E+04  0.7818609E-02  0.8250635E-01
       -2   -1    0    0    0  501  0.00000000000E+00  0.00000000000E+00  0.14578144413E+04  0.14578144413E+04  0.25500000920E-02 0.  1.
        2   -1    0    0  501    0  0.00000000000E+00  0.00000000000E+00 -0.15187502420E+04  0.15187502420E+04  0.25500000920E-02 0. -1.
    10030    2    1    2    0    0  0.00000000000E+00  0.00000000000E+00 -0.60935800678E+02  0.29765646832E+04  0.29759408834E+04 0.  0.
        5    1    3    3  502    0  0.12630012573E+04  0.77468501637E+03  0.10639972060E+03  0.14854804075E+04  0.46999998093E+01 0.  1.
       -5    1    3    3    0  502 -0.12630012573E+04 -0.77468501637E+03 -0.16733552128E+03  0.14910842757E+04  0.46999998093E+01 0. -1.
</event>
<event>
 5   0  0.5202788E-07  0.3919166E+04  0.7818609E-02  0.8021055E-01
        2   -1    0    0  501    0  0.00000000000E+00  0.00000000000E+00  0.18239063518E+04  0.18239063518E+04  0.25500000920E-02 0.  1.
       -2   -1    0    0    0  501  0.00000000000E+00  0.00000000000E+00 -0.21053524883E+04  0.21053524883E+04  0.25500000920E-02 0. -1.
    10030    2    1    2    0    0  0.00000000000E+00  0.00000000000E+00 -0.28144613648E+03  0.39292588401E+04  0.39191661236E+04 0.  0.
        1    1    3    3  502    0 -0.13573808528E+04  0.29335678223E+03 -0.15268262935E+04  0.20639136396E+04  0.50400001928E-02 0. -1.
       -1    1    3    3    0  502  0.13573808528E+04 -0.29335678223E+03  0.12453801571E+04  0.18653452004E+04  0.50400001928E-02 0.  1.
</event>
<event>
 5   0  0.1648000E-07  0.3099937E+04  0.7818609E-02  0.8215755E-01
        3   -1    0    0  501    0  0.00000000000E+00  0.00000000000E+00  0.17043281340E+04  0.17043281370E+04  0.10100000352E+00 0.  1.
       -3   -1    0    0    0  501  0.00000000000E+00  0.00000000000E+00 -0.14095895364E+04  0.14095895401E+04  0.10100000352E+00 0. -1.
    10030    2    1    2    0    0  0.00000000000E+00  0.00000000000E+00  0.29473859757E+03  0.31139176771E+04  0.30999374927E+04 0.  0.
        3    1    3    3  502    0  0.22917047676E+03 -0.14069055761E+04  0.75880205972E+03  0.16148321843E+04  0.10100000352E+00 0.  1.
       -3    1    3    3    0  502 -0.22917047676E+03  0.14069055761E+04 -0.46406346214E+03  0.14990854927E+04  0.10100000352E+00 0. -1.
</event>
<event>
 5   0  0.1648000E-07  0.3874303E+04  0.7818609E-02  0.8030395E-01
        1   -1    0    0  501    0  0.00000000000E+00  0.00000000000E+00  0.11210070798E+04  0.11210070798E+04  0.50400001928E-02 0. -1.
       -1   -1    0    0    0  501  0.00000000000E+00  0.00000000000E+00 -0.33474866887E+04  0.33474866887E+04  0.50400001928E-02 0.  1.
    10030    2    1    2    0    0  0.00000000000E+00  0.00000000000E+00 -0.22264796089E+04  0.44684937686E+04  0.38743031775E+04 0.  0.
        4    1    3    3  502    0 -0.11928769446E+02 -0.67549888191E+03 -0.32072010588E+04  0.32775877226E+04  0.12699999809E+01 0.  1.
       -4    1    3    3    0  502  0.11928769446E+02  0.67549888191E+03  0.98072144993E+03  0.11909060459E+04  0.12699999809E+01 0. -1.
</event>
<event>
 5   0  0.5325362E-07  0.3815321E+04  0.7818609E-02  0.8042875E-01
       -2   -1    0    0    0  501  0.00000000000E+00  0.00000000000E+00  0.28797806509E+04  0.28797806509E+04  0.25500000920E-02 0. -1.
        2   -1    0    0  501    0  0.00000000000E+00  0.00000000000E+00 -0.12636965269E+04  0.12636965269E+04  0.25500000920E-02 0.  1.
    10030    2    1    2    0    0  0.00000000000E+00  0.00000000000E+00  0.16160841240E+04  0.41434771778E+04  0.38153211171E+04 0.  0.
        4    1    3    3  502    0  0.11699903122E+04 -0.65623070533E+03 -0.66495401414E+03  0.14972246067E+04  0.12699999809E+01 0.  1.
       -4    1    3    3    0  502 -0.11699903122E+04  0.65623070533E+03  0.22810381381E+04  0.26462525710E+04  0.12699999809E+01 0. -1.
</event>
<event>
 5   0  0.5132561E-07  0.3869770E+04  0.7818609E-02  0.8031346E-01
       -2   -1    0    0    0  501  0.00000000000E+00  0.00000000000E+00  0.28980875568E+04  0.28980875568E+04  0.25500000920E-02 0. -1.
        2   -1    0    0  501    0  0.00000000000E+00  0.00000000000E+00 -0.12918103010E+04  0.12918103010E+04  0.25500000920E-02 0.  1.
    10030    2    1    2    0    0  0.00000000000E+00  0.00000000000E+00  0.16062772558E+04  0.41898978579E+04  0.38697696878E+04 0.  0.
        3    1    3    3  502    0 -0.12131551148E+04 -0.13134780165E+04  0.16037769059E+04  0.24018888830E+04  0.10100000352E+00 0.  1.
       -3    1    3    3    0  502  0.12131551148E+04  0.13134780165E+04  0.25003498390E+01  0.17880089748E+04  0.10100000352E+00 0. -1.
</event>
<event>
 5   0  0.5134434E-07  0.3772022E+04  0.7818609E-02  0.8052186E-01
        2   -1    0    0  501    0  0.00000000000E+00  0.00000000000E+00  0.23033651429E+04  0.23033651429E+04  0.25500000920E-02 0.  1.
       -2   -1    0    0    0  501  0.00000000000E+00  0.00000000000E+00 -0.15442784190E+04  0.15442784190E+04  0.25500000920E-02 0. -1.
    10030    2    1    2    0    0  0.00000000000E+00  0.00000000000E+00  0.75908672390E+03  0.38476435619E+04  0.37720217822E+04 0.  0.
        5    1    3    3  502    0  0.22966719083E+03  0.30964749538E+03  0.22627373239E+04  0.22953498376E+04  0.46999998093E+01 0.  1.
       -5    1    3    3    0  502 -0.22966719083E+03 -0.30964749538E+03 -0.15036506000E+04  0.15522937244E+04  0.46999998093E+01 0. -1.
</event>
<event>
 5   0  0.5134434E-07  0.2840453E+04  0.7818609E-02  0.8290818E-01
       -2   -1    0    0    0  501  0.00000000000E+00  0.00000000000E+00  0.10252278930E+04  0.10252278930E+04  0.25500000920E-02 0. -1.
        2   -1    0    0  501    0  0.00000000000E+00  0.00000000000E+00 -0.19674096026E+04  0.19674096026E+04  0.25500000920E-02 0.  1.
    10030    2    1    2    0    0  0.00000000000E+00  0.00000000000E+00 -0.94218170967E+03  0.29926374956E+04  0.28404529227E+04 0.  0.
        5    1    3    3  502    0  0.13086646401E+04  0.33496121982E+03 -0.91731375541E+01  0.13508917039E+04  0.46999998093E+01 0. -1.
       -5    1    3    3    0  502 -0.13086646401E+04 -0.33496121982E+03 -0.93300857212E+03  0.16417457918E+04  0.46999998093E+01 0.  1.
</event>
<event>
 5   0  0.5134434E-07  0.3803713E+04  0.7818609E-02  0.8045359E-01
        2   -1    0    0  501    0  0.00000000000E+00  0.00000000000E+00  0.14975509412E+04  0.14975509412E+04  0.25500000920E-02 0.  1.
       -2   -1    0    0    0  501  0.00000000000E+00  0.00000000000E+00 -0.24153159055E+04  0.24153159055E+04  0.25500000920E-02 0. -1.
    10030    2    1    2    0    0  0.00000000000E+00  0.00000000000E+00 -0.91776496433E+03  0.39128668467E+04  0.38037132424E+04 0.  0.
        5    1    3    3  502    0  0.90526116719E+03 -0.56341288899E+03  0.11611447104E+04  0.15764551985E+04  0.46999998093E+01 0.  1.
       -5    1    3    3    0  502 -0.90526116719E+03  0.56341288899E+03 -0.20789096747E+04  0.23364116482E+04  0.46999998093E+01 0. -1.
</event>
<event>
 5   0  0.1656617E-07  0.3862966E+04  0.7818609E-02  0.8032776E-01
        1   -1    0    0  501    0  0.00000000000E+00  0.00000000000E+00  0.16620632496E+04  0.16620632496E+04  0.50400001928E-02 0. -1.
       -1   -1    0    0    0  501  0.00000000000E+00  0.00000000000E+00 -0.22445754391E+04  0.22445754391E+04  0.50400001928E-02 0.  1.
    10030    2    1    2    0    0  0.00000000000E+00  0.00000000000E+00 -0.58251218952E+03  0.39066386887E+04  0.38629658804E+04 0.  0.
        5    1    3    3  502    0 -0.64525639506E+03  0.58463570212E+03  0.14523148361E+04  0.16933384755E+04  0.46999998093E+01 0. -1.
       -5    1    3    3    0  502  0.64525639506E+03 -0.58463570212E+03 -0.20348270256E+04  0.22133002132E+04  0.46999998093E+01 0.  1.
</event>
<event>
 5   0  0.5202788E-07  0.3840064E+04  0.7818609E-02  0.8037612E-01
        2   -1    0    0  501    0  0.00000000000E+00  0.00000000000E+00  0.21865024324E+04  0.21865024324E+04  0.25500000920E-02 0. -1.
       -2   -1    0    0    0  501  0.00000000000E+00  0.00000000000E+00 -0.16860363156E+04  0.16860363156E+04  0.25500000920E-02 0.  1.
    10030    2    1    2    0    0  0.00000000000E+00  0.00000000000E+00  0.50046611677E+03  0.38725387481E+04  0.38400638043E+04 0.  0.
        1    1    3    3  502    0  0.99204184983E+03  0.46919634239E+03 -0.13386003562E+04  0.17309370737E+04  0.50400001928E-02 0.  1.
       -1    1    3    3    0  502 -0.99204184983E+03 -0.46919634239E+03  0.18390664730E+04  0.21416016743E+04  0.50400001928E-02 0. -1.
</event>
<event>
 5   0  0.1648000E-07  0.3779983E+04  0.7818609E-02  0.8050464E-01
       -1   -1    0    0    0  501  0.00000000000E+00  0.00000000000E+00  0.14419377976E+04  0.14419377976E+04  0.50400001928E-02 0.  1.
        1   -1    0    0  501    0  0.00000000000E+00  0.00000000000E+00 -0.24772693854E+04  0.24772693854E+04  0.50400001928E-02 0. -1.
    10030    2    1    2    0    0  0.00000000000E+00  0.00000000000E+00 -0.10353315878E+04  0.39192071830E+04  0.37799832601E+04 0.  0.
        2    1    3    3  502    0  0.17126934351E+04 -0.79452108715E+03 -0.42795855494E+03  0.19359057532E+04  0.25500000920E-02 0.  1.
       -2    1    3    3    0  502 -0.17126934351E+04  0.79452108715E+03 -0.60737303283E+03  0.19833014298E+04  0.25500000920E-02 0. -1.
</event>
<event>
 5   0  0.1648000E-07  0.2884906E+04  0.7818609E-02  0.8277383E-01
        1   -1    0    0  501    0  0.00000000000E+00  0.00000000000E+00  0.21990053420E+04  0.21990053420E+04  0.50400001928E-02 0. -1.
       -1   -1    0    0    0  501  0.00000000000E+00  0.00000000000E+00 -0.94618729782E+03  0.94618729783E+03  0.50400001928E-02 0.  1.
    10030    2    1    2    0    0  0.00000000000E+00  0.00000000000E+00  0.12528180442E+04  0.31451926398E+04  0.28849061839E+04 0.  0.
        4    1    3    3  502    0  0.24517117517E+03 -0.97875308079E+02  0.21724447331E+04  0.21884255099E+04  0.12699999809E+01 0. -1.
       -4    1    3    3    0  502 -0.24517117517E+03  0.97875308079E+02 -0.91962668892E+03  0.95676712994E+03  0.12699999809E+01 0.  1.
</event>
<event>
 5   0  0.1648000E-07  0.2776824E+04  0.7818609E-02  0.8310500E-01
        1   -1    0    0  501    0  0.00000000000E+00  0.00000000000E+00  0.14762922924E+04  0.14762922924E+04  0.50400001928E-02 0.  1.
       -1   -1    0    0    0  501  0.00000000000E+00  0.00000000000E+00 -0.13057631756E+04  0.13057631756E+04  0.50400001928E-02 0. -1.
    10030    2    1    2    0    0  0.00000000000E+00  0.00000000000E+00  0.17052911675E+03  0.27820554680E+04  0.27768241657E+04 0.  0.
        3    1    3    3  502    0 -0.38470284189E+03  0.13287025034E+04  0.20482706324E+03  0.13983564478E+04  0.10100000352E+00 0.  1.
       -3    1    3    3    0  502  0.38470284189E+03 -0.13287025034E+04 -0.34297946490E+02  0.13836990202E+04  0.10100000352E+00 0. -1.
</event>
<event>
 5   0  0.5202788E-07  0.3761495E+04  0.7818609E-02  0.8054469E-01
       -2   -1    0    0    0  501  0.00000000000E+00  0.00000000000E+00  0.12117580820E+04  0.12117580820E+04  0.25500000920E-02 0.  1.
        2   -1    0    0  501    0  0.00000000000E+00  0.00000000000E+00 -0.29190736613E+04  0.29190736613E+04  0.25500000920E-02 0. -1.
    10030    2    1    2    0    0  0.00000000000E+00  0.00000000000E+00 -0.17073155793E+04  0.41308317433E+04  0.37614949693E+04 0.  0.
        1    1    3    3  502    0  0.53401787059E+02  0.17538969941E+04 -0.15970307892E+04  0.23726596381E+04  0.50400001928E-02 0. -1.
       -1    1    3    3    0  502 -0.53401787059E+02 -0.17538969941E+04 -0.11028479011E+03  0.17581721052E+04  0.50400001928E-02 0.  1.
</event>
<event>
 5   0  0.1648000E-07  0.3788732E+04  0.7818609E-02  0.8048577E-01
       -1   -1    0    0    0  501  0.00000000000E+00  0.00000000000E+00  0.10965647902E+04  0.10965647902E+04  0.50400001928E-02 0.  1.
        1   -1    0    0  501    0  0.00000000000E+00  0.00000000000E+00 -0.32726042779E+04  0.32726042779E+04  0.50400001928E-02 0. -1.
    10030    2    1    2    0    0  0.00000000000E+00  0.00000000000E+00 -0.21760394878E+04  0.43691690681E+04  0.37887320429E+04 0.  0.
        4    1    3    3  502    0  0.82553565033E+03  0.10881930603E+04 -0.26017239398E+04  0.29384761898E+04  0.12699999809E+01 0. -1.
       -4    1    3    3    0  502 -0.82553565033E+03 -0.10881930603E+04  0.42568445201E+03  0.14306928783E+04  0.12699999809E+01 0.  1.
</event>
<event>
 5   0  0.1648000E-07  0.3815752E+04  0.7818609E-02  0.8042783E-01
        1   -1    0    0  501    0  0.00000000000E+00  0.00000000000E+00  0.22437344952E+04  0.22437344952E+04  0.50400001928E-02 0. -1.
       -1   -1    0    0    0  501  0.00000000000E+00  0.00000000000E+00 -0.16222914966E+04  0.16222914966E+04  0.50400001928E-02 0.  1.
    10030    2    1    2    0    0  0.00000000000E+00  0.00000000000E+00  0.62144299864E+03  0.38660259918E+04  0.38157522939E+04 0.  0.
        4    1    3    3  502    0  0.54513722820E+03  0.15155981037E+04 -0.72538466334E+03  0.17664644724E+04  0.12699999809E+01 0.  1.
       -4    1    3    3    0  502 -0.54513722820E+03 -0.15155981037E+04  0.13468276620E+04  0.20995615194E+04  0.12699999809E+01 0. -1.
</event>
<event>
 5   0  0.1656617E-07  0.3778138E+04  0.7818609E-02  0.8050863E-01
        1   -1    0    0  501    0  0.00000000000E+00  0.00000000000E+00  0.17571688941E+04  0.17571688941E+04  0.50400001928E-02 0.  1.
       -1   -1    0    0    0  501  0.00000000000E+00  0.00000000000E+00 -0.20308701415E+04  0.20308701415E+04  0.50400001928E-02 0. -1.
    10030    2    1    2    0    0  0.00000000000E+00  0.00000000000E+00 -0.27370124745E+03  0.37880390356E+04  0.37781380814E+04 0.  0.
        5    1    3    3  502    0 -0.13703191560E+04  0.11062135496E+04 -0.82207174551E+03  0.19435295345E+04  0.46999998093E+01 0. -1.
       -5    1    3    3    0  502  0.13703191560E+04 -0.11062135496E+04  0.54837049807E+03  0.18445095011E+04  0.46999998093E+01 0.  1.
</event>
<event>
 5   0  0.5158266E-07  0.3847653E+04  0.7818609E-02  0.8036005E-01
        2   -1    0    0  501    0  0.00000000000E+00  0.00000000000E+00  0.14856013806E+04  0.14856013806E+04  0.25500000920E-02 0.  1.
       -2   -1    0    0    0  501  0.00000000000E+00  0.00000000000E+00 -0.24913199100E+04  0.24913199100E+04  0.25500000920E-02 0. -1.
    10030    2    1    2    0    0  0.00000000000E+00  0.00000000000E+00 -0.10057185294E+04  0.39769212906E+04  0.38476529458E+04 0.  0.
        2    1    3    3  502    0  0.12448987072E+04  0.10008308903E+04  0.60539210383E+03  0.17081963768E+04  0.25500000920E-02 0.  1.
       -2    1    3    3    0  502 -0.12448987072E+04 -0.10008308903E+04 -0.16111106333E+04  0.22687249139E+04  0.25500000920E-02 0. -1.
</event>
<event>
 5   0  0.5325362E-07  0.3798501E+04  0.7818609E-02  0.8046477E-01
        2   -1    0    0  501    0  0.00000000000E+00  0.00000000000E+00  0.24615284409E+04  0.24615284409E+04  0.25500000920E-02 0. -1.
       -2   -1    0    0    0  501  0.00000000000E+00  0.00000000000E+00 -0.14654115131E+04  0.14654115131E+04  0.25500000920E-02 0.  1.
    10030    2    1    2    0    0  0.00000000000E+00  0.00000000000E+00  0.99611692777E+03  0.39269399539E+04  0.37985008185E+04 0.  0.
        4    1    3    3  502    0 -0.16652246951E+04  0.79248800997E+03  0.28680016839E+02  0.18444063238E+04  0.12699999809E+01 0. -1.
       -4    1    3    3    0  502  0.16652246951E+04 -0.79248800997E+03  0.96743691094E+03  0.20825336301E+04  0.12699999809E+01 0.  1.
</event>
<event>
 5   0  0.5134434E-07  0.3822138E+04  0.7818609E-02  0.8041421E-01
       -2   -1    0    0    0  501  0.00000000000E+00  0.00000000000E+00  0.14467533492E+04  0.14467533492E+04  0.25500000920E-02 0. -1.
        2   -1    0    0  501    0  0.00000000000E+00  0.00000000000E+00 -0.25244000960E+04  0.25244000960E+04  0.25500000920E-02 0.  1.
    10030    2    1    2    0    0  0.00000000000E+00  0.00000000000E+00 -0.10776467468E+04  0.39711534452E+04  0.38221377754E+04 0.  0.
        5    1    3    3  502    0 -0.76866493706E+03  0.14220382202E+04 -0.15979404236E+04  0.22729879394E+04  0.46999998093E+01 0.  1.
       -5    1    3    3    0  502  0.76866493706E+03 -0.14220382202E+04  0.52029367679E+03  0.16981655058E+04  0.46999998093E+01 0. -1.
</event>
<event>
 5   0  0.5132561E-07  0.3755899E+04  0.7818609E-02  0.8055686E-01
       -2   -1    0    0    0  501  0.00000000000E+00  0.00000000000E+00  0.16420289895E+04  0.16420289895E+04  0.25500000920E-02 0. -1.
        2   -1    0    0  501    0  0.00000000000E+00  0.00000000000E+00 -0.21477660438E+04  0.21477660438E+04  0.25500000920E-02 0.  1.
    10030    2    1    2    0    0  0.00000000000E+00  0.00000000000E+00 -0.50573705435E+03  0.37897950333E+04  0.37558988839E+04 0.  0.
        3    1    3    3  502    0  0.50706669547E+03  0.17887904514E+04  0.13724495139E+02  0.18593214581E+04  0.10100000352E+00 0. -1.
       -3    1    3    3    0  502 -0.50706669547E+03 -0.17887904514E+04 -0.51946154949E+03  0.19304735751E+04  0.10100000352E+00 0.  1.
</event>
<event>
 5   0  0.5134434E-07  0.3789949E+04  0.7818609E-02  0.8048315E-01
       -2   -1    0    0    0  501  0.00000000000E+00  0.00000000000E+00  0.23782925846E+04  0.23782925846E+04  0.25500000920E-02 0.  1.
        2   -1    0    0  501    0  0.00000000000E+00  0.00000000000E+00 -0.15098769089E+04  0.15098769089E+04  0.25500000920E-02 0. -1.
    10030    2    1    2    0    0  0.00000000000E+00  0.00000000000E+00  0.86841567566E+03  0.38881694935E+04  0.37899493696E+04 0.  0.
        5    1    3    3  502    0  0.16706976785E+02 -0.17624114345E+04 -0.27991645914E+03  0.17845863671E+04  0.46999998093E+01 0. -1.
       -5    1    3    3    0  502 -0.16706976785E+02  0.17624114345E+04  0.11483321348E+04  0.21035831264E+04  0.46999998093E+01 0.  1.
</event>
<event>
 5   0  0.5158266E-07  0.3796788E+04  0.7818609E-02  0.8046845E-01
        2   -1    0    0  501    0  0.00000000000E+00  0.00000000000E+00  0.15369100520E+04  0.15369100520E+04  0.25500000920E-02 0. -1.
       -2   -1    0    0    0  501  0.00000000000E+00  0.00000000000E+00 -0.23448996823E+04  0.23448996823E+04  0.25500000920E-02 0.  1.
    10030    2    1    2    0    0  0.00000000000E+00  0.00000000000E+00 -0.80798963029E+03  0.38818097342E+04  0.37967880597E+04 0.  0.
        2    1    3    3  502    0  0.10897283170E+04  0.14974385026E+03  0.11778983105E+04  0.16116375075E+04  0.25500000920E-02 0. -1.
       -2    1    3    3    0  502 -0.10897283170E+04 -0.14974385026E+03 -0.19858879408E+04  0.22701722267E+04  0.25500000920E-02 0.  1.
</event>
<event>
 5   0  0.1648000E-07  0.3790604E+04  0.7818609E-02  0.8048174E-01
       -1   -1    0    0    0  501  0.00000000000E+00  0.00000000000E+00  0.16693424593E+04  0.16693424593E+04  0.50400001928E-02 0.  1.
        1   -1    0    0  501    0  0.00000000000E+00  0.00000000000E+00 -0.21518467718E+04  0.21518467718E+04  0.50400001928E-02 0. -1.
    10030    2    1    2    0    0  0.00000000000E+00  0.00000000000E+00 -0.48250431248E+03  0.38211892311E+04  0.37906037419E+04 0.  0.
        1    1    3    3  502    0  0.54402211515E+02  0.11991097520E+04  0.12373292065E+04  0.17238930835E+04  0.50400001928E-02 0.  1.
       -1    1    3    3    0  502 -0.54402211515E+02 -0.11991097520E+04 -0.17198335189E+04  0.20972961476E+04  0.50400001928E-02 0. -1.
</event>
<event>
 5   0  0.1648000E-07  0.3814162E+04  0.7818609E-02  0.8043123E-01
        1   -1    0    0  501    0  0.00000000000E+00  0.00000000000E+00  0.24220133462E+04  0.24220133462E+04  0.50400001928E-02 0.  1.
       -1   -1    0    0    0  501  0.00000000000E+00  0.00000000000E+00 -0.15016261359E+04  0.15016261359E+04  0.50400001928E-02 0. -1.
    10030    2    1    2    0    0  0.00000000000E+00  0.00000000000E+00  0.92038721028E+03  0.39236394821E+04  0.38141623155E+04 0.  0.
        4    1    3    3  502    0  0.89790509308E+03 -0.64014476909E+03  0.20607897371E+04  0.23372793661E+04  0.12699999809E+01 0.  1.
       -4    1    3    3    0  502 -0.89790509308E+03  0.64014476909E+03 -0.11404025269E+04  0.15863601160E+04  0.12699999809E+01 0. -1.
</event>
<event>
 5   0  0.5325362E-07  0.3798135E+04  0.7818609E-02  0.8046555E-01
       -2   -1    0    0    0  501  0.00000000000E+00  0.00000000000E+00  0.14143134947E+04  0.14143134947E+04  0.25500000920E-02 0. -1.
        2   -1    0    0  501    0  0.00000000000E+00  0.00000000000E+00 -0.25499700786E+04  0.25499700786E+04  0.25500000920E-02 0.  1.
    10030    2    1    2    0    0  0.00000000000E+00  0.00000000000E+00 -0.11356565839E+04  0.39642835733E+04  0.37981348545E+04 0.  0.
        4    1    3    3  502    0  0.59108041118E+03 -0.49923916239E+03  0.12423513446E+04  0.14635758505E+04  0.12699999809E+01 0. -1.
       -4    1    3    3    0  502 -0.59108041118E+03  0.49923916239E+03 -0.23780079285E+04  0.25007077228E+04  0.12699999809E+01 0.  1.
</event>
<event>
 5   0  0.5325362E-07  0.3811993E+04  0.7818609E-02  0.8043586E-01
       -2   -1    0    0    0  501  0.00000000000E+00  0.00000000000E+00  0.15955449402E+04  0.15955449402E+04  0.25500000920E-02 0. -1.
        2   -1    0    0  501    0  0.00000000000E+00  0.00000000000E+00 -0.22768534451E+04  0.22768534451E+04  0.25500000920E-02 0.  1.
    10030    2    1    2    0    0  0.00000000000E+00  0.00000000000E+00 -0.68130850487E+03  0.38723983853E+04  0.38119926516E+04 0.  0.
        4    1    3    3  502    0  0.59601096710E+03  0.15426626660E+04  0.62187450652E+03  0.17668521977E+04  0.12699999809E+01 0. -1.
       -4    1    3    3    0  502 -0.59601096710E+03 -0.15426626660E+04 -0.13031830114E+04  0.21055461876E+04  0.12699999809E+01 0.  1.
</event>
<event>
 5   0  0.1648000E-07  0.3789654E+04  0.7818609E-02  0.8048379E-01
        1   -1    0    0  501    0  0.00000000000E+00  0.00000000000E+00  0.15249900177E+04  0.15249900177E+04  0.50400001928E-02 0. -1.
       -1   -1    0    0    0  501  0.00000000000E+00  0.00000000000E+00 -0.23543562545E+04  0.23543562545E+04  0.50400001928E-02 0.  1.
    10030    2    1    2    0    0  0.00000000000E+00  0.00000000000E+00 -0.82936623673E+03  0.38793462722E+04  0.37896542250E+04 0.  0.
        2    1    3    3  502    0 -0.11233643454E+04 -0.10970963599E+03  0.11433060664E+04  0.16065903081E+04  0.25500000920E-02 0. -1.
       -2    1    3    3    0  502  0.11233643454E+04  0.10970963599E+03 -0.19726723031E+04  0.22727559641E+04  0.25500000920E-02 0.  1.
</event>
<event>
 5   0  0.1648000E-07  0.3410565E+04  0.7818609E-02  0.8135318E-01
        1   -1    0    0  501    0  0.00000000000E+00  0.00000000000E+00  0.21493616162E+04  0.21493616163E+04  0.50400001928E-02 0. -1.
       -1   -1    0    0    0  501  0.00000000000E+00  0.00000000000E+00 -0.13529547196E+04  0.13529547196E+04  0.50400001928E-02 0.  1.
    10030    2    1    2    0    0  0.00000000000E+00  0.00000000000E+00  0.79640689664E+03  0.35023163359E+04  0.34105653155E+04 0.  0.
        2    1    3    3  502    0  0.59496580582E+03 -0.68850521798E+03 -0.10828032845E+04  0.14143856257E+04  0.25500000920E-02 0.  1.
       -2    1    3    3    0  502 -0.59496580582E+03  0.68850521798E+03  0.18792101812E+04  0.20879307101E+04  0.25500000920E-02 0. -1.
</event>
<event>
 5   0  0.5158266E-07  0.3798330E+04  0.7818609E-02  0.8046513E-01
        2   -1    0    0  501    0  0.00000000000E+00  0.00000000000E+00  0.12721720224E+04  0.12721720224E+04  0.25500000920E-02 0. -1.
       -2   -1    0    0    0  501  0.00000000000E+00  0.00000000000E+00 -0.28351729408E+04  0.28351729408E+04  0.25500000920E-02 0.  1.
    10030    2    1    2    0    0  0.00000000000E+00  0.00000000000E+00 -0.15630009184E+04  0.41073449633E+04  0.37983299983E+04 0.  0.
        2    1    3    3  502    0  0.15380305124E+04  0.53948007687E+03  0.27261376265E+03  0.16525419432E+04  0.25500000920E-02 0. -1.
       -2    1    3    3    0  502 -0.15380305124E+04 -0.53948007687E+03 -0.18356146810E+04  0.24548030201E+04  0.25500000920E-02 0.  1.
</event>
<event>
 5   0  0.5132561E-07  0.3314469E+04  0.7818609E-02  0.8159223E-01
        2   -1    0    0  501    0  0.00000000000E+00  0.00000000000E+00  0.17906264280E+04  0.17906264280E+04  0.25500000920E-02 0.  1.
       -2   -1    0    0    0  501  0.00000000000E+00  0.00000000000E+00 -0.15337798314E+04  0.15337798314E+04  0.25500000920E-02 0. -1.
    10030    2    1    2    0    0  0.00000000000E+00  0.00000000000E+00  0.25684659658E+03  0.33244062595E+04  0.33144693095E+04 0.  0.
        3    1    3    3  502    0  0.87926826698E+03 -0.89355817028E+03 -0.95873951858E+03  0.15782079596E+04  0.10100000352E+00 0.  1.
       -3    1    3    3    0  502 -0.87926826698E+03  0.89355817028E+03  0.12155861152E+04  0.17461982999E+04  0.10100000352E+00 0. -1.
</event>
<event>
 5   0  0.5158266E-07  0.3914552E+04  0.7818609E-02  0.8022009E-01
       -2   -1    0    0    0  501  0.00000000000E+00  0.00000000000E+00  0.13620128328E+04  0.13620128328E+04  0.25500000920E-02 0.  1.
        2   -1    0    0  501    0  0.00000000000E+00  0.00000000000E+00 -0.28126974050E+04  0.28126974050E+04  0.25500000920E-02 0. -1.
    10030    2    1    2    0    0  0.00000000000E+00  0.00000000000E+00 -0.14506845721E+04  0.41747102378E+04  0.39145523169E+04 0.  0.
        2    1    3    3  502    0 -0.45053507602E+03  0.14815877420E+04  0.55122577117E+03  0.16437560472E+04  0.25500000920E-02 0.  1.
       -2    1    3    3    0  502  0.45053507602E+03 -0.14815877420E+04 -0.20019103433E+04  0.25309541906E+04  0.25500000920E-02 0. -1.
</event>
<event>
 5   0  0.5202788E-07  0.3741771E+04  0.7818609E-02  0.8058767E-01
       -2   -1    0    0    0  501  0.00000000000E+00  0.00000000000E+00  0.14711992946E+04  0.14711992946E+04  0.25500000920E-02 0.  1.
        2   -1    0    0  501    0  0.00000000000E+00  0.00000000000E+00 -0.23791554109E+04  0.23791554109E+04  0.25500000920E-02 0. -1.
    10030    2    1    2    0    0  0.00000000000E+00  0.00000000000E+00 -0.90795611628E+03  0.38503547054E+04  0.37417705767E+04 0.  0.
        1    1    3    3  502    0 -0.58324782102E+03 -0.49412267726E+03 -0.22111252737E+04  0.23395320508E+04  0.50400001928E-02 0. -1.
       -1    1    3    3    0  502  0.58324782102E+03  0.49412267726E+03  0.13031691574E+04  0.15108226546E+04  0.50400001928E-02 0.  1.
</event>
<event>
 5   0  0.1656617E-07  0.3582284E+04  0.7818609E-02  0.8094562E-01
        1   -1    0    0  501    0  0.00000000000E+00  0.00000000000E+00  0.20915924563E+04  0.20915924563E+04  0.50400001928E-02 0. -1.
       -1   -1    0    0    0  501  0.00000000000E+00  0.00000000000E+00 -0.15338506908E+04  0.15338506908E+04  0.50400001928E-02 0.  1.
    10030    2    1    2    0    0  0.00000000000E+00  0.00000000000E+00  0.55774176552E+03  0.36254431472E+04  0.35822844857E+04 0.  0.
        5    1    3    3  502    0  0.77784063905E+02 -0.16454128409E+04  0.99071876645E+03  0.19222329572E+04  0.46999998093E+01 0. -1.
       -5    1    3    3    0  502 -0.77784063905E+02  0.16454128409E+04 -0.43297700093E+03  0.17032101899E+04  0.46999998093E+01 0.  1.
</event>
<event>
 5   0  0.5134434E-07  0.3031721E+04  0.7818609E-02  0.8234730E-01
        2   -1    0    0  501    0  0.00000000000E+00  0.00000000000E+00  0.14696730146E+04  0.14696730146E+04  0.25500000920E-02 0. -1.
       -2   -1    0    0    0  501  0.00000000000E+00  0.00000000000E+00 -0.15634993911E+04  0.15634993911E+04  0.25500000920E-02 0.  1.
    10030    2    1    2    0    0  0.00000000000E+00  0.00000000000E+00 -0.93826376486E+02  0.30331724057E+04  0.30317208733E+04 0.  0.
        5    1    3    3  502    0  0.99513013337E+03 -0.70369514372E+03 -0.94864374052E+03  0.15444798069E+04  0.46999998093E+01 0.  1.
       -5    1    3    3    0  502 -0.99513013337E+03  0.70369514372E+03  0.85481736403E+03  0.14886925987E+04  0.46999998093E+01 0. -1.
</event>
<event>
 5   0  0.5325362E-07  0.3798849E+04  0.7818609E-02  0.8046402E-01
        2   -1    0    0  501    0  0.00000000000E+00  0.00000000000E+00  0.16509559443E+04  0.16509559443E+04  0.25500000920E-02 0. -1.
       -2   -1    0    0    0  501  0.00000000000E+00  0.00000000000E+00 -0.21852879680E+04  0.21852879680E+04  0.25500000920E-02 0.  1.
    10030    2    1    2    0    0  0.00000000000E+00  0.00000000000E+00 -0.53433202373E+03  0.38362439123E+04  0.37988493841E+04 0.  0.
        4    1    3    3  502    0 -0.12582965306E+04 -0.88929935930E+02 -0.17012129183E+04  0.21178634750E+04  0.12699999809E+01 0.  1.
       -4    1    3    3    0  502  0.12582965306E+04  0.88929935930E+02  0.11668808945E+04  0.17183804373E+04  0.12699999809E+01 0. -1.
</event>
<event>
 5   0  0.5158266E-07  0.3690398E+04  0.7818609E-02  0.8070093E-01
       -2   -1    0    0    0  501  0.00000000000E+00  0.00000000000E+00  0.18533673702E+04  0.18533673702E+04  0.25500000920E-02 0. -1.
        2   -1    0    0  501    0  0.00000000000E+00  0.00000000000E+00 -0.18370661841E+04  0.18370661841E+04  0.25500000920E-02 0.  1.
    10030    2    1    2    0    0  0.00000000000E+00  0.00000000000E+00  0.16301186052E+02  0.36904335543E+04  0.36903975518E+04 0.  0.
        2    1    3    3  502    0 -0.11252646306E+04 -0.14155176181E+04  0.37537060556E+03  0.18468388418E+04  0.25500000920E-02 0.  1.
       -2    1    3    3    0  502  0.11252646306E+04  0.14155176181E+04 -0.35906941951E+03  0.18435947125E+04  0.25500000920E-02 0. -1.
</event>
<event>
 5   0  0.1656617E-07  0.3796886E+04  0.7818609E-02  0.8046824E-01
       -1   -1    0    0    0  501  0.00000000000E+00  0.00000000000E+00  0.31994801408E+04  0.31994801408E+04  0.50400001928E-02 0.  1.
        1   -1    0    0  501    0  0.00000000000E+00  0.00000000000E+00 -0.11264596271E+04  0.11264596272E+04  0.50400001928E-02 0. -1.
    10030    2    1    2    0    0  0.00000000000E+00  0.00000000000E+00  0.20730205136E+04  0.43259397679E+04  0.37968856746E+04 0.  0.
        5    1    3    3  502    0  0.16713021876E+04  0.74646755999E+03  0.16102647681E+04  0.24379170481E+04  0.46999998093E+01 0.  1.
       -5    1    3    3    0  502 -0.16713021876E+04 -0.74646755999E+03  0.46275574554E+03  0.18880227198E+04  0.46999998093E+01 0. -1.
</event>
<event>
 5   0  0.1656617E-07  0.3771892E+04  0.7818609E-02  0.8052214E-01
        1   -1    0    0  501    0  0.00000000000E+00  0.00000000000E+00  0.23136481055E+04  0.23136481055E+04  0.50400001928E-02 0. -1.
       -1   -1    0    0    0  501  0.00000000000E+00  0.00000000000E+00 -0.15373091827E+04  0.15373091827E+04  0.50400001928E-02 0.  1.
    10030    2    1    2    0    0  0.00000000000E+00  0.00000000000E+00  0.77633892281E+03  0.38509572882E+04  0.37718920865E+04 0.  0.
        5    1    3    3  502    0 -0.15299637019E+03 -0.11048543729E+04  0.19407898062E+04  0.22384812343E+04  0.46999998093E+01 0. -1.
       -5    1    3    3    0  502  0.15299637019E+03  0.11048543729E+04 -0.11644508834E+04  0.16124760539E+04  0.46999998093E+01 0.  1.
</event>
<event>
 5   0  0.5202788E-07  0.3776535E+04  0.7818609E-02  0.8051209E-01
        2   -1    0    0  501    0  0.00000000000E+00  0.00000000000E+00  0.22535369138E+04  0.22535369138E+04  0.25500000920E-02 0. -1.
       -2   -1    0    0    0  501  0.00000000000E+00  0.00000000000E+00 -0.15822036614E+04  0.15822036614E+04  0.25500000920E-02 0.  1.
    10030    2    1    2    0    0  0.00000000000E+00  0.00000000000E+00  0.67133325233E+03  0.38357405752E+04  0.37765351083E+04 0.  0.
        1    1    3    3  502    0 -0.86846456046E+03  0.35786454115E+03  0.19994117897E+04  0.22090598062E+04  0.50400001928E-02 0. -1.
       -1    1    3    3    0  502  0.86846456046E+03 -0.35786454115E+03 -0.13280785374E+04  0.16266807690E+04  0.50400001928E-02 0.  1.
</event>
<event>
 5   0  0.5134434E-07  0.3807598E+04  0.7818609E-02  0.8044526E-01
        2   -1    0    0  501    0  0.00000000000E+00  0.00000000000E+00  0.17220344599E+04  0.17220344599E+04  0.25500000920E-02 0. -1.
       -2   -1    0    0    0  501  0.00000000000E+00  0.00000000000E+00 -0.21047488238E+04  0.21047488238E+04  0.25500000920E-02 0.  1.
    10030    2    1    2    0    0  0.00000000000E+00  0.00000000000E+00 -0.38271436394E+03  0.38267832837E+04  0.38075976699E+04 0.  0.
        5    1    3    3  502    0 -0.89590526784E+03 -0.40543490759E+03  0.14470114500E+04  0.17495393507E+04  0.46999998093E+01 0. -1.
       -5    1    3    3    0  502  0.89590526784E+03  0.40543490759E+03 -0.18297258139E+04  0.20772439330E+04  0.46999998093E+01 0.  1.
</event>
<event>
 5   0  0.5134434E-07  0.3769547E+04  0.7818609E-02  0.8052722E-01
       -2   -1    0    0    0  501  0.00000000000E+00  0.00000000000E+00  0.17998202083E+04  0.17998202083E+04  0.25500000920E-02 0. -1.
        2   -1    0    0  501    0  0.00000000000E+00  0.00000000000E+00 -0.19737368913E+04  0.19737368913E+04  0.25500000920E-02 0.  1.
    10030    2    1    2    0    0  0.00000000000E+00  0.00000000000E+00 -0.17391668301E+03  0.37735570997E+04  0.37695472105E+04 0.  0.
        5    1    3    3  502    0  0.36126906563E+03  0.10095111526E+04  0.14647619616E+04  0.18152624601E+04  0.46999998093E+01 0. -1.
       -5    1    3    3    0  502 -0.36126906563E+03 -0.10095111526E+04 -0.16386786446E+04  0.19582946395E+04  0.46999998093E+01 0.  1.
</event>
<event>
 5   0  0.1648000E-07  0.3790163E+04  0.7818609E-02  0.8048269E-01
        1   -1    0    0  501    0  0.00000000000E+00  0.00000000000E+00  0.21586375867E+04  0.21586375867E+04  0.50400001928E-02 0. -1.
       -1   -1    0    0    0  501  0.00000000000E+00  0.00000000000E+00 -0.16637036253E+04  0.16637036253E+04  0.50400001928E-02 0.  1.
    10030    2    1    2    0    0  0.00000000000E+00  0.00000000000E+00  0.49493396140E+03  0.38223412120E+04  0.37901626238E+04 0.  0.
        4    1    3    3  502    0 -0.12199221897E+04  0.12896474205E+04 -0.42143713100E+03  0.18245578879E+04  0.12699999809E+01 0. -1.
       -4    1    3    3    0  502  0.12199221897E+04 -0.12896474205E+04  0.91637109240E+03  0.19977833241E+04  0.12699999809E+01 0.  1.
</event>
<event>
 5   0  0.1648000E-07  0.3770039E+04  0.7818609E-02  0.8052615E-01
       -1   -1    0    0    0  501  0.00000000000E+00  0.00000000000E+00  0.14968741648E+04  0.14968741648E+04  0.50400001928E-02 0. -1.
        1   -1    0    0  501    0  0.00000000000E+00  0.00000000000E+00 -0.23738118238E+04  0.23738118238E+04  0.50400001928E-02 0.  1.
    10030    2    1    2    0    0  0.00000000000E+00  0.00000000000E+00 -0.87693765900E+03  0.38706859887E+04  0.37700385097E+04 0.  0.
        4    1    3    3  502    0  0.10950778816E+04 -0.44906920575E+02 -0.20130626673E+04  0.22920809571E+04  0.12699999809E+01 0.  1.
       -4    1    3    3    0  502 -0.10950778816E+04  0.44906920575E+02  0.11361250083E+04  0.15786050316E+04  0.12699999809E+01 0. -1.
</event>
<event>
 5   0  0.1648000E-07  0.4059432E+04  0.7818609E-02  0.7992663E-01
        1   -1    0    0  501    0  0.00000000000E+00  0.00000000000E+00  0.31003793152E+04  0.31003793153E+04  0.50400001928E-02 0.  1.
       -1   -1    0    0    0  501  0.00000000000E+00  0.00000000000E+00 -0.13287880116E+04  0.13287880116E+04  0.50400001928E-02 0. -1.
    10030    2    1    2    0    0  0.00000000000E+00  0.00000000000E+00  0.17715913037E+04  0.44291673269E+04  0.40594319137E+04 0.  0.
        2    1    3    3  502    0  0.14869926328E+04  0.90778524016E+03 -0.25046183158E+03  0.17601000714E+04  0.25500000920E-02 0. -1.
       -2    1    3    3    0  502 -0.14869926328E+04 -0.90778524016E+03  0.20220531352E+04  0.26690672554E+04  0.25500000920E-02 0.  1.
</event>
<event>
 5   0  0.5202788E-07  0.3696744E+04  0.7818609E-02  0.8068684E-01
        2   -1    0    0  501    0  0.00000000000E+00  0.00000000000E+00  0.20490155308E+04  0.20490155308E+04  0.25500000920E-02 0.  1.
       -2   -1    0    0    0  501  0.00000000000E+00  0.00000000000E+00 -0.16673756216E+04  0.16673756216E+04  0.25500000920E-02 0. -1.
    10030    2    1    2    0    0  0.00000000000E+00  0.00000000000E+00  0.38163990917E+03  0.37163911524E+04  0.36967437262E+04 0.  0.
        1    1    3    3  502    0 -0.13256227429E+04  0.46010227113E+03  0.14003389059E+04  0.19824022820E+04  0.50400001928E-02 0.  1.
       -1    1    3    3    0  502  0.13256227429E+04 -0.46010227113E+03 -0.10186989967E+04  0.17339888703E+04  0.50400001928E-02 0. -1.
</event>
<event>
 5   0  0.5134434E-07  0.3706543E+04  0.7818609E-02  0.8066513E-01
       -2   -1    0    0    0  501  0.00000000000E+00  0.00000000000E+00  0.11812517865E+04  0.11812517865E+04  0.25500000920E-02 0. -1.
        2   -1    0    0  501    0  0.00000000000E+00  0.00000000000E+00 -0.29076070237E+04  0.29076070237E+04  0.25500000920E-02 0.  1.
    10030    2    1    2    0    0  0.00000000000E+00  0.00000000000E+00 -0.17263552372E+04  0.40888588102E+04  0.37065433985E+04 0.  0.
        5    1    3    3  502    0  0.63503045654E+03  0.15566016827E+04 -0.27792463549E+01  0.16811609958E+04  0.46999998093E+01 0. -1.
       -5    1    3    3    0  502 -0.63503045654E+03 -0.15566016827E+04 -0.17235759908E+04  0.24076978144E+04  0.46999998093E+01 0.  1.
</event>
<event>
 5   0  0.5132561E-07  0.3861944E+04  0.7818609E-02  0.8032991E-01
       -2   -1    0    0    0  501  0.00000000000E+00  0.00000000000E+00  0.17345446405E+04  0.17345446405E+04  0.25500000920E-02 0. -1.
        2   -1    0    0  501    0  0.00000000000E+00  0.00000000000E+00 -0.21496434640E+04  0.21496434640E+04  0.25500000920E-02 0.  1.
    10030    2    1    2    0    0  0.00000000000E+00  0.00000000000E+00 -0.41509882353E+03  0.38841881046E+04  0.38619438368E+04 0.  0.
        3    1    3    3  502    0 -0.64506661614E+03  0.16082859870E+04  0.64938973620E+03  0.18505139273E+04  0.10100000352E+00 0. -1.
       -3    1    3    3    0  502  0.64506661614E+03 -0.16082859870E+04 -0.10644885597E+04  0.20336741773E+04  0.10100000352E+00 0.  1.
</event>
<event>
 5   0  0.1648000E-07  0.2896937E+04  0.7818609E-02  0.8273789E-01
        1   -1    0    0  501    0  0.00000000000E+00  0.00000000000E+00  0.24815484160E+04  0.24815484160E+04  0.50400001928E-02 0.  1.
       -1   -1    0    0    0  501  0.00000000000E+00  0.00000000000E+00 -0.84546453991E+03  0.84546453992E+03  0.50400001928E-02 0. -1.
    10030    2    1    2    0    0  0.00000000000E+00  0.00000000000E+00  0.16360838761E+04  0.33270129560E+04  0.28969371342E+04 0.  0.
        4    1    3    3  502    0  0.12542800874E+03  0.46171366039E+03  0.23881778738E+04  0.24356327431E+04  0.12699999809E+01 0.  1.
       -4    1    3    3    0  502 -0.12542800874E+03 -0.46171366039E+03 -0.75209399769E+03  0.89138021283E+03  0.12699999809E+01 0. -1.
</event>
<event>
 5   0  0.5202788E-07  0.3838062E+04  0.7818609E-02  0.8038036E-01
       -2   -1    0    0    0  501  0.00000000000E+00  0.00000000000E+00  0.12815471056E+04  0.12815471056E+04  0.25500000920E-02 0.  1.
        2   -1    0    0  501    0  0.00000000000E+00  0.00000000000E+00 -0.28736204228E+04  0.28736204228E+04  0.25500000920E-02 0. -1.
    10030    2    1    2    0    0  0.00000000000E+00  0.00000000000E+00 -0.15920733172E+04  0.41551675283E+04  0.38380619772E+04 0.  0.
        1    1    3    3  502    0 -0.19144560890E+04 -0.18638311710E+02 -0.65409170816E+03  0.20231968432E+04  0.50400001928E-02 0.  1.
       -1    1    3    3    0  502  0.19144560890E+04  0.18638311710E+02 -0.93798160906E+03  0.21319706852E+04  0.50400001928E-02 0. -1.
</event>
<event>
 5   0  0.1648000E-07  0.3755110E+04  0.7818609E-02  0.8055857E-01
        1   -1    0    0  501    0  0.00000000000E+00  0.00000000000E+00  0.18800850316E+04  0.18800850316E+04  0.50400001928E-02 0.  1.
       -1   -1    0    0    0  501  0.00000000000E+00  0.00000000000E+00 -0.18750285136E+04  0.18750285136E+04  0.50400001928E-02 0. -1.
    10030    2    1    2    0    0  0.00000000000E+00  0.00000000000E+00  0.50565179507E+01  0.37551135452E+04  0.37551101408E+04 0.  0.
        4    1    3    3  502    0 -0.12584751427E+04  0.66011197554E+03 -0.12245441328E+04  0.18759044355E+04  0.12699999809E+01 0. -1.
       -4    1    3    3    0  502  0.12584751427E+04 -0.66011197554E+03  0.12296006508E+04  0.18792091098E+04  0.12699999809E+01 0.  1.
</event>
<event>
 5   0  0.5132561E-07  0.2799679E+04  0.7818609E-02  0.8303368E-01
       -2   -1    0    0    0  501  0.00000000000E+00  0.00000000000E+00  0.10858715531E+04  0.10858715531E+04  0.25500000920E-02 0.  1.
        2   -1    0    0  501    0  0.00000000000E+00  0.00000000000E+00 -0.18045883185E+04  0.18045883185E+04  0.25500000920E-02 0. -1.
    10030    2    1    2    0    0  0.00000000000E+00  0.00000000000E+00 -0.71871676539E+03  0.28904598715E+04  0.27996793531E+04 0.  0.
        3    1    3    3  502    0 -0.78727534648E+03 -0.10743580789E+03 -0.15492061477E+04  0.17410871955E+04  0.10100000352E+00 0. -1.
       -3    1    3    3    0  502  0.78727534648E+03  0.10743580789E+03  0.83048938233E+03  0.11493726760E+04  0.10100000352E+00 0.  1.
</event>
<event>
 5   0  0.5325362E-07  0.3807072E+04  0.7818609E-02  0.8044639E-01
       -2   -1    0    0    0  501  0.00000000000E+00  0.00000000000E+00  0.13806674412E+04  0.13806674412E+04  0.25500000920E-02 0. -1.
        2   -1    0    0  501    0  0.00000000000E+00  0.00000000000E+00 -0.26244181978E+04  0.26244181978E+04  0.25500000920E-02 0.  1.
    10030    2    1    2    0    0  0.00000000000E+00  0.00000000000E+00 -0.12437507566E+04  0.40050856390E+04  0.38070717134E+04 0.  0.
        4    1    3    3  502    0 -0.13043244056E+03  0.47538200691E+03  0.13123531338E+04  0.14018819618E+04  0.12699999809E+01 0. -1.
       -4    1    3    3    0  502  0.13043244056E+03 -0.47538200691E+03 -0.25561038904E+04  0.26032036773E+04  0.12699999809E+01 0.  1.
</event>
<event>
 5   0  0.1648000E-07  0.2774935E+04  0.7818609E-02  0.8311093E-01
        1   -1    0    0  501    0  0.00000000000E+00  0.00000000000E+00  0.17696567497E+04  0.17696567497E+04  0.50400001928E-02 0. -1.
       -1   -1    0    0    0  501  0.00000000000E+00  0.00000000000E+00 -0.10878187010E+04  0.10878187010E+04  0.50400001928E-02 0.  1.
    10030    2    1    2    0    0  0.00000000000E+00  0.00000000000E+00  0.68183804875E+03  0.28574754507E+04  0.27749347427E+04 0.  0.
        1    1    3    3  502    0  0.76357454162E+03 -0.20509392896E+03 -0.83315120994E+03  0.11485863219E+04  0.50400001928E-02 0.  1.
       -1    1    3    3    0  502 -0.76357454162E+03  0.20509392896E+03  0.15149892587E+04  0.17088891287E+04  0.50400001928E-02 0. -1.
</event>
<event>
 5   0  0.5202788E-07  0.3798936E+04  0.7818609E-02  0.8046383E-01
       -2   -1    0    0    0  501  0.00000000000E+00  0.00000000000E+00  0.14953529200E+04  0.14953529200E+04  0.25500000920E-02 0.  1.
        2   -1    0    0  501    0  0.00000000000E+00  0.00000000000E+00 -0.24127935503E+04  0.24127935503E+04  0.25500000920E-02 0. -1.
    10030    2    1    2    0    0  0.00000000000E+00  0.00000000000E+00 -0.91744063024E+03  0.39081464703E+04  0.37989355777E+04 0.  0.
        1    1    3    3  502    0 -0.26545838049E+03 -0.68940522040E+03 -0.22589495852E+04  0.23766785517E+04  0.50400001928E-02 0. -1.
       -1    1    3    3    0  502  0.26545838049E+03  0.68940522040E+03  0.13415089549E+04  0.15314679187E+04  0.50400001928E-02 0.  1.
</event>
<event>
 5   0  0.1656617E-07  0.3323657E+04  0.7818609E-02  0.8156902E-01
        1   -1    0    0  501    0  0.00000000000E+00  0.00000000000E+00  0.12217042166E+04  0.12217042166E+04  0.50400001928E-02 0. -1.
       -1   -1    0    0    0  501  0.00000000000E+00  0.00000000000E+00 -0.22605092630E+04  0.22605092630E+04  0.50400001928E-02 0.  1.
    10030    2    1    2    0    0  0.00000000000E+00  0.00000000000E+00 -0.10388050464E+04  0.34822134797E+04  0.33236568405E+04 0.  0.
        5    1    3    3  502    0 -0.14684134849E+04 -0.72559929255E+03 -0.22507538313E+03  0.16533038179E+04  0.46999998093E+01 0. -1.
       -5    1    3    3    0  502  0.14684134849E+04  0.72559929255E+03 -0.81372966328E+03  0.18289096618E+04  0.46999998093E+01 0.  1.
</event>
<event>
 5   0  0.1656617E-07  0.3726879E+04  0.7818609E-02  0.8062031E-01
       -1   -1    0    0    0  501  0.00000000000E+00  0.00000000000E+00  0.13131977508E+04  0.13131977508E+04  0.50400001928E-02 0.  1.
        1   -1    0    0  501    0  0.00000000000E+00  0.00000000000E+00 -0.26442371779E+04  0.26442371779E+04  0.50400001928E-02 0. -1.
    10030    2    1    2    0    0  0.00000000000E+00  0.00000000000E+00 -0.13310394271E+04  0.39574349287E+04  0.37268787556E+04 0.  0.
        5    1    3    3  502    0  0.54020485625E+02 -0.26695111181E+03  0.12919415889E+04  0.13203470256E+04  0.46999998093E+01 0.  1.
       -5    1    3    3    0  502 -0.54020485625E+02  0.26695111181E+03 -0.26229810159E+04  0.26370879031E+04  0.46999998093E+01 0. -1.
</event>
<event>
 5   0  0.1648000E-07  0.3805806E+04  0.7818609E-02  0.8044910E-01
       -1   -1    0    0    0  501  0.00000000000E+00  0.00000000000E+00  0.13364220901E+04  0.13364220901E+04  0.50400001928E-02 0. -1.
        1   -1    0    0  501    0  0.00000000000E+00  0.00000000000E+00 -0.27095024339E+04  0.27095024339E+04  0.50400001928E-02 0.  1.
    10030    2    1    2    0    0  0.00000000000E+00  0.00000000000E+00 -0.13730803438E+04  0.40459245241E+04  0.38058055158E+04 0.  0.
        1    1    3    3  502    0 -0.92279142484E+03  0.91177871065E+03 -0.21665526595E+04  0.25252395643E+04  0.50400001928E-02 0.  1.
       -1    1    3    3    0  502  0.92279142484E+03 -0.91177871065E+03  0.79347231566E+03  0.15206849597E+04  0.50400001928E-02 0. -1.
</event>
<event>
 5   0  0.1648000E-07  0.2758155E+04  0.7818609E-02  0.8316379E-01
       -1   -1    0    0    0  501  0.00000000000E+00  0.00000000000E+00  0.10948368426E+04  0.10948368426E+04  0.50400001928E-02 0.  1.
        1   -1    0    0  501    0  0.00000000000E+00  0.00000000000E+00 -0.17371122261E+04  0.17371122261E+04  0.50400001928E-02 0. -1.
    10030    2    1    2    0    0  0.00000000000E+00  0.00000000000E+00 -0.64227538357E+03  0.28319490687E+04  0.27581547925E+04 0.  0.
        3    1    3    3  502    0 -0.10477249832E+04 -0.81676707230E+02 -0.12380337253E+04  0.16239231017E+04  0.10100000352E+00 0. -1.
       -3    1    3    3    0  502  0.10477249832E+04  0.81676707230E+02  0.59575834175E+03  0.12080259670E+04  0.10100000352E+00 0.  1.
</event>
<event>
 5   0  0.1648000E-07  0.3727078E+04  0.7818609E-02  0.8061987E-01
        1   -1    0    0  501    0  0.00000000000E+00  0.00000000000E+00  0.24889780681E+04  0.24889780681E+04  0.50400001928E-02 0. -1.
       -1   -1    0    0    0  501  0.00000000000E+00  0.00000000000E+00 -0.13952626285E+04  0.13952626286E+04  0.50400001928E-02 0.  1.
    10030    2    1    2    0    0  0.00000000000E+00  0.00000000000E+00  0.10937154395E+04  0.38842406966E+04  0.37270782560E+04 0.  0.
        3    1    3    3  502    0  0.15277098118E+03  0.15367637008E+04  0.16338123992E+04  0.22481825128E+04  0.10100000352E+00 0. -1.
       -3    1    3    3    0  502 -0.15277098118E+03 -0.15367637008E+04 -0.54009695967E+03  0.16360581838E+04  0.10100000352E+00 0.  1.
</event>
<event>
 5   0  0.1648000E-07  0.3732277E+04  0.7818609E-02  0.8060846E-01
        1   -1    0    0  501    0  0.00000000000E+00  0.00000000000E+00  0.18682692674E+04  0.18682692674E+04  0.50400001928E-02 0. -1.
       -1   -1    0    0    0  501  0.00000000000E+00  0.00000000000E+00 -0.18640099801E+04  0.18640099801E+04  0.50400001928E-02 0.  1.
    10030    2    1    2    0    0  0.00000000000E+00  0.00000000000E+00  0.42592872790E+01  0.37322792474E+04  0.37322768171E+04 0.  0.
        4    1    3    3  502    0 -0.84506107312E+03  0.14153632696E+04  0.87682418521E+03  0.18671378275E+04  0.12699999809E+01 0.  1.
       -4    1    3    3    0  502  0.84506107312E+03 -0.14153632696E+04 -0.87256489793E+03  0.18651414199E+04  0.12699999809E+01 0. -1.
</event>
<event>
 5   0  0.1648000E-07  0.3538937E+04  0.7818609E-02  0.8104624E-01
        1   -1    0    0  501    0  0.00000000000E+00  0.00000000000E+00  0.20958826305E+04  0.20958826305E+04  0.50400001928E-02 0. -1.
       -1   -1    0    0    0  501  0.00000000000E+00  0.00000000000E+00 -0.14938904854E+04  0.14938904855E+04  0.50400001928E-02 0.  1.
    10030    2    1    2    0    0  0.00000000000E+00  0.00000000000E+00  0.60199214507E+03  0.35897731160E+04  0.35389371966E+04 0.  0.
        3    1    3    3  502    0  0.14359172442E+04  0.75649168625E+03  0.10160196900E+04  0.19147934678E+04  0.10100000352E+00 0. -1.
       -3    1    3    3    0  502 -0.14359172442E+04 -0.75649168625E+03 -0.41402754494E+03  0.16749796482E+04  0.10100000352E+00 0.  1.
</event>
<event>
 5   0  0.1648000E-07  0.3806263E+04  0.7818609E-02  0.8044812E-01
       -1   -1    0    0    0  501  0.00000000000E+00  0.00000000000E+00  0.26942450504E+04  0.26942450504E+04  0.50400001928E-02 0. -1.
        1   -1    0    0  501    0  0.00000000000E+00  0.00000000000E+00 -0.13443133995E+04  0.13443133995E+04  0.50400001928E-02 0.  1.
    10030    2    1    2    0    0  0.00000000000E+00  0.00000000000E+00  0.13499316509E+04  0.40385584499E+04  0.38062631138E+04 0.  0.
        1    1    3    3  502    0 -0.15091172924E+04 -0.84213823544E+03  0.15206524167E+04  0.23019590748E+04  0.50400001928E-02 0. -1.
       -1    1    3    3    0  502  0.15091172924E+04  0.84213823544E+03 -0.17072076577E+03  0.17365993751E+04  0.50400001928E-02 0.  1.
</event>
<event>
 5   0  0.1656617E-07  0.3701806E+04  0.7818609E-02  0.8067562E-01
        1   -1    0    0  501    0  0.00000000000E+00  0.00000000000E+00  0.17646280420E+04  0.17646280420E+04  0.50400001928E-02 0.  1.
       -1   -1    0    0    0  501  0.00000000000E+00  0.00000000000E+00 -0.19413959957E+04  0.19413959957E+04  0.50400001928E-02 0. -1.
    10030    2    1    2    0    0  0.00000000000E+00  0.00000000000E+00 -0.17676795370E+03  0.37060240377E+04  0.37018059456E+04 0.  0.
        5    1    3    3  502    0  0.94451644911E+03  0.15798356183E+04 -0.28309935244E+03  0.18622994488E+04  0.46999998093E+01 0. -1.
       -5    1    3    3    0  502 -0.94451644911E+03 -0.15798356183E+04  0.10633139873E+03  0.18437245890E+04  0.46999998093E+01 0.  1.
</event>
<event>
 5   0  0.5132561E-07  0.3811334E+04  0.7818609E-02  0.8043727E-01
       -2   -1    0    0    0  501  0.00000000000E+00  0.00000000000E+00  0.19693025204E+04  0.19693025204E+04  0.25500000920E-02 0.  1.
        2   -1    0    0  501    0  0.00000000000E+00  0.00000000000E+00 -0.18440881923E+04  0.18440881923E+04  0.25500000920E-02 0. -1.
    10030    2    1    2    0    0  0.00000000000E+00  0.00000000000E+00  0.12521432817E+03  0.38133907127E+04  0.38113344251E+04 0.  0.
        3    1    3    3  502    0 -0.15848738295E+04 -0.24577595984E+03 -0.96718893709E+03  0.18728815574E+04  0.10100000352E+00 0. -1.
       -3    1    3    3    0  502  0.15848738295E+04  0.24577595984E+03  0.10924032653E+04  0.19405091553E+04  0.10100000352E+00 0.  1.
</event>
<event>
 5   0  0.5158266E-07  0.3824661E+04  0.7818609E-02  0.8040883E-01
       -2   -1    0    0    0  501  0.00000000000E+00  0.00000000000E+00  0.21120188071E+04  0.21120188071E+04  0.25500000920E-02 0. -1.
        2   -1    0    0  501    0  0.00000000000E+00  0.00000000000E+00 -0.17315222957E+04  0.17315222957E+04  0.25500000920E-02 0.  1.
    10030    2    1    2    0    0  0.00000000000E+00  0.00000000000E+00  0.38049651138E+03  0.38435411028E+04  0.38246608495E+04 0.  0.
        2    1    3    3  502    0  0.10674834857E+04  0.32174496316E+03 -0.13711160598E+04  0.17672011949E+04  0.25500000920E-02 0.  1.
       -2    1    3    3    0  502 -0.10674834857E+04 -0.32174496316E+03  0.17516125712E+04  0.20763399079E+04  0.25500000920E-02 0. -1.
</event>
<event>
 5   0  0.1656617E-07  0.3493975E+04  0.7818609E-02  0.8115219E-01
        1   -1    0    0  501    0  0.00000000000E+00  0.00000000000E+00  0.13410593162E+04  0.13410593162E+04  0.50400001928E-02 0.  1.
       -1   -1    0    0    0  501  0.00000000000E+00  0.00000000000E+00 -0.22757873329E+04  0.22757873329E+04  0.50400001928E-02 0. -1.
    10030    2    1    2    0    0  0.00000000000E+00  0.00000000000E+00 -0.93472801668E+03  0.36168466491E+04  0.34939752744E+04 0.  0.
        5    1    3    3  502    0  0.16599269860E+04 -0.52031580020E+03 -0.63382184163E+03  0.18514422345E+04  0.46999998093E+01 0. -1.
       -5    1    3    3    0  502 -0.16599269860E+04  0.52031580020E+03 -0.30090617504E+03  0.17654044146E+04  0.46999998093E+01 0.  1.
</event>
<event>
 5   0  0.5132561E-07  0.3556446E+04  0.7818609E-02  0.8100542E-01
        2   -1    0    0  501    0  0.00000000000E+00  0.00000000000E+00  0.21179190992E+04  0.21179190992E+04  0.25500000920E-02 0. -1.
       -2   -1    0    0    0  501  0.00000000000E+00  0.00000000000E+00 -0.14930114145E+04  0.14930114145E+04  0.25500000920E-02 0.  1.
    10030    2    1    2    0    0  0.00000000000E+00  0.00000000000E+00  0.62490768472E+03  0.36109305136E+04  0.35564461981E+04 0.  0.
        3    1    3    3  502    0 -0.17763169632E+04 -0.37108624937E+02  0.38705309072E+03  0.18183754038E+04  0.10100000352E+00 0. -1.
       -3    1    3    3    0  502  0.17763169632E+04  0.37108624937E+02  0.23785459400E+03  0.17925551099E+04  0.10100000352E+00 0.  1.
</event>
<event>
 5   0  0.5202788E-07  0.2736602E+04  0.7818609E-02  0.8323226E-01
       -2   -1    0    0    0  501  0.00000000000E+00  0.00000000000E+00  0.16134850907E+04  0.16134850907E+04  0.25500000920E-02 0.  1.
        2   -1    0    0  501    0  0.00000000000E+00  0.00000000000E+00 -0.11603752734E+04  0.11603752734E+04  0.25500000920E-02 0. -1.
    10030    2    1    2    0    0  0.00000000000E+00  0.00000000000E+00  0.45310981725E+03  0.27738603641E+04  0.27366024215E+04 0.  0.
        1    1    3    3  502    0  0.32306004089E+03 -0.13270031637E+04  0.31101411519E+03  0.14007265851E+04  0.50400001928E-02 0.  1.
       -1    1    3    3    0  502 -0.32306004089E+03  0.13270031637E+04  0.14209570206E+03  0.13731337790E+04  0.50400001928E-02 0. -1.
</event>
<event>
 5   0  0.5325362E-07  0.3906891E+04  0.7818609E-02  0.8023598E-01
       -2   -1    0    0    0  501  0.00000000000E+00  0.00000000000E+00  0.21095435987E+04  0.21095435988E+04  0.25500000920E-02 0.  1.
        2   -1    0    0  501    0  0.00000000000E+00  0.00000000000E+00 -0.18088977618E+04  0.18088977618E+04  0.25500000920E-02 0. -1.
    10030    2    1    2    0    0  0.00000000000E+00  0.00000000000E+00  0.30064583693E+03  0.39184413606E+04  0.39068906789E+04 0.  0.
        4    1    3    3  502    0 -0.72925103001E+03 -0.11027174563E+03  0.19645323631E+04  0.20984174850E+04  0.12699999809E+01 0.  1.
       -4    1    3    3    0  502  0.72925103001E+03  0.11027174563E+03 -0.16638865262E+04  0.18200238756E+04  0.12699999809E+01 0. -1.
</event>
<event>
 5   0  0.5158266E-07  0.3438751E+04  0.7818609E-02  0.8128460E-01
        2   -1    0    0  501    0  0.00000000000E+00  0.00000000000E+00  0.17852590825E+04  0.17852590825E+04  0.25500000920E-02 0.  1.
       -2   -1    0    0    0  501  0.00000000000E+00  0.00000000000E+00 -0.16559234464E+04  0.16559234464E+04  0.25500000920E-02 0. -1.
    10030    2    1    2    0    0  0.00000000000E+00  0.00000000000E+00  0.12933563612E+03  0.34411825289E+04  0.34387511527E+04 0.  0.
        2    1    3    3  502    0  0.97372838616E+02  0.17004096677E+04 -0.17082358843E+03  0.17117404027E+04  0.25500000920E-02 0.  1.
       -2    1    3    3    0  502 -0.97372838616E+02 -0.17004096677E+04  0.30015922455E+03  0.17294421262E+04  0.25500000920E-02 0. -1.
</event>
<event>
 5   0  0.1656617E-07  0.3772613E+04  0.7818609E-02  0.8052058E-01
        1   -1    0    0  501    0  0.00000000000E+00  0.00000000000E+00  0.21752419703E+04  0.21752419703E+04  0.50400001928E-02 0.  1.
       -1   -1    0    0    0  501  0.00000000000E+00  0.00000000000E+00 -0.16357497039E+04  0.16357497039E+04  0.50400001928E-02 0. -1.
    10030    2    1    2    0    0  0.00000000000E+00  0.00000000000E+00  0.53949226635E+03  0.38109916742E+04  0.37726125742E+04 0.  0.
        5    1    3    3  502    0  0.93801294962E+03  0.16340310513E+04  0.17825127865E+03  0.18925436266E+04  0.46999998093E+01 0.  1.
       -5    1    3    3    0  502 -0.93801294962E+03 -0.16340310513E+04  0.36124098769E+03  0.19184480476E+04  0.46999998093E+01 0. -1.
</event>
<event>
 5   0  0.5158266E-07  0.3869077E+04  0.7818609E-02  0.8031491E-01
       -2   -1    0    0    0  501  0.00000000000E+00  0.00000000000E+00  0.17484158953E+04  0.17484158953E+04  0.25500000920E-02 0. -1.
        2   -1    0    0  501    0  0.00000000000E+00  0.00000000000E+00 -0.21404746684E+04  0.21404746684E+04  0.25500000920E-02 0.  1.
    10030    2    1    2    0    0  0.00000000000E+00  0.00000000000E+00 -0.39205877303E+03  0.38888905637E+04  0.38690773751E+04 0.  0.
        2    1    3    3  502    0  0.36610459621E+03 -0.18895117069E+04 -0.39235723247E+03  0.19642380873E+04  0.25500000920E-02 0.  1.
       -2    1    3    3    0  502 -0.36610459621E+03  0.18895117069E+04  0.29845943920E+00  0.19246524764E+04  0.25500000920E-02 0. -1.
</event>
<event>
 5   0  0.1656617E-07  0.3814994E+04  0.7818609E-02  0.8042945E-01
       -1   -1    0    0    0  501  0.00000000000E+00  0.00000000000E+00  0.18083688419E+04  0.18083688419E+04  0.50400001928E-02 0. -1.
        1   -1    0    0  501    0  0.00000000000E+00  0.00000000000E+00 -0.20120586577E+04  0.20120586577E+04  0.50400001928E-02 0.  1.
    10030    2    1    2    0    0  0.00000000000E+00  0.00000000000E+00 -0.20368981582E+03  0.38204274995E+04  0.38149936747E+04 0.  0.
        5    1    3    3  502    0 -0.48403862019E+03 -0.18177472669E+04 -0.41856042555E+03  0.19270997463E+04  0.46999998093E+01 0.  1.
       -5    1    3    3    0  502  0.48403862019E+03  0.18177472669E+04  0.21487060973E+03  0.18933277532E+04  0.46999998093E+01 0. -1.
</event>
<event>
 5   0  0.1648000E-07  0.3497610E+04  0.7818609E-02  0.8114357E-01
       -1   -1    0    0    0  501  0.00000000000E+00  0.00000000000E+00  0.12729856297E+04  0.12729856297E+04  0.50400001928E-02 0. -1.
        1   -1    0    0  501    0  0.00000000000E+00  0.00000000000E+00 -0.24024773184E+04  0.24024773184E+04  0.50400001928E-02 0.  1.
    10030    2    1    2    0    0  0.00000000000E+00  0.00000000000E+00 -0.11294916887E+04  0.36754629480E+04  0.34976100994E+04 0.  0.
        4    1    3    3  502    0  0.14099269164E+04  0.17262825562E+03 -0.16367275616E+04  0.21671578503E+04  0.12699999809E+01 0. -1.
       -4    1    3    3    0  502 -0.14099269164E+04 -0.17262825562E+03  0.50723587293E+03  0.15083050977E+04  0.12699999809E+01 0.  1.
</event>
<event>
 5   0  0.1648000E-07  0.3955156E+04  0.7818609E-02  0.8013655E-01
       -1   -1    0    0    0  501  0.00000000000E+00  0.00000000000E+00  0.15424398650E+04  0.15424398650E+04  0.50400001928E-02 0.  1.
        1   -1    0    0  501    0  0.00000000000E+00  0.00000000000E+00 -0.25354729643E+04  0.25354729643E+04  0.50400001928E-02 0. -1.
    10030    2    1    2    0    0  0.00000000000E+00  0.00000000000E+00 -0.99303309929E+03  0.40779128292E+04  0.39551559143E+04 0.  0.
        2    1    3    3  502    0 -0.90070104536E+02 -0.95737017758E+03 -0.22781966302E+04  0.24728223079E+04  0.25500000920E-02 0. -1.
       -2    1    3    3    0  502  0.90070104536E+02  0.95737017758E+03  0.12851635309E+04  0.16050905214E+04  0.25500000920E-02 0.  1.
</event>
<event>
 5   0  0.1648000E-07  0.3655901E+04  0.7818609E-02  0.8077805E-01
        1   -1    0    0  501    0  0.00000000000E+00  0.00000000000E+00  0.26482696093E+04  0.26482696093E+04  0.50400001928E-02 0.  1.
       -1   -1    0    0    0  501  0.00000000000E+00  0.00000000000E+00 -0.12617309597E+04  0.12617309597E+04  0.50400001928E-02 0. -1.
    10030    2    1    2    0    0  0.00000000000E+00  0.00000000000E+00  0.13865386496E+04  0.39100005690E+04  0.36559013968E+04 0.  0.
        4    1    3    3  502    0  0.13216479384E+03  0.14769943616E+04 -0.44986081684E+03  0.15496310026E+04  0.12699999809E+01 0. -1.
       -4    1    3    3    0  502 -0.13216479384E+03 -0.14769943616E+04  0.18363994664E+04  0.23603695664E+04  0.12699999809E+01 0.  1.
</event>
<event>
 5   0  0.5202788E-07  0.3765711E+04  0.7818609E-02  0.8053553E-01
       -2   -1    0    0    0  501  0.00000000000E+00  0.00000000000E+00  0.14634741374E+04  0.14634741374E+04  0.25500000920E-02 0. -1.
        2   -1    0    0  501    0  0.00000000000E+00  0.00000000000E+00 -0.24224171205E+04  0.24224171205E+04  0.25500000920E-02 0.  1.
    10030    2    1    2    0    0  0.00000000000E+00  0.00000000000E+00 -0.95894298306E+03  0.38858912579E+04  0.37657109851E+04 0.  0.
        1    1    3    3  502    0  0.10545424031E+04  0.15574406841E+04 -0.39032196516E+03  0.19209457048E+04  0.50400001928E-02 0. -1.
       -1    1    3    3    0  502 -0.10545424031E+04 -0.15574406841E+04 -0.56862101790E+03  0.19649455531E+04  0.50400001928E-02 0.  1.
</event>
<event>
 5   0  0.5325362E-07  0.3706307E+04  0.7818609E-02  0.8066566E-01
        2   -1    0    0  501    0  0.00000000000E+00  0.00000000000E+00  0.25064569640E+04  0.25064569640E+04  0.25500000920E-02 0.  1.
       -2   -1    0    0    0  501  0.00000000000E+00  0.00000000000E+00 -0.13701322394E+04  0.13701322394E+04  0.25500000920E-02 0. -1.
    10030    2    1    2    0    0  0.00000000000E+00  0.00000000000E+00  0.11363247246E+04  0.38765892034E+04  0.37063067833E+04 0.  0.
        4    1    3    3  502    0 -0.75660017045E+03  0.98465589485E+03 -0.87060373505E+03  0.15165564696E+04  0.12699999809E+01 0. -1.
       -4    1    3    3    0  502  0.75660017045E+03 -0.98465589485E+03  0.20069284597E+04  0.23600327337E+04  0.12699999809E+01 0.  1.
</event>
<event>
 5   0  0.1648000E-07  0.3787421E+04  0.7818609E-02  0.8048860E-01
        1   -1    0    0  501    0  0.00000000000E+00  0.00000000000E+00  0.17006204881E+04  0.17006204881E+04  0.50400001928E-02 0. -1.
       -1   -1    0    0    0  501  0.00000000000E+00  0.00000000000E+00 -0.21087238799E+04  0.21087238799E+04  0.50400001928E-02 0.  1.
    10030    2    1    2    0    0  0.00000000000E+00  0.00000000000E+00 -0.40810339188E+03  0.38093443680E+04  0.37874207762E+04 0.  0.
        3    1    3    3  502    0  0.67369355870E+03  0.13690898272E+04 -0.13320914231E+04  0.20255215466E+04  0.10100000352E+00 0.  1.
       -3    1    3    3    0  502 -0.67369355870E+03 -0.13690898272E+04  0.92398803124E+03  0.17838228214E+04  0.10100000352E+00 0. -1.
</event>
<event>
 5   0  0.5132561E-07  0.3664424E+04  0.7818609E-02  0.8075892E-01
        2   -1    0    0  501    0  0.00000000000E+00  0.00000000000E+00  0.23594315677E+04  0.23594315677E+04  0.25500000920E-02 0. -1.
       -2   -1    0    0    0  501  0.00000000000E+00  0.00000000000E+00 -0.14228003937E+04  0.14228003937E+04  0.25500000920E-02 0.  1.
    10030    2    1    2    0    0  0.00000000000E+00  0.00000000000E+00  0.93663117396E+03  0.37822319615E+04  0.36644236456E+04 0.  0.
        3    1    3    3  502    0  0.75524632488E+03 -0.16244730861E+04  0.71655483675E+02  0.17928871513E+04  0.10100000352E+00 0.  1.
       -3    1    3    3    0  502 -0.75524632488E+03  0.16244730861E+04  0.86497569029E+03  0.19893448102E+04  0.10100000352E+00 0. -1.
</event>
<event>
 5   0  0.1648000E-07  0.3832404E+04  0.7818609E-02  0.8039237E-01
        1   -1    0    0  501    0  0.00000000000E+00  0.00000000000E+00  0.15314648307E+04  0.15314648307E+04  0.50400001928E-02 0.  1.
       -1   -1    0    0    0  501  0.00000000000E+00  0.00000000000E+00 -0.23975930975E+04  0.23975930975E+04  0.50400001928E-02 0. -1.
    10030    2    1    2    0    0  0.00000000000E+00  0.00000000000E+00 -0.86612826679E+03  0.39290579283E+04  0.38324036882E+04 0.  0.
        3    1    3    3  502    0 -0.14563629217E+03  0.18094968405E+03  0.15169783280E+04  0.15346582602E+04  0.10100000352E+00 0.  1.
       -3    1    3    3    0  502  0.14563629217E+03 -0.18094968405E+03 -0.23831065948E+04  0.23943996680E+04  0.10100000352E+00 0. -1.
</event>
<event>
 5   0  0.1648000E-07  0.3662580E+04  0.7818609E-02  0.8076305E-01
       -1   -1    0    0    0  501  0.00000000000E+00  0.00000000000E+00  0.17429676072E+04  0.17429676073E+04  0.50400001928E-02 0.  1.
        1   -1    0    0  501    0  0.00000000000E+00  0.00000000000E+00 -0.19240884672E+04  0.19240884672E+04  0.50400001928E-02 0. -1.
    10030    2    1    2    0    0  0.00000000000E+00  0.00000000000E+00 -0.18112085995E+03  0.36670560745E+04  0.36625804411E+04 0.  0.
        2    1    3    3  502    0 -0.15968226013E+03 -0.41259222794E+03  0.16886572741E+04  0.17456500681E+04  0.25500000920E-02 0.  1.
       -2    1    3    3    0  502  0.15968226013E+03  0.41259222794E+03 -0.18697781341E+04  0.19214060064E+04  0.25500000920E-02 0. -1.
</event>
<event>
 5   0  0.5158266E-07  0.3770099E+04  0.7818609E-02  0.8052602E-01
       -2   -1    0    0    0  501  0.00000000000E+00  0.00000000000E+00  0.17119035538E+04  0.17119035538E+04  0.25500000920E-02 0.  1.
        2   -1    0    0  501    0  0.00000000000E+00  0.00000000000E+00 -0.20757074965E+04  0.20757074965E+04  0.25500000920E-02 0. -1.
    10030    2    1    2    0    0  0.00000000000E+00  0.00000000000E+00 -0.36380394273E+03  0.37876110503E+04  0.37700986936E+04 0.  0.
        2    1    3    3  502    0 -0.65469837807E+03 -0.69878304664E+03 -0.18131694207E+04  0.20504904439E+04  0.25500000920E-02 0. -1.
       -2    1    3    3    0  502  0.65469837807E+03  0.69878304664E+03  0.14493654779E+04  0.17371206064E+04  0.25500000920E-02 0.  1.
</event>
<event>
 5   0  0.1648000E-07  0.3869646E+04  0.7818609E-02  0.8031372E-01
        3   -1    0    0  501    0  0.00000000000E+00  0.00000000000E+00  0.21138136166E+04  0.21138136190E+04  0.10100000352E+00 0. -1.
       -3   -1    0    0    0  501  0.00000000000E+00  0.00000000000E+00 -0.17709886701E+04  0.17709886729E+04  0.10100000352E+00 0.  1.
    10030    2    1    2    0    0  0.00000000000E+00  0.00000000000E+00  0.34282494652E+03  0.38848022919E+04  0.38696459662E+04 0.  0.
        4    1    3    3  502    0  0.70498134044E+03  0.41434299464E+03 -0.15889833525E+04  0.17870502273E+04  0.12699999809E+01 0.  1.
       -4    1    3    3    0  502 -0.70498134044E+03 -0.41434299464E+03  0.19318082990E+04  0.20977520646E+04  0.12699999809E+01 0. -1.
</event>
<event>
 5   0  0.1648000E-07  0.3228464E+04  0.7818609E-02  0.8181340E-01
        1   -1    0    0  501    0  0.00000000000E+00  0.00000000000E+00  0.26378645133E+04  0.26378645133E+04  0.50400001928E-02 0. -1.
       -1   -1    0    0    0  501  0.00000000000E+00  0.00000000000E+00 -0.98782380427E+03  0.98782380429E+03  0.50400001928E-02 0.  1.
    10030    2    1    2    0    0  0.00000000000E+00  0.00000000000E+00  0.16500407091E+04  0.36256883176E+04  0.32284642533E+04 0.  0.
        1    1    3    3  502    0 -0.25691439577E+02  0.15236034679E+04  0.22683226353E+03  0.15406104158E+04  0.50400001928E-02 0.  1.
       -1    1    3    3    0  502  0.25691439577E+02 -0.15236034679E+04  0.14232084455E+04  0.20850779019E+04  0.50400001928E-02 0. -1.
</event>
<event>
 5   0  0.5325362E-07  0.3792681E+04  0.7818609E-02  0.8047727E-01
       -2   -1    0    0    0  501  0.00000000000E+00  0.00000000000E+00  0.18675673660E+04  0.18675673660E+04  0.25500000920E-02 0.  1.
        2   -1    0    0  501    0  0.00000000000E+00  0.00000000000E+00 -0.19255572928E+04  0.19255572928E+04  0.25500000920E-02 0. -1.
    10030    2    1    2    0    0  0.00000000000E+00  0.00000000000E+00 -0.57989926811E+02  0.37931246587E+04  0.37926813530E+04 0.  0.
        4    1    3    3  502    0  0.11855133456E+04 -0.13305440069E+04  0.61939948780E+03  0.18866495661E+04  0.12699999809E+01 0.  1.
       -4    1    3    3    0  502 -0.11855133456E+04  0.13305440069E+04 -0.67738941462E+03  0.19064750926E+04  0.12699999809E+01 0. -1.
</event>
<event>
 5   0  0.1648000E-07  0.3775601E+04  0.7818609E-02  0.8051411E-01
        1   -1    0    0  501    0  0.00000000000E+00  0.00000000000E+00  0.23652013925E+04  0.23652013925E+04  0.50400001928E-02 0.  1.
       -1   -1    0    0    0  501  0.00000000000E+00  0.00000000000E+00 -0.15067600698E+04  0.15067600698E+04  0.50400001928E-02 0. -1.
    10030    2    1    2    0    0  0.00000000000E+00  0.00000000000E+00  0.85844132270E+03  0.38719614623E+04  0.37756011522E+04 0.  0.
        1    1    3    3  502    0 -0.12279458079E+04 -0.10184621230E+03  0.18959562140E+04  0.22611664077E+04  0.50400001928E-02 0.  1.
       -1    1    3    3    0  502  0.12279458079E+04  0.10184621230E+03 -0.10375148913E+04  0.16107950545E+04  0.50400001928E-02 0. -1.
</event>
<event>
 5   0  0.5325362E-07  0.3502770E+04  0.7818609E-02  0.8113134E-01
       -2   -1    0    0    0  501  0.00000000000E+00  0.00000000000E+00  0.14648028972E+04  0.14648028972E+04  0.25500000920E-02 0.  1.
        2   -1    0    0  501    0  0.00000000000E+00  0.00000000000E+00 -0.20940360975E+04  0.20940360975E+04  0.25500000920E-02 0. -1.
    10030    2    1    2    0    0  0.00000000000E+00  0.00000000000E+00 -0.62923320031E+03  0.35588389947E+04  0.35027704135E+04 0.  0.
        4    1    3    3  502    0 -0.45219397108E+03  0.22438475554E+03  0.13892850584E+04  0.14781550976E+04  0.12699999809E+01 0.  1.
       -4    1    3    3    0  502  0.45219397108E+03 -0.22438475554E+03 -0.20185182587E+04  0.20806838971E+04  0.12699999809E+01 0. -1.
</event>
<event>
 5   0  0.5134434E-07  0.3770386E+04  0.7818609E-02  0.8052540E-01
       -2   -1    0    0    0  501  0.00000000000E+00  0.00000000000E+00  0.12313121628E+04  0.12313121628E+04  0.25500000920E-02 0.  1.
        2   -1    0    0  501    0  0.00000000000E+00  0.00000000000E+00 -0.28863130591E+04  0.28863130591E+04  0.25500000920E-02 0. -1.
    10030    2    1    2    0    0  0.00000000000E+00  0.00000000000E+00 -0.16550008963E+04  0.41176252219E+04  0.37703858557E+04 0.  0.
        5    1    3    3  502    0 -0.16363448510E+03  0.30806397666E+03 -0.28507549455E+04  0.28720211537E+04  0.46999998093E+01 0. -1.
       -5    1    3    3    0  502  0.16363448510E+03 -0.30806397666E+03  0.11957540492E+04  0.12456040681E+04  0.46999998093E+01 0.  1.
</event>
<event>
 5   0  0.1648000E-07  0.3696410E+04  0.7818609E-02  0.8068758E-01
        1   -1    0    0  501    0  0.00000000000E+00  0.00000000000E+00  0.27134846756E+04  0.27134846757E+04  0.50400001928E-02 0.  1.
       -1   -1    0    0    0  501  0.00000000000E+00  0.00000000000E+00 -0.12588469177E+04  0.12588469177E+04  0.50400001928E-02 0. -1.
    10030    2    1    2    0    0  0.00000000000E+00  0.00000000000E+00  0.14546377580E+04  0.39723315934E+04  0.36964100531E+04 0.  0.
        4    1    3    3  502    0  0.16115141825E+04 -0.88777942471E+03  0.91570383045E+03  0.20551509398E+04  0.12699999809E+01 0. -1.
       -4    1    3    3    0  502 -0.16115141825E+04  0.88777942471E+03  0.53893392751E+03  0.19171806536E+04  0.12699999809E+01 0.  1.
</event>
<event>
 5   0  0.5134434E-07  0.3822756E+04  0.7818609E-02  0.8041289E-01
       -2   -1    0    0    0  501  0.00000000000E+00  0.00000000000E+00  0.19312340925E+04  0.19312340925E+04  0.25500000920E-02 0. -1.
        2   -1    0    0  501    0  0.00000000000E+00  0.00000000000E+00 -0.18917260534E+04  0.18917260534E+04  0.25500000920E-02 0.  1.
    10030    2    1    2    0    0  0.00000000000E+00  0.00000000000E+00  0.39508039189E+02  0.38229601459E+04  0.38227559943E+04 0.  0.
        5    1    3    3  502    0  0.74399818325E+02 -0.20156433548E+03  0.19191132620E+04  0.19311088309E+04  0.46999998093E+01 0. -1.
       -5    1    3    3    0  502 -0.74399818325E+02  0.20156433548E+03 -0.18796052228E+04  0.18918513150E+04  0.46999998093E+01 0.  1.
</event>
<event>
 5   0  0.1648000E-07  0.3886754E+04  0.7818609E-02  0.8027790E-01
       -1   -1    0    0    0  501  0.00000000000E+00  0.00000000000E+00  0.14608344428E+04  0.14608344428E+04  0.50400001928E-02 0.  1.
        1   -1    0    0  501    0  0.00000000000E+00  0.00000000000E+00 -0.25853134622E+04  0.25853134622E+04  0.50400001928E-02 0. -1.
    10030    2    1    2    0    0  0.00000000000E+00  0.00000000000E+00 -0.11244790194E+04  0.40461479050E+04  0.38867544049E+04 0.  0.
        2    1    3    3  502    0 -0.77818451663E+03  0.65812950514E+03  0.11603116101E+04  0.15443537872E+04  0.25500000920E-02 0.  1.
       -2    1    3    3    0  502  0.77818451663E+03 -0.65812950514E+03 -0.22847906295E+04  0.25017941179E+04  0.25500000920E-02 0. -1.
</event>
<event>
 5   0  0.5158266E-07  0.3752383E+04  0.7818609E-02  0.8056451E-01
        2   -1    0    0  501    0  0.00000000000E+00  0.00000000000E+00  0.28719784055E+04  0.28719784055E+04  0.25500000920E-02 0.  1.
       -2   -1    0    0    0  501  0.00000000000E+00  0.00000000000E+00 -0.12256686287E+04  0.12256686287E+04  0.25500000920E-02 0. -1.
    10030    2    1    2    0    0  0.00000000000E+00  0.00000000000E+00  0.16463097768E+04  0.40976470342E+04  0.37523826211E+04 0.  0.
        2    1    3    3  502    0 -0.12700485027E+03 -0.32254451547E+03  0.28367044833E+04  0.28578064179E+04  0.25500000920E-02 0.  1.
       -2    1    3    3    0  502  0.12700485027E+03  0.32254451547E+03 -0.11903947065E+04  0.12398406163E+04  0.25500000920E-02 0. -1.
</event>
<event>
 5   0  0.1656617E-07  0.3780478E+04  0.7818609E-02  0.8050357E-01
       -1   -1    0    0    0  501  0.00000000000E+00  0.00000000000E+00  0.22245394065E+04  0.22245394065E+04  0.50400001928E-02 0. -1.
        1   -1    0    0  501    0  0.00000000000E+00  0.00000000000E+00 -0.16061768119E+04  0.16061768119E+04  0.50400001928E-02 0.  1.
    10030    2    1    2    0    0  0.00000000000E+00  0.00000000000E+00  0.61836259466E+03  0.38307162184E+04  0.37804780713E+04 0.  0.
        5    1    3    3  502    0  0.37380136465E+03 -0.29651711310E+02  0.21864680344E+04  0.22183938423E+04  0.46999998093E+01 0. -1.
       -5    1    3    3    0  502 -0.37380136465E+03  0.29651711310E+02 -0.15681054397E+04  0.16123223761E+04  0.46999998093E+01 0.  1.
</event>
</LesHouchesEvents>
