<LesHouchesEvents version="3.0">
<header>
<!--
#*********************************************************************
#                                                                    *
#                        MadGraph5_aMC@NLO                           *
#                                                                    *
#                           Going Beyond                             *
#                                                                    *
#                   http://madgraph.hep.uiuc.edu                     *
#                   http://madgraph.phys.ucl.ac.be                   *
#                   http://amcatnlo.cern.ch                          *
#                                                                    *
#                     The MadGraph5_aMC@NLO team                     *
#                                                                    *
#....................................................................*
#                                                                    *
# This file contains all the information necessary to reproduce      *
# the events generated:                                              *
#                                                                    *
# 1. software version                                                *
# 2. proc_card          : code generation info including model       *
# 3. param_card         : model primary parameters in the LH format  *
# 4. run_card           : running parameters (collider and cuts)     *
# 5. pythia_card        : present only if pythia has been run        *
# 6. pgs_card           : present only if pgs has been run           *
# 7. delphes_cards      : present only if delphes has been run       *
#                                                                    *
#                                                                    *
#*********************************************************************
-->
<MGVersion>
#5.2.2.3
</MGVersion>
<MG5ProcCard>
#************************************************************
#*                     MadGraph5_aMC@NLO                    *
#*                                                          *
#*                *                       *                 *
#*                  *        * *        *                   *
#*                    * * * * 5 * * * *                     *
#*                  *        * *        *                   *
#*                *                       *                 *
#*                                                          *
#*                                                          *
#*         VERSION 2.2.3                 2015-02-10         *
#*                                                          *
#*    The MadGraph5_aMC@NLO Development Team - Find us at   *
#*    https://server06.fynu.ucl.ac.be/projects/madgraph     *
#*                                                          *
#************************************************************
#*                                                          *
#*               Command File for MadGraph5_aMC@NLO         *
#*                                                          *
#*     run as ./bin/mg5_aMC  filename                       *
#*                                                          *
#************************************************************
set group_subprocesses Auto
set ignore_six_quark_processes False
set loop_optimized_output True
set gauge unitary
set complex_mass_scheme False
import model sm
define p = g u c d s u~ c~ d~ s~
define j = g u c d s u~ c~ d~ s~
define l+ = e+ mu+
define l- = e- mu-
define vl = ve vm vt
define vl~ = ve~ vm~ vt~
import model Zprime_UFO
generate p p > zph, zph > j j
add process p p > zph, zph > b b~
output Dijet_signal
</MG5ProcCard>
<MGProcCard>
#*********************************************************************
#                        MadGraph/MadEvent                           *
#                   http://madgraph.hep.uiuc.edu                     *
#                                                                    *
#                          proc_card.dat                             *
#*********************************************************************
#                                                                    *
#            This Files is generated by MADGRAPH 5                   *
#                                                                    *
# WARNING: This Files is generated for MADEVENT (compatibility issue)*
#          This files is NOT a valid MG4 proc_card.dat               *
#          Running this in MG4 will NEVER reproduce the result of MG5*
#                                                                    *
#*********************************************************************
#*********************************************************************
# Process(es) requested : mg2 input                                  *
#*********************************************************************
# Begin PROCESS # This is TAG. Do not modify this line
p p > zph , zph > j j           #Process
# Be carefull the coupling are here in MG5 convention
          
end_coup           # End the couplings input

done               # this tells MG there are no more procs
# End PROCESS  # This is TAG. Do not modify this line
#*********************************************************************
# Model information                                                  *
#*********************************************************************
# Begin MODEL  # This is TAG. Do not modify this line
Zprime_UFO
# End   MODEL  # This is TAG. Do not modify this line
#*********************************************************************
# Start multiparticle definitions                                    *
#*********************************************************************
# Begin MULTIPARTICLES # This is TAG. Do not modify this line

# End  MULTIPARTICLES # This is TAG. Do not modify this line
</MGProcCard>
<MGRunCard>
#*********************************************************************
#                       MadGraph5_aMC@NLO                            *
#                                                                    *
#                     run_card.dat MadEvent                          *
#                                                                    *
#  This file is used to set the parameters of the run.               *
#                                                                    *
#  Some notation/conventions:                                        *
#                                                                    *
#   Lines starting with a '# ' are info or comments                  *
#                                                                    *
#   mind the format:   value    = variable     ! comment             *
#*********************************************************************
#
#*******************                                                 
# Running parameters
#*******************                                                 
#                                                                    
#*********************************************************************
# Tag name for the run (one word)                                    *
#*********************************************************************
  tag_1     = run_tag ! name of the run 
#*********************************************************************
# Run to generate the grid pack                                      *
#*********************************************************************
  .false.     = gridpack  !True = setting up the grid pack
#*********************************************************************
# Number of events and rnd seed                                      *
# Warning: Do not generate more than 1M events in a single run       *
# If you want to run Pythia, avoid more than 50k events in a run.    *
#*********************************************************************
  2000 = nevents ! Number of unweighted events requested 
 2856 = iseed   ! rnd seed (0=assigned automatically=default))
#*********************************************************************
# Collider type and energy                                           *
# lpp: 0=No PDF, 1=proton, -1=antiproton, 2=photon from proton,      *
#                                         3=photon from electron     *
#*********************************************************************
        1     = lpp1    ! beam 1 type 
        1     = lpp2    ! beam 2 type
     4000     = ebeam1  ! beam 1 total energy in GeV
     4000     = ebeam2  ! beam 2 total energy in GeV
#*********************************************************************
# Beam polarization from -100 (left-handed) to 100 (right-handed)    *
#*********************************************************************
        0     = polbeam1 ! beam polarization for beam 1
        0     = polbeam2 ! beam polarization for beam 2
#*********************************************************************
# PDF CHOICE: this automatically fixes also alpha_s and its evol.    *
#*********************************************************************
 'nn23lo1'    = pdlabel     ! PDF set                                     
 230000    = lhaid     ! if pdlabel=lhapdf, this is the lhapdf number
#*********************************************************************
# Renormalization and factorization scales                           *
#*********************************************************************
 F        = fixed_ren_scale  ! if .true. use fixed ren scale
 F        = fixed_fac_scale  ! if .true. use fixed fac scale
 91.1880  = scale            ! fixed ren scale
 91.1880  = dsqrt_q2fact1    ! fixed fact scale for pdf1
 91.1880  = dsqrt_q2fact2    ! fixed fact scale for pdf2
 1        = scalefact        ! scale factor for event-by-event scales
#*********************************************************************
# Matching - Warning! ickkw > 1 is still beta
#*********************************************************************
 0        = ickkw            ! 0 no matching, 1 MLM, 2 CKKW matching
 1        = highestmult      ! for ickkw=2, highest mult group
 1        = ktscheme         ! for ickkw=1, 1 Durham kT, 2 Pythia pTE
 1        = alpsfact         ! scale factor for QCD emission vx
 F        = chcluster        ! cluster only according to channel diag
 T        = pdfwgt           ! for ickkw=1, perform pdf reweighting
 5        = asrwgtflavor     ! highest quark flavor for a_s reweight
 T        = clusinfo         ! include clustering tag in output
 3.0      = lhe_version       ! Change the way clustering information pass to shower.        
#*********************************************************************
#**********************************************************
#
#**********************************************************
# Automatic ptj and mjj cuts if xqcut > 0
# (turn off for VBF and single top processes)
#**********************************************************
   T  = auto_ptj_mjj  ! Automatic setting of ptj and mjj
#**********************************************************
#                                                                    
#**********************************
# BW cutoff (M+/-bwcutoff*Gamma)
#**********************************
  15  = bwcutoff      ! (M+/-bwcutoff*Gamma)
#**********************************************************
# Apply pt/E/eta/dr/mij cuts on decay products or not
# (note that etmiss/ptll/ptheavy/ht/sorted cuts always apply)
#**********************************************************
   T  = cut_decays    ! Cut decay products 
#*************************************************************
# Number of helicities to sum per event (0 = all helicities)
# 0 gives more stable result, but longer run time (needed for
# long decay chains e.g.).
# Use >=2 if most helicities contribute, e.g. pure QCD.
#*************************************************************
   0  = nhel          ! Number of helicities used per event
#*******************                                                 
# Standard Cuts
#*******************                                                 
#                                                                    
#*********************************************************************
# Minimum and maximum pt's (for max, -1 means no cut)                *
#*********************************************************************
 20  = ptj       ! minimum pt for the jets 
  0  = ptb       ! minimum pt for the b 
 10  = pta       ! minimum pt for the photons 
 10  = ptl       ! minimum pt for the charged leptons 
  0  = misset    ! minimum missing Et (sum of neutrino's momenta)
  0  = ptheavy   ! minimum pt for one heavy final state
 1.0 = ptonium   ! minimum pt for the quarkonium states
 -1  = ptjmax    ! maximum pt for the jets
 -1  = ptbmax    ! maximum pt for the b
 -1  = ptamax    ! maximum pt for the photons
 -1  = ptlmax    ! maximum pt for the charged leptons
 -1  = missetmax ! maximum missing Et (sum of neutrino's momenta)
#*********************************************************************
# Minimum and maximum E's (in the center of mass frame)              *
#*********************************************************************
  0  = ej     ! minimum E for the jets 
  0  = eb     ! minimum E for the b 
  0  = ea     ! minimum E for the photons 
  0  = el     ! minimum E for the charged leptons 
 -1   = ejmax ! maximum E for the jets
 -1   = ebmax ! maximum E for the b
 -1   = eamax ! maximum E for the photons
 -1   = elmax ! maximum E for the charged leptons
#*********************************************************************
# Maximum and minimum absolute rapidity (for max, -1 means no cut)   *
#*********************************************************************
   5  = etaj    ! max rap for the jets 
  -1  = etab    ! max rap for the b
 2.5  = etaa    ! max rap for the photons 
 2.5  = etal    ! max rap for the charged leptons 
 0.6  = etaonium ! max rap for the quarkonium states
   0  = etajmin ! min rap for the jets
   0  = etabmin ! min rap for the b
   0  = etaamin ! min rap for the photons
   0  = etalmin ! main rap for the charged leptons
#*********************************************************************
# Minimum and maximum DeltaR distance                                *
#*********************************************************************
 0.4 = drjj    ! min distance between jets 
 0   = drbb    ! min distance between b's 
 0.4 = drll    ! min distance between leptons 
 0.4 = draa    ! min distance between gammas 
 0   = drbj    ! min distance between b and jet 
 0.4 = draj    ! min distance between gamma and jet 
 0.4 = drjl    ! min distance between jet and lepton 
 0   = drab    ! min distance between gamma and b 
 0   = drbl    ! min distance between b and lepton 
 0.4 = dral    ! min distance between gamma and lepton 
 -1  = drjjmax ! max distance between jets
 -1  = drbbmax ! max distance between b's
 -1  = drllmax ! max distance between leptons
 -1  = draamax ! max distance between gammas
 -1  = drbjmax ! max distance between b and jet
 -1  = drajmax ! max distance between gamma and jet
 -1  = drjlmax ! max distance between jet and lepton
 -1  = drabmax ! max distance between gamma and b
 -1  = drblmax ! max distance between b and lepton
 -1  = dralmax ! maxdistance between gamma and lepton
#*********************************************************************
# Minimum and maximum invariant mass for pairs                       *
# WARNING: for four lepton final state mmll cut require to have      *
#          different lepton masses for each flavor!                  *           
#*********************************************************************
 0   = mmjj    ! min invariant mass of a jet pair 
 0   = mmbb    ! min invariant mass of a b pair 
 0   = mmaa    ! min invariant mass of gamma gamma pair
 0   = mmll    ! min invariant mass of l+l- (same flavour) lepton pair
 -1  = mmjjmax ! max invariant mass of a jet pair
 -1  = mmbbmax ! max invariant mass of a b pair
 -1  = mmaamax ! max invariant mass of gamma gamma pair
 -1  = mmllmax ! max invariant mass of l+l- (same flavour) lepton pair
#*********************************************************************
# Minimum and maximum invariant mass for all letpons                 *
#*********************************************************************
 0   = mmnl    ! min invariant mass for all letpons (l+- and vl) 
 -1  = mmnlmax ! max invariant mass for all letpons (l+- and vl) 
#*********************************************************************
# Minimum and maximum pt for 4-momenta sum of leptons                *
#*********************************************************************
 0   = ptllmin  ! Minimum pt for 4-momenta sum of leptons(l and vl)
 -1  = ptllmax  ! Maximum pt for 4-momenta sum of leptons(l and vl)
#*********************************************************************
# Inclusive cuts                                                     *
#*********************************************************************
 0  = xptj ! minimum pt for at least one jet  
 0  = xptb ! minimum pt for at least one b 
 0  = xpta ! minimum pt for at least one photon 
 0  = xptl ! minimum pt for at least one charged lepton 
#*********************************************************************
# Control the pt's of the jets sorted by pt                          *
#*********************************************************************
 0   = ptj1min ! minimum pt for the leading jet in pt
 0   = ptj2min ! minimum pt for the second jet in pt
 0   = ptj3min ! minimum pt for the third jet in pt
 0   = ptj4min ! minimum pt for the fourth jet in pt
 -1  = ptj1max ! maximum pt for the leading jet in pt 
 -1  = ptj2max ! maximum pt for the second jet in pt
 -1  = ptj3max ! maximum pt for the third jet in pt
 -1  = ptj4max ! maximum pt for the fourth jet in pt
 0   = cutuse  ! reject event if fails any (0) / all (1) jet pt cuts
#*********************************************************************
# Control the pt's of leptons sorted by pt                           *
#*********************************************************************
 0   = ptl1min ! minimum pt for the leading lepton in pt
 0   = ptl2min ! minimum pt for the second lepton in pt
 0   = ptl3min ! minimum pt for the third lepton in pt
 0   = ptl4min ! minimum pt for the fourth lepton in pt
 -1  = ptl1max ! maximum pt for the leading lepton in pt 
 -1  = ptl2max ! maximum pt for the second lepton in pt
 -1  = ptl3max ! maximum pt for the third lepton in pt
 -1  = ptl4max ! maximum pt for the fourth lepton in pt
#*********************************************************************
# Control the Ht(k)=Sum of k leading jets                            *
#*********************************************************************
 0   = htjmin ! minimum jet HT=Sum(jet pt)
 -1  = htjmax ! maximum jet HT=Sum(jet pt)
 0   = ihtmin  !inclusive Ht for all partons (including b)
 -1  = ihtmax  !inclusive Ht for all partons (including b)
 0   = ht2min ! minimum Ht for the two leading jets
 0   = ht3min ! minimum Ht for the three leading jets
 0   = ht4min ! minimum Ht for the four leading jets
 -1  = ht2max ! maximum Ht for the two leading jets
 -1  = ht3max ! maximum Ht for the three leading jets
 -1  = ht4max ! maximum Ht for the four leading jets
#***********************************************************************
# Photon-isolation cuts, according to hep-ph/9801442                   *
# When ptgmin=0, all the other parameters are ignored                  *
# When ptgmin>0, pta and draj are not going to be used                 *
#***********************************************************************
   0 = ptgmin ! Min photon transverse momentum
 0.4 = R0gamma ! Radius of isolation code
 1.0 = xn ! n parameter of eq.(3.4) in hep-ph/9801442
 1.0 = epsgamma ! epsilon_gamma parameter of eq.(3.4) in hep-ph/9801442
 .true. = isoEM ! isolate photons from EM energy (photons and leptons)
#*********************************************************************
# WBF cuts                                                           *
#*********************************************************************
 0   = xetamin ! minimum rapidity for two jets in the WBF case  
 0   = deltaeta ! minimum rapidity for two jets in the WBF case 
#*********************************************************************
# KT DURHAM CUT                                                      *
#*********************************************************************
 -1    =  ktdurham        
 0.4  =  dparameter 
#*********************************************************************
# maximal pdg code for quark to be considered as a light jet         *
# (otherwise b cuts are applied)                                     *
#*********************************************************************
 4 = maxjetflavor    ! Maximum jet pdg code
#*********************************************************************
# Jet measure cuts                                                   *
#*********************************************************************
 0   = xqcut   ! minimum kt jet measure between partons
#*********************************************************************
#
#*********************************************************************
# Store info for systematics studies                                 *
# WARNING: If use_syst is T, matched Pythia output is                *
#          meaningful ONLY if plotted taking matchscale              *
#          reweighting into account!                                 *
#*********************************************************************
   F  = use_syst      ! Enable systematics studies
#
#**************************************
# Parameter of the systematics study
#  will be used by SysCalc (if installed)
#**************************************                                  
#
0.5 1 2 = sys_scalefact  # factorization/renormalization scale factor
0.5 1 2 = sys_alpsfact  # \alpha_s emission scale factors
30 50 = sys_matchscale # variation of merging scale
# PDF sets and number of members (0 or none for all members).
CT10nlo.LHgrid = sys_pdf # matching scales
# MSTW2008nlo68cl.LHgrid 1  = sys_pdf
</MGRunCard>
<slha>
######################################################################
## PARAM_CARD AUTOMATICALY GENERATED BY MG5 FOLLOWING UFO MODEL   ####
######################################################################
##                                                                  ##
##  Width set on Auto will be computed following the information    ##
##        present in the decay.py files of the model.               ##
##        See  arXiv:1402.1178 for more details.                    ##
##                                                                  ##
######################################################################

###################################
## INFORMATION FOR CKMBLOCK
###################################
Block ckmblock 
    1 2.277360e-01 # cabi 

###################################
## INFORMATION FOR FRBLOCK
###################################
Block frblock 
    1 1.600000e+00 # gz 

###################################
## INFORMATION FOR MASS
###################################
Block mass 
    1 5.040000e-03 # MD 
    2 2.550000e-03 # MU 
    3 1.010000e-01 # MS 
    4 1.270000e+00 # MC 
    5 4.700000e+00 # MB 
    6 1.720000e+02 # MT 
   11 5.110000e-04 # Me 
   13 1.056600e-01 # MM 
   15 1.777000e+00 # MTA 
   23 9.118760e+01 # MZ 
   25 1.200000e+02 # MH 
  10030 1.500000e+03 # MZph 
  10031 3.000000e+02 # MZpl 
## Dependent parameters, given by model restrictions.
## Those values should be edited following the 
## analytical expression. MG5 ignores those values 
## but they are important for interfacing the output of MG5
## to external program such as Pythia.
  12 0.000000 # ve : 0.0 
  14 0.000000 # vm : 0.0 
  16 0.000000 # vt : 0.0 
  21 0.000000 # g : 0.0 
  22 0.000000 # a : 0.0 
  24 79.824360 # w+ : cmath.sqrt(MZ__exp__2/2. + cmath.sqrt(MZ__exp__4/4. - (aEW*cmath.pi*MZ__exp__2)/(Gf*sqrt__2))) 

###################################
## INFORMATION FOR SMINPUTS
###################################
Block sminputs 
    1 1.279000e+02 # aEWM1 
    2 1.166370e-05 # Gf 
    3 1.184000e-01 # aS 

###################################
## INFORMATION FOR YUKAWA
###################################
Block yukawa 
    1 5.040000e-03 # ymdo 
    2 2.550000e-03 # ymup 
    3 1.010000e-01 # yms 
    4 1.270000e+00 # ymc 
    5 4.700000e+00 # ymb 
    6 1.720000e+02 # ymt 
   11 5.110000e-04 # yme 
   13 1.056600e-01 # ymm 
   15 1.777000e+00 # ymtau 

###################################
## INFORMATION FOR DECAY
###################################
DECAY   6 1.508336e+00 # WT 
DECAY  23 2.495200e+00 # WZ 
DECAY  24 2.085000e+00 # WW 
DECAY  25 5.753088e-03 # WH 
## Dependent parameters, given by model restrictions.
## Those values should be edited following the 
## analytical expression. MG5 ignores those values 
## but they are important for interfacing the output of MG5
## to external program such as Pythia.
DECAY  1 0.000000 # d : 0.0 
DECAY  2 0.000000 # u : 0.0 
DECAY  3 0.000000 # s : 0.0 
DECAY  4 0.000000 # c : 0.0 
DECAY  5 0.000000 # b : 0.0 
DECAY  11 0.000000 # e- : 0.0 
DECAY  12 0.000000 # ve : 0.0 
DECAY  13 0.000000 # mu- : 0.0 
DECAY  14 0.000000 # vm : 0.0 
DECAY  15 0.000000 # ta- : 0.0 
DECAY  16 0.000000 # vt : 0.0 
DECAY  21 0.000000 # g : 0.0 
DECAY  22 0.000000 # a : 0.0 
DECAY  10030 0.308725 # zph : (gz__exp__2*MZph*(5 + cmath.sqrt(1 - (4*MT__exp__2)/MZph__exp__2)))/(144.*cmath.pi) 
DECAY  10031 0.132629 # zpl : (5*gz__exp__2*MZpl)/(144.*cmath.pi) 
#===========================================================
# QUANTUM NUMBERS OF NEW STATE(S) (NON SM PDG CODE)
#===========================================================

Block QNUMBERS 10030  # zph 
        1 0  # 3 times electric charge
        2 3  # number of spin states (2S+1)
        3 1  # colour rep (1: singlet, 3: triplet, 8: octet)
        4 0  # Particle/Antiparticle distinction (0=own anti)
Block QNUMBERS 10031  # zpl 
        1 0  # 3 times electric charge
        2 3  # number of spin states (2S+1)
        3 1  # colour rep (1: singlet, 3: triplet, 8: octet)
        4 0  # Particle/Antiparticle distinction (0=own anti)
</slha>
## END BANNER##
<MGGenerationInfo>
#  Number of Events        :         3927
#  Integrated weight (pb)  :  0.59747E+00
#  Max wgt                 :  0.21502E-03
#  Average wgt             :  0.15214E-03
</MGGenerationInfo>
</header>
<init>
     2212     2212  0.40000000000E+04  0.40000000000E+04 0 0  247000  247000 2   1
  0.59822529125E+00  0.14600433824E-02  0.21501970000E-03   0
</init>
<event>
 5   0  0.2094566E-03  0.9912353E+03  0.7818609E-02  0.9318210E-01
        2   -1    0    0  501    0  0.00000000000E+00  0.00000000000E+00  0.87510908662E+03  0.87510908662E+03  0.25500000920E-02 0.  1.
       -2   -1    0    0    0  501  0.00000000000E+00  0.00000000000E+00 -0.28069282392E+03  0.28069282393E+03  0.25500000920E-02 0. -1.
    10030    2    1    2    0    0  0.00000000000E+00  0.00000000000E+00  0.59441626270E+03  0.11558019106E+04  0.99123527131E+03 0.  0.
        1    1    3    3  502    0  0.37087771453E+03 -0.21113911464E+03  0.33640831863E+01  0.42678017988E+03  0.50400001928E-02 0. -1.
       -1    1    3    3    0  502 -0.37087771453E+03  0.21113911464E+03  0.59105217951E+03  0.72902173067E+03  0.50400001928E-02 0.  1.
</event>
<event>
 5   0  0.2094566E-03  0.1411499E+04  0.7818609E-02  0.8945537E-01
       -2   -1    0    0    0  501  0.00000000000E+00  0.00000000000E+00  0.35864612211E+03  0.35864612212E+03  0.25500000920E-02 0.  1.
        2   -1    0    0  501    0  0.00000000000E+00  0.00000000000E+00 -0.13887846329E+04  0.13887846329E+04  0.25500000920E-02 0. -1.
    10030    2    1    2    0    0  0.00000000000E+00  0.00000000000E+00 -0.10301385108E+04  0.17474307550E+04  0.14114988105E+04 0.  0.
        1    1    3    3  502    0 -0.11190907867E+03  0.60491411124E+03 -0.86862887282E+02  0.62128084235E+03  0.50400001928E-02 0.  1.
       -1    1    3    3    0  502  0.11190907867E+03 -0.60491411124E+03 -0.94327562347E+03  0.11261499126E+04  0.50400001928E-02 0. -1.
</event>
<event>
 5   0  0.2150197E-03  0.1393895E+04  0.7818609E-02  0.8958249E-01
        2   -1    0    0  501    0  0.00000000000E+00  0.00000000000E+00  0.12809518699E+04  0.12809518699E+04  0.25500000920E-02 0. -1.
       -2   -1    0    0    0  501  0.00000000000E+00  0.00000000000E+00 -0.37919926103E+03  0.37919926104E+03  0.25500000920E-02 0.  1.
    10030    2    1    2    0    0  0.00000000000E+00  0.00000000000E+00  0.90175260887E+03  0.16601511309E+04  0.13938952651E+04 0.  0.
        3    1    3    3  502    0 -0.61301548194E+03 -0.26132952109E+03  0.20779559661E+03  0.69804019932E+03  0.10100000352E+00 0.  1.
       -3    1    3    3    0  502  0.61301548194E+03  0.26132952109E+03  0.69395701226E+03  0.96211093163E+03  0.10100000352E+00 0. -1.
</event>
<event>
 5   0  0.2094566E-03  0.1446896E+04  0.7818609E-02  0.8920555E-01
       -2   -1    0    0    0  501  0.00000000000E+00  0.00000000000E+00  0.43420566567E+03  0.43420566568E+03  0.25500000920E-02 0.  1.
        2   -1    0    0  501    0  0.00000000000E+00  0.00000000000E+00 -0.12053668716E+04  0.12053668716E+04  0.25500000920E-02 0. -1.
    10030    2    1    2    0    0  0.00000000000E+00  0.00000000000E+00 -0.77116120591E+03  0.16395725373E+04  0.14468961606E+04 0.  0.
        1    1    3    3  502    0 -0.60676919522E+03  0.99405110779E+02 -0.81756321356E+03  0.10229661972E+04  0.50400001928E-02 0. -1.
       -1    1    3    3    0  502  0.60676919522E+03 -0.99405110779E+02  0.46402007658E+02  0.61660634011E+03  0.50400001928E-02 0.  1.
</event>
<event>
 5   0  0.2150197E-03  0.1492606E+04  0.7818609E-02  0.8889385E-01
        2   -1    0    0  501    0  0.00000000000E+00  0.00000000000E+00  0.13149014753E+04  0.13149014753E+04  0.25500000920E-02 0.  1.
       -2   -1    0    0    0  501  0.00000000000E+00  0.00000000000E+00 -0.42358147817E+03  0.42358147818E+03  0.25500000920E-02 0. -1.
    10030    2    1    2    0    0  0.00000000000E+00  0.00000000000E+00  0.89131999711E+03  0.17384829535E+04  0.14926056553E+04 0.  0.
        3    1    3    3  502    0 -0.32771209606E+03  0.17490601191E+03 -0.30825484693E+03  0.48270942788E+03  0.10100000352E+00 0. -1.
       -3    1    3    3    0  502  0.32771209606E+03 -0.17490601191E+03  0.11995748440E+04  0.12557735256E+04  0.10100000352E+00 0.  1.
</event>
<event>
 5   0  0.1077140E-03  0.1484971E+04  0.7818609E-02  0.8894509E-01
       -1   -1    0    0    0  501  0.00000000000E+00  0.00000000000E+00  0.73845714730E+03  0.73845714732E+03  0.50400001928E-02 0.  1.
        1   -1    0    0  501    0  0.00000000000E+00  0.00000000000E+00 -0.74653580629E+03  0.74653580631E+03  0.50400001928E-02 0. -1.
    10030    2    1    2    0    0  0.00000000000E+00  0.00000000000E+00 -0.80786589853E+01  0.14849929536E+04  0.14849709787E+04 0.  0.
        1    1    3    3  502    0  0.69482324892E+03 -0.19822617455E+03  0.16687761796E+03  0.74156665440E+03  0.50400001928E-02 0.  1.
       -1    1    3    3    0  502 -0.69482324892E+03  0.19822617455E+03 -0.17495627695E+03  0.74342629923E+03  0.50400001928E-02 0. -1.
</event>
<event>
 5   0  0.1087761E-03  0.1366788E+04  0.7818609E-02  0.8978216E-01
        1   -1    0    0  501    0  0.00000000000E+00  0.00000000000E+00  0.78898109048E+03  0.78898109049E+03  0.50400001928E-02 0. -1.
       -1   -1    0    0    0  501  0.00000000000E+00  0.00000000000E+00 -0.59193711663E+03  0.59193711665E+03  0.50400001928E-02 0.  1.
    10030    2    1    2    0    0  0.00000000000E+00  0.00000000000E+00  0.19704397385E+03  0.13809182071E+04  0.13667877550E+04 0.  0.
        3    1    3    3  502    0  0.14020123824E+03 -0.39324352614E+03 -0.44811716357E+03  0.61245886437E+03  0.10100000352E+00 0.  1.
       -3    1    3    3    0  502 -0.14020123824E+03  0.39324352614E+03  0.64516113742E+03  0.76845934277E+03  0.10100000352E+00 0. -1.
</event>
<event>
 5   0  0.2094566E-03  0.1492427E+04  0.7818609E-02  0.8889504E-01
        2   -1    0    0  501    0  0.00000000000E+00  0.00000000000E+00  0.28782382114E+04  0.28782382114E+04  0.25500000920E-02 0. -1.
       -2   -1    0    0    0  501  0.00000000000E+00  0.00000000000E+00 -0.19346380969E+03  0.19346380971E+03  0.25500000920E-02 0.  1.
    10030    2    1    2    0    0  0.00000000000E+00  0.00000000000E+00  0.26847744017E+04  0.30717020211E+04  0.14924274583E+04 0.  0.
        1    1    3    3  502    0  0.10127873750E+03  0.89101953933E+01 -0.17914168891E+03  0.20598184140E+03  0.50400001928E-02 0.  1.
       -1    1    3    3    0  502 -0.10127873750E+03 -0.89101953933E+01  0.28639160906E+04  0.28657201797E+04  0.50400001928E-02 0. -1.
</event>
<event>
 5   0  0.1069697E-03  0.1545147E+04  0.7818609E-02  0.8854974E-01
        1   -1    0    0  501    0  0.00000000000E+00  0.00000000000E+00  0.10154860591E+04  0.10154860591E+04  0.50400001928E-02 0.  1.
       -1   -1    0    0    0  501  0.00000000000E+00  0.00000000000E+00 -0.58776747131E+03  0.58776747134E+03  0.50400001928E-02 0. -1.
    10030    2    1    2    0    0  0.00000000000E+00  0.00000000000E+00  0.42771858782E+03  0.16032535305E+04  0.15451468191E+04 0.  0.
        2    1    3    3  502    0  0.14698623046E+03 -0.54972391165E+03  0.75607005120E+03  0.94627863408E+03  0.25500000920E-02 0.  1.
       -2    1    3    3    0  502 -0.14698623046E+03  0.54972391165E+03 -0.32835146338E+03  0.65697489640E+03  0.25500000920E-02 0. -1.
</event>
<event>
 5   0  0.2094566E-03  0.1497748E+04  0.7818609E-02  0.8885952E-01
        2   -1    0    0  501    0  0.00000000000E+00  0.00000000000E+00  0.71374162386E+03  0.71374162387E+03  0.25500000920E-02 0. -1.
       -2   -1    0    0    0  501  0.00000000000E+00  0.00000000000E+00 -0.78573565196E+03  0.78573565196E+03  0.25500000920E-02 0.  1.
    10030    2    1    2    0    0  0.00000000000E+00  0.00000000000E+00 -0.71994028093E+02  0.14994772758E+04  0.14977479630E+04 0.  0.
        1    1    3    3  502    0 -0.31939848925E+03 -0.42462705021E+03  0.49233259489E+03  0.72437208030E+03  0.50400001928E-02 0. -1.
       -1    1    3    3    0  502  0.31939848925E+03  0.42462705021E+03 -0.56432662298E+03  0.77510519553E+03  0.50400001928E-02 0.  1.
</event>
<event>
 5   0  0.1069697E-03  0.1471854E+04  0.7818609E-02  0.8903388E-01
        1   -1    0    0  501    0  0.00000000000E+00  0.00000000000E+00  0.70469502829E+03  0.70469502831E+03  0.50400001928E-02 0. -1.
       -1   -1    0    0    0  501  0.00000000000E+00  0.00000000000E+00 -0.76854328304E+03  0.76854328306E+03  0.50400001928E-02 0.  1.
    10030    2    1    2    0    0  0.00000000000E+00  0.00000000000E+00 -0.63848254749E+02  0.14732383114E+04  0.14718541104E+04 0.  0.
        2    1    3    3  502    0 -0.68945817616E+03 -0.22684680577E+03  0.89749151905E+02  0.73134599215E+03  0.25500000920E-02 0.  1.
       -2    1    3    3    0  502  0.68945817616E+03  0.22684680577E+03 -0.15359740665E+03  0.74189231921E+03  0.25500000920E-02 0. -1.
</event>
<event>
 5   0  0.2111533E-03  0.1470409E+04  0.7818609E-02  0.8904373E-01
        2   -1    0    0  501    0  0.00000000000E+00  0.00000000000E+00  0.18393816888E+04  0.18393816888E+04  0.25500000920E-02 0. -1.
       -2   -1    0    0    0  501  0.00000000000E+00  0.00000000000E+00 -0.29386271649E+03  0.29386271650E+03  0.25500000920E-02 0.  1.
    10030    2    1    2    0    0  0.00000000000E+00  0.00000000000E+00  0.15455189723E+04  0.21332444053E+04  0.14704090584E+04 0.  0.
        5    1    3    3  502    0  0.60500233427E+03 -0.75022504028E+02  0.13689013848E+04  0.14985223695E+04  0.46999998093E+01 0. -1.
       -5    1    3    3    0  502 -0.60500233427E+03  0.75022504028E+02  0.17661758758E+03  0.63472203587E+03  0.46999998093E+01 0.  1.
</event>
<event>
 5   0  0.1078787E-03  0.1472377E+04  0.7818609E-02  0.8903033E-01
        1   -1    0    0  501    0  0.00000000000E+00  0.00000000000E+00  0.51788825967E+03  0.51788825970E+03  0.50400001928E-02 0.  1.
       -1   -1    0    0    0  501  0.00000000000E+00  0.00000000000E+00 -0.10465066303E+04  0.10465066303E+04  0.50400001928E-02 0. -1.
    10030    2    1    2    0    0  0.00000000000E+00  0.00000000000E+00 -0.52861837062E+03  0.15643948900E+04  0.14723769864E+04 0.  0.
        5    1    3    3  502    0 -0.49851976621E+03 -0.12631025985E+03 -0.82398872403E+03  0.97131650165E+03  0.46999998093E+01 0. -1.
       -5    1    3    3    0  502  0.49851976621E+03  0.12631025985E+03  0.29537035342E+03  0.59307838835E+03  0.46999998093E+01 0.  1.
</event>
<event>
 5   0  0.1077140E-03  0.1589333E+04  0.7818609E-02  0.8827128E-01
        1   -1    0    0  501    0  0.00000000000E+00  0.00000000000E+00  0.68159762436E+03  0.68159762438E+03  0.50400001928E-02 0. -1.
       -1   -1    0    0    0  501  0.00000000000E+00  0.00000000000E+00 -0.92649268224E+03  0.92649268225E+03  0.50400001928E-02 0.  1.
    10030    2    1    2    0    0  0.00000000000E+00  0.00000000000E+00 -0.24489505788E+03  0.16080903066E+04  0.15893334593E+04 0.  0.
        1    1    3    3  502    0  0.16363388604E+03  0.70326835318E+03 -0.45822667504E+03  0.85518074755E+03  0.50400001928E-02 0.  1.
       -1    1    3    3    0  502 -0.16363388604E+03 -0.70326835318E+03  0.21333161716E+03  0.75290955908E+03  0.50400001928E-02 0. -1.
</event>
<event>
 5   0  0.1087761E-03  0.1268586E+04  0.7818609E-02  0.9054854E-01
        1   -1    0    0  501    0  0.00000000000E+00  0.00000000000E+00  0.17748962002E+04  0.17748962002E+04  0.50400001928E-02 0. -1.
       -1   -1    0    0    0  501  0.00000000000E+00  0.00000000000E+00 -0.22667683794E+03  0.22667683800E+03  0.50400001928E-02 0.  1.
    10030    2    1    2    0    0  0.00000000000E+00  0.00000000000E+00  0.15482193623E+04  0.20015730382E+04  0.12685863919E+04 0.  0.
        3    1    3    3  502    0  0.67713765610E+01 -0.62333848882E+03  0.58922349896E+03  0.85777681544E+03  0.10100000352E+00 0. -1.
       -3    1    3    3    0  502 -0.67713765610E+01  0.62333848882E+03  0.95899586330E+03  0.11437962228E+04  0.10100000352E+00 0.  1.
</event>
<event>
 5   0  0.1087761E-03  0.1512459E+04  0.7818609E-02  0.8876210E-01
        1   -1    0    0  501    0  0.00000000000E+00  0.00000000000E+00  0.99672782140E+03  0.99672782142E+03  0.50400001928E-02 0.  1.
       -1   -1    0    0    0  501  0.00000000000E+00  0.00000000000E+00 -0.57376033044E+03  0.57376033046E+03  0.50400001928E-02 0. -1.
    10030    2    1    2    0    0  0.00000000000E+00  0.00000000000E+00  0.42296749096E+03  0.15704881519E+04  0.15124587719E+04 0.  0.
        3    1    3    3  502    0  0.12506511307E+03  0.35590072968E+03 -0.46908383411E+03  0.60195204586E+03  0.10100000352E+00 0. -1.
       -3    1    3    3    0  502 -0.12506511307E+03 -0.35590072968E+03  0.89205132507E+03  0.96853610602E+03  0.10100000352E+00 0.  1.
</event>
<event>
 5   0  0.2094566E-03  0.1491798E+04  0.7818609E-02  0.8889925E-01
        2   -1    0    0  501    0  0.00000000000E+00  0.00000000000E+00  0.17720890077E+04  0.17720890077E+04  0.25500000920E-02 0. -1.
       -2   -1    0    0    0  501  0.00000000000E+00  0.00000000000E+00 -0.31396028443E+03  0.31396028444E+03  0.25500000920E-02 0.  1.
    10030    2    1    2    0    0  0.00000000000E+00  0.00000000000E+00  0.14581287232E+04  0.20860492921E+04  0.14917983361E+04 0.  0.
        1    1    3    3  502    0 -0.40089762940E+03  0.18645099769E+03 -0.11097081114E+03  0.45584800619E+03  0.50400001928E-02 0.  1.
       -1    1    3    3    0  502  0.40089762940E+03 -0.18645099769E+03  0.15690995344E+04  0.16302012859E+04  0.50400001928E-02 0. -1.
</event>
<event>
 5   0  0.1078018E-03  0.1586703E+04  0.7818609E-02  0.8828758E-01
       -1   -1    0    0    0  501  0.00000000000E+00  0.00000000000E+00  0.52258553439E+03  0.52258553441E+03  0.50400001928E-02 0. -1.
        1   -1    0    0  501    0  0.00000000000E+00  0.00000000000E+00 -0.12044094299E+04  0.12044094299E+04  0.50400001928E-02 0.  1.
    10030    2    1    2    0    0  0.00000000000E+00  0.00000000000E+00 -0.68182389554E+03  0.17269949644E+04  0.15867034324E+04 0.  0.
        4    1    3    3  502    0  0.21999542421E+03 -0.22713030061E+03 -0.11328571689E+04  0.11761603370E+04  0.12699999809E+01 0.  1.
       -4    1    3    3    0  502 -0.21999542421E+03  0.22713030061E+03  0.45103327340E+03  0.55083462739E+03  0.12699999809E+01 0. -1.
</event>
<event>
 5   0  0.1077140E-03  0.1502546E+04  0.7818609E-02  0.8882762E-01
       -1   -1    0    0    0  501  0.00000000000E+00  0.00000000000E+00  0.77897012839E+03  0.77897012840E+03  0.50400001928E-02 0. -1.
        1   -1    0    0  501    0  0.00000000000E+00  0.00000000000E+00 -0.72456055939E+03  0.72456055941E+03  0.50400001928E-02 0.  1.
    10030    2    1    2    0    0  0.00000000000E+00  0.00000000000E+00  0.54409568997E+02  0.15035306878E+04  0.15025458822E+04 0.  0.
        1    1    3    3  502    0 -0.59655190069E+03  0.21248843230E+03 -0.37726990184E+03  0.73712826763E+03  0.50400001928E-02 0.  1.
       -1    1    3    3    0  502  0.59655190069E+03 -0.21248843230E+03  0.43167947084E+03  0.76640242018E+03  0.50400001928E-02 0. -1.
</event>
<event>
 5   0  0.1961098E-03  0.1481132E+04  0.7818609E-02  0.8897098E-01
        2   -1    0    0  501    0  0.00000000000E+00  0.00000000000E+00  0.55730001742E+03  0.55730001743E+03  0.25500000920E-02 0.  1.
       -2   -1    0    0    0  501  0.00000000000E+00  0.00000000000E+00 -0.98409780809E+03  0.98409780809E+03  0.25500000920E-02 0. -1.
    10030    2    1    2    0    0  0.00000000000E+00  0.00000000000E+00 -0.42679779067E+03  0.15413978255E+04  0.14811316290E+04 0.  0.
        2    1    3    3  502    0  0.58348177157E+03  0.63149971033E+02  0.25664121874E+03  0.64054946082E+03  0.25500000920E-02 0.  1.
       -2    1    3    3    0  502 -0.58348177157E+03 -0.63149971033E+02 -0.68343900941E+03  0.90084836470E+03  0.25500000920E-02 0. -1.
</event>
<event>
 5   0  0.1087761E-03  0.1336971E+04  0.7818609E-02  0.9000750E-01
       -1   -1    0    0    0  501  0.00000000000E+00  0.00000000000E+00  0.11002455975E+04  0.11002455975E+04  0.50400001928E-02 0.  1.
        1   -1    0    0  501    0  0.00000000000E+00  0.00000000000E+00 -0.40615764734E+03  0.40615764737E+03  0.50400001928E-02 0. -1.
    10030    2    1    2    0    0  0.00000000000E+00  0.00000000000E+00  0.69408795019E+03  0.15064032449E+04  0.13369714483E+04 0.  0.
        3    1    3    3  502    0 -0.43195553758E+03 -0.27745705136E+03 -0.13535507592E+03  0.53093220713E+03  0.10100000352E+00 0. -1.
       -3    1    3    3    0  502  0.43195553758E+03  0.27745705136E+03  0.82944302611E+03  0.97547103778E+03  0.10100000352E+00 0.  1.
</event>
<event>
 5   0  0.2150197E-03  0.1481544E+04  0.7818609E-02  0.8896820E-01
        2   -1    0    0  501    0  0.00000000000E+00  0.00000000000E+00  0.19685139963E+04  0.19685139963E+04  0.25500000920E-02 0. -1.
       -2   -1    0    0    0  501  0.00000000000E+00  0.00000000000E+00 -0.27876003558E+03  0.27876003559E+03  0.25500000920E-02 0.  1.
    10030    2    1    2    0    0  0.00000000000E+00  0.00000000000E+00  0.16897539607E+04  0.22472740319E+04  0.14815438322E+04 0.  0.
        3    1    3    3  502    0 -0.95623657379E+01 -0.57270574102E+03  0.13234714041E+03  0.58787675614E+03  0.10100000352E+00 0.  1.
       -3    1    3    3    0  502  0.95623657379E+01  0.57270574102E+03  0.15574068203E+04  0.16593972758E+04  0.10100000352E+00 0. -1.
</event>
<event>
 5   0  0.1077140E-03  0.1596096E+04  0.7818609E-02  0.8822950E-01
        1   -1    0    0  501    0  0.00000000000E+00  0.00000000000E+00  0.36270308659E+03  0.36270308662E+03  0.50400001928E-02 0. -1.
       -1   -1    0    0    0  501  0.00000000000E+00  0.00000000000E+00 -0.17559285467E+04  0.17559285467E+04  0.50400001928E-02 0.  1.
    10030    2    1    2    0    0  0.00000000000E+00  0.00000000000E+00 -0.13932254601E+04  0.21186316334E+04  0.15960961171E+04 0.  0.
        1    1    3    3  502    0 -0.53543678741E+03 -0.46100960294E+03 -0.20412251442E+03  0.73545115965E+03  0.50400001928E-02 0. -1.
       -1    1    3    3    0  502  0.53543678741E+03  0.46100960294E+03 -0.11891029457E+04  0.13831804737E+04  0.50400001928E-02 0.  1.
</event>
<event>
 5   0  0.1961098E-03  0.1484558E+04  0.7818609E-02  0.8894787E-01
       -2   -1    0    0    0  501  0.00000000000E+00  0.00000000000E+00  0.37331520517E+03  0.37331520518E+03  0.25500000920E-02 0.  1.
        2   -1    0    0  501    0  0.00000000000E+00  0.00000000000E+00 -0.14759051169E+04  0.14759051169E+04  0.25500000920E-02 0. -1.
    10030    2    1    2    0    0  0.00000000000E+00  0.00000000000E+00 -0.11025899117E+04  0.18492203221E+04  0.14845576062E+04 0.  0.
        2    1    3    3  502    0  0.41727375770E+03  0.42712484914E+03 -0.20482904633E+01  0.59712412539E+03  0.25500000920E-02 0. -1.
       -2    1    3    3    0  502 -0.41727375770E+03 -0.42712484914E+03 -0.11005416213E+04  0.12520961967E+04  0.25500000920E-02 0.  1.
</event>
<event>
 5   0  0.1069697E-03  0.1513691E+04  0.7818609E-02  0.8875399E-01
       -1   -1    0    0    0  501  0.00000000000E+00  0.00000000000E+00  0.90894512331E+03  0.90894512332E+03  0.50400001928E-02 0. -1.
        1   -1    0    0  501    0  0.00000000000E+00  0.00000000000E+00 -0.63019758531E+03  0.63019758533E+03  0.50400001928E-02 0.  1.
    10030    2    1    2    0    0  0.00000000000E+00  0.00000000000E+00  0.27874753800E+03  0.15391427087E+04  0.15136908825E+04 0.  0.
        2    1    3    3  502    0 -0.56319791972E+03 -0.46422215084E+03  0.34304380248E+03  0.80645716100E+03  0.25500000920E-02 0. -1.
       -2    1    3    3    0  502  0.56319791972E+03  0.46422215084E+03 -0.64296264478E+02  0.73268554765E+03  0.25500000920E-02 0.  1.
</event>
<event>
 5   0  0.2150197E-03  0.1562447E+04  0.7818609E-02  0.8843956E-01
        2   -1    0    0  501    0  0.00000000000E+00  0.00000000000E+00  0.15394126975E+04  0.15394126975E+04  0.25500000920E-02 0. -1.
       -2   -1    0    0    0  501  0.00000000000E+00  0.00000000000E+00 -0.39645663073E+03  0.39645663074E+03  0.25500000920E-02 0.  1.
    10030    2    1    2    0    0  0.00000000000E+00  0.00000000000E+00  0.11429560668E+04  0.19358693283E+04  0.15624472745E+04 0.  0.
        3    1    3    3  502    0 -0.54084912345E+03 -0.41637137119E+03  0.10061394725E+03  0.68993193118E+03  0.10100000352E+00 0.  1.
       -3    1    3    3    0  502  0.54084912345E+03  0.41637137119E+03  0.10423421195E+04  0.12459373971E+04  0.10100000352E+00 0. -1.
</event>
<event>
 5   0  0.2111533E-03  0.9259507E+03  0.7818609E-02  0.9393711E-01
       -2   -1    0    0    0  501  0.00000000000E+00  0.00000000000E+00  0.81555445973E+03  0.81555445973E+03  0.25500000920E-02 0. -1.
        2   -1    0    0  501    0  0.00000000000E+00  0.00000000000E+00 -0.26282265363E+03  0.26282265364E+03  0.25500000920E-02 0.  1.
    10030    2    1    2    0    0  0.00000000000E+00  0.00000000000E+00  0.55273180610E+03  0.10783771134E+04  0.92595072718E+03 0.  0.
        5    1    3    3  502    0 -0.33268524399E+03 -0.30102673472E+03  0.40929309725E+03  0.60732157548E+03  0.46999998093E+01 0. -1.
       -5    1    3    3    0  502  0.33268524399E+03  0.30102673472E+03  0.14343870885E+03  0.47105553789E+03  0.46999998093E+01 0.  1.
</event>
<event>
 5   0  0.1069697E-03  0.1513926E+04  0.7818609E-02  0.8875245E-01
       -1   -1    0    0    0  501  0.00000000000E+00  0.00000000000E+00  0.18185090820E+03  0.18185090827E+03  0.50400001928E-02 0. -1.
        1   -1    0    0  501    0  0.00000000000E+00  0.00000000000E+00 -0.31508947838E+04  0.31508947838E+04  0.50400001928E-02 0.  1.
    10030    2    1    2    0    0  0.00000000000E+00  0.00000000000E+00 -0.29690438756E+04  0.33327456921E+04  0.15139261253E+04 0.  0.
        2    1    3    3  502    0  0.67814936560E+03  0.21500407119E+03 -0.20538267608E+04  0.21735495568E+04  0.25500000920E-02 0.  1.
       -2    1    3    3    0  502 -0.67814936560E+03 -0.21500407119E+03 -0.91521711477E+03  0.11591961352E+04  0.25500000920E-02 0. -1.
</event>
<event>
 5   0  0.2150197E-03  0.1443688E+04  0.7818609E-02  0.8922788E-01
        2   -1    0    0  501    0  0.00000000000E+00  0.00000000000E+00  0.65304560555E+03  0.65304560555E+03  0.25500000920E-02 0. -1.
       -2   -1    0    0    0  501  0.00000000000E+00  0.00000000000E+00 -0.79789079208E+03  0.79789079208E+03  0.25500000920E-02 0.  1.
    10030    2    1    2    0    0  0.00000000000E+00  0.00000000000E+00 -0.14484518653E+03  0.14509363976E+04  0.14436884366E+04 0.  0.
        3    1    3    3  502    0 -0.14718440639E+03 -0.16415074101E+03  0.61837845031E+03  0.65650638479E+03  0.10100000352E+00 0. -1.
       -3    1    3    3    0  502  0.14718440639E+03  0.16415074101E+03 -0.76322363685E+03  0.79443001284E+03  0.10100000352E+00 0.  1.
</event>
<event>
 5   0  0.2094566E-03  0.1541262E+04  0.7818609E-02  0.8857469E-01
        2   -1    0    0  501    0  0.00000000000E+00  0.00000000000E+00  0.78487697701E+03  0.78487697702E+03  0.25500000920E-02 0. -1.
       -2   -1    0    0    0  501  0.00000000000E+00  0.00000000000E+00 -0.75664344877E+03  0.75664344878E+03  0.25500000920E-02 0.  1.
    10030    2    1    2    0    0  0.00000000000E+00  0.00000000000E+00  0.28233528242E+02  0.15415204258E+04  0.15412618502E+04 0.  0.
        1    1    3    3  502    0 -0.67673827210E+03 -0.72197332426E+02  0.37568104934E+03  0.77738239921E+03  0.50400001928E-02 0.  1.
       -1    1    3    3    0  502  0.67673827210E+03  0.72197332426E+02 -0.34744752110E+03  0.76413802659E+03  0.50400001928E-02 0. -1.
</event>
<event>
 5   0  0.1078787E-03  0.1482294E+04  0.7818609E-02  0.8896313E-01
        1   -1    0    0  501    0  0.00000000000E+00  0.00000000000E+00  0.11077251314E+04  0.11077251314E+04  0.50400001928E-02 0. -1.
       -1   -1    0    0    0  501  0.00000000000E+00  0.00000000000E+00 -0.49587997020E+03  0.49587997023E+03  0.50400001928E-02 0.  1.
    10030    2    1    2    0    0  0.00000000000E+00  0.00000000000E+00  0.61184516121E+03  0.16036051017E+04  0.14822937701E+04 0.  0.
        5    1    3    3  502    0  0.13697691158E+03 -0.55037384650E+02  0.10916431666E+04  0.11015891617E+04  0.46999998093E+01 0. -1.
       -5    1    3    3    0  502 -0.13697691158E+03  0.55037384650E+02 -0.47979800538E+03  0.50201593996E+03  0.46999998093E+01 0.  1.
</event>
<event>
 5   0  0.2150197E-03  0.1508726E+04  0.7818609E-02  0.8878671E-01
       -2   -1    0    0    0  501  0.00000000000E+00  0.00000000000E+00  0.16283156782E+04  0.16283156782E+04  0.25500000920E-02 0.  1.
        2   -1    0    0  501    0  0.00000000000E+00  0.00000000000E+00 -0.34947980308E+03  0.34947980309E+03  0.25500000920E-02 0. -1.
    10030    2    1    2    0    0  0.00000000000E+00  0.00000000000E+00  0.12788358751E+04  0.19777954813E+04  0.15087258765E+04 0.  0.
        3    1    3    3  502    0  0.56230333309E+03  0.48355783115E+03  0.82035228363E+03  0.11058892774E+04  0.10100000352E+00 0. -1.
       -3    1    3    3    0  502 -0.56230333309E+03 -0.48355783115E+03  0.45848359150E+03  0.87190620387E+03  0.10100000352E+00 0.  1.
</event>
<event>
 5   0  0.1078018E-03  0.1373144E+04  0.7818609E-02  0.8973491E-01
       -1   -1    0    0    0  501  0.00000000000E+00  0.00000000000E+00  0.74769867646E+03  0.74769867648E+03  0.50400001928E-02 0. -1.
        1   -1    0    0  501    0  0.00000000000E+00  0.00000000000E+00 -0.63044226342E+03  0.63044226344E+03  0.50400001928E-02 0.  1.
    10030    2    1    2    0    0  0.00000000000E+00  0.00000000000E+00  0.11725641304E+03  0.13781409399E+04  0.13731436137E+04 0.  0.
        4    1    3    3  502    0 -0.24350135435E+03  0.22718952630E+03  0.66120580851E+03  0.74033960082E+03  0.12699999809E+01 0. -1.
       -4    1    3    3    0  502  0.24350135435E+03 -0.22718952630E+03 -0.54394939547E+03  0.63780133910E+03  0.12699999809E+01 0.  1.
</event>
<event>
 5   0  0.1077140E-03  0.1502511E+04  0.7818609E-02  0.8882785E-01
        1   -1    0    0  501    0  0.00000000000E+00  0.00000000000E+00  0.19718195007E+04  0.19718195007E+04  0.50400001928E-02 0.  1.
       -1   -1    0    0    0  501  0.00000000000E+00  0.00000000000E+00 -0.28622526623E+03  0.28622526628E+03  0.50400001928E-02 0. -1.
    10030    2    1    2    0    0  0.00000000000E+00  0.00000000000E+00  0.16855942345E+04  0.22580447670E+04  0.15025106477E+04 0.  0.
        1    1    3    3  502    0  0.71299527611E+03  0.13540260248E+03  0.55104163171E+03  0.91123158879E+03  0.50400001928E-02 0.  1.
       -1    1    3    3    0  502 -0.71299527611E+03 -0.13540260248E+03  0.11345526028E+04  0.13468131782E+04  0.50400001928E-02 0. -1.
</event>
<event>
 5   0  0.1087761E-03  0.1486991E+04  0.7818609E-02  0.8893150E-01
       -1   -1    0    0    0  501  0.00000000000E+00  0.00000000000E+00  0.12303641462E+04  0.12303641462E+04  0.50400001928E-02 0.  1.
        1   -1    0    0  501    0  0.00000000000E+00  0.00000000000E+00 -0.44928598513E+03  0.44928598515E+03  0.50400001928E-02 0. -1.
    10030    2    1    2    0    0  0.00000000000E+00  0.00000000000E+00  0.78107816111E+03  0.16796501314E+04  0.14869907431E+04 0.  0.
        3    1    3    3  502    0  0.73264305692E+03 -0.12085326629E+03  0.34806394895E+03  0.82007309648E+03  0.10100000352E+00 0.  1.
       -3    1    3    3    0  502 -0.73264305692E+03  0.12085326629E+03  0.43301421216E+03  0.85957703492E+03  0.10100000352E+00 0. -1.
</event>
<event>
 5   0  0.1993623E-03  0.1523026E+04  0.7818609E-02  0.8869284E-01
        2   -1    0    0  501    0  0.00000000000E+00  0.00000000000E+00  0.83810035014E+03  0.83810035014E+03  0.25500000920E-02 0. -1.
       -2   -1    0    0    0  501  0.00000000000E+00  0.00000000000E+00 -0.69192392964E+03  0.69192392965E+03  0.25500000920E-02 0.  1.
    10030    2    1    2    0    0  0.00000000000E+00  0.00000000000E+00  0.14617642050E+03  0.15300242798E+04  0.15230255253E+04 0.  0.
        4    1    3    3  502    0 -0.20304806162E+03  0.59243783653E+03  0.50830988455E+03  0.80659262153E+03  0.12699999809E+01 0. -1.
       -4    1    3    3    0  502  0.20304806162E+03 -0.59243783653E+03 -0.36213346405E+03  0.72343165826E+03  0.12699999809E+01 0.  1.
</event>
<event>
 5   0  0.1993623E-03  0.1495789E+04  0.7818609E-02  0.8887258E-01
        2   -1    0    0  501    0  0.00000000000E+00  0.00000000000E+00  0.58636897366E+03  0.58636897366E+03  0.25500000920E-02 0.  1.
       -2   -1    0    0    0  501  0.00000000000E+00  0.00000000000E+00 -0.95391563627E+03  0.95391563627E+03  0.25500000920E-02 0. -1.
    10030    2    1    2    0    0  0.00000000000E+00  0.00000000000E+00 -0.36754666261E+03  0.15402846099E+04  0.14957894673E+04 0.  0.
        4    1    3    3  502    0  0.83750811501E+02 -0.72683427327E+03 -0.34344275840E+03  0.80824303302E+03  0.12699999809E+01 0.  1.
       -4    1    3    3    0  502 -0.83750811501E+02  0.72683427327E+03 -0.24103904208E+02  0.73204157691E+03  0.12699999809E+01 0. -1.
</event>
<event>
 5   0  0.1069697E-03  0.1524454E+04  0.7818609E-02  0.8868352E-01
        1   -1    0    0  501    0  0.00000000000E+00  0.00000000000E+00  0.11411736891E+04  0.11411736892E+04  0.50400001928E-02 0. -1.
       -1   -1    0    0    0  501  0.00000000000E+00  0.00000000000E+00 -0.50911641321E+03  0.50911641324E+03  0.50400001928E-02 0.  1.
    10030    2    1    2    0    0  0.00000000000E+00  0.00000000000E+00  0.63205727593E+03  0.16502901024E+04  0.15244543358E+04 0.  0.
        2    1    3    3  502    0 -0.33303541333E+03 -0.66119469725E+03  0.51238221456E+03  0.90034801494E+03  0.25500000920E-02 0. -1.
       -2    1    3    3    0  502  0.33303541333E+03  0.66119469725E+03  0.11967506138E+03  0.74994208745E+03  0.25500000920E-02 0.  1.
</event>
<event>
 5   0  0.1078787E-03  0.1335561E+04  0.7818609E-02  0.9001831E-01
       -1   -1    0    0    0  501  0.00000000000E+00  0.00000000000E+00  0.57341309207E+03  0.57341309210E+03  0.50400001928E-02 0.  1.
        1   -1    0    0  501    0  0.00000000000E+00  0.00000000000E+00 -0.77767804024E+03  0.77767804026E+03  0.50400001928E-02 0. -1.
    10030    2    1    2    0    0  0.00000000000E+00  0.00000000000E+00 -0.20426494817E+03  0.13510911324E+04  0.13355609604E+04 0.  0.
        5    1    3    3  502    0 -0.14867514870E+03 -0.16483807904E+03 -0.73924366554E+03  0.77186733263E+03  0.46999998093E+01 0. -1.
       -5    1    3    3    0  502  0.14867514870E+03  0.16483807904E+03  0.53497871737E+03  0.57922379973E+03  0.46999998093E+01 0.  1.
</event>
<event>
 5   0  0.1078787E-03  0.1582368E+04  0.7818609E-02  0.8831454E-01
        1   -1    0    0  501    0  0.00000000000E+00  0.00000000000E+00  0.11990102315E+04  0.11990102316E+04  0.50400001928E-02 0. -1.
       -1   -1    0    0    0  501  0.00000000000E+00  0.00000000000E+00 -0.52207419945E+03  0.52207419947E+03  0.50400001928E-02 0.  1.
    10030    2    1    2    0    0  0.00000000000E+00  0.00000000000E+00  0.67693603210E+03  0.17210844310E+04  0.15823682338E+04 0.  0.
        5    1    3    3  502    0 -0.40661757079E+03  0.55361938367E+03 -0.88525446907E+02  0.69259736904E+03  0.46999998093E+01 0.  1.
       -5    1    3    3    0  502  0.40661757079E+03 -0.55361938367E+03  0.76546147901E+03  0.10284870620E+04  0.46999998093E+01 0. -1.
</event>
<event>
 5   0  0.1961098E-03  0.1514586E+04  0.7818609E-02  0.8874811E-01
       -2   -1    0    0    0  501  0.00000000000E+00  0.00000000000E+00  0.50180610951E+03  0.50180610951E+03  0.25500000920E-02 0.  1.
        2   -1    0    0  501    0  0.00000000000E+00  0.00000000000E+00 -0.11428567351E+04  0.11428567351E+04  0.25500000920E-02 0. -1.
    10030    2    1    2    0    0  0.00000000000E+00  0.00000000000E+00 -0.64105062556E+03  0.16446628446E+04  0.15145857413E+04 0.  0.
        2    1    3    3  502    0  0.73166949778E+03  0.14906514015E+03 -0.45758689454E+03  0.87575478077E+03  0.25500000920E-02 0.  1.
       -2    1    3    3    0  502 -0.73166949778E+03 -0.14906514015E+03 -0.18346373102E+03  0.76890806381E+03  0.25500000920E-02 0. -1.
</event>
<event>
 5   0  0.2150197E-03  0.1550686E+04  0.7818609E-02  0.8851430E-01
       -2   -1    0    0    0  501  0.00000000000E+00  0.00000000000E+00  0.52886685858E+03  0.52886685858E+03  0.25500000920E-02 0. -1.
        2   -1    0    0  501    0  0.00000000000E+00  0.00000000000E+00 -0.11366886755E+04  0.11366886755E+04  0.25500000920E-02 0.  1.
    10030    2    1    2    0    0  0.00000000000E+00  0.00000000000E+00 -0.60782181692E+03  0.16655555341E+04  0.15506862597E+04 0.  0.
        3    1    3    3  502    0  0.46915998863E+03  0.44425363002E+03  0.15642147133E+03  0.66478573210E+03  0.10100000352E+00 0. -1.
       -3    1    3    3    0  502 -0.46915998863E+03 -0.44425363002E+03 -0.76424328825E+03  0.10007698020E+04  0.10100000352E+00 0.  1.
</event>
<event>
 5   0  0.2094566E-03  0.1507543E+04  0.7818609E-02  0.8879453E-01
       -2   -1    0    0    0  501  0.00000000000E+00  0.00000000000E+00  0.58595347898E+03  0.58595347898E+03  0.25500000920E-02 0.  1.
        2   -1    0    0  501    0  0.00000000000E+00  0.00000000000E+00 -0.96965231571E+03  0.96965231572E+03  0.25500000920E-02 0. -1.
    10030    2    1    2    0    0  0.00000000000E+00  0.00000000000E+00 -0.38369883674E+03  0.15556057947E+04  0.15075425670E+04 0.  0.
        1    1    3    3  502    0 -0.18872176610E+03  0.22424838887E+03 -0.90844503588E+03  0.95455519911E+03  0.50400001928E-02 0. -1.
       -1    1    3    3    0  502  0.18872176610E+03 -0.22424838887E+03  0.52474619915E+03  0.60105059559E+03  0.50400001928E-02 0.  1.
</event>
<event>
 5   0  0.1961098E-03  0.1529242E+04  0.7818609E-02  0.8865237E-01
       -2   -1    0    0    0  501  0.00000000000E+00  0.00000000000E+00  0.65338816664E+03  0.65338816664E+03  0.25500000920E-02 0. -1.
        2   -1    0    0  501    0  0.00000000000E+00  0.00000000000E+00 -0.89478954610E+03  0.89478954610E+03  0.25500000920E-02 0.  1.
    10030    2    1    2    0    0  0.00000000000E+00  0.00000000000E+00 -0.24140137946E+03  0.15481777127E+04  0.15292415127E+04 0.  0.
        2    1    3    3  502    0 -0.25181809217E+03 -0.71106031010E+03  0.58503312195E+01  0.75435624378E+03  0.25500000920E-02 0.  1.
       -2    1    3    3    0  502  0.25181809217E+03  0.71106031010E+03 -0.24725171068E+03  0.79382146896E+03  0.25500000920E-02 0. -1.
</event>
<event>
 5   0  0.2150197E-03  0.1510890E+04  0.7818609E-02  0.8877243E-01
        2   -1    0    0  501    0  0.00000000000E+00  0.00000000000E+00  0.10618538213E+04  0.10618538213E+04  0.25500000920E-02 0.  1.
       -2   -1    0    0    0  501  0.00000000000E+00  0.00000000000E+00 -0.53745343481E+03  0.53745343482E+03  0.25500000920E-02 0. -1.
    10030    2    1    2    0    0  0.00000000000E+00  0.00000000000E+00  0.52440038652E+03  0.15993072561E+04  0.15108897823E+04 0.  0.
        3    1    3    3  502    0 -0.63964946878E+03 -0.33933460627E+03  0.34193984599E+02  0.72489216902E+03  0.10100000352E+00 0. -1.
       -3    1    3    3    0  502  0.63964946878E+03  0.33933460627E+03  0.49020640192E+03  0.87441508713E+03  0.10100000352E+00 0.  1.
</event>
<event>
 5   0  0.1078787E-03  0.1536159E+04  0.7818609E-02  0.8860757E-01
        1   -1    0    0  501    0  0.00000000000E+00  0.00000000000E+00  0.10751981861E+04  0.10751981861E+04  0.50400001928E-02 0.  1.
       -1   -1    0    0    0  501  0.00000000000E+00  0.00000000000E+00 -0.54868600785E+03  0.54868600787E+03  0.50400001928E-02 0. -1.
    10030    2    1    2    0    0  0.00000000000E+00  0.00000000000E+00  0.52651217826E+03  0.16238841940E+04  0.15361591069E+04 0.  0.
        5    1    3    3  502    0 -0.71680612033E+03  0.26252659181E+03  0.17360193672E+03  0.78287351979E+03  0.46999998093E+01 0. -1.
       -5    1    3    3    0  502  0.71680612033E+03 -0.26252659181E+03  0.35291024154E+03  0.84101067421E+03  0.46999998093E+01 0.  1.
</event>
<event>
 5   0  0.2111533E-03  0.1492444E+04  0.7818609E-02  0.8889493E-01
        2   -1    0    0  501    0  0.00000000000E+00  0.00000000000E+00  0.13476533763E+04  0.13476533763E+04  0.25500000920E-02 0. -1.
       -2   -1    0    0    0  501  0.00000000000E+00  0.00000000000E+00 -0.41319755751E+03  0.41319755752E+03  0.25500000920E-02 0.  1.
    10030    2    1    2    0    0  0.00000000000E+00  0.00000000000E+00  0.93445581880E+03  0.17608509338E+04  0.14924437456E+04 0.  0.
        5    1    3    3  502    0 -0.46713903364E+03  0.14154663450E+03 -0.19870045580E+03  0.52702778639E+03  0.46999998093E+01 0.  1.
       -5    1    3    3    0  502  0.46713903364E+03 -0.14154663450E+03  0.11331562746E+04  0.12338231474E+04  0.46999998093E+01 0. -1.
</event>
<event>
 5   0  0.1078787E-03  0.1480693E+04  0.7818609E-02  0.8897395E-01
        1   -1    0    0  501    0  0.00000000000E+00  0.00000000000E+00  0.21735774091E+04  0.21735774092E+04  0.50400001928E-02 0. -1.
       -1   -1    0    0    0  501  0.00000000000E+00  0.00000000000E+00 -0.25217078936E+03  0.25217078941E+03  0.50400001928E-02 0.  1.
    10030    2    1    2    0    0  0.00000000000E+00  0.00000000000E+00  0.19214066198E+04  0.24257481986E+04  0.14806927177E+04 0.  0.
        5    1    3    3  502    0 -0.58368524737E+03  0.36500992469E+03  0.51453912442E+03  0.85947269513E+03  0.46999998093E+01 0.  1.
       -5    1    3    3    0  502  0.58368524737E+03 -0.36500992469E+03  0.14068674954E+04  0.15662755034E+04  0.46999998093E+01 0. -1.
</event>
<event>
 5   0  0.1087761E-03  0.1488394E+04  0.7818609E-02  0.8892208E-01
        1   -1    0    0  501    0  0.00000000000E+00  0.00000000000E+00  0.95740830836E+03  0.95740830838E+03  0.50400001928E-02 0.  1.
       -1   -1    0    0    0  501  0.00000000000E+00  0.00000000000E+00 -0.57846717301E+03  0.57846717303E+03  0.50400001928E-02 0. -1.
    10030    2    1    2    0    0  0.00000000000E+00  0.00000000000E+00  0.37894113535E+03  0.15358754814E+04  0.14883941381E+04 0.  0.
        3    1    3    3  502    0  0.48720147885E+03  0.47574541067E+03 -0.12032374617E+03  0.69150328333E+03  0.10100000352E+00 0. -1.
       -3    1    3    3    0  502 -0.48720147885E+03 -0.47574541067E+03  0.49926488153E+03  0.84437219808E+03  0.10100000352E+00 0.  1.
</event>
<event>
 5   0  0.2150197E-03  0.1511644E+04  0.7818609E-02  0.8876746E-01
        2   -1    0    0  501    0  0.00000000000E+00  0.00000000000E+00  0.47745321031E+03  0.47745321032E+03  0.25500000920E-02 0.  1.
       -2   -1    0    0    0  501  0.00000000000E+00  0.00000000000E+00 -0.11964883214E+04  0.11964883214E+04  0.25500000920E-02 0. -1.
    10030    2    1    2    0    0  0.00000000000E+00  0.00000000000E+00 -0.71903511105E+03  0.16739415317E+04  0.15116443896E+04 0.  0.
        3    1    3    3  502    0  0.37376868272E+03 -0.54076511584E+03 -0.77257679604E+03  0.10143987651E+04  0.10100000352E+00 0. -1.
       -3    1    3    3    0  502 -0.37376868272E+03  0.54076511584E+03  0.53541684991E+02  0.65954276656E+03  0.10100000352E+00 0.  1.
</event>
<event>
 5   0  0.1077140E-03  0.1488506E+04  0.7818609E-02  0.8892133E-01
        1   -1    0    0  501    0  0.00000000000E+00  0.00000000000E+00  0.11302954264E+04  0.11302954264E+04  0.50400001928E-02 0.  1.
       -1   -1    0    0    0  501  0.00000000000E+00  0.00000000000E+00 -0.49005977331E+03  0.49005977334E+03  0.50400001928E-02 0. -1.
    10030    2    1    2    0    0  0.00000000000E+00  0.00000000000E+00  0.64023565309E+03  0.16203551998E+04  0.14885057211E+04 0.  0.
        1    1    3    3  502    0 -0.42676120608E+03  0.17899555290E+03  0.95462719125E+03  0.10608852951E+04  0.50400001928E-02 0.  1.
       -1    1    3    3    0  502  0.42676120608E+03 -0.17899555290E+03 -0.31439153816E+03  0.55946990470E+03  0.50400001928E-02 0. -1.
</event>
<event>
 5   0  0.1087761E-03  0.1481618E+04  0.7818609E-02  0.8896770E-01
        1   -1    0    0  501    0  0.00000000000E+00  0.00000000000E+00  0.25173389709E+04  0.25173389709E+04  0.50400001928E-02 0. -1.
       -1   -1    0    0    0  501  0.00000000000E+00  0.00000000000E+00 -0.21800707943E+03  0.21800707949E+03  0.50400001928E-02 0.  1.
    10030    2    1    2    0    0  0.00000000000E+00  0.00000000000E+00  0.22993318915E+04  0.27353460504E+04  0.14816176526E+04 0.  0.
        3    1    3    3  502    0 -0.10465933788E+03 -0.71482520150E+03  0.84704263419E+03  0.11132878694E+04  0.10100000352E+00 0.  1.
       -3    1    3    3    0  502  0.10465933788E+03  0.71482520150E+03  0.14522892573E+04  0.16220581811E+04  0.10100000352E+00 0. -1.
</event>
<event>
 5   0  0.1078018E-03  0.1523734E+04  0.7818609E-02  0.8868822E-01
        1   -1    0    0  501    0  0.00000000000E+00  0.00000000000E+00  0.71851450821E+03  0.71851450823E+03  0.50400001928E-02 0.  1.
       -1   -1    0    0    0  501  0.00000000000E+00  0.00000000000E+00 -0.80783533080E+03  0.80783533082E+03  0.50400001928E-02 0. -1.
    10030    2    1    2    0    0  0.00000000000E+00  0.00000000000E+00 -0.89320822588E+02  0.15263498390E+04  0.15237341047E+04 0.  0.
        4    1    3    3  502    0 -0.25500136508E+03  0.20790309847E+03 -0.73300114876E+03  0.80345609185E+03  0.12699999809E+01 0. -1.
       -4    1    3    3    0  502  0.25500136508E+03 -0.20790309847E+03  0.64368032617E+03  0.72289374720E+03  0.12699999809E+01 0.  1.
</event>
<event>
 5   0  0.1078787E-03  0.1531888E+04  0.7818609E-02  0.8863520E-01
       -1   -1    0    0    0  501  0.00000000000E+00  0.00000000000E+00  0.58845666006E+03  0.58845666008E+03  0.50400001928E-02 0. -1.
        1   -1    0    0  501    0  0.00000000000E+00  0.00000000000E+00 -0.99696432307E+03  0.99696432308E+03  0.50400001928E-02 0.  1.
    10030    2    1    2    0    0  0.00000000000E+00  0.00000000000E+00 -0.40850766301E+03  0.15854209832E+04  0.15318881105E+04 0.  0.
        5    1    3    3  502    0  0.51462937582E+02  0.61655966154E+03 -0.67153376111E+03  0.91311222339E+03  0.46999998093E+01 0.  1.
       -5    1    3    3    0  502 -0.51462937582E+02 -0.61655966154E+03  0.26302609811E+03  0.67230875977E+03  0.46999998093E+01 0. -1.
</event>
<event>
 5   0  0.1993623E-03  0.1384358E+04  0.7818609E-02  0.8965219E-01
        2   -1    0    0  501    0  0.00000000000E+00  0.00000000000E+00  0.84751009563E+03  0.84751009563E+03  0.25500000920E-02 0. -1.
       -2   -1    0    0    0  501  0.00000000000E+00  0.00000000000E+00 -0.56531721726E+03  0.56531721727E+03  0.25500000920E-02 0.  1.
    10030    2    1    2    0    0  0.00000000000E+00  0.00000000000E+00  0.28219287836E+03  0.14128273129E+04  0.13843584057E+04 0.  0.
        4    1    3    3  502    0 -0.21264847881E+02  0.19399486022E+03 -0.53665705993E+03  0.57104169061E+03  0.12699999809E+01 0.  1.
       -4    1    3    3    0  502  0.21264847881E+02 -0.19399486022E+03  0.81884993829E+03  0.84178562228E+03  0.12699999809E+01 0. -1.
</event>
<event>
 5   0  0.2094566E-03  0.1387284E+04  0.7818609E-02  0.8963075E-01
        2   -1    0    0  501    0  0.00000000000E+00  0.00000000000E+00  0.17802256932E+04  0.17802256932E+04  0.25500000920E-02 0.  1.
       -2   -1    0    0    0  501  0.00000000000E+00  0.00000000000E+00 -0.27026866083E+03  0.27026866084E+03  0.25500000920E-02 0. -1.
    10030    2    1    2    0    0  0.00000000000E+00  0.00000000000E+00  0.15099570323E+04  0.20504943540E+04  0.13872839855E+04 0.  0.
        1    1    3    3  502    0 -0.68149330817E+03 -0.89139687232E+02  0.89331930380E+03  0.11271195107E+04  0.50400001928E-02 0. -1.
       -1    1    3    3    0  502  0.68149330817E+03  0.89139687232E+02  0.61663772854E+03  0.92337484328E+03  0.50400001928E-02 0.  1.
</event>
<event>
 5   0  0.1078018E-03  0.1472228E+04  0.7818609E-02  0.8903134E-01
        1   -1    0    0  501    0  0.00000000000E+00  0.00000000000E+00  0.10675312081E+04  0.10675312081E+04  0.50400001928E-02 0.  1.
       -1   -1    0    0    0  501  0.00000000000E+00  0.00000000000E+00 -0.50758571415E+03  0.50758571417E+03  0.50400001928E-02 0. -1.
    10030    2    1    2    0    0  0.00000000000E+00  0.00000000000E+00  0.55994549391E+03  0.15751169222E+04  0.14722276871E+04 0.  0.
        4    1    3    3  502    0  0.80822983159E+02  0.24171731097E+02  0.10623411904E+04  0.10656861851E+04  0.12699999809E+01 0.  1.
       -4    1    3    3    0  502 -0.80822983159E+02 -0.24171731097E+02 -0.50239569654E+03  0.50943073719E+03  0.12699999809E+01 0. -1.
</event>
<event>
 5   0  0.1961098E-03  0.1044090E+04  0.7818609E-02  0.9261467E-01
        2   -1    0    0  501    0  0.00000000000E+00  0.00000000000E+00  0.11848735731E+04  0.11848735731E+04  0.25500000920E-02 0. -1.
       -2   -1    0    0    0  501  0.00000000000E+00  0.00000000000E+00 -0.23000831100E+03  0.23000831101E+03  0.25500000920E-02 0.  1.
    10030    2    1    2    0    0  0.00000000000E+00  0.00000000000E+00  0.95486526207E+03  0.14148818841E+04  0.10440895925E+04 0.  0.
        2    1    3    3  502    0  0.38320845622E+03 -0.13062811951E+03  0.92404835112E+03  0.10088497320E+04  0.25500000920E-02 0. -1.
       -2    1    3    3    0  502 -0.38320845622E+03  0.13062811951E+03  0.30816910948E+02  0.40603215209E+03  0.25500000920E-02 0.  1.
</event>
<event>
 5   0  0.1078787E-03  0.1531683E+04  0.7818609E-02  0.8863653E-01
       -1   -1    0    0    0  501  0.00000000000E+00  0.00000000000E+00  0.67788614247E+03  0.67788614249E+03  0.50400001928E-02 0. -1.
        1   -1    0    0  501    0  0.00000000000E+00  0.00000000000E+00 -0.86520913026E+03  0.86520913028E+03  0.50400001928E-02 0.  1.
    10030    2    1    2    0    0  0.00000000000E+00  0.00000000000E+00 -0.18732298779E+03  0.15430952728E+04  0.15316831001E+04 0.  0.
        5    1    3    3  502    0 -0.34876901802E+03 -0.42208814177E+03 -0.63308806652E+03  0.83703095362E+03  0.46999998093E+01 0.  1.
       -5    1    3    3    0  502  0.34876901802E+03  0.42208814177E+03  0.44576507874E+03  0.70606431914E+03  0.46999998093E+01 0. -1.
</event>
<event>
 5   0  0.1961098E-03  0.1142506E+04  0.7818609E-02  0.9164725E-01
       -2   -1    0    0    0  501  0.00000000000E+00  0.00000000000E+00  0.56704618098E+03  0.56704618099E+03  0.25500000920E-02 0. -1.
        2   -1    0    0  501    0  0.00000000000E+00  0.00000000000E+00 -0.57549082887E+03  0.57549082887E+03  0.25500000920E-02 0.  1.
    10030    2    1    2    0    0  0.00000000000E+00  0.00000000000E+00 -0.84446478856E+01  0.11425370099E+04  0.11425058017E+04 0.  0.
        2    1    3    3  502    0  0.28783661594E+03 -0.22531430999E+03 -0.44322568296E+03  0.57451323902E+03  0.25500000920E-02 0.  1.
       -2    1    3    3    0  502 -0.28783661594E+03  0.22531430999E+03  0.43478103508E+03  0.56802377084E+03  0.25500000920E-02 0. -1.
</event>
<event>
 5   0  0.1078018E-03  0.1471495E+04  0.7818609E-02  0.8903633E-01
        1   -1    0    0  501    0  0.00000000000E+00  0.00000000000E+00  0.13673076468E+04  0.13673076468E+04  0.50400001928E-02 0.  1.
       -1   -1    0    0    0  501  0.00000000000E+00  0.00000000000E+00 -0.39590535487E+03  0.39590535491E+03  0.50400001928E-02 0. -1.
    10030    2    1    2    0    0  0.00000000000E+00  0.00000000000E+00  0.97140229195E+03  0.17632130017E+04  0.14714950481E+04 0.  0.
        4    1    3    3  502    0  0.33534578405E+03 -0.12687209151E+03 -0.28413760080E+03  0.45748126909E+03  0.12699999809E+01 0. -1.
       -4    1    3    3    0  502 -0.33534578405E+03  0.12687209151E+03  0.12555398928E+04  0.13057317327E+04  0.12699999809E+01 0.  1.
</event>
<event>
 5   0  0.1078018E-03  0.1501792E+04  0.7818609E-02  0.8883262E-01
       -1   -1    0    0    0  501  0.00000000000E+00  0.00000000000E+00  0.12060605489E+04  0.12060605489E+04  0.50400001928E-02 0.  1.
        1   -1    0    0  501    0  0.00000000000E+00  0.00000000000E+00 -0.46750929686E+03  0.46750929689E+03  0.50400001928E-02 0. -1.
    10030    2    1    2    0    0  0.00000000000E+00  0.00000000000E+00  0.73855125207E+03  0.16735698458E+04  0.15017916223E+04 0.  0.
        4    1    3    3  502    0  0.67190063824E+03  0.28051612770E+03  0.16469271591E+03  0.74650188824E+03  0.12699999809E+01 0.  1.
       -4    1    3    3    0  502 -0.67190063824E+03 -0.28051612770E+03  0.57385853616E+03  0.92706795759E+03  0.12699999809E+01 0. -1.
</event>
<event>
 5   0  0.1078018E-03  0.1512597E+04  0.7818609E-02  0.8876119E-01
       -1   -1    0    0    0  501  0.00000000000E+00  0.00000000000E+00  0.95027452716E+03  0.95027452717E+03  0.50400001928E-02 0.  1.
        1   -1    0    0  501    0  0.00000000000E+00  0.00000000000E+00 -0.60191842531E+03  0.60191842533E+03  0.50400001928E-02 0. -1.
    10030    2    1    2    0    0  0.00000000000E+00  0.00000000000E+00  0.34835610185E+03  0.15521929525E+04  0.15125974309E+04 0.  0.
        4    1    3    3  502    0  0.22593228267E+03  0.72139328302E+03  0.19785738634E+03  0.78141079041E+03  0.12699999809E+01 0.  1.
       -4    1    3    3    0  502 -0.22593228267E+03 -0.72139328302E+03  0.15049871551E+03  0.77078216210E+03  0.12699999809E+01 0. -1.
</event>
<event>
 5   0  0.1961098E-03  0.1631184E+04  0.7818609E-02  0.8801616E-01
        2   -1    0    0  501    0  0.00000000000E+00  0.00000000000E+00  0.21029919213E+04  0.21029919213E+04  0.25500000920E-02 0. -1.
       -2   -1    0    0    0  501  0.00000000000E+00  0.00000000000E+00 -0.31630666128E+03  0.31630666129E+03  0.25500000920E-02 0.  1.
    10030    2    1    2    0    0  0.00000000000E+00  0.00000000000E+00  0.17866852600E+04  0.24192985826E+04  0.16311840526E+04 0.  0.
        2    1    3    3  502    0 -0.50971002150E+03 -0.60002074647E+03  0.57745796900E+03  0.97636412684E+03  0.25500000920E-02 0.  1.
       -2    1    3    3    0  502  0.50971002150E+03  0.60002074647E+03  0.12092272910E+04  0.14429344557E+04  0.25500000920E-02 0. -1.
</event>
<event>
 5   0  0.7468375E-04  0.1456050E+04  0.7818609E-02  0.8914217E-01
        3   -1    0    0  501    0  0.00000000000E+00  0.00000000000E+00  0.99265896804E+03  0.99265897318E+03  0.10100000352E+00 0.  1.
       -3   -1    0    0    0  501  0.00000000000E+00  0.00000000000E+00 -0.53393997586E+03  0.53393998541E+03  0.10100000352E+00 0. -1.
    10030    2    1    2    0    0  0.00000000000E+00  0.00000000000E+00  0.45871899218E+03  0.15265989586E+04  0.14560498846E+04 0.  0.
        1    1    3    3  502    0 -0.51798777950E+01  0.71191047283E+03  0.38897570151E+03  0.81126164020E+03  0.50400001928E-02 0. -1.
       -1    1    3    3    0  502  0.51798777950E+01 -0.71191047283E+03  0.69743290673E+02  0.71533731839E+03  0.50400001928E-02 0.  1.
</event>
<event>
 5   0  0.2111533E-03  0.1531523E+04  0.7818609E-02  0.8863757E-01
        2   -1    0    0  501    0  0.00000000000E+00  0.00000000000E+00  0.80657899699E+03  0.80657899699E+03  0.25500000920E-02 0.  1.
       -2   -1    0    0    0  501  0.00000000000E+00  0.00000000000E+00 -0.72700964177E+03  0.72700964177E+03  0.25500000920E-02 0. -1.
    10030    2    1    2    0    0  0.00000000000E+00  0.00000000000E+00  0.79569355220E+02  0.15335886388E+04  0.15315230428E+04 0.  0.
        5    1    3    3  502    0 -0.56206411496E+03 -0.97220517309E+02  0.55135600985E+03  0.79333690064E+03  0.46999998093E+01 0.  1.
       -5    1    3    3    0  502  0.56206411496E+03  0.97220517309E+02 -0.47178665463E+03  0.74025173813E+03  0.46999998093E+01 0. -1.
</event>
<event>
 5   0  0.2111533E-03  0.1512313E+04  0.7818609E-02  0.8876306E-01
        2   -1    0    0  501    0  0.00000000000E+00  0.00000000000E+00  0.12700317076E+04  0.12700317076E+04  0.25500000920E-02 0. -1.
       -2   -1    0    0    0  501  0.00000000000E+00  0.00000000000E+00 -0.45020336636E+03  0.45020336637E+03  0.25500000920E-02 0.  1.
    10030    2    1    2    0    0  0.00000000000E+00  0.00000000000E+00  0.81982834125E+03  0.17202350740E+04  0.15123128647E+04 0.  0.
        5    1    3    3  502    0  0.35047208751E+03  0.34032689645E+03  0.10664096802E+04  0.11729896745E+04  0.46999998093E+01 0. -1.
       -5    1    3    3    0  502 -0.35047208751E+03 -0.34032689645E+03 -0.24658133890E+03  0.54724539949E+03  0.46999998093E+01 0.  1.
</event>
<event>
 5   0  0.1993623E-03  0.1393628E+04  0.7818609E-02  0.8958444E-01
       -2   -1    0    0    0  501  0.00000000000E+00  0.00000000000E+00  0.43478784938E+03  0.43478784938E+03  0.25500000920E-02 0.  1.
        2   -1    0    0  501    0  0.00000000000E+00  0.00000000000E+00 -0.11167514143E+04  0.11167514143E+04  0.25500000920E-02 0. -1.
    10030    2    1    2    0    0  0.00000000000E+00  0.00000000000E+00 -0.68196356488E+03  0.15515392636E+04  0.13936282800E+04 0.  0.
        4    1    3    3  502    0 -0.58132458517E+03  0.31994363670E+03 -0.10416824044E+03  0.67168060804E+03  0.12699999809E+01 0.  1.
       -4    1    3    3    0  502  0.58132458517E+03 -0.31994363670E+03 -0.57779532443E+03  0.87985865560E+03  0.12699999809E+01 0. -1.
</event>
<event>
 5   0  0.1078018E-03  0.1522431E+04  0.7818609E-02  0.8869672E-01
       -1   -1    0    0    0  501  0.00000000000E+00  0.00000000000E+00  0.77735857348E+03  0.77735857349E+03  0.50400001928E-02 0. -1.
        1   -1    0    0  501    0  0.00000000000E+00  0.00000000000E+00 -0.74540722731E+03  0.74540722732E+03  0.50400001928E-02 0.  1.
    10030    2    1    2    0    0  0.00000000000E+00  0.00000000000E+00  0.31951346169E+02  0.15227658008E+04  0.15224305553E+04 0.  0.
        4    1    3    3  502    0  0.26698107660E+03  0.31591951185E+03  0.65514929509E+03  0.77479432431E+03  0.12699999809E+01 0. -1.
       -4    1    3    3    0  502 -0.26698107660E+03 -0.31591951185E+03 -0.62319794892E+03  0.74797147651E+03  0.12699999809E+01 0.  1.
</event>
<event>
 5   0  0.1069697E-03  0.1425866E+04  0.7818609E-02  0.8935305E-01
        1   -1    0    0  501    0  0.00000000000E+00  0.00000000000E+00  0.58642487742E+03  0.58642487744E+03  0.50400001928E-02 0.  1.
       -1   -1    0    0    0  501  0.00000000000E+00  0.00000000000E+00 -0.86673290674E+03  0.86673290675E+03  0.50400001928E-02 0. -1.
    10030    2    1    2    0    0  0.00000000000E+00  0.00000000000E+00 -0.28030802932E+03  0.14531577842E+04  0.14258663873E+04 0.  0.
        2    1    3    3  502    0 -0.42477073094E+03  0.38476315455E+03 -0.57229936782E+03  0.80993791452E+03  0.25500000920E-02 0. -1.
       -2    1    3    3    0  502  0.42477073094E+03 -0.38476315455E+03  0.29199133850E+03  0.64321986967E+03  0.25500000920E-02 0.  1.
</event>
<event>
 5   0  0.1961098E-03  0.1507647E+04  0.7818609E-02  0.8879384E-01
       -2   -1    0    0    0  501  0.00000000000E+00  0.00000000000E+00  0.62430607016E+03  0.62430607017E+03  0.25500000920E-02 0.  1.
        2   -1    0    0  501    0  0.00000000000E+00  0.00000000000E+00 -0.91021031109E+03  0.91021031109E+03  0.25500000920E-02 0. -1.
    10030    2    1    2    0    0  0.00000000000E+00  0.00000000000E+00 -0.28590424093E+03  0.15345163813E+04  0.15076469379E+04 0.  0.
        2    1    3    3  502    0 -0.59123890192E+03 -0.16689321639E+03 -0.58758201660E+03  0.85009964772E+03  0.25500000920E-02 0. -1.
       -2    1    3    3    0  502  0.59123890192E+03  0.16689321639E+03  0.30167777567E+03  0.68441673354E+03  0.25500000920E-02 0.  1.
</event>
<event>
 5   0  0.1069697E-03  0.8051574E+03  0.7818609E-02  0.9552582E-01
        1   -1    0    0  501    0  0.00000000000E+00  0.00000000000E+00  0.12868197399E+04  0.12868197400E+04  0.50400001928E-02 0.  1.
       -1   -1    0    0    0  501  0.00000000000E+00  0.00000000000E+00 -0.12594583860E+03  0.12594583870E+03  0.50400001928E-02 0. -1.
    10030    2    1    2    0    0  0.00000000000E+00  0.00000000000E+00  0.11608739013E+04  0.14127655787E+04  0.80515735445E+03 0.  0.
        2    1    3    3  502    0 -0.23062479180E+03  0.40658213844E+02  0.58644003198E+01  0.23425472491E+03  0.25500000920E-02 0. -1.
       -2    1    3    3    0  502  0.23062479180E+03 -0.40658213844E+02  0.11550095010E+04  0.11785108537E+04  0.25500000920E-02 0.  1.
</event>
<event>
 5   0  0.2150197E-03  0.1487745E+04  0.7818609E-02  0.8892643E-01
        2   -1    0    0  501    0  0.00000000000E+00  0.00000000000E+00  0.85983916932E+03  0.85983916932E+03  0.25500000920E-02 0. -1.
       -2   -1    0    0    0  501  0.00000000000E+00  0.00000000000E+00 -0.64354656295E+03  0.64354656295E+03  0.25500000920E-02 0.  1.
    10030    2    1    2    0    0  0.00000000000E+00  0.00000000000E+00  0.21629260637E+03  0.15033857323E+04  0.14877453305E+04 0.  0.
        3    1    3    3  502    0  0.38532735169E+03  0.33029127083E+03 -0.44142501356E+03  0.67262585763E+03  0.10100000352E+00 0.  1.
       -3    1    3    3    0  502 -0.38532735169E+03 -0.33029127083E+03  0.65771761994E+03  0.83075987465E+03  0.10100000352E+00 0. -1.
</event>
<event>
 5   0  0.2111533E-03  0.1463760E+04  0.7818609E-02  0.8908916E-01
        2   -1    0    0  501    0  0.00000000000E+00  0.00000000000E+00  0.10596515056E+04  0.10596515056E+04  0.25500000920E-02 0.  1.
       -2   -1    0    0    0  501  0.00000000000E+00  0.00000000000E+00 -0.50549497520E+03  0.50549497521E+03  0.25500000920E-02 0. -1.
    10030    2    1    2    0    0  0.00000000000E+00  0.00000000000E+00  0.55415653042E+03  0.15651464808E+04  0.14637602421E+04 0.  0.
        5    1    3    3  502    0  0.25805286948E+03 -0.30551287200E+03  0.93247446542E+03  0.10146231404E+04  0.46999998093E+01 0.  1.
       -5    1    3    3    0  502 -0.25805286948E+03  0.30551287200E+03 -0.37831793500E+03  0.55052334042E+03  0.46999998093E+01 0. -1.
</event>
<event>
 5   0  0.1078787E-03  0.1523965E+04  0.7818609E-02  0.8868671E-01
        1   -1    0    0  501    0  0.00000000000E+00  0.00000000000E+00  0.15934179838E+04  0.15934179838E+04  0.50400001928E-02 0.  1.
       -1   -1    0    0    0  501  0.00000000000E+00  0.00000000000E+00 -0.36438478279E+03  0.36438478283E+03  0.50400001928E-02 0. -1.
    10030    2    1    2    0    0  0.00000000000E+00  0.00000000000E+00  0.12290332010E+04  0.19578027666E+04  0.15239649155E+04 0.  0.
        5    1    3    3  502    0  0.41797047470E+03 -0.31075640217E+03 -0.99983680908E+02  0.53036561508E+03  0.46999998093E+01 0. -1.
       -5    1    3    3    0  502 -0.41797047470E+03  0.31075640217E+03  0.13290168819E+04  0.14274371515E+04  0.46999998093E+01 0.  1.
</event>
<event>
 5   0  0.1087761E-03  0.1497257E+04  0.7818609E-02  0.8886279E-01
        1   -1    0    0  501    0  0.00000000000E+00  0.00000000000E+00  0.19841314844E+04  0.19841314844E+04  0.50400001928E-02 0.  1.
       -1   -1    0    0    0  501  0.00000000000E+00  0.00000000000E+00 -0.28246337363E+03  0.28246337368E+03  0.50400001928E-02 0. -1.
    10030    2    1    2    0    0  0.00000000000E+00  0.00000000000E+00  0.17016681107E+04  0.22665948580E+04  0.14972567888E+04 0.  0.
        3    1    3    3  502    0 -0.21563671395E+03 -0.29537002547E+03  0.18397055432E+04  0.18757023059E+04  0.10100000352E+00 0.  1.
       -3    1    3    3    0  502  0.21563671395E+03  0.29537002547E+03 -0.13803743251E+03  0.39089255215E+03  0.10100000352E+00 0. -1.
</event>
<event>
 5   0  0.2150197E-03  0.1179414E+04  0.7818609E-02  0.9131068E-01
       -2   -1    0    0    0  501  0.00000000000E+00  0.00000000000E+00  0.41948147291E+03  0.41948147292E+03  0.25500000920E-02 0. -1.
        2   -1    0    0  501    0  0.00000000000E+00  0.00000000000E+00 -0.82901035386E+03  0.82901035386E+03  0.25500000920E-02 0.  1.
    10030    2    1    2    0    0  0.00000000000E+00  0.00000000000E+00 -0.40952888095E+03  0.12484918268E+04  0.11794142348E+04 0.  0.
        3    1    3    3  502    0  0.50470639257E+02 -0.28614739097E+03  0.33844451116E+03  0.44606312572E+03  0.10100000352E+00 0. -1.
       -3    1    3    3    0  502 -0.50470639257E+02  0.28614739097E+03 -0.74797339211E+03  0.80242870106E+03  0.10100000352E+00 0.  1.
</event>
<event>
 5   0  0.2094566E-03  0.1239566E+04  0.7818609E-02  0.9078912E-01
        2   -1    0    0  501    0  0.00000000000E+00  0.00000000000E+00  0.15231605193E+04  0.15231605193E+04  0.25500000920E-02 0. -1.
       -2   -1    0    0    0  501  0.00000000000E+00  0.00000000000E+00 -0.25219348868E+03  0.25219348870E+03  0.25500000920E-02 0.  1.
    10030    2    1    2    0    0  0.00000000000E+00  0.00000000000E+00  0.12709670306E+04  0.17753540080E+04  0.12395663197E+04 0.  0.
        1    1    3    3  502    0 -0.56887855707E+03  0.20772737752E+01  0.98777924214E+03  0.11398837480E+04  0.50400001928E-02 0. -1.
       -1    1    3    3    0  502  0.56887855707E+03 -0.20772737752E+01  0.28318778849E+03  0.63547025999E+03  0.50400001928E-02 0.  1.
</event>
<event>
 5   0  0.2094566E-03  0.1496248E+04  0.7818609E-02  0.8886952E-01
       -2   -1    0    0    0  501  0.00000000000E+00  0.00000000000E+00  0.13854066359E+04  0.13854066359E+04  0.25500000920E-02 0. -1.
        2   -1    0    0  501    0  0.00000000000E+00  0.00000000000E+00 -0.40398951610E+03  0.40398951610E+03  0.25500000920E-02 0.  1.
    10030    2    1    2    0    0  0.00000000000E+00  0.00000000000E+00  0.98141711984E+03  0.17893961520E+04  0.14962483169E+04 0.  0.
        1    1    3    3  502    0 -0.37494197898E+03  0.25717834245E+03 -0.21980149142E+03  0.50500978514E+03  0.50400001928E-02 0.  1.
       -1    1    3    3    0  502  0.37494197898E+03 -0.25717834245E+03  0.12012186113E+04  0.12843863669E+04  0.50400001928E-02 0. -1.
</event>
<event>
 5   0  0.1961098E-03  0.1473295E+04  0.7818609E-02  0.8902408E-01
        2   -1    0    0  501    0  0.00000000000E+00  0.00000000000E+00  0.11990312544E+04  0.11990312544E+04  0.25500000920E-02 0. -1.
       -2   -1    0    0    0  501  0.00000000000E+00  0.00000000000E+00 -0.45257337197E+03  0.45257337198E+03  0.25500000920E-02 0.  1.
    10030    2    1    2    0    0  0.00000000000E+00  0.00000000000E+00  0.74645788246E+03  0.16516046264E+04  0.14732951068E+04 0.  0.
        2    1    3    3  502    0  0.69234722072E+03  0.22953683256E+03  0.48874259899E+03  0.87800977193E+03  0.25500000920E-02 0.  1.
       -2    1    3    3    0  502 -0.69234722072E+03 -0.22953683256E+03  0.25771528347E+03  0.77359485448E+03  0.25500000920E-02 0. -1.
</event>
<event>
 5   0  0.1077140E-03  0.1343390E+04  0.7818609E-02  0.8995847E-01
       -1   -1    0    0    0  501  0.00000000000E+00  0.00000000000E+00  0.73294346497E+03  0.73294346499E+03  0.50400001928E-02 0.  1.
        1   -1    0    0  501    0  0.00000000000E+00  0.00000000000E+00 -0.61556436971E+03  0.61556436973E+03  0.50400001928E-02 0. -1.
    10030    2    1    2    0    0  0.00000000000E+00  0.00000000000E+00  0.11737909525E+03  0.13485078347E+04  0.13433895668E+04 0.  0.
        1    1    3    3  502    0  0.98439024006E+02  0.34028524661E+03 -0.51417697383E+03  0.62438950259E+03  0.50400001928E-02 0. -1.
       -1    1    3    3    0  502 -0.98439024006E+02 -0.34028524661E+03  0.63155606908E+03  0.72411833213E+03  0.50400001928E-02 0.  1.
</event>
<event>
 5   0  0.2094566E-03  0.1473578E+04  0.7818609E-02  0.8902216E-01
        2   -1    0    0  501    0  0.00000000000E+00  0.00000000000E+00  0.55848403541E+03  0.55848403542E+03  0.25500000920E-02 0.  1.
       -2   -1    0    0    0  501  0.00000000000E+00  0.00000000000E+00 -0.97202087271E+03  0.97202087271E+03  0.25500000920E-02 0. -1.
    10030    2    1    2    0    0  0.00000000000E+00  0.00000000000E+00 -0.41353683729E+03  0.15305049081E+04  0.14735781479E+04 0.  0.
        1    1    3    3  502    0  0.44095177198E+03 -0.19256601781E+03 -0.78630068605E+03  0.92183995646E+03  0.50400001928E-02 0. -1.
       -1    1    3    3    0  502 -0.44095177198E+03  0.19256601781E+03  0.37276384876E+03  0.60866495167E+03  0.50400001928E-02 0.  1.
</event>
<event>
 5   0  0.1993623E-03  0.1426017E+04  0.7818609E-02  0.8935198E-01
        2   -1    0    0  501    0  0.00000000000E+00  0.00000000000E+00  0.63231047873E+03  0.63231047873E+03  0.25500000920E-02 0.  1.
       -2   -1    0    0    0  501  0.00000000000E+00  0.00000000000E+00 -0.80400602520E+03  0.80400602520E+03  0.25500000920E-02 0. -1.
    10030    2    1    2    0    0  0.00000000000E+00  0.00000000000E+00 -0.17169554647E+03  0.14363165039E+04  0.14260174399E+04 0.  0.
        4    1    3    3  502    0 -0.21379763163E+03 -0.11792726014E+03  0.58888857158E+03  0.63750108126E+03  0.12699999809E+01 0.  1.
       -4    1    3    3    0  502  0.21379763163E+03  0.11792726014E+03 -0.76058411805E+03  0.79881542267E+03  0.12699999809E+01 0. -1.
</event>
<event>
 5   0  0.2150197E-03  0.1475396E+04  0.7818609E-02  0.8900981E-01
        2   -1    0    0  501    0  0.00000000000E+00  0.00000000000E+00  0.89299774168E+03  0.89299774169E+03  0.25500000920E-02 0.  1.
       -2   -1    0    0    0  501  0.00000000000E+00  0.00000000000E+00 -0.60940584820E+03  0.60940584820E+03  0.25500000920E-02 0. -1.
    10030    2    1    2    0    0  0.00000000000E+00  0.00000000000E+00  0.28359189349E+03  0.15024035899E+04  0.14753956028E+04 0.  0.
        3    1    3    3  502    0 -0.28924509836E+03  0.47063696535E+02 -0.54759040786E+03  0.62107405633E+03  0.10100000352E+00 0. -1.
       -3    1    3    3    0  502  0.28924509836E+03 -0.47063696535E+02  0.83118230135E+03  0.88132953356E+03  0.10100000352E+00 0.  1.
</event>
<event>
 5   0  0.1078787E-03  0.1490681E+04  0.7818609E-02  0.8890674E-01
        1   -1    0    0  501    0  0.00000000000E+00  0.00000000000E+00  0.51331914615E+03  0.51331914618E+03  0.50400001928E-02 0. -1.
       -1   -1    0    0    0  501  0.00000000000E+00  0.00000000000E+00 -0.10822357777E+04  0.10822357777E+04  0.50400001928E-02 0.  1.
    10030    2    1    2    0    0  0.00000000000E+00  0.00000000000E+00 -0.56891663152E+03  0.15955549239E+04  0.14906808449E+04 0.  0.
        5    1    3    3  502    0  0.13406016605E+03 -0.60241284018E+03 -0.73175439458E+03  0.95726691269E+03  0.46999998093E+01 0. -1.
       -5    1    3    3    0  502 -0.13406016605E+03  0.60241284018E+03  0.16283776306E+03  0.63828801118E+03  0.46999998093E+01 0.  1.
</event>
<event>
 5   0  0.1069697E-03  0.1462803E+04  0.7818609E-02  0.8909572E-01
       -1   -1    0    0    0  501  0.00000000000E+00  0.00000000000E+00  0.72904736548E+03  0.72904736550E+03  0.50400001928E-02 0.  1.
        1   -1    0    0  501    0  0.00000000000E+00  0.00000000000E+00 -0.73376301207E+03  0.73376301209E+03  0.50400001928E-02 0. -1.
    10030    2    1    2    0    0  0.00000000000E+00  0.00000000000E+00 -0.47156465946E+01  0.14628103776E+04  0.14628027767E+04 0.  0.
        2    1    3    3  502    0 -0.52893137047E+03 -0.50494963985E+03 -0.16691683403E+02  0.73145139671E+03  0.25500000920E-02 0.  1.
       -2    1    3    3    0  502  0.52893137047E+03  0.50494963985E+03  0.11976036809E+02  0.73135898088E+03  0.25500000920E-02 0. -1.
</event>
<event>
 5   0  0.2094566E-03  0.1500027E+04  0.7818609E-02  0.8884435E-01
       -2   -1    0    0    0  501  0.00000000000E+00  0.00000000000E+00  0.71613155347E+03  0.71613155348E+03  0.25500000920E-02 0. -1.
        2   -1    0    0  501    0  0.00000000000E+00  0.00000000000E+00 -0.78549839886E+03  0.78549839886E+03  0.25500000920E-02 0.  1.
    10030    2    1    2    0    0  0.00000000000E+00  0.00000000000E+00 -0.69366845384E+02  0.15016299523E+04  0.15000269179E+04 0.  0.
        1    1    3    3  502    0 -0.36089126237E+03  0.59050675037E+03  0.25472666071E+03  0.73744586051E+03  0.50400001928E-02 0. -1.
       -1    1    3    3    0  502  0.36089126237E+03 -0.59050675037E+03 -0.32409350609E+03  0.76418409183E+03  0.50400001928E-02 0.  1.
</event>
<event>
 5   0  0.1993623E-03  0.1529896E+04  0.7818609E-02  0.8864812E-01
       -2   -1    0    0    0  501  0.00000000000E+00  0.00000000000E+00  0.62656820208E+03  0.62656820208E+03  0.25500000920E-02 0.  1.
        2   -1    0    0  501    0  0.00000000000E+00  0.00000000000E+00 -0.93388967601E+03  0.93388967602E+03  0.25500000920E-02 0. -1.
    10030    2    1    2    0    0  0.00000000000E+00  0.00000000000E+00 -0.30732147393E+03  0.15604578781E+04  0.15298961733E+04 0.  0.
        4    1    3    3  502    0  0.16187450265E+03  0.13302483178E+03 -0.90405074285E+03  0.92801310283E+03  0.12699999809E+01 0. -1.
       -4    1    3    3    0  502 -0.16187450265E+03 -0.13302483178E+03  0.59672926892E+03  0.63244477527E+03  0.12699999809E+01 0.  1.
</event>
<event>
 5   0  0.2150197E-03  0.1507056E+04  0.7818609E-02  0.8879774E-01
       -2   -1    0    0    0  501  0.00000000000E+00  0.00000000000E+00  0.42888978291E+03  0.42888978292E+03  0.25500000920E-02 0.  1.
        2   -1    0    0  501    0  0.00000000000E+00  0.00000000000E+00 -0.13238942535E+04  0.13238942535E+04  0.25500000920E-02 0. -1.
    10030    2    1    2    0    0  0.00000000000E+00  0.00000000000E+00 -0.89500447055E+03  0.17527840364E+04  0.15070563612E+04 0.  0.
        3    1    3    3  502    0 -0.32727585505E+03 -0.61471732710E+03 -0.11279828241E+03  0.70548588948E+03  0.10100000352E+00 0.  1.
       -3    1    3    3    0  502  0.32727585505E+03  0.61471732710E+03 -0.78220618814E+03  0.10472981469E+04  0.10100000352E+00 0. -1.
</event>
<event>
 5   0  0.1087761E-03  0.1567056E+04  0.7818609E-02  0.8841046E-01
        1   -1    0    0  501    0  0.00000000000E+00  0.00000000000E+00  0.61293315612E+03  0.61293315614E+03  0.50400001928E-02 0.  1.
       -1   -1    0    0    0  501  0.00000000000E+00  0.00000000000E+00 -0.10016042901E+04  0.10016042901E+04  0.50400001928E-02 0. -1.
    10030    2    1    2    0    0  0.00000000000E+00  0.00000000000E+00 -0.38867113396E+03  0.16145374462E+04  0.15670564492E+04 0.  0.
        3    1    3    3  502    0  0.42393086394E+03  0.29648384264E+03  0.41196431449E+03  0.66131282535E+03  0.10100000352E+00 0.  1.
       -3    1    3    3    0  502 -0.42393086394E+03 -0.29648384264E+03 -0.80063544845E+03  0.95322462089E+03  0.10100000352E+00 0. -1.
</event>
<event>
 5   0  0.1961098E-03  0.1494880E+04  0.7818609E-02  0.8887865E-01
       -2   -1    0    0    0  501  0.00000000000E+00  0.00000000000E+00  0.58248177692E+03  0.58248177692E+03  0.25500000920E-02 0. -1.
        2   -1    0    0  501    0  0.00000000000E+00  0.00000000000E+00 -0.95911480232E+03  0.95911480233E+03  0.25500000920E-02 0.  1.
    10030    2    1    2    0    0  0.00000000000E+00  0.00000000000E+00 -0.37663302541E+03  0.15415965792E+04  0.14948804559E+04 0.  0.
        2    1    3    3  502    0 -0.39791594430E+03  0.62103760026E+03 -0.31310251717E+03  0.80128520885E+03  0.25500000920E-02 0.  1.
       -2    1    3    3    0  502  0.39791594430E+03 -0.62103760026E+03 -0.63530508236E+02  0.74031137040E+03  0.25500000920E-02 0. -1.
</event>
<event>
 5   0  0.1077140E-03  0.1513106E+04  0.7818609E-02  0.8875784E-01
        1   -1    0    0  501    0  0.00000000000E+00  0.00000000000E+00  0.47917388556E+03  0.47917388559E+03  0.50400001928E-02 0. -1.
       -1   -1    0    0    0  501  0.00000000000E+00  0.00000000000E+00 -0.11944981812E+04  0.11944981812E+04  0.50400001928E-02 0.  1.
    10030    2    1    2    0    0  0.00000000000E+00  0.00000000000E+00 -0.71532429560E+03  0.16736720668E+04  0.15131058586E+04 0.  0.
        1    1    3    3  502    0  0.52916942288E+02 -0.34431022995E+03  0.38518627571E+03  0.51934401339E+03  0.50400001928E-02 0. -1.
       -1    1    3    3    0  502 -0.52916942288E+02  0.34431022995E+03 -0.11005105713E+04  0.11543280534E+04  0.50400001928E-02 0.  1.
</event>
<event>
 5   0  0.1069697E-03  0.1375873E+04  0.7818609E-02  0.8971470E-01
       -1   -1    0    0    0  501  0.00000000000E+00  0.00000000000E+00  0.85294074134E+03  0.85294074136E+03  0.50400001928E-02 0.  1.
        1   -1    0    0  501    0  0.00000000000E+00  0.00000000000E+00 -0.55485319688E+03  0.55485319690E+03  0.50400001928E-02 0. -1.
    10030    2    1    2    0    0  0.00000000000E+00  0.00000000000E+00  0.29808754447E+03  0.14077939383E+04  0.13758733911E+04 0.  0.
        2    1    3    3  502    0  0.41719092354E+03 -0.34954321618E+03 -0.28146480618E+03  0.61274069865E+03  0.25500000920E-02 0. -1.
       -2    1    3    3    0  502 -0.41719092354E+03  0.34954321618E+03  0.57955235065E+03  0.79505323961E+03  0.25500000920E-02 0.  1.
</event>
<event>
 5   0  0.2111533E-03  0.1481711E+04  0.7818609E-02  0.8896707E-01
       -2   -1    0    0    0  501  0.00000000000E+00  0.00000000000E+00  0.28993677926E+03  0.28993677927E+03  0.25500000920E-02 0. -1.
        2   -1    0    0  501    0  0.00000000000E+00  0.00000000000E+00 -0.18930579784E+04  0.18930579784E+04  0.25500000920E-02 0.  1.
    10030    2    1    2    0    0  0.00000000000E+00  0.00000000000E+00 -0.16031211991E+04  0.21829947576E+04  0.14817113527E+04 0.  0.
        5    1    3    3  502    0 -0.10577613421E+02  0.64331316305E+03 -0.26047620740E+03  0.69414238905E+03  0.46999998093E+01 0. -1.
       -5    1    3    3    0  502  0.10577613421E+02 -0.64331316305E+03 -0.13426449917E+04  0.14888523686E+04  0.46999998093E+01 0.  1.
</event>
<event>
 5   0  0.1077140E-03  0.1474695E+04  0.7818609E-02  0.8901457E-01
        1   -1    0    0  501    0  0.00000000000E+00  0.00000000000E+00  0.62739896323E+03  0.62739896325E+03  0.50400001928E-02 0. -1.
       -1   -1    0    0    0  501  0.00000000000E+00  0.00000000000E+00 -0.86656416498E+03  0.86656416500E+03  0.50400001928E-02 0.  1.
    10030    2    1    2    0    0  0.00000000000E+00  0.00000000000E+00 -0.23916520175E+03  0.14939631282E+04  0.14746951667E+04 0.  0.
        1    1    3    3  502    0 -0.62794915331E+03 -0.26157247545E+03  0.16863621742E+03  0.70084126084E+03  0.50400001928E-02 0. -1.
       -1    1    3    3    0  502  0.62794915331E+03  0.26157247545E+03 -0.40780141917E+03  0.79312186740E+03  0.50400001928E-02 0.  1.
</event>
<event>
 5   0  0.1993623E-03  0.1491852E+04  0.7818609E-02  0.8889890E-01
       -2   -1    0    0    0  501  0.00000000000E+00  0.00000000000E+00  0.19187284019E+03  0.19187284021E+03  0.25500000920E-02 0.  1.
        2   -1    0    0  501    0  0.00000000000E+00  0.00000000000E+00 -0.28998654398E+04  0.28998654398E+04  0.25500000920E-02 0. -1.
    10030    2    1    2    0    0  0.00000000000E+00  0.00000000000E+00 -0.27079925996E+04  0.30917382800E+04  0.14918517596E+04 0.  0.
        4    1    3    3  502    0 -0.33639097748E+02 -0.62459198506E+03 -0.51177613519E+03  0.80818510389E+03  0.12699999809E+01 0.  1.
       -4    1    3    3    0  502  0.33639097748E+02  0.62459198506E+03 -0.21962164644E+04  0.22835531761E+04  0.12699999809E+01 0. -1.
</event>
<event>
 5   0  0.7468375E-04  0.1505638E+04  0.7818609E-02  0.8880712E-01
       -3   -1    0    0    0  501  0.00000000000E+00  0.00000000000E+00  0.96432125834E+03  0.96432126363E+03  0.10100000352E+00 0. -1.
        3   -1    0    0  501    0  0.00000000000E+00  0.00000000000E+00 -0.58770514509E+03  0.58770515377E+03  0.10100000352E+00 0.  1.
    10030    2    1    2    0    0  0.00000000000E+00  0.00000000000E+00  0.37661611325E+03  0.15520264174E+04  0.15056381715E+04 0.  0.
        1    1    3    3  502    0 -0.47693886431E+03 -0.30427096799E+03 -0.32366832728E+03  0.65177656323E+03  0.50400001928E-02 0. -1.
       -1    1    3    3    0  502  0.47693886431E+03  0.30427096799E+03  0.70028444054E+03  0.90024985417E+03  0.50400001928E-02 0.  1.
</event>
<event>
 5   0  0.2150197E-03  0.8507942E+03  0.7818609E-02  0.9489272E-01
        2   -1    0    0  501    0  0.00000000000E+00  0.00000000000E+00  0.29893079375E+03  0.29893079376E+03  0.25500000920E-02 0.  1.
       -2   -1    0    0    0  501  0.00000000000E+00  0.00000000000E+00 -0.60536646224E+03  0.60536646224E+03  0.25500000920E-02 0. -1.
    10030    2    1    2    0    0  0.00000000000E+00  0.00000000000E+00 -0.30643566849E+03  0.90429725600E+03  0.85079416329E+03 0.  0.
        3    1    3    3  502    0  0.40393860247E+03 -0.12656467553E+03 -0.19803150062E+03  0.46733445956E+03  0.10100000352E+00 0.  1.
       -3    1    3    3    0  502 -0.40393860247E+03  0.12656467553E+03 -0.10840416787E+03  0.43696279644E+03  0.10100000352E+00 0. -1.
</event>
<event>
 5   0  0.2111533E-03  0.1513552E+04  0.7818609E-02  0.8875491E-01
       -2   -1    0    0    0  501  0.00000000000E+00  0.00000000000E+00  0.21359962570E+03  0.21359962571E+03  0.25500000920E-02 0.  1.
        2   -1    0    0  501    0  0.00000000000E+00  0.00000000000E+00 -0.26812308395E+04  0.26812308395E+04  0.25500000920E-02 0. -1.
    10030    2    1    2    0    0  0.00000000000E+00  0.00000000000E+00 -0.24676312138E+04  0.28948304652E+04  0.15135519862E+04 0.  0.
        5    1    3    3  502    0 -0.10580402806E+02  0.71151103119E+03 -0.17263924439E+04  0.18673009540E+04  0.46999998093E+01 0. -1.
       -5    1    3    3    0  502  0.10580402806E+02 -0.71151103119E+03 -0.74123876988E+03  0.10275295112E+04  0.46999998093E+01 0.  1.
</event>
<event>
 5   0  0.1087761E-03  0.1399454E+04  0.7818609E-02  0.8954214E-01
       -1   -1    0    0    0  501  0.00000000000E+00  0.00000000000E+00  0.31858020462E+03  0.31858020466E+03  0.50400001928E-02 0.  1.
        1   -1    0    0  501    0  0.00000000000E+00  0.00000000000E+00 -0.15368748613E+04  0.15368748613E+04  0.50400001928E-02 0. -1.
    10030    2    1    2    0    0  0.00000000000E+00  0.00000000000E+00 -0.12182946567E+04  0.18554550660E+04  0.13994540476E+04 0.  0.
        3    1    3    3  502    0  0.49709033424E+03 -0.47764283364E+03 -0.45017659214E+03  0.82334710253E+03  0.10100000352E+00 0. -1.
       -3    1    3    3    0  502 -0.49709033424E+03  0.47764283364E+03 -0.76811806452E+03  0.10321079634E+04  0.10100000352E+00 0.  1.
</event>
<event>
 5   0  0.1961098E-03  0.1517710E+04  0.7818609E-02  0.8872760E-01
        2   -1    0    0  501    0  0.00000000000E+00  0.00000000000E+00  0.49296593041E+03  0.49296593041E+03  0.25500000920E-02 0.  1.
       -2   -1    0    0    0  501  0.00000000000E+00  0.00000000000E+00 -0.11681563282E+04  0.11681563282E+04  0.25500000920E-02 0. -1.
    10030    2    1    2    0    0  0.00000000000E+00  0.00000000000E+00 -0.67519039776E+03  0.16611222586E+04  0.15177104746E+04 0.  0.
        2    1    3    3  502    0 -0.65691336006E+03 -0.37734699204E+03 -0.38574484667E+03  0.85013234367E+03  0.25500000920E-02 0.  1.
       -2    1    3    3    0  502  0.65691336006E+03  0.37734699204E+03 -0.28944555109E+03  0.81098991491E+03  0.25500000920E-02 0. -1.
</event>
<event>
 5   0  0.1993623E-03  0.1505829E+04  0.7818609E-02  0.8880586E-01
       -2   -1    0    0    0  501  0.00000000000E+00  0.00000000000E+00  0.27158516324E+03  0.27158516325E+03  0.25500000920E-02 0. -1.
        2   -1    0    0  501    0  0.00000000000E+00  0.00000000000E+00 -0.20873030742E+04  0.20873030742E+04  0.25500000920E-02 0.  1.
    10030    2    1    2    0    0  0.00000000000E+00  0.00000000000E+00 -0.18157179110E+04  0.23588882375E+04  0.15058294009E+04 0.  0.
        4    1    3    3  502    0  0.50448261142E+03  0.16180420272E+03 -0.17458957558E+04  0.18245100460E+04  0.12699999809E+01 0.  1.
       -4    1    3    3    0  502 -0.50448261142E+03 -0.16180420272E+03 -0.69822155249E+02  0.53437819146E+03  0.12699999809E+01 0. -1.
</event>
<event>
 5   0  0.1993623E-03  0.1643238E+04  0.7818609E-02  0.8794417E-01
       -2   -1    0    0    0  501  0.00000000000E+00  0.00000000000E+00  0.31098478627E+03  0.31098478628E+03  0.25500000920E-02 0.  1.
        2   -1    0    0  501    0  0.00000000000E+00  0.00000000000E+00 -0.21707107629E+04  0.21707107629E+04  0.25500000920E-02 0. -1.
    10030    2    1    2    0    0  0.00000000000E+00  0.00000000000E+00 -0.18597259766E+04  0.24816955492E+04  0.16432382939E+04 0.  0.
        4    1    3    3  502    0 -0.70396524975E+03  0.39545241125E+03 -0.70029190976E+03  0.10688124504E+04  0.12699999809E+01 0.  1.
       -4    1    3    3    0  502  0.70396524975E+03 -0.39545241125E+03 -0.11594340669E+04  0.14128830987E+04  0.12699999809E+01 0. -1.
</event>
<event>
 5   0  0.1078018E-03  0.1465250E+04  0.7818609E-02  0.8907896E-01
       -1   -1    0    0    0  501  0.00000000000E+00  0.00000000000E+00  0.29152000004E+03  0.29152000009E+03  0.50400001928E-02 0.  1.
        1   -1    0    0  501    0  0.00000000000E+00  0.00000000000E+00 -0.18411755663E+04  0.18411755663E+04  0.50400001928E-02 0. -1.
    10030    2    1    2    0    0  0.00000000000E+00  0.00000000000E+00 -0.15496555663E+04  0.21326955664E+04  0.14652501510E+04 0.  0.
        4    1    3    3  502    0 -0.51227276524E+03  0.24929509353E+03 -0.10439467183E+03  0.57919883466E+03  0.12699999809E+01 0.  1.
       -4    1    3    3    0  502  0.51227276524E+03 -0.24929509353E+03 -0.14452608944E+04  0.15534967317E+04  0.12699999809E+01 0. -1.
</event>
<event>
 5   0  0.1078787E-03  0.1500713E+04  0.7818609E-02  0.8883979E-01
       -1   -1    0    0    0  501  0.00000000000E+00  0.00000000000E+00  0.33360165999E+03  0.33360166003E+03  0.50400001928E-02 0. -1.
        1   -1    0    0  501    0  0.00000000000E+00  0.00000000000E+00 -0.16877460976E+04  0.16877460976E+04  0.50400001928E-02 0.  1.
    10030    2    1    2    0    0  0.00000000000E+00  0.00000000000E+00 -0.13541444376E+04  0.20213477576E+04  0.15007130303E+04 0.  0.
        5    1    3    3  502    0 -0.26232562719E+03  0.23424428187E+03 -0.15698382816E+04  0.16087571099E+04  0.46999998093E+01 0.  1.
       -5    1    3    3    0  502  0.26232562719E+03 -0.23424428187E+03  0.21569384399E+03  0.41259064774E+03  0.46999998093E+01 0. -1.
</event>
<event>
 5   0  0.1077140E-03  0.1483561E+04  0.7818609E-02  0.8895459E-01
       -1   -1    0    0    0  501  0.00000000000E+00  0.00000000000E+00  0.13992068027E+04  0.13992068027E+04  0.50400001928E-02 0. -1.
        1   -1    0    0  501    0  0.00000000000E+00  0.00000000000E+00 -0.39325001170E+03  0.39325001173E+03  0.50400001928E-02 0.  1.
    10030    2    1    2    0    0  0.00000000000E+00  0.00000000000E+00  0.10059567910E+04  0.17924568144E+04  0.14835607053E+04 0.  0.
        1    1    3    3  502    0 -0.36802301282E+03 -0.12585530587E+02 -0.27501932899E+03  0.45960305143E+03  0.50400001928E-02 0.  1.
       -1    1    3    3    0  502  0.36802301282E+03  0.12585530587E+02  0.12809761200E+04  0.13328537630E+04  0.50400001928E-02 0. -1.
</event>
<event>
 5   0  0.1078018E-03  0.1429626E+04  0.7818609E-02  0.8932648E-01
       -1   -1    0    0    0  501  0.00000000000E+00  0.00000000000E+00  0.10461903634E+04  0.10461903634E+04  0.50400001928E-02 0.  1.
        1   -1    0    0  501    0  0.00000000000E+00  0.00000000000E+00 -0.48839846029E+03  0.48839846032E+03  0.50400001928E-02 0. -1.
    10030    2    1    2    0    0  0.00000000000E+00  0.00000000000E+00  0.55779190310E+03  0.15345888237E+04  0.14296261927E+04 0.  0.
        4    1    3    3  502    0 -0.16560742811E+02 -0.48771254312E+03  0.83956468406E+03  0.97108612107E+03  0.12699999809E+01 0.  1.
       -4    1    3    3    0  502  0.16560742811E+02  0.48771254312E+03 -0.28177278095E+03  0.56350270266E+03  0.12699999809E+01 0. -1.
</event>
<event>
 5   0  0.1077140E-03  0.1527201E+04  0.7818609E-02  0.8866563E-01
       -1   -1    0    0    0  501  0.00000000000E+00  0.00000000000E+00  0.66506027476E+03  0.66506027478E+03  0.50400001928E-02 0.  1.
        1   -1    0    0  501    0  0.00000000000E+00  0.00000000000E+00 -0.87674102106E+03  0.87674102107E+03  0.50400001928E-02 0. -1.
    10030    2    1    2    0    0  0.00000000000E+00  0.00000000000E+00 -0.21168074630E+03  0.15418012959E+04  0.15272008701E+04 0.  0.
        1    1    3    3  502    0 -0.68205648403E+03  0.83631077953E+02 -0.44202608932E+03  0.81705707774E+03  0.50400001928E-02 0. -1.
       -1    1    3    3    0  502  0.68205648403E+03 -0.83631077953E+02  0.23034534303E+03  0.72474421812E+03  0.50400001928E-02 0.  1.
</event>
<event>
 5   0  0.1961098E-03  0.1484955E+04  0.7818609E-02  0.8894520E-01
        2   -1    0    0  501    0  0.00000000000E+00  0.00000000000E+00  0.12011877381E+04  0.12011877381E+04  0.25500000920E-02 0. -1.
       -2   -1    0    0    0  501  0.00000000000E+00  0.00000000000E+00 -0.45893977368E+03  0.45893977368E+03  0.25500000920E-02 0.  1.
    10030    2    1    2    0    0  0.00000000000E+00  0.00000000000E+00  0.74224796438E+03  0.16601275117E+04  0.14849549874E+04 0.  0.
        2    1    3    3  502    0  0.24405547617E+02 -0.15137687435E+01  0.12007374635E+04  0.12009864190E+04  0.25500000920E-02 0. -1.
       -2    1    3    3    0  502 -0.24405547617E+02  0.15137687435E+01 -0.45848949913E+03  0.45914109277E+03  0.25500000920E-02 0.  1.
</event>
<event>
 5   0  0.1078018E-03  0.1451661E+04  0.7818609E-02  0.8917250E-01
        1   -1    0    0  501    0  0.00000000000E+00  0.00000000000E+00  0.84630680292E+03  0.84630680294E+03  0.50400001928E-02 0. -1.
       -1   -1    0    0    0  501  0.00000000000E+00  0.00000000000E+00 -0.62250452708E+03  0.62250452710E+03  0.50400001928E-02 0.  1.
    10030    2    1    2    0    0  0.00000000000E+00  0.00000000000E+00  0.22380227584E+03  0.14688113300E+04  0.14516608642E+04 0.  0.
        4    1    3    3  502    0  0.28439974016E+03 -0.17275420379E+03  0.76458099913E+03  0.83385427040E+03  0.12699999809E+01 0. -1.
       -4    1    3    3    0  502 -0.28439974016E+03  0.17275420379E+03 -0.54077872329E+03  0.63495705964E+03  0.12699999809E+01 0.  1.
</event>
<event>
 5   0  0.1961098E-03  0.1492031E+04  0.7818609E-02  0.8889770E-01
       -2   -1    0    0    0  501  0.00000000000E+00  0.00000000000E+00  0.28145259310E+03  0.28145259311E+03  0.25500000920E-02 0.  1.
        2   -1    0    0  501    0  0.00000000000E+00  0.00000000000E+00 -0.19773804933E+04  0.19773804933E+04  0.25500000920E-02 0. -1.
    10030    2    1    2    0    0  0.00000000000E+00  0.00000000000E+00 -0.16959279002E+04  0.22588330865E+04  0.14920306531E+04 0.  0.
        2    1    3    3  502    0 -0.29838010104E+03 -0.56166767969E+03 -0.25765156103E+03  0.68621104189E+03  0.25500000920E-02 0.  1.
       -2    1    3    3    0  502  0.29838010104E+03  0.56166767969E+03 -0.14382763392E+04  0.15726220446E+04  0.25500000920E-02 0. -1.
</event>
<event>
 5   0  0.1077140E-03  0.1502261E+04  0.7818609E-02  0.8882951E-01
       -1   -1    0    0    0  501  0.00000000000E+00  0.00000000000E+00  0.38977247952E+03  0.38977247956E+03  0.50400001928E-02 0.  1.
        1   -1    0    0  501    0  0.00000000000E+00  0.00000000000E+00 -0.14475041975E+04  0.14475041975E+04  0.50400001928E-02 0. -1.
    10030    2    1    2    0    0  0.00000000000E+00  0.00000000000E+00 -0.10577317179E+04  0.18372766770E+04  0.15022613623E+04 0.  0.
        1    1    3    3  502    0 -0.18506399970E+03  0.24478713084E+03  0.30961059753E+03  0.43592217830E+03  0.50400001928E-02 0.  1.
       -1    1    3    3    0  502  0.18506399970E+03 -0.24478713084E+03 -0.13673423155E+04  0.14013544987E+04  0.50400001928E-02 0. -1.
</event>
<event>
 5   0  0.1087761E-03  0.1471285E+04  0.7818609E-02  0.8903776E-01
        1   -1    0    0  501    0  0.00000000000E+00  0.00000000000E+00  0.50578500159E+03  0.50578500162E+03  0.50400001928E-02 0.  1.
       -1   -1    0    0    0  501  0.00000000000E+00  0.00000000000E+00 -0.10699604801E+04  0.10699604801E+04  0.50400001928E-02 0. -1.
    10030    2    1    2    0    0  0.00000000000E+00  0.00000000000E+00 -0.56417547850E+03  0.15757454817E+04  0.14712851024E+04 0.  0.
        3    1    3    3  502    0  0.47823676612E+03  0.23236749414E+03 -0.82657787527E+03  0.98282045709E+03  0.10100000352E+00 0. -1.
       -3    1    3    3    0  502 -0.47823676612E+03 -0.23236749414E+03  0.26240239677E+03  0.59292502463E+03  0.10100000352E+00 0.  1.
</event>
<event>
 5   0  0.1961098E-03  0.1471821E+04  0.7818609E-02  0.8903411E-01
        2   -1    0    0  501    0  0.00000000000E+00  0.00000000000E+00  0.25305659369E+04  0.25305659369E+04  0.25500000920E-02 0.  1.
       -2   -1    0    0    0  501  0.00000000000E+00  0.00000000000E+00 -0.21400916027E+03  0.21400916029E+03  0.25500000920E-02 0. -1.
    10030    2    1    2    0    0  0.00000000000E+00  0.00000000000E+00  0.23165567767E+04  0.27445750972E+04  0.14718210369E+04 0.  0.
        2    1    3    3  502    0  0.68544598809E+03  0.21461762306E+03  0.14570303401E+04  0.16244489338E+04  0.25500000920E-02 0.  1.
       -2    1    3    3    0  502 -0.68544598809E+03 -0.21461762306E+03  0.85952643658E+03  0.11201261634E+04  0.25500000920E-02 0. -1.
</event>
<event>
 5   0  0.2150197E-03  0.8695194E+03  0.7818609E-02  0.9464507E-01
       -2   -1    0    0    0  501  0.00000000000E+00  0.00000000000E+00  0.10614063509E+03  0.10614063512E+03  0.25500000920E-02 0. -1.
        2   -1    0    0  501    0  0.00000000000E+00  0.00000000000E+00 -0.17808069326E+04  0.17808069326E+04  0.25500000920E-02 0.  1.
    10030    2    1    2    0    0  0.00000000000E+00  0.00000000000E+00 -0.16746662975E+04  0.18869475677E+04  0.86951935880E+03 0.  0.
        3    1    3    3  502    0 -0.19985750201E+03 -0.19448207719E+03 -0.15611520859E+04  0.15858632176E+04  0.10100000352E+00 0.  1.
       -3    1    3    3    0  502  0.19985750201E+03  0.19448207719E+03 -0.11351421165E+03  0.30108435015E+03  0.10100000352E+00 0. -1.
</event>
<event>
 5   0  0.2111533E-03  0.1560503E+04  0.7818609E-02  0.8845187E-01
        2   -1    0    0  501    0  0.00000000000E+00  0.00000000000E+00  0.11285269543E+04  0.11285269543E+04  0.25500000920E-02 0. -1.
       -2   -1    0    0    0  501  0.00000000000E+00  0.00000000000E+00 -0.53945744793E+03  0.53945744793E+03  0.25500000920E-02 0.  1.
    10030    2    1    2    0    0  0.00000000000E+00  0.00000000000E+00  0.58906950641E+03  0.16679844023E+04  0.15605028301E+04 0.  0.
        5    1    3    3  502    0 -0.27398149363E+03 -0.54064491843E+03 -0.23063863163E+03  0.64852066665E+03  0.46999998093E+01 0.  1.
       -5    1    3    3    0  502  0.27398149363E+03  0.54064491843E+03  0.81970813804E+03  0.10194637356E+04  0.46999998093E+01 0. -1.
</event>
<event>
 5   0  0.1078018E-03  0.1520367E+04  0.7818609E-02  0.8871021E-01
       -1   -1    0    0    0  501  0.00000000000E+00  0.00000000000E+00  0.42776723401E+03  0.42776723404E+03  0.50400001928E-02 0. -1.
        1   -1    0    0  501    0  0.00000000000E+00  0.00000000000E+00 -0.13509188150E+04  0.13509188150E+04  0.50400001928E-02 0.  1.
    10030    2    1    2    0    0  0.00000000000E+00  0.00000000000E+00 -0.92315158099E+03  0.17786860490E+04  0.15203668043E+04 0.  0.
        4    1    3    3  502    0 -0.65301595949E+03 -0.21379529450E+03 -0.81151397213E+02  0.69189987243E+03  0.12699999809E+01 0. -1.
       -4    1    3    3    0  502  0.65301595949E+03  0.21379529450E+03 -0.84200018378E+03  0.10867861766E+04  0.12699999809E+01 0.  1.
</event>
<event>
 5   0  0.1077140E-03  0.1482407E+04  0.7818609E-02  0.8896237E-01
       -1   -1    0    0    0  501  0.00000000000E+00  0.00000000000E+00  0.99652245962E+03  0.99652245963E+03  0.50400001928E-02 0.  1.
        1   -1    0    0  501    0  0.00000000000E+00  0.00000000000E+00 -0.55129991095E+03  0.55129991097E+03  0.50400001928E-02 0. -1.
    10030    2    1    2    0    0  0.00000000000E+00  0.00000000000E+00  0.44522254867E+03  0.15478223706E+04  0.14824071550E+04 0.  0.
        1    1    3    3  502    0  0.29565072249E+03  0.56019790250E+03 -0.17927848652E+03  0.65830981721E+03  0.50400001928E-02 0. -1.
       -1    1    3    3    0  502 -0.29565072249E+03 -0.56019790250E+03  0.62450103519E+03  0.88951255340E+03  0.50400001928E-02 0.  1.
</event>
<event>
 5   0  0.1078787E-03  0.1505734E+04  0.7818609E-02  0.8880649E-01
       -1   -1    0    0    0  501  0.00000000000E+00  0.00000000000E+00  0.89552058106E+03  0.89552058107E+03  0.50400001928E-02 0. -1.
        1   -1    0    0  501    0  0.00000000000E+00  0.00000000000E+00 -0.63293789332E+03  0.63293789334E+03  0.50400001928E-02 0.  1.
    10030    2    1    2    0    0  0.00000000000E+00  0.00000000000E+00  0.26258268773E+03  0.15284584744E+04  0.15057342528E+04 0.  0.
        5    1    3    3  502    0  0.40853735631E+03 -0.43233104736E+03  0.59974703608E+03  0.84470793964E+03  0.46999998093E+01 0. -1.
       -5    1    3    3    0  502 -0.40853735631E+03  0.43233104736E+03 -0.33716434834E+03  0.68375053477E+03  0.46999998093E+01 0.  1.
</event>
<event>
 5   0  0.2150197E-03  0.1503849E+04  0.7818609E-02  0.8881897E-01
        2   -1    0    0  501    0  0.00000000000E+00  0.00000000000E+00  0.41371908138E+03  0.41371908139E+03  0.25500000920E-02 0. -1.
       -2   -1    0    0    0  501  0.00000000000E+00  0.00000000000E+00 -0.13666053606E+04  0.13666053606E+04  0.25500000920E-02 0.  1.
    10030    2    1    2    0    0  0.00000000000E+00  0.00000000000E+00 -0.95288627921E+03  0.17803244420E+04  0.15038493467E+04 0.  0.
        3    1    3    3  502    0 -0.16897985565E+03 -0.70193517711E+03 -0.22776941619E+03  0.75706413310E+03  0.10100000352E+00 0. -1.
       -3    1    3    3    0  502  0.16897985565E+03  0.70193517711E+03 -0.72511686303E+03  0.10232603089E+04  0.10100000352E+00 0.  1.
</event>
<event>
 5   0  0.1961098E-03  0.1509335E+04  0.7818609E-02  0.8878269E-01
       -2   -1    0    0    0  501  0.00000000000E+00  0.00000000000E+00  0.42852615552E+03  0.42852615553E+03  0.25500000920E-02 0.  1.
        2   -1    0    0  501    0  0.00000000000E+00  0.00000000000E+00 -0.13290280017E+04  0.13290280017E+04  0.25500000920E-02 0. -1.
    10030    2    1    2    0    0  0.00000000000E+00  0.00000000000E+00 -0.90050184613E+03  0.17575541572E+04  0.15093352976E+04 0.  0.
        2    1    3    3  502    0 -0.24993901630E+03 -0.39825707809E+03 -0.11376202305E+04  0.12309581637E+04  0.25500000920E-02 0. -1.
       -2    1    3    3    0  502  0.24993901630E+03  0.39825707809E+03  0.23711838432E+03  0.52659599345E+03  0.25500000920E-02 0.  1.
</event>
<event>
 5   0  0.1069697E-03  0.1459939E+04  0.7818609E-02  0.8911539E-01
        1   -1    0    0  501    0  0.00000000000E+00  0.00000000000E+00  0.45371895835E+03  0.45371895837E+03  0.50400001928E-02 0. -1.
       -1   -1    0    0    0  501  0.00000000000E+00  0.00000000000E+00 -0.11744173186E+04  0.11744173186E+04  0.50400001928E-02 0.  1.
    10030    2    1    2    0    0  0.00000000000E+00  0.00000000000E+00 -0.72069836029E+03  0.16281362770E+04  0.14599389063E+04 0.  0.
        2    1    3    3  502    0 -0.21115143556E+02 -0.28874730280E+02  0.45274091894E+03  0.45415188982E+03  0.25500000920E-02 0. -1.
       -2    1    3    3    0  502  0.21115143556E+02  0.28874730280E+02 -0.11734392792E+04  0.11739843872E+04  0.25500000920E-02 0.  1.
</event>
<event>
 5   0  0.1069697E-03  0.1231389E+04  0.7818609E-02  0.9085817E-01
       -1   -1    0    0    0  501  0.00000000000E+00  0.00000000000E+00  0.81120490145E+03  0.81120490146E+03  0.50400001928E-02 0. -1.
        1   -1    0    0  501    0  0.00000000000E+00  0.00000000000E+00 -0.46730442974E+03  0.46730442977E+03  0.50400001928E-02 0.  1.
    10030    2    1    2    0    0  0.00000000000E+00  0.00000000000E+00  0.34390047171E+03  0.12785093312E+04  0.12313888807E+04 0.  0.
        2    1    3    3  502    0  0.46215792903E+03  0.40596875829E+03  0.14489429180E+03  0.63197700898E+03  0.25500000920E-02 0.  1.
       -2    1    3    3    0  502 -0.46215792903E+03 -0.40596875829E+03  0.19900617990E+03  0.64653232225E+03  0.25500000920E-02 0. -1.
</event>
<event>
 5   0  0.1993623E-03  0.1503856E+04  0.7818609E-02  0.8881893E-01
        2   -1    0    0  501    0  0.00000000000E+00  0.00000000000E+00  0.12207320436E+04  0.12207320436E+04  0.25500000920E-02 0. -1.
       -2   -1    0    0    0  501  0.00000000000E+00  0.00000000000E+00 -0.46316094393E+03  0.46316094394E+03  0.25500000920E-02 0.  1.
    10030    2    1    2    0    0  0.00000000000E+00  0.00000000000E+00  0.75757109968E+03  0.16838929875E+04  0.15038555856E+04 0.  0.
        4    1    3    3  502    0 -0.24694833392E+03  0.68845450248E+03  0.18342550248E+03  0.75405544190E+03  0.12699999809E+01 0.  1.
       -4    1    3    3    0  502  0.24694833392E+03 -0.68845450248E+03  0.57414559721E+03  0.92983754565E+03  0.12699999809E+01 0. -1.
</event>
<event>
 5   0  0.1087761E-03  0.1486427E+04  0.7818609E-02  0.8893529E-01
       -1   -1    0    0    0  501  0.00000000000E+00  0.00000000000E+00  0.11882523751E+04  0.11882523751E+04  0.50400001928E-02 0. -1.
        1   -1    0    0  501    0  0.00000000000E+00  0.00000000000E+00 -0.46485610599E+03  0.46485610601E+03  0.50400001928E-02 0.  1.
    10030    2    1    2    0    0  0.00000000000E+00  0.00000000000E+00  0.72339626907E+03  0.16531084811E+04  0.14864270881E+04 0.  0.
        3    1    3    3  502    0 -0.22123593208E+02  0.43714661102E+02  0.11864544288E+04  0.11874655981E+04  0.10100000352E+00 0. -1.
       -3    1    3    3    0  502  0.22123593208E+02 -0.43714661102E+02 -0.46305815971E+03  0.46564288295E+03  0.10100000352E+00 0.  1.
</event>
<event>
 5   0  0.2094566E-03  0.1500633E+04  0.7818609E-02  0.8884032E-01
        2   -1    0    0  501    0  0.00000000000E+00  0.00000000000E+00  0.91243713108E+03  0.91243713108E+03  0.25500000920E-02 0. -1.
       -2   -1    0    0    0  501  0.00000000000E+00  0.00000000000E+00 -0.61700144290E+03  0.61700144291E+03  0.25500000920E-02 0.  1.
    10030    2    1    2    0    0  0.00000000000E+00  0.00000000000E+00  0.29543568818E+03  0.15294385740E+04  0.15006332349E+04 0.  0.
        1    1    3    3  502    0 -0.31980268917E+03 -0.25151518925E+01  0.83949178797E+03  0.89834656347E+03  0.50400001928E-02 0. -1.
       -1    1    3    3    0  502  0.31980268917E+03  0.25151518925E+01 -0.54405609980E+03  0.63109201052E+03  0.50400001928E-02 0.  1.
</event>
<event>
 5   0  0.1069697E-03  0.1360050E+04  0.7818609E-02  0.8983255E-01
       -1   -1    0    0    0  501  0.00000000000E+00  0.00000000000E+00  0.41255683522E+03  0.41255683526E+03  0.50400001928E-02 0. -1.
        1   -1    0    0  501    0  0.00000000000E+00  0.00000000000E+00 -0.11208976727E+04  0.11208976727E+04  0.50400001928E-02 0.  1.
    10030    2    1    2    0    0  0.00000000000E+00  0.00000000000E+00 -0.70834083747E+03  0.15334545080E+04  0.13600499939E+04 0.  0.
        2    1    3    3  502    0  0.28702331481E+03 -0.39482679948E+03 -0.88799477815E+03  0.10133140238E+04  0.25500000920E-02 0.  1.
       -2    1    3    3    0  502 -0.28702331481E+03  0.39482679948E+03  0.17965394068E+03  0.52014048414E+03  0.25500000920E-02 0. -1.
</event>
<event>
 5   0  0.1078018E-03  0.1397019E+04  0.7818609E-02  0.8955979E-01
        1   -1    0    0  501    0  0.00000000000E+00  0.00000000000E+00  0.12840054180E+04  0.12840054180E+04  0.50400001928E-02 0.  1.
       -1   -1    0    0    0  501  0.00000000000E+00  0.00000000000E+00 -0.37999477798E+03  0.37999477801E+03  0.50400001928E-02 0. -1.
    10030    2    1    2    0    0  0.00000000000E+00  0.00000000000E+00  0.90401064004E+03  0.16640001960E+04  0.13970187598E+04 0.  0.
        4    1    3    3  502    0 -0.11625577792E+02 -0.15017440081E+03 -0.36041959629E+03  0.39062949582E+03  0.12699999809E+01 0. -1.
       -4    1    3    3    0  502  0.11625577792E+02  0.15017440081E+03  0.12644302363E+04  0.12733707002E+04  0.12699999809E+01 0.  1.
</event>
<event>
 5   0  0.1993623E-03  0.1514113E+04  0.7818609E-02  0.8875122E-01
       -2   -1    0    0    0  501  0.00000000000E+00  0.00000000000E+00  0.32059829460E+03  0.32059829461E+03  0.25500000920E-02 0.  1.
        2   -1    0    0  501    0  0.00000000000E+00  0.00000000000E+00 -0.17877031094E+04  0.17877031094E+04  0.25500000920E-02 0. -1.
    10030    2    1    2    0    0  0.00000000000E+00  0.00000000000E+00 -0.14671048148E+04  0.21083014040E+04  0.15141130316E+04 0.  0.
        4    1    3    3  502    0  0.54973633619E+03  0.20119810829E+03 -0.14019816512E+04  0.15192909139E+04  0.12699999809E+01 0. -1.
       -4    1    3    3    0  502 -0.54973633619E+03 -0.20119810829E+03 -0.65123163685E+02  0.58901049011E+03  0.12699999809E+01 0.  1.
</event>
<event>
 5   0  0.1961098E-03  0.1482775E+04  0.7818609E-02  0.8895989E-01
        2   -1    0    0  501    0  0.00000000000E+00  0.00000000000E+00  0.10496791915E+04  0.10496791915E+04  0.25500000920E-02 0.  1.
       -2   -1    0    0    0  501  0.00000000000E+00  0.00000000000E+00 -0.52364113622E+03  0.52364113622E+03  0.25500000920E-02 0. -1.
    10030    2    1    2    0    0  0.00000000000E+00  0.00000000000E+00  0.52603805533E+03  0.15733203278E+04  0.14827747024E+04 0.  0.
        2    1    3    3  502    0  0.57413344465E+03 -0.11034610112E+03 -0.22072622784E+03  0.62492042851E+03  0.25500000920E-02 0. -1.
       -2    1    3    3    0  502 -0.57413344465E+03  0.11034610112E+03  0.74676428317E+03  0.94839989926E+03  0.25500000920E-02 0.  1.
</event>
<event>
 5   0  0.1078787E-03  0.1646507E+04  0.7818609E-02  0.8792476E-01
        1   -1    0    0  501    0  0.00000000000E+00  0.00000000000E+00  0.11408480954E+04  0.11408480954E+04  0.50400001928E-02 0.  1.
       -1   -1    0    0    0  501  0.00000000000E+00  0.00000000000E+00 -0.59407208939E+03  0.59407208941E+03  0.50400001928E-02 0. -1.
    10030    2    1    2    0    0  0.00000000000E+00  0.00000000000E+00  0.54677600597E+03  0.17349201848E+04  0.16465066191E+04 0.  0.
        5    1    3    3  502    0 -0.16421296862E+03 -0.16135113880E+03  0.11062250890E+04  0.11299363374E+04  0.46999998093E+01 0.  1.
       -5    1    3    3    0  502  0.16421296862E+03  0.16135113880E+03 -0.55944908304E+03  0.60498384736E+03  0.46999998093E+01 0. -1.
</event>
<event>
 5   0  0.2111533E-03  0.1515620E+04  0.7818609E-02  0.8874131E-01
       -2   -1    0    0    0  501  0.00000000000E+00  0.00000000000E+00  0.40669160418E+03  0.40669160419E+03  0.25500000920E-02 0. -1.
        2   -1    0    0  501    0  0.00000000000E+00  0.00000000000E+00 -0.14120684224E+04  0.14120684224E+04  0.25500000920E-02 0.  1.
    10030    2    1    2    0    0  0.00000000000E+00  0.00000000000E+00 -0.10053768183E+04  0.18187600266E+04  0.15156204960E+04 0.  0.
        5    1    3    3  502    0  0.20189538977E+03 -0.40370512760E+03  0.22775681600E+03  0.50560343718E+03  0.46999998093E+01 0. -1.
       -5    1    3    3    0  502 -0.20189538977E+03  0.40370512760E+03 -0.12331336343E+04  0.13131565894E+04  0.46999998093E+01 0.  1.
</event>
<event>
 5   0  0.1961098E-03  0.2114888E+04  0.7818609E-02  0.8554713E-01
        2   -1    0    0  501    0  0.00000000000E+00  0.00000000000E+00  0.10211154559E+04  0.10211154559E+04  0.25500000920E-02 0.  1.
       -2   -1    0    0    0  501  0.00000000000E+00  0.00000000000E+00 -0.10950651606E+04  0.10950651606E+04  0.25500000920E-02 0. -1.
    10030    2    1    2    0    0  0.00000000000E+00  0.00000000000E+00 -0.73949704705E+02  0.21161806165E+04  0.21148881395E+04 0.  0.
        2    1    3    3  502    0 -0.12103215826E+03  0.10078075499E+04 -0.33357314065E+03  0.10684549036E+04  0.25500000920E-02 0. -1.
       -2    1    3    3    0  502  0.12103215826E+03 -0.10078075499E+04  0.25962343595E+03  0.10477257129E+04  0.25500000920E-02 0.  1.
</event>
<event>
 5   0  0.1069697E-03  0.1435036E+04  0.7818609E-02  0.8928841E-01
        1   -1    0    0  501    0  0.00000000000E+00  0.00000000000E+00  0.50576659095E+03  0.50576659098E+03  0.50400001928E-02 0. -1.
       -1   -1    0    0    0  501  0.00000000000E+00  0.00000000000E+00 -0.10179236221E+04  0.10179236221E+04  0.50400001928E-02 0.  1.
    10030    2    1    2    0    0  0.00000000000E+00  0.00000000000E+00 -0.51215703118E+03  0.15236902131E+04  0.14350355539E+04 0.  0.
        2    1    3    3  502    0 -0.66967152754E+02 -0.39927674922E+03  0.37290797624E+03  0.55042427342E+03  0.25500000920E-02 0. -1.
       -2    1    3    3    0  502  0.66967152754E+02  0.39927674922E+03 -0.88506500743E+03  0.97326593971E+03  0.25500000920E-02 0.  1.
</event>
<event>
 5   0  0.1087761E-03  0.1475083E+04  0.7818609E-02  0.8901193E-01
       -1   -1    0    0    0  501  0.00000000000E+00  0.00000000000E+00  0.54259988583E+03  0.54259988585E+03  0.50400001928E-02 0. -1.
        1   -1    0    0  501    0  0.00000000000E+00  0.00000000000E+00 -0.10025209591E+04  0.10025209592E+04  0.50400001928E-02 0.  1.
    10030    2    1    2    0    0  0.00000000000E+00  0.00000000000E+00 -0.45992107331E+03  0.15451208450E+04  0.14750833983E+04 0.  0.
        3    1    3    3  502    0 -0.53065141400E+03  0.51197591371E+03 -0.24676887193E+03  0.77756359596E+03  0.10100000352E+00 0. -1.
       -3    1    3    3    0  502  0.53065141400E+03 -0.51197591371E+03 -0.21315220139E+03  0.76755724904E+03  0.10100000352E+00 0.  1.
</event>
<event>
 5   0  0.2094566E-03  0.1514124E+04  0.7818609E-02  0.8875115E-01
       -2   -1    0    0    0  501  0.00000000000E+00  0.00000000000E+00  0.29768579198E+03  0.29768579199E+03  0.25500000920E-02 0. -1.
        2   -1    0    0  501    0  0.00000000000E+00  0.00000000000E+00 -0.19253280447E+04  0.19253280447E+04  0.25500000920E-02 0.  1.
    10030    2    1    2    0    0  0.00000000000E+00  0.00000000000E+00 -0.16276422527E+04  0.22230138367E+04  0.15141239102E+04 0.  0.
        1    1    3    3  502    0  0.58566031160E+03  0.40195547454E+03 -0.42934558075E+03  0.83000230833E+03  0.50400001928E-02 0. -1.
       -1    1    3    3    0  502 -0.58566031160E+03 -0.40195547454E+03 -0.11982966720E+04  0.13930115284E+04  0.50400001928E-02 0.  1.
</event>
<event>
 5   0  0.1087761E-03  0.1476659E+04  0.7818609E-02  0.8900124E-01
       -1   -1    0    0    0  501  0.00000000000E+00  0.00000000000E+00  0.38206478662E+03  0.38206478665E+03  0.50400001928E-02 0.  1.
        1   -1    0    0  501    0  0.00000000000E+00  0.00000000000E+00 -0.14268017212E+04  0.14268017212E+04  0.50400001928E-02 0. -1.
    10030    2    1    2    0    0  0.00000000000E+00  0.00000000000E+00 -0.10447369345E+04  0.18088665078E+04  0.14766593313E+04 0.  0.
        3    1    3    3  502    0  0.21905331217E+03  0.38786749991E+03 -0.12436525359E+04  0.13210212683E+04  0.10100000352E+00 0. -1.
       -3    1    3    3    0  502 -0.21905331217E+03 -0.38786749991E+03  0.19891560135E+03  0.48784523952E+03  0.10100000352E+00 0.  1.
</event>
<event>
 5   0  0.1961098E-03  0.1497027E+04  0.7818609E-02  0.8886432E-01
       -2   -1    0    0    0  501  0.00000000000E+00  0.00000000000E+00  0.56592094451E+03  0.56592094452E+03  0.25500000920E-02 0. -1.
        2   -1    0    0  501    0  0.00000000000E+00  0.00000000000E+00 -0.99001955243E+03  0.99001955243E+03  0.25500000920E-02 0.  1.
    10030    2    1    2    0    0  0.00000000000E+00  0.00000000000E+00 -0.42409860792E+03  0.15559404969E+04  0.14970274549E+04 0.  0.
        2    1    3    3  502    0 -0.69620312113E+03 -0.83524627573E+02  0.60169324268E+02  0.70377233312E+03  0.25500000920E-02 0. -1.
       -2    1    3    3    0  502  0.69620312113E+03  0.83524627573E+02 -0.48426793219E+03  0.85216816382E+03  0.25500000920E-02 0.  1.
</event>
<event>
 5   0  0.2150197E-03  0.1561326E+04  0.7818609E-02  0.8844665E-01
        2   -1    0    0  501    0  0.00000000000E+00  0.00000000000E+00  0.10778435756E+04  0.10778435756E+04  0.25500000920E-02 0. -1.
       -2   -1    0    0    0  501  0.00000000000E+00  0.00000000000E+00 -0.56542060652E+03  0.56542060653E+03  0.25500000920E-02 0.  1.
    10030    2    1    2    0    0  0.00000000000E+00  0.00000000000E+00  0.51242296909E+03  0.16432641821E+04  0.15613263186E+04 0.  0.
        3    1    3    3  502    0 -0.25166175529E+03  0.45514501722E+03 -0.35653086390E+03  0.63055919063E+03  0.10100000352E+00 0.  1.
       -3    1    3    3    0  502  0.25166175529E+03 -0.45514501722E+03  0.86895383298E+03  0.10127049915E+04  0.10100000352E+00 0. -1.
</event>
<event>
 5   0  0.2094566E-03  0.1509390E+04  0.7818609E-02  0.8878233E-01
        2   -1    0    0  501    0  0.00000000000E+00  0.00000000000E+00  0.14061443181E+04  0.14061443181E+04  0.25500000920E-02 0.  1.
       -2   -1    0    0    0  501  0.00000000000E+00  0.00000000000E+00 -0.40505392693E+03  0.40505392693E+03  0.25500000920E-02 0. -1.
    10030    2    1    2    0    0  0.00000000000E+00  0.00000000000E+00  0.10010903911E+04  0.18111982450E+04  0.15093896487E+04 0.  0.
        1    1    3    3  502    0  0.35712627171E+03  0.23097257154E+03  0.12486439243E+04  0.13190902746E+04  0.50400001928E-02 0.  1.
       -1    1    3    3    0  502 -0.35712627171E+03 -0.23097257154E+03 -0.24755353317E+03  0.49210797043E+03  0.50400001928E-02 0. -1.
</event>
<event>
 5   0  0.2111533E-03  0.1490490E+04  0.7818609E-02  0.8890802E-01
        2   -1    0    0  501    0  0.00000000000E+00  0.00000000000E+00  0.15847093026E+04  0.15847093026E+04  0.25500000920E-02 0. -1.
       -2   -1    0    0    0  501  0.00000000000E+00  0.00000000000E+00 -0.35046806441E+03  0.35046806442E+03  0.25500000920E-02 0.  1.
    10030    2    1    2    0    0  0.00000000000E+00  0.00000000000E+00  0.12342412382E+04  0.19351773670E+04  0.14904898550E+04 0.  0.
        5    1    3    3  502    0  0.22047661207E+03  0.32119635941E+03 -0.20770552959E+03  0.44152091092E+03  0.46999998093E+01 0.  1.
       -5    1    3    3    0  502 -0.22047661207E+03 -0.32119635941E+03  0.14419467678E+04  0.14936564561E+04  0.46999998093E+01 0. -1.
</event>
<event>
 5   0  0.1078018E-03  0.1529691E+04  0.7818609E-02  0.8864945E-01
        1   -1    0    0  501    0  0.00000000000E+00  0.00000000000E+00  0.53380026849E+03  0.53380026851E+03  0.50400001928E-02 0.  1.
       -1   -1    0    0    0  501  0.00000000000E+00  0.00000000000E+00 -0.10958948654E+04  0.10958948655E+04  0.50400001928E-02 0. -1.
    10030    2    1    2    0    0  0.00000000000E+00  0.00000000000E+00 -0.56209459696E+03  0.16296951340E+04  0.15296914374E+04 0.  0.
        4    1    3    3  502    0  0.70276378634E+03  0.29368936234E+03 -0.20679914246E+03  0.78923879730E+03  0.12699999809E+01 0. -1.
       -4    1    3    3    0  502 -0.70276378634E+03 -0.29368936234E+03 -0.35529545450E+03  0.84045633666E+03  0.12699999809E+01 0.  1.
</event>
<event>
 5   0  0.1078787E-03  0.1421982E+04  0.7818609E-02  0.8938059E-01
       -1   -1    0    0    0  501  0.00000000000E+00  0.00000000000E+00  0.41033921140E+03  0.41033921143E+03  0.50400001928E-02 0.  1.
        1   -1    0    0  501    0  0.00000000000E+00  0.00000000000E+00 -0.12319272378E+04  0.12319272378E+04  0.50400001928E-02 0. -1.
    10030    2    1    2    0    0  0.00000000000E+00  0.00000000000E+00 -0.82158802641E+03  0.16422664492E+04  0.14219817879E+04 0.  0.
        5    1    3    3  502    0 -0.68087562041E+03 -0.27868699519E+02 -0.17660639945E+03  0.70397456289E+03  0.46999998093E+01 0. -1.
       -5    1    3    3    0  502  0.68087562041E+03  0.27868699519E+02 -0.64498162697E+03  0.93829188636E+03  0.46999998093E+01 0.  1.
</event>
<event>
 5   0  0.1993623E-03  0.1487485E+04  0.7818609E-02  0.8892818E-01
        2   -1    0    0  501    0  0.00000000000E+00  0.00000000000E+00  0.17085406160E+04  0.17085406160E+04  0.25500000920E-02 0. -1.
       -2   -1    0    0    0  501  0.00000000000E+00  0.00000000000E+00 -0.32375734255E+03  0.32375734256E+03  0.25500000920E-02 0.  1.
    10030    2    1    2    0    0  0.00000000000E+00  0.00000000000E+00  0.13847832734E+04  0.20322979585E+04  0.14874845471E+04 0.  0.
        4    1    3    3  502    0 -0.34815676376E+03  0.34884058945E+03 -0.68616781192E+02  0.49760703829E+03  0.12699999809E+01 0.  1.
       -4    1    3    3    0  502  0.34815676376E+03 -0.34884058945E+03  0.14534000546E+04  0.15346909202E+04  0.12699999809E+01 0. -1.
</event>
<event>
 5   0  0.1078018E-03  0.1476205E+04  0.7818609E-02  0.8900433E-01
        1   -1    0    0  501    0  0.00000000000E+00  0.00000000000E+00  0.12834275415E+04  0.12834275415E+04  0.50400001928E-02 0. -1.
       -1   -1    0    0    0  501  0.00000000000E+00  0.00000000000E+00 -0.42448446055E+03  0.42448446058E+03  0.50400001928E-02 0.  1.
    10030    2    1    2    0    0  0.00000000000E+00  0.00000000000E+00  0.85894308094E+03  0.17079120021E+04  0.14762046574E+04 0.  0.
        4    1    3    3  502    0 -0.10811053485E+03 -0.31664693705E+03  0.11906434385E+04  0.12367645617E+04  0.12699999809E+01 0. -1.
       -4    1    3    3    0  502  0.10811053485E+03  0.31664693705E+03 -0.33170035756E+03  0.47114744040E+03  0.12699999809E+01 0.  1.
</event>
<event>
 5   0  0.1087761E-03  0.1490407E+04  0.7818609E-02  0.8890857E-01
        1   -1    0    0  501    0  0.00000000000E+00  0.00000000000E+00  0.11122114362E+04  0.11122114362E+04  0.50400001928E-02 0.  1.
       -1   -1    0    0    0  501  0.00000000000E+00  0.00000000000E+00 -0.49930104212E+03  0.49930104215E+03  0.50400001928E-02 0. -1.
    10030    2    1    2    0    0  0.00000000000E+00  0.00000000000E+00  0.61291039411E+03  0.16115124784E+04  0.14904070977E+04 0.  0.
        3    1    3    3  502    0 -0.46652439737E+03 -0.55771682379E+03  0.48291961675E+03  0.87287137387E+03  0.10100000352E+00 0.  1.
       -3    1    3    3    0  502  0.46652439737E+03  0.55771682379E+03  0.12999077736E+03  0.73864110452E+03  0.10100000352E+00 0. -1.
</event>
<event>
 5   0  0.2094566E-03  0.1496243E+04  0.7818609E-02  0.8886955E-01
        2   -1    0    0  501    0  0.00000000000E+00  0.00000000000E+00  0.10176984504E+04  0.10176984504E+04  0.25500000920E-02 0.  1.
       -2   -1    0    0    0  501  0.00000000000E+00  0.00000000000E+00 -0.54995238046E+03  0.54995238046E+03  0.25500000920E-02 0. -1.
    10030    2    1    2    0    0  0.00000000000E+00  0.00000000000E+00  0.46774606992E+03  0.15676508308E+04  0.14962428752E+04 0.  0.
        1    1    3    3  502    0 -0.22988102609E+03 -0.52131694768E+03 -0.27410502809E+03  0.63225802687E+03  0.50400001928E-02 0. -1.
       -1    1    3    3    0  502  0.22988102609E+03  0.52131694768E+03  0.74185109801E+03  0.93539280398E+03  0.50400001928E-02 0.  1.
</event>
<event>
 5   0  0.1078787E-03  0.1478230E+04  0.7818609E-02  0.8899060E-01
       -1   -1    0    0    0  501  0.00000000000E+00  0.00000000000E+00  0.34403405036E+03  0.34403405040E+03  0.50400001928E-02 0.  1.
        1   -1    0    0  501    0  0.00000000000E+00  0.00000000000E+00 -0.15878978809E+04  0.15878978809E+04  0.50400001928E-02 0. -1.
    10030    2    1    2    0    0  0.00000000000E+00  0.00000000000E+00 -0.12438638305E+04  0.19319319313E+04  0.14782299409E+04 0.  0.
        5    1    3    3  502    0 -0.13554799411E+03  0.20563657909E+03  0.28880569936E+03  0.37959252278E+03  0.46999998093E+01 0.  1.
       -5    1    3    3    0  502  0.13554799411E+03 -0.20563657909E+03 -0.15326695299E+04  0.15523394085E+04  0.46999998093E+01 0. -1.
</event>
<event>
 5   0  0.1993623E-03  0.1516802E+04  0.7818609E-02  0.8873356E-01
        2   -1    0    0  501    0  0.00000000000E+00  0.00000000000E+00  0.73192216952E+03  0.73192216952E+03  0.25500000920E-02 0. -1.
       -2   -1    0    0    0  501  0.00000000000E+00  0.00000000000E+00 -0.78583737742E+03  0.78583737743E+03  0.25500000920E-02 0.  1.
    10030    2    1    2    0    0  0.00000000000E+00  0.00000000000E+00 -0.53915207908E+02  0.15177595469E+04  0.15168016326E+04 0.  0.
        4    1    3    3  502    0 -0.39024753419E+02  0.44612236588E+03 -0.63940793859E+03  0.78063578034E+03  0.12699999809E+01 0.  1.
       -4    1    3    3    0  502  0.39024753419E+02 -0.44612236588E+03  0.58549273068E+03  0.73712376661E+03  0.12699999809E+01 0. -1.
</event>
<event>
 5   0  0.2094566E-03  0.8927980E+03  0.7818609E-02  0.9434629E-01
       -2   -1    0    0    0  501  0.00000000000E+00  0.00000000000E+00  0.27968911532E+03  0.27968911533E+03  0.25500000920E-02 0.  1.
        2   -1    0    0  501    0  0.00000000000E+00  0.00000000000E+00 -0.71247698781E+03  0.71247698782E+03  0.25500000920E-02 0. -1.
    10030    2    1    2    0    0  0.00000000000E+00  0.00000000000E+00 -0.43278787249E+03  0.99216610315E+03  0.89279798032E+03 0.  0.
        1    1    3    3  502    0  0.41423783452E+03  0.16124458917E+03 -0.17085427347E+03  0.47621842034E+03  0.50400001928E-02 0.  1.
       -1    1    3    3    0  502 -0.41423783452E+03 -0.16124458917E+03 -0.26193359902E+03  0.51594768282E+03  0.50400001928E-02 0. -1.
</event>
<event>
 5   0  0.2150197E-03  0.1471977E+04  0.7818609E-02  0.8903305E-01
       -2   -1    0    0    0  501  0.00000000000E+00  0.00000000000E+00  0.44438733269E+03  0.44438733270E+03  0.25500000920E-02 0.  1.
        2   -1    0    0  501    0  0.00000000000E+00  0.00000000000E+00 -0.12189341461E+04  0.12189341461E+04  0.25500000920E-02 0. -1.
    10030    2    1    2    0    0  0.00000000000E+00  0.00000000000E+00 -0.77454681337E+03  0.16633214788E+04  0.14719767578E+04 0.  0.
        3    1    3    3  502    0  0.26142460168E+02  0.55475483383E+03 -0.93300502276E+03  0.10857876112E+04  0.10100000352E+00 0. -1.
       -3    1    3    3    0  502 -0.26142460168E+02 -0.55475483383E+03  0.15845820939E+03  0.57753386758E+03  0.10100000352E+00 0.  1.
</event>
<event>
 5   0  0.1961098E-03  0.1479089E+04  0.7818609E-02  0.8898479E-01
       -2   -1    0    0    0  501  0.00000000000E+00  0.00000000000E+00  0.82535569986E+03  0.82535569986E+03  0.25500000920E-02 0. -1.
        2   -1    0    0  501    0  0.00000000000E+00  0.00000000000E+00 -0.66265501602E+03  0.66265501602E+03  0.25500000920E-02 0.  1.
    10030    2    1    2    0    0  0.00000000000E+00  0.00000000000E+00  0.16270068384E+03  0.14880107159E+04  0.14790890366E+04 0.  0.
        2    1    3    3  502    0  0.15461894754E+03 -0.22338899473E+03  0.77333387067E+03  0.81966757740E+03  0.25500000920E-02 0. -1.
       -2    1    3    3    0  502 -0.15461894754E+03  0.22338899473E+03 -0.61063318682E+03  0.66834313849E+03  0.25500000920E-02 0.  1.
</event>
<event>
 5   0  0.2094566E-03  0.1339991E+04  0.7818609E-02  0.8998440E-01
        2   -1    0    0  501    0  0.00000000000E+00  0.00000000000E+00  0.12062822268E+04  0.12062822268E+04  0.25500000920E-02 0.  1.
       -2   -1    0    0    0  501  0.00000000000E+00  0.00000000000E+00 -0.37213014249E+03  0.37213014250E+03  0.25500000920E-02 0. -1.
    10030    2    1    2    0    0  0.00000000000E+00  0.00000000000E+00  0.83415208435E+03  0.15784123693E+04  0.13399910104E+04 0.  0.
        1    1    3    3  502    0  0.29322364202E+03  0.34784682475E+03 -0.16228768248E+03  0.48302671731E+03  0.50400001928E-02 0. -1.
       -1    1    3    3    0  502 -0.29322364202E+03 -0.34784682475E+03  0.99643976683E+03  0.10953856520E+04  0.50400001928E-02 0.  1.
</event>
<event>
 5   0  0.2111533E-03  0.1465157E+04  0.7818609E-02  0.8907959E-01
       -2   -1    0    0    0  501  0.00000000000E+00  0.00000000000E+00  0.31058369280E+03  0.31058369281E+03  0.25500000920E-02 0. -1.
        2   -1    0    0  501    0  0.00000000000E+00  0.00000000000E+00 -0.17279447256E+04  0.17279447256E+04  0.25500000920E-02 0.  1.
    10030    2    1    2    0    0  0.00000000000E+00  0.00000000000E+00 -0.14173610328E+04  0.20385284185E+04  0.14651572664E+04 0.  0.
        5    1    3    3  502    0  0.29973342888E+03 -0.52901495286E+03 -0.14018259672E+03  0.62399535187E+03  0.46999998093E+01 0. -1.
       -5    1    3    3    0  502 -0.29973342888E+03  0.52901495286E+03 -0.12771784361E+04  0.14145330666E+04  0.46999998093E+01 0.  1.
</event>
<event>
 5   0  0.1961098E-03  0.1504619E+04  0.7818609E-02  0.8881387E-01
       -2   -1    0    0    0  501  0.00000000000E+00  0.00000000000E+00  0.40462463609E+03  0.40462463610E+03  0.25500000920E-02 0.  1.
        2   -1    0    0  501    0  0.00000000000E+00  0.00000000000E+00 -0.13987519819E+04  0.13987519819E+04  0.25500000920E-02 0. -1.
    10030    2    1    2    0    0  0.00000000000E+00  0.00000000000E+00 -0.99412734582E+03  0.18033766180E+04  0.15046189041E+04 0.  0.
        2    1    3    3  502    0 -0.16837319652E+03  0.65953931015E+03 -0.11309782953E+03  0.69002373436E+03  0.25500000920E-02 0.  1.
       -2    1    3    3    0  502  0.16837319652E+03 -0.65953931015E+03 -0.88102951629E+03  0.11133528836E+04  0.25500000920E-02 0. -1.
</event>
<event>
 5   0  0.1087761E-03  0.1051388E+04  0.7818609E-02  0.9253912E-01
       -1   -1    0    0    0  501  0.00000000000E+00  0.00000000000E+00  0.30305944544E+03  0.30305944548E+03  0.50400001928E-02 0.  1.
        1   -1    0    0  501    0  0.00000000000E+00  0.00000000000E+00 -0.91188073183E+03  0.91188073185E+03  0.50400001928E-02 0. -1.
    10030    2    1    2    0    0  0.00000000000E+00  0.00000000000E+00 -0.60882128639E+03  0.12149401773E+04  0.10513877856E+04 0.  0.
        3    1    3    3  502    0  0.80215993264E+02  0.16447930928E+03 -0.87388652500E+03  0.89284137311E+03  0.10100000352E+00 0. -1.
       -3    1    3    3    0  502 -0.80215993264E+02 -0.16447930928E+03  0.26506523861E+03  0.32209880422E+03  0.10100000352E+00 0.  1.
</event>
<event>
 5   0  0.1077140E-03  0.1534662E+04  0.7818609E-02  0.8861724E-01
       -1   -1    0    0    0  501  0.00000000000E+00  0.00000000000E+00  0.25665195187E+03  0.25665195192E+03  0.50400001928E-02 0. -1.
        1   -1    0    0  501    0  0.00000000000E+00  0.00000000000E+00 -0.22941466564E+04  0.22941466564E+04  0.50400001928E-02 0.  1.
    10030    2    1    2    0    0  0.00000000000E+00  0.00000000000E+00 -0.20374947045E+04  0.25507986083E+04  0.15346624610E+04 0.  0.
        1    1    3    3  502    0 -0.42821012018E+03  0.14832360653E+03  0.10472801449E+02  0.45329182529E+03  0.50400001928E-02 0. -1.
       -1    1    3    3    0  502  0.42821012018E+03 -0.14832360653E+03 -0.20479675060E+04  0.20975067830E+04  0.50400001928E-02 0.  1.
</event>
<event>
 5   0  0.1961098E-03  0.1192341E+04  0.7818609E-02  0.9119587E-01
       -2   -1    0    0    0  501  0.00000000000E+00  0.00000000000E+00  0.11806567323E+04  0.11806567323E+04  0.25500000920E-02 0. -1.
        2   -1    0    0  501    0  0.00000000000E+00  0.00000000000E+00 -0.30103519899E+03  0.30103519900E+03  0.25500000920E-02 0.  1.
    10030    2    1    2    0    0  0.00000000000E+00  0.00000000000E+00  0.87962153328E+03  0.14816919313E+04  0.11923409485E+04 0.  0.
        2    1    3    3  502    0 -0.37278130542E+03  0.43077317605E+02 -0.13585441875E+03  0.39909645459E+03  0.25500000920E-02 0.  1.
       -2    1    3    3    0  502  0.37278130542E+03 -0.43077317605E+02  0.10154759520E+04  0.10825954767E+04  0.25500000920E-02 0. -1.
</event>
<event>
 5   0  0.2111533E-03  0.1553234E+04  0.7818609E-02  0.8849805E-01
       -2   -1    0    0    0  501  0.00000000000E+00  0.00000000000E+00  0.10547729113E+04  0.10547729113E+04  0.25500000920E-02 0. -1.
        2   -1    0    0  501    0  0.00000000000E+00  0.00000000000E+00 -0.57181386917E+03  0.57181386917E+03  0.25500000920E-02 0.  1.
    10030    2    1    2    0    0  0.00000000000E+00  0.00000000000E+00  0.48295904213E+03  0.16265867805E+04  0.15532337616E+04 0.  0.
        5    1    3    3  502    0 -0.25263258732E+03  0.62215780364E+03  0.65004281429E+03  0.93460221871E+03  0.46999998093E+01 0. -1.
       -5    1    3    3    0  502  0.25263258732E+03 -0.62215780364E+03 -0.16708377216E+03  0.69198456177E+03  0.46999998093E+01 0.  1.
</event>
<event>
 5   0  0.2111533E-03  0.1541116E+04  0.7818609E-02  0.8857563E-01
       -2   -1    0    0    0  501  0.00000000000E+00  0.00000000000E+00  0.27839120189E+03  0.27839120190E+03  0.25500000920E-02 0. -1.
        2   -1    0    0  501    0  0.00000000000E+00  0.00000000000E+00 -0.21328238538E+04  0.21328238538E+04  0.25500000920E-02 0.  1.
    10030    2    1    2    0    0  0.00000000000E+00  0.00000000000E+00 -0.18544326519E+04  0.24112150557E+04  0.15411156947E+04 0.  0.
        5    1    3    3  502    0  0.31290925316E+03 -0.95578230357E+01 -0.20288189163E+04  0.20528350732E+04  0.46999998093E+01 0.  1.
       -5    1    3    3    0  502 -0.31290925316E+03  0.95578230357E+01  0.17438626434E+03  0.35837998253E+03  0.46999998093E+01 0. -1.
</event>
<event>
 5   0  0.1078018E-03  0.1458835E+04  0.7818609E-02  0.8912298E-01
       -1   -1    0    0    0  501  0.00000000000E+00  0.00000000000E+00  0.25099923134E+03  0.25099923139E+03  0.50400001928E-02 0. -1.
        1   -1    0    0  501    0  0.00000000000E+00  0.00000000000E+00 -0.21197282035E+04  0.21197282035E+04  0.50400001928E-02 0.  1.
    10030    2    1    2    0    0  0.00000000000E+00  0.00000000000E+00 -0.18687289721E+04  0.23707274349E+04  0.14588353571E+04 0.  0.
        4    1    3    3  502    0 -0.18504581904E+03  0.37058795098E+03  0.41322702421E+02  0.41627702698E+03  0.12699999809E+01 0. -1.
       -4    1    3    3    0  502  0.18504581904E+03 -0.37058795098E+03 -0.19100516746E+04  0.19544504079E+04  0.12699999809E+01 0.  1.
</event>
<event>
 5   0  0.1078787E-03  0.1366098E+04  0.7818609E-02  0.8978731E-01
        1   -1    0    0  501    0  0.00000000000E+00  0.00000000000E+00  0.14600017157E+04  0.14600017157E+04  0.50400001928E-02 0.  1.
       -1   -1    0    0    0  501  0.00000000000E+00  0.00000000000E+00 -0.31955849054E+03  0.31955849058E+03  0.50400001928E-02 0. -1.
    10030    2    1    2    0    0  0.00000000000E+00  0.00000000000E+00  0.11404432252E+04  0.17795602063E+04  0.13660980119E+04 0.  0.
        5    1    3    3  502    0 -0.42005380516E+03 -0.35918754206E+03  0.10930295263E+04  0.12248250998E+04  0.46999998093E+01 0.  1.
       -5    1    3    3    0  502  0.42005380516E+03  0.35918754206E+03  0.47413698858E+02  0.55473510654E+03  0.46999998093E+01 0. -1.
</event>
<event>
 5   0  0.2094566E-03  0.1353879E+04  0.7818609E-02  0.8987897E-01
       -2   -1    0    0    0  501  0.00000000000E+00  0.00000000000E+00  0.36471201984E+03  0.36471201985E+03  0.25500000920E-02 0.  1.
        2   -1    0    0  501    0  0.00000000000E+00  0.00000000000E+00 -0.12564634731E+04  0.12564634731E+04  0.25500000920E-02 0. -1.
    10030    2    1    2    0    0  0.00000000000E+00  0.00000000000E+00 -0.89175145328E+03  0.16211754930E+04  0.13538793612E+04 0.  0.
        1    1    3    3  502    0 -0.28797601517E+03  0.32291330257E+03 -0.10692804337E+04  0.11535006858E+04  0.50400001928E-02 0. -1.
       -1    1    3    3    0  502  0.28797601517E+03 -0.32291330257E+03  0.17752898044E+03  0.46767480712E+03  0.50400001928E-02 0.  1.
</event>
<event>
 5   0  0.1993623E-03  0.1424985E+04  0.7818609E-02  0.8935929E-01
       -2   -1    0    0    0  501  0.00000000000E+00  0.00000000000E+00  0.32274572707E+03  0.32274572708E+03  0.25500000920E-02 0.  1.
        2   -1    0    0  501    0  0.00000000000E+00  0.00000000000E+00 -0.15728962444E+04  0.15728962444E+04  0.25500000920E-02 0. -1.
    10030    2    1    2    0    0  0.00000000000E+00  0.00000000000E+00 -0.12501505174E+04  0.18956419715E+04  0.14249849712E+04 0.  0.
        4    1    3    3  502    0  0.29329543913E+03 -0.10417710017E+03  0.22752366680E+03  0.38554340179E+03  0.12699999809E+01 0.  1.
       -4    1    3    3    0  502 -0.29329543913E+03  0.10417710017E+03 -0.14776741842E+04  0.15100985697E+04  0.12699999809E+01 0. -1.
</event>
<event>
 5   0  0.1961098E-03  0.1578898E+04  0.7818609E-02  0.8833618E-01
       -2   -1    0    0    0  501  0.00000000000E+00  0.00000000000E+00  0.11372121198E+04  0.11372121198E+04  0.25500000920E-02 0. -1.
        2   -1    0    0  501    0  0.00000000000E+00  0.00000000000E+00 -0.54803272973E+03  0.54803272973E+03  0.25500000920E-02 0.  1.
    10030    2    1    2    0    0  0.00000000000E+00  0.00000000000E+00  0.58917939006E+03  0.16852448495E+04  0.15788976690E+04 0.  0.
        2    1    3    3  502    0  0.46025200753E+03 -0.50322011838E+03  0.71907929249E+03  0.99102846925E+03  0.25500000920E-02 0. -1.
       -2    1    3    3    0  502 -0.46025200753E+03  0.50322011838E+03 -0.12989990243E+03  0.69421638027E+03  0.25500000920E-02 0.  1.
</event>
<event>
 5   0  0.1961098E-03  0.1503035E+04  0.7818609E-02  0.8882437E-01
       -2   -1    0    0    0  501  0.00000000000E+00  0.00000000000E+00  0.29824042896E+03  0.29824042898E+03  0.25500000920E-02 0. -1.
        2   -1    0    0  501    0  0.00000000000E+00  0.00000000000E+00 -0.18937021409E+04  0.18937021409E+04  0.25500000920E-02 0.  1.
    10030    2    1    2    0    0  0.00000000000E+00  0.00000000000E+00 -0.15954617120E+04  0.21919425699E+04  0.15030349814E+04 0.  0.
        2    1    3    3  502    0 -0.16193236523E+03  0.23825637833E+03  0.21452227693E+03  0.35917683671E+03  0.25500000920E-02 0. -1.
       -2    1    3    3    0  502  0.16193236523E+03 -0.23825637833E+03 -0.18099839889E+04  0.18327657332E+04  0.25500000920E-02 0.  1.
</event>
<event>
 5   0  0.1069697E-03  0.1461868E+04  0.7818609E-02  0.8910214E-01
       -1   -1    0    0    0  501  0.00000000000E+00  0.00000000000E+00  0.29289434194E+03  0.29289434198E+03  0.50400001928E-02 0.  1.
        1   -1    0    0  501    0  0.00000000000E+00  0.00000000000E+00 -0.18240863768E+04  0.18240863768E+04  0.50400001928E-02 0. -1.
    10030    2    1    2    0    0  0.00000000000E+00  0.00000000000E+00 -0.15311920349E+04  0.21169807188E+04  0.14618680912E+04 0.  0.
        2    1    3    3  502    0  0.67458713946E+03 -0.27741904269E+03 -0.69712753316E+03  0.10089677554E+04  0.25500000920E-02 0. -1.
       -2    1    3    3    0  502 -0.67458713946E+03  0.27741904269E+03 -0.83406450169E+03  0.11080129634E+04  0.25500000920E-02 0.  1.
</event>
<event>
 5   0  0.1087761E-03  0.1698390E+04  0.7818609E-02  0.8762283E-01
       -1   -1    0    0    0  501  0.00000000000E+00  0.00000000000E+00  0.52532790657E+03  0.52532790660E+03  0.50400001928E-02 0. -1.
        1   -1    0    0  501    0  0.00000000000E+00  0.00000000000E+00 -0.13727275713E+04  0.13727275713E+04  0.50400001928E-02 0.  1.
    10030    2    1    2    0    0  0.00000000000E+00  0.00000000000E+00 -0.84739966474E+03  0.18980554779E+04  0.16983899450E+04 0.  0.
        3    1    3    3  502    0  0.12143109619E+03  0.69162761899E+03  0.10997279666E+03  0.71076599572E+03  0.10100000352E+00 0. -1.
       -3    1    3    3    0  502 -0.12143109619E+03 -0.69162761899E+03 -0.95737246140E+03  0.11872894822E+04  0.10100000352E+00 0.  1.
</event>
<event>
 5   0  0.2111533E-03  0.1515702E+04  0.7818609E-02  0.8874078E-01
        2   -1    0    0  501    0  0.00000000000E+00  0.00000000000E+00  0.97872250077E+03  0.97872250078E+03  0.25500000920E-02 0.  1.
       -2   -1    0    0    0  501  0.00000000000E+00  0.00000000000E+00 -0.58682436304E+03  0.58682436305E+03  0.25500000920E-02 0. -1.
    10030    2    1    2    0    0  0.00000000000E+00  0.00000000000E+00  0.39189813773E+03  0.15655468638E+04  0.15157020923E+04 0.  0.
        5    1    3    3  502    0 -0.36538217664E+03 -0.62697192310E+03 -0.29679561386E+02  0.72629256758E+03  0.46999998093E+01 0. -1.
       -5    1    3    3    0  502  0.36538217664E+03  0.62697192310E+03  0.42157769912E+03  0.83925429624E+03  0.46999998093E+01 0.  1.
</event>
<event>
 5   0  0.2094566E-03  0.1447044E+04  0.7818609E-02  0.8920452E-01
        2   -1    0    0  501    0  0.00000000000E+00  0.00000000000E+00  0.94208959774E+03  0.94208959774E+03  0.25500000920E-02 0. -1.
       -2   -1    0    0    0  501  0.00000000000E+00  0.00000000000E+00 -0.55566281482E+03  0.55566281483E+03  0.25500000920E-02 0.  1.
    10030    2    1    2    0    0  0.00000000000E+00  0.00000000000E+00  0.38642678292E+03  0.14977524126E+04  0.14470441012E+04 0.  0.
        1    1    3    3  502    0  0.60080808275E+03 -0.28533790884E+03  0.48796636838E+03  0.82492378509E+03  0.50400001928E-02 0. -1.
       -1    1    3    3    0  502 -0.60080808275E+03  0.28533790884E+03 -0.10153958546E+03  0.67282862748E+03  0.50400001928E-02 0.  1.
</event>
<event>
 5   0  0.1078018E-03  0.1533343E+04  0.7818609E-02  0.8862578E-01
       -1   -1    0    0    0  501  0.00000000000E+00  0.00000000000E+00  0.57175995546E+03  0.57175995549E+03  0.50400001928E-02 0.  1.
        1   -1    0    0  501    0  0.00000000000E+00  0.00000000000E+00 -0.10280275306E+04  0.10280275306E+04  0.50400001928E-02 0. -1.
    10030    2    1    2    0    0  0.00000000000E+00  0.00000000000E+00 -0.45626757509E+03  0.15997874861E+04  0.15333427211E+04 0.  0.
        4    1    3    3  502    0  0.35731913513E+03 -0.27869300740E+03  0.41707873353E+03  0.61587583129E+03  0.12699999809E+01 0.  1.
       -4    1    3    3    0  502 -0.35731913513E+03  0.27869300740E+03 -0.87334630862E+03  0.98391165476E+03  0.12699999809E+01 0. -1.
</event>
<event>
 5   0  0.1087761E-03  0.1519381E+04  0.7818609E-02  0.8871666E-01
        1   -1    0    0  501    0  0.00000000000E+00  0.00000000000E+00  0.12920776258E+04  0.12920776258E+04  0.50400001928E-02 0. -1.
       -1   -1    0    0    0  501  0.00000000000E+00  0.00000000000E+00 -0.44666785497E+03  0.44666785500E+03  0.50400001928E-02 0.  1.
    10030    2    1    2    0    0  0.00000000000E+00  0.00000000000E+00  0.84540977080E+03  0.17387454808E+04  0.15193808497E+04 0.  0.
        3    1    3    3  502    0  0.74030286962E+03 -0.13981195071E+03  0.31096643700E+03  0.81504346845E+03  0.10100000352E+00 0.  1.
       -3    1    3    3    0  502 -0.74030286962E+03  0.13981195071E+03  0.53444333380E+03  0.92370201233E+03  0.10100000352E+00 0. -1.
</event>
<event>
 5   0  0.2111533E-03  0.1498514E+04  0.7818609E-02  0.8885442E-01
        2   -1    0    0  501    0  0.00000000000E+00  0.00000000000E+00  0.14201619334E+04  0.14201619334E+04  0.25500000920E-02 0. -1.
       -2   -1    0    0    0  501  0.00000000000E+00  0.00000000000E+00 -0.39529696339E+03  0.39529696340E+03  0.25500000920E-02 0.  1.
    10030    2    1    2    0    0  0.00000000000E+00  0.00000000000E+00  0.10248649700E+04  0.18154588968E+04  0.14985135299E+04 0.  0.
        5    1    3    3  502    0  0.45558524225E+03 -0.27098273808E+03  0.11539295322E+04  0.12698681083E+04  0.46999998093E+01 0. -1.
       -5    1    3    3    0  502 -0.45558524225E+03  0.27098273808E+03 -0.12906456215E+03  0.54559078850E+03  0.46999998093E+01 0.  1.
</event>
<event>
 5   0  0.7468375E-04  0.1461859E+04  0.7818609E-02  0.8910220E-01
        4   -1    0    0  501    0  0.00000000000E+00  0.00000000000E+00  0.12024155928E+04  0.12024162635E+04  0.12699999809E+01 0. -1.
       -4   -1    0    0    0  501  0.00000000000E+00  0.00000000000E+00 -0.44431852637E+03  0.44432034139E+03  0.12699999809E+01 0.  1.
    10030    2    1    2    0    0  0.00000000000E+00  0.00000000000E+00  0.75809706644E+03  0.16467366049E+04  0.14618585033E+04 0.  0.
        5    1    3    3  502    0  0.29617181974E+03 -0.55281127503E+03  0.80191296360E+03  0.10180395591E+04  0.46999998093E+01 0. -1.
       -5    1    3    3    0  502 -0.29617181974E+03  0.55281127503E+03 -0.43815897154E+02  0.62869704584E+03  0.46999998093E+01 0.  1.
</event>
<event>
 5   0  0.1961098E-03  0.1521799E+04  0.7818609E-02  0.8870085E-01
        2   -1    0    0  501    0  0.00000000000E+00  0.00000000000E+00  0.68463393785E+03  0.68463393785E+03  0.25500000920E-02 0.  1.
       -2   -1    0    0    0  501  0.00000000000E+00  0.00000000000E+00 -0.84566027831E+03  0.84566027831E+03  0.25500000920E-02 0. -1.
    10030    2    1    2    0    0  0.00000000000E+00  0.00000000000E+00 -0.16102634046E+03  0.15302942162E+04  0.15217985759E+04 0.  0.
        2    1    3    3  502    0 -0.48019588225E+03 -0.37406377544E+03  0.37860543632E+03  0.71683601321E+03  0.25500000920E-02 0.  1.
       -2    1    3    3    0  502  0.48019588225E+03  0.37406377544E+03 -0.53963177678E+03  0.81345820295E+03  0.25500000920E-02 0. -1.
</event>
<event>
 5   0  0.1993623E-03  0.1459485E+04  0.7818609E-02  0.8911851E-01
        2   -1    0    0  501    0  0.00000000000E+00  0.00000000000E+00  0.10555459207E+04  0.10555459207E+04  0.25500000920E-02 0. -1.
       -2   -1    0    0    0  501  0.00000000000E+00  0.00000000000E+00 -0.50450101053E+03  0.50450101053E+03  0.25500000920E-02 0.  1.
    10030    2    1    2    0    0  0.00000000000E+00  0.00000000000E+00  0.55104491019E+03  0.15600469313E+04  0.14594848182E+04 0.  0.
        4    1    3    3  502    0  0.36074580407E+03  0.49748687892E+03  0.69620265548E+03  0.92861751020E+03  0.12699999809E+01 0. -1.
       -4    1    3    3    0  502 -0.36074580407E+03 -0.49748687892E+03 -0.14515774528E+03  0.63142942105E+03  0.12699999809E+01 0.  1.
</event>
<event>
 5   0  0.1077140E-03  0.1466536E+04  0.7818609E-02  0.8907016E-01
       -1   -1    0    0    0  501  0.00000000000E+00  0.00000000000E+00  0.96843031339E+03  0.96843031341E+03  0.50400001928E-02 0. -1.
        1   -1    0    0  501    0  0.00000000000E+00  0.00000000000E+00 -0.55520966014E+03  0.55520966016E+03  0.50400001928E-02 0.  1.
    10030    2    1    2    0    0  0.00000000000E+00  0.00000000000E+00  0.41322065326E+03  0.15236399736E+04  0.14665358709E+04 0.  0.
        1    1    3    3  502    0  0.30009546829E+03  0.60491755417E+03 -0.90350326317E+02  0.68128240761E+03  0.50400001928E-02 0.  1.
       -1    1    3    3    0  502 -0.30009546829E+03 -0.60491755417E+03  0.50357097957E+03  0.84235756596E+03  0.50400001928E-02 0. -1.
</event>
<event>
 5   0  0.1077140E-03  0.1553004E+04  0.7818609E-02  0.8849951E-01
        1   -1    0    0  501    0  0.00000000000E+00  0.00000000000E+00  0.31886863607E+03  0.31886863611E+03  0.50400001928E-02 0. -1.
       -1   -1    0    0    0  501  0.00000000000E+00  0.00000000000E+00 -0.18909203448E+04  0.18909203448E+04  0.50400001928E-02 0.  1.
    10030    2    1    2    0    0  0.00000000000E+00  0.00000000000E+00 -0.15720517087E+04  0.22097889809E+04  0.15530037879E+04 0.  0.
        1    1    3    3  502    0 -0.63414649091E+02 -0.60394134157E+03 -0.97435093666E+02  0.61502858411E+03  0.50400001928E-02 0.  1.
       -1    1    3    3    0  502  0.63414649091E+02  0.60394134157E+03 -0.14746166150E+04  0.15947603968E+04  0.50400001928E-02 0. -1.
</event>
<event>
 5   0  0.1078787E-03  0.1812384E+04  0.7818609E-02  0.8699741E-01
       -1   -1    0    0    0  501  0.00000000000E+00  0.00000000000E+00  0.61173971397E+03  0.61173971399E+03  0.50400001928E-02 0.  1.
        1   -1    0    0  501    0  0.00000000000E+00  0.00000000000E+00 -0.13423754513E+04  0.13423754513E+04  0.50400001928E-02 0. -1.
    10030    2    1    2    0    0  0.00000000000E+00  0.00000000000E+00 -0.73063573730E+03  0.19541151653E+04  0.18123844787E+04 0.  0.
        5    1    3    3  502    0  0.34141496787E+03  0.42810732073E+03  0.41317195803E+03  0.68598339283E+03  0.46999998093E+01 0.  1.
       -5    1    3    3    0  502 -0.34141496787E+03 -0.42810732073E+03 -0.11438076953E+04  0.12681317724E+04  0.46999998093E+01 0. -1.
</event>
<event>
 5   0  0.2094566E-03  0.1549904E+04  0.7818609E-02  0.8851929E-01
        2   -1    0    0  501    0  0.00000000000E+00  0.00000000000E+00  0.12022207860E+04  0.12022207860E+04  0.25500000920E-02 0. -1.
       -2   -1    0    0    0  501  0.00000000000E+00  0.00000000000E+00 -0.49953419120E+03  0.49953419121E+03  0.25500000920E-02 0.  1.
    10030    2    1    2    0    0  0.00000000000E+00  0.00000000000E+00  0.70268659484E+03  0.17017549772E+04  0.15499037235E+04 0.  0.
        1    1    3    3  502    0 -0.36056387078E+03  0.68541285131E+03  0.32120781740E+03  0.83843398288E+03  0.50400001928E-02 0.  1.
       -1    1    3    3    0  502  0.36056387078E+03 -0.68541285131E+03  0.38147877744E+03  0.86332099437E+03  0.50400001928E-02 0. -1.
</event>
<event>
 5   0  0.1993623E-03  0.1507876E+04  0.7818609E-02  0.8879232E-01
        2   -1    0    0  501    0  0.00000000000E+00  0.00000000000E+00  0.55100276904E+03  0.55100276905E+03  0.25500000920E-02 0. -1.
       -2   -1    0    0    0  501  0.00000000000E+00  0.00000000000E+00 -0.10316147312E+04  0.10316147312E+04  0.25500000920E-02 0.  1.
    10030    2    1    2    0    0  0.00000000000E+00  0.00000000000E+00 -0.48061196219E+03  0.15826175003E+04  0.15078760871E+04 0.  0.
        4    1    3    3  502    0  0.36908919956E+03 -0.26744901704E+03  0.39001592053E+03  0.59989152779E+03  0.12699999809E+01 0. -1.
       -4    1    3    3    0  502 -0.36908919956E+03  0.26744901704E+03 -0.87062788273E+03  0.98272597250E+03  0.12699999809E+01 0.  1.
</event>
<event>
 5   0  0.1078018E-03  0.1501286E+04  0.7818609E-02  0.8883598E-01
       -1   -1    0    0    0  501  0.00000000000E+00  0.00000000000E+00  0.80336973993E+03  0.80336973994E+03  0.50400001928E-02 0.  1.
        1   -1    0    0  501    0  0.00000000000E+00  0.00000000000E+00 -0.70137685930E+03  0.70137685932E+03  0.50400001928E-02 0. -1.
    10030    2    1    2    0    0  0.00000000000E+00  0.00000000000E+00  0.10199288062E+03  0.15047465993E+04  0.15012860421E+04 0.  0.
        4    1    3    3  502    0 -0.11747676033E+03  0.48934011221E+02  0.79247731429E+03  0.80263144296E+03  0.12699999809E+01 0.  1.
       -4    1    3    3    0  502  0.11747676033E+03 -0.48934011221E+02 -0.69048443367E+03  0.70211515630E+03  0.12699999809E+01 0. -1.
</event>
<event>
 5   0  0.1078787E-03  0.1488372E+04  0.7818609E-02  0.8892223E-01
        1   -1    0    0  501    0  0.00000000000E+00  0.00000000000E+00  0.24210708794E+04  0.24210708794E+04  0.50400001928E-02 0. -1.
       -1   -1    0    0    0  501  0.00000000000E+00  0.00000000000E+00 -0.22874694519E+03  0.22874694524E+03  0.50400001928E-02 0.  1.
    10030    2    1    2    0    0  0.00000000000E+00  0.00000000000E+00  0.21923239343E+04  0.26498178247E+04  0.14883716845E+04 0.  0.
        5    1    3    3  502    0  0.29375116329E+03 -0.57053592328E+03  0.17670232384E+04  0.18799452654E+04  0.46999998093E+01 0. -1.
       -5    1    3    3    0  502 -0.29375116329E+03  0.57053592328E+03  0.42530069580E+03  0.76987255929E+03  0.46999998093E+01 0.  1.
</event>
<event>
 5   0  0.2094566E-03  0.1499376E+04  0.7818609E-02  0.8884868E-01
       -2   -1    0    0    0  501  0.00000000000E+00  0.00000000000E+00  0.50622137847E+03  0.50622137848E+03  0.25500000920E-02 0. -1.
        2   -1    0    0  501    0  0.00000000000E+00  0.00000000000E+00 -0.11102493845E+04  0.11102493845E+04  0.25500000920E-02 0.  1.
    10030    2    1    2    0    0  0.00000000000E+00  0.00000000000E+00 -0.60402800605E+03  0.16164707630E+04  0.14993758353E+04 0.  0.
        1    1    3    3  502    0 -0.31005918643E+03  0.66434451561E+03 -0.13312198245E+03  0.74512535640E+03  0.50400001928E-02 0. -1.
       -1    1    3    3    0  502  0.31005918643E+03 -0.66434451561E+03 -0.47090602359E+03  0.87134540660E+03  0.50400001928E-02 0.  1.
</event>
<event>
 5   0  0.1087761E-03  0.1510919E+04  0.7818609E-02  0.8877224E-01
        1   -1    0    0  501    0  0.00000000000E+00  0.00000000000E+00  0.12391003356E+04  0.12391003356E+04  0.50400001928E-02 0. -1.
       -1   -1    0    0    0  501  0.00000000000E+00  0.00000000000E+00 -0.46059168572E+03  0.46059168575E+03  0.50400001928E-02 0.  1.
    10030    2    1    2    0    0  0.00000000000E+00  0.00000000000E+00  0.77850864990E+03  0.16996920214E+04  0.15109193392E+04 0.  0.
        3    1    3    3  502    0 -0.23668846870E+03  0.19765297290E+03  0.11650799343E+04  0.12051968272E+04  0.10100000352E+00 0. -1.
       -3    1    3    3    0  502  0.23668846870E+03 -0.19765297290E+03 -0.38657128439E+03  0.49449519414E+03  0.10100000352E+00 0.  1.
</event>
<event>
 5   0  0.1961098E-03  0.1503778E+04  0.7818609E-02  0.8881944E-01
        2   -1    0    0  501    0  0.00000000000E+00  0.00000000000E+00  0.28067809437E+04  0.28067809437E+04  0.25500000920E-02 0. -1.
       -2   -1    0    0    0  501  0.00000000000E+00  0.00000000000E+00 -0.20141831891E+03  0.20141831892E+03  0.25500000920E-02 0.  1.
    10030    2    1    2    0    0  0.00000000000E+00  0.00000000000E+00  0.26053626248E+04  0.30081992626E+04  0.15037780411E+04 0.  0.
        2    1    3    3  502    0 -0.15802605192E+03  0.29677891364E+03 -0.42652268282E+02  0.33892354988E+03  0.25500000920E-02 0.  1.
       -2    1    3    3    0  502  0.15802605192E+03 -0.29677891364E+03  0.26480148931E+04  0.26692757127E+04  0.25500000920E-02 0. -1.
</event>
<event>
 5   0  0.1961098E-03  0.1524576E+04  0.7818609E-02  0.8868273E-01
       -2   -1    0    0    0  501  0.00000000000E+00  0.00000000000E+00  0.11700903945E+04  0.11700903945E+04  0.25500000920E-02 0.  1.
        2   -1    0    0  501    0  0.00000000000E+00  0.00000000000E+00 -0.49661380816E+03  0.49661380817E+03  0.25500000920E-02 0. -1.
    10030    2    1    2    0    0  0.00000000000E+00  0.00000000000E+00  0.67347658635E+03  0.16667042027E+04  0.15245760679E+04 0.  0.
        2    1    3    3  502    0  0.15484358773E+03  0.29475316022E+03 -0.41291983223E+03  0.53043260644E+03  0.25500000920E-02 0. -1.
       -2    1    3    3    0  502 -0.15484358773E+03 -0.29475316022E+03  0.10863964186E+04  0.11362715962E+04  0.25500000920E-02 0.  1.
</event>
<event>
 5   0  0.1993623E-03  0.1527257E+04  0.7818609E-02  0.8866527E-01
       -2   -1    0    0    0  501  0.00000000000E+00  0.00000000000E+00  0.56986967565E+03  0.56986967566E+03  0.25500000920E-02 0.  1.
        2   -1    0    0  501    0  0.00000000000E+00  0.00000000000E+00 -0.10232665194E+04  0.10232665194E+04  0.25500000920E-02 0. -1.
    10030    2    1    2    0    0  0.00000000000E+00  0.00000000000E+00 -0.45339684379E+03  0.15931361951E+04  0.15272570963E+04 0.  0.
        4    1    3    3  502    0  0.66952223974E+03  0.76304481548E+02  0.14802477221E+03  0.68992416213E+03  0.12699999809E+01 0.  1.
       -4    1    3    3    0  502 -0.66952223974E+03 -0.76304481548E+02 -0.60142161600E+03  0.90321203297E+03  0.12699999809E+01 0. -1.
</event>
<event>
 5   0  0.2111533E-03  0.1477918E+04  0.7818609E-02  0.8899272E-01
       -2   -1    0    0    0  501  0.00000000000E+00  0.00000000000E+00  0.77892714988E+03  0.77892714989E+03  0.25500000920E-02 0. -1.
        2   -1    0    0  501    0  0.00000000000E+00  0.00000000000E+00 -0.70104136494E+03  0.70104136495E+03  0.25500000920E-02 0.  1.
    10030    2    1    2    0    0  0.00000000000E+00  0.00000000000E+00  0.77885784937E+02  0.14799685148E+04  0.14779176599E+04 0.  0.
        5    1    3    3  502    0  0.37140849391E+03  0.63880715038E+03  0.34553016911E+02  0.73975323297E+03  0.46999998093E+01 0.  1.
       -5    1    3    3    0  502 -0.37140849391E+03 -0.63880715038E+03  0.43332768026E+02  0.74021528186E+03  0.46999998093E+01 0. -1.
</event>
<event>
 5   0  0.2094566E-03  0.1452709E+04  0.7818609E-02  0.8916524E-01
       -2   -1    0    0    0  501  0.00000000000E+00  0.00000000000E+00  0.46813849599E+03  0.46813849600E+03  0.25500000920E-02 0.  1.
        2   -1    0    0  501    0  0.00000000000E+00  0.00000000000E+00 -0.11269978900E+04  0.11269978900E+04  0.25500000920E-02 0. -1.
    10030    2    1    2    0    0  0.00000000000E+00  0.00000000000E+00 -0.65885939400E+03  0.15951363860E+04  0.14527093270E+04 0.  0.
        1    1    3    3  502    0  0.69599225448E+03  0.17683956410E+03 -0.20957875021E+03  0.74806463777E+03  0.50400001928E-02 0.  1.
       -1    1    3    3    0  502 -0.69599225448E+03 -0.17683956410E+03 -0.44928064379E+03  0.84707174822E+03  0.50400001928E-02 0. -1.
</event>
<event>
 5   0  0.2111533E-03  0.1482104E+04  0.7818609E-02  0.8896441E-01
       -2   -1    0    0    0  501  0.00000000000E+00  0.00000000000E+00  0.10501442270E+04  0.10501442270E+04  0.25500000920E-02 0. -1.
        2   -1    0    0  501    0  0.00000000000E+00  0.00000000000E+00 -0.52293609085E+03  0.52293609086E+03  0.25500000920E-02 0.  1.
    10030    2    1    2    0    0  0.00000000000E+00  0.00000000000E+00  0.52720813612E+03  0.15730803178E+04  0.14821043376E+04 0.  0.
        5    1    3    3  502    0 -0.11608650713E+03  0.17690110955E+03 -0.49017675363E+03  0.53391518005E+03  0.46999998093E+01 0.  1.
       -5    1    3    3    0  502  0.11608650713E+03 -0.17690110955E+03  0.10173848898E+04  0.10391651378E+04  0.46999998093E+01 0. -1.
</event>
<event>
 5   0  0.1078018E-03  0.1439819E+04  0.7818609E-02  0.8925489E-01
       -1   -1    0    0    0  501  0.00000000000E+00  0.00000000000E+00  0.50921883919E+03  0.50921883922E+03  0.50400001928E-02 0.  1.
        1   -1    0    0  501    0  0.00000000000E+00  0.00000000000E+00 -0.10177742287E+04  0.10177742287E+04  0.50400001928E-02 0. -1.
    10030    2    1    2    0    0  0.00000000000E+00  0.00000000000E+00 -0.50855538949E+03  0.15269930679E+04  0.14398191710E+04 0.  0.
        4    1    3    3  502    0 -0.67715447666E+03  0.98447007813E+02 -0.17042044734E+02  0.68448670023E+03  0.12699999809E+01 0. -1.
       -4    1    3    3    0  502  0.67715447666E+03 -0.98447007813E+02 -0.49151334475E+03  0.84250636768E+03  0.12699999809E+01 0.  1.
</event>
<event>
 5   0  0.1078787E-03  0.1386873E+04  0.7818609E-02  0.8963376E-01
       -1   -1    0    0    0  501  0.00000000000E+00  0.00000000000E+00  0.64421410801E+03  0.64421410803E+03  0.50400001928E-02 0. -1.
        1   -1    0    0  501    0  0.00000000000E+00  0.00000000000E+00 -0.74641997637E+03  0.74641997638E+03  0.50400001928E-02 0.  1.
    10030    2    1    2    0    0  0.00000000000E+00  0.00000000000E+00 -0.10220586836E+03  0.13906340844E+04  0.13868731439E+04 0.  0.
        5    1    3    3  502    0 -0.95261317223E+02 -0.61182109880E+02 -0.73707377609E+03  0.74573306922E+03  0.46999998093E+01 0.  1.
       -5    1    3    3    0  502  0.95261317223E+02  0.61182109880E+02  0.63486790773E+03  0.64490101519E+03  0.46999998093E+01 0. -1.
</event>
<event>
 5   0  0.1993623E-03  0.1451578E+04  0.7818609E-02  0.8917307E-01
       -2   -1    0    0    0  501  0.00000000000E+00  0.00000000000E+00  0.81139505808E+03  0.81139505809E+03  0.25500000920E-02 0.  1.
        2   -1    0    0  501    0  0.00000000000E+00  0.00000000000E+00 -0.64921482720E+03  0.64921482720E+03  0.25500000920E-02 0. -1.
    10030    2    1    2    0    0  0.00000000000E+00  0.00000000000E+00  0.16218023089E+03  0.14606098853E+04  0.14515780412E+04 0.  0.
        4    1    3    3  502    0 -0.71738073364E+03 -0.88488600617E+02  0.15086701007E+02  0.72297618970E+03  0.12699999809E+01 0.  1.
       -4    1    3    3    0  502  0.71738073364E+03  0.88488600617E+02  0.14709352988E+03  0.73763369559E+03  0.12699999809E+01 0. -1.
</event>
<event>
 5   0  0.1961098E-03  0.1371184E+04  0.7818609E-02  0.8974945E-01
       -2   -1    0    0    0  501  0.00000000000E+00  0.00000000000E+00  0.51199771945E+03  0.51199771945E+03  0.25500000920E-02 0. -1.
        2   -1    0    0  501    0  0.00000000000E+00  0.00000000000E+00 -0.91804365224E+03  0.91804365225E+03  0.25500000920E-02 0.  1.
    10030    2    1    2    0    0  0.00000000000E+00  0.00000000000E+00 -0.40604593280E+03  0.14300413717E+04  0.13711838043E+04 0.  0.
        2    1    3    3  502    0 -0.10416585747E+03  0.61168446292E+03  0.10108900843E+03  0.62867113476E+03  0.25500000920E-02 0. -1.
       -2    1    3    3    0  502  0.10416585747E+03 -0.61168446292E+03 -0.50713494122E+03  0.80137023694E+03  0.25500000920E-02 0.  1.
</event>
<event>
 5   0  0.1078787E-03  0.1497945E+04  0.7818609E-02  0.8885820E-01
       -1   -1    0    0    0  501  0.00000000000E+00  0.00000000000E+00  0.11044414127E+04  0.11044414127E+04  0.50400001928E-02 0. -1.
        1   -1    0    0  501    0  0.00000000000E+00  0.00000000000E+00 -0.50791294919E+03  0.50791294922E+03  0.50400001928E-02 0.  1.
    10030    2    1    2    0    0  0.00000000000E+00  0.00000000000E+00  0.59652846351E+03  0.16123543619E+04  0.14979453864E+04 0.  0.
        5    1    3    3  502    0  0.10807524522E+03  0.54647170063E+03  0.83712671539E+03  0.10055420458E+04  0.46999998093E+01 0. -1.
       -5    1    3    3    0  502 -0.10807524522E+03 -0.54647170063E+03 -0.24059825188E+03  0.60681231615E+03  0.46999998093E+01 0.  1.
</event>
<event>
 5   0  0.1078018E-03  0.1577192E+04  0.7818609E-02  0.8834684E-01
        1   -1    0    0  501    0  0.00000000000E+00  0.00000000000E+00  0.10359130965E+04  0.10359130965E+04  0.50400001928E-02 0. -1.
       -1   -1    0    0    0  501  0.00000000000E+00  0.00000000000E+00 -0.60032400698E+03  0.60032400700E+03  0.50400001928E-02 0.  1.
    10030    2    1    2    0    0  0.00000000000E+00  0.00000000000E+00  0.43558908951E+03  0.16362371035E+04  0.15771918095E+04 0.  0.
        4    1    3    3  502    0 -0.12273136930E+03 -0.11088278839E+03  0.10177142306E+04  0.10310683051E+04  0.12699999809E+01 0. -1.
       -4    1    3    3    0  502  0.12273136930E+03  0.11088278839E+03 -0.58212514107E+03  0.60516879839E+03  0.12699999809E+01 0.  1.
</event>
<event>
 5   0  0.2111533E-03  0.1488665E+04  0.7818609E-02  0.8892026E-01
        2   -1    0    0  501    0  0.00000000000E+00  0.00000000000E+00  0.15791052570E+04  0.15791052570E+04  0.25500000920E-02 0.  1.
       -2   -1    0    0    0  501  0.00000000000E+00  0.00000000000E+00 -0.35085115919E+03  0.35085115920E+03  0.25500000920E-02 0. -1.
    10030    2    1    2    0    0  0.00000000000E+00  0.00000000000E+00  0.12282540978E+04  0.19299564162E+04  0.14886650529E+04 0.  0.
        5    1    3    3  502    0  0.26144711890E+02  0.41722145413E+03 -0.18426128120E+03  0.45687153281E+03  0.46999998093E+01 0. -1.
       -5    1    3    3    0  502 -0.26144711890E+02 -0.41722145413E+03  0.14125153790E+04  0.14730848834E+04  0.46999998093E+01 0.  1.
</event>
<event>
 5   0  0.1069697E-03  0.1509059E+04  0.7818609E-02  0.8878451E-01
       -1   -1    0    0    0  501  0.00000000000E+00  0.00000000000E+00  0.88913410513E+03  0.88913410515E+03  0.50400001928E-02 0. -1.
        1   -1    0    0  501    0  0.00000000000E+00  0.00000000000E+00 -0.64030256874E+03  0.64030256876E+03  0.50400001928E-02 0.  1.
    10030    2    1    2    0    0  0.00000000000E+00  0.00000000000E+00  0.24883153639E+03  0.15294366739E+04  0.15090591128E+04 0.  0.
        2    1    3    3  502    0 -0.38594994241E+03 -0.54157816860E+03 -0.23683898897E+03  0.70594403280E+03  0.25500000920E-02 0.  1.
       -2    1    3    3    0  502  0.38594994241E+03  0.54157816860E+03  0.48567052535E+03  0.82349264111E+03  0.25500000920E-02 0. -1.
</event>
<event>
 5   0  0.1087761E-03  0.1300238E+04  0.7818609E-02  0.9029376E-01
        1   -1    0    0  501    0  0.00000000000E+00  0.00000000000E+00  0.31244823294E+03  0.31244823298E+03  0.50400001928E-02 0.  1.
       -1   -1    0    0    0  501  0.00000000000E+00  0.00000000000E+00 -0.13527191112E+04  0.13527191112E+04  0.50400001928E-02 0. -1.
    10030    2    1    2    0    0  0.00000000000E+00  0.00000000000E+00 -0.10402708782E+04  0.16651673441E+04  0.13002379720E+04 0.  0.
        3    1    3    3  502    0  0.71533611105E+02 -0.41133149954E+02  0.30571450509E+03  0.31665495791E+03  0.10100000352E+00 0.  1.
       -3    1    3    3    0  502 -0.71533611105E+02  0.41133149954E+02 -0.13459853833E+04  0.13485123862E+04  0.10100000352E+00 0. -1.
</event>
<event>
 5   0  0.1077140E-03  0.1453981E+04  0.7818609E-02  0.8915646E-01
       -1   -1    0    0    0  501  0.00000000000E+00  0.00000000000E+00  0.10814727761E+04  0.10814727761E+04  0.50400001928E-02 0. -1.
        1   -1    0    0  501    0  0.00000000000E+00  0.00000000000E+00 -0.48869914904E+03  0.48869914907E+03  0.50400001928E-02 0.  1.
    10030    2    1    2    0    0  0.00000000000E+00  0.00000000000E+00  0.59277362707E+03  0.15701719252E+04  0.14539805025E+04 0.  0.
        1    1    3    3  502    0 -0.41923484932E+03  0.27722193278E+03 -0.27085519243E+03  0.57093992170E+03  0.50400001928E-02 0.  1.
       -1    1    3    3    0  502  0.41923484932E+03 -0.27722193278E+03  0.86362881950E+03  0.99923200349E+03  0.50400001928E-02 0. -1.
</event>
<event>
 5   0  0.2094566E-03  0.1500236E+04  0.7818609E-02  0.8884296E-01
       -2   -1    0    0    0  501  0.00000000000E+00  0.00000000000E+00  0.48077759771E+03  0.48077759772E+03  0.25500000920E-02 0.  1.
        2   -1    0    0  501    0  0.00000000000E+00  0.00000000000E+00 -0.11703483206E+04  0.11703483206E+04  0.25500000920E-02 0. -1.
    10030    2    1    2    0    0  0.00000000000E+00  0.00000000000E+00 -0.68957072289E+03  0.16511259183E+04  0.15002363201E+04 0.  0.
        1    1    3    3  502    0  0.16478688622E+03  0.60338777908E+03  0.11091969620E+03  0.63524381843E+03  0.50400001928E-02 0.  1.
       -1    1    3    3    0  502 -0.16478688622E+03 -0.60338777908E+03 -0.80049041909E+03  0.10158820999E+04  0.50400001928E-02 0. -1.
</event>
<event>
 5   0  0.2150197E-03  0.1605408E+04  0.7818609E-02  0.8817233E-01
       -2   -1    0    0    0  501  0.00000000000E+00  0.00000000000E+00  0.36943047724E+03  0.36943047725E+03  0.25500000920E-02 0. -1.
        2   -1    0    0  501    0  0.00000000000E+00  0.00000000000E+00 -0.17441266211E+04  0.17441266211E+04  0.25500000920E-02 0.  1.
    10030    2    1    2    0    0  0.00000000000E+00  0.00000000000E+00 -0.13746961438E+04  0.21135570983E+04  0.16054077738E+04 0.  0.
        3    1    3    3  502    0  0.62448062599E+03 -0.32360749977E+03 -0.11966158114E+04  0.13880155894E+04  0.10100000352E+00 0. -1.
       -3    1    3    3    0  502 -0.62448062599E+03  0.32360749977E+03 -0.17808033240E+03  0.72554150889E+03  0.10100000352E+00 0.  1.
</event>
<event>
 5   0  0.2111533E-03  0.1566800E+04  0.7818609E-02  0.8841208E-01
        2   -1    0    0  501    0  0.00000000000E+00  0.00000000000E+00  0.15408691959E+04  0.15408691959E+04  0.25500000920E-02 0. -1.
       -2   -1    0    0    0  501  0.00000000000E+00  0.00000000000E+00 -0.39829180679E+03  0.39829180680E+03  0.25500000920E-02 0.  1.
    10030    2    1    2    0    0  0.00000000000E+00  0.00000000000E+00  0.11425773891E+04  0.19391610027E+04  0.15668000205E+04 0.  0.
        5    1    3    3  502    0  0.47802944060E+02  0.37079773969E+03 -0.28073491197E+03  0.46755776758E+03  0.46999998093E+01 0.  1.
       -5    1    3    3    0  502 -0.47802944060E+02 -0.37079773969E+03  0.14233123011E+04  0.14716032351E+04  0.46999998093E+01 0. -1.
</event>
<event>
 5   0  0.1993623E-03  0.1495206E+04  0.7818609E-02  0.8887647E-01
        2   -1    0    0  501    0  0.00000000000E+00  0.00000000000E+00  0.13078766821E+04  0.13078766821E+04  0.25500000920E-02 0. -1.
       -2   -1    0    0    0  501  0.00000000000E+00  0.00000000000E+00 -0.42734152999E+03  0.42734153000E+03  0.25500000920E-02 0.  1.
    10030    2    1    2    0    0  0.00000000000E+00  0.00000000000E+00  0.88053515215E+03  0.17352182121E+04  0.14952057014E+04 0.  0.
        4    1    3    3  502    0 -0.21430485709E+02  0.29500284828E+03  0.12370840221E+04  0.12719530011E+04  0.12699999809E+01 0. -1.
       -4    1    3    3    0  502  0.21430485709E+02 -0.29500284828E+03 -0.35654886998E+03  0.46326521108E+03  0.12699999809E+01 0.  1.
</event>
<event>
 5   0  0.2094566E-03  0.1503231E+04  0.7818609E-02  0.8882307E-01
        2   -1    0    0  501    0  0.00000000000E+00  0.00000000000E+00  0.13062754085E+04  0.13062754085E+04  0.25500000920E-02 0. -1.
       -2   -1    0    0    0  501  0.00000000000E+00  0.00000000000E+00 -0.43247051122E+03  0.43247051122E+03  0.25500000920E-02 0.  1.
    10030    2    1    2    0    0  0.00000000000E+00  0.00000000000E+00  0.87380489724E+03  0.17387459197E+04  0.15032306459E+04 0.  0.
        1    1    3    3  502    0 -0.66248459579E+03  0.25634879835E+03  0.15281022935E+03  0.72660271971E+03  0.50400001928E-02 0. -1.
       -1    1    3    3    0  502  0.66248459579E+03 -0.25634879835E+03  0.72099466789E+03  0.10121432000E+04  0.50400001928E-02 0.  1.
</event>
<event>
 5   0  0.1069697E-03  0.1487752E+04  0.7818609E-02  0.8892639E-01
       -1   -1    0    0    0  501  0.00000000000E+00  0.00000000000E+00  0.65571717750E+03  0.65571717752E+03  0.50400001928E-02 0.  1.
        1   -1    0    0  501    0  0.00000000000E+00  0.00000000000E+00 -0.84388750361E+03  0.84388750363E+03  0.50400001928E-02 0. -1.
    10030    2    1    2    0    0  0.00000000000E+00  0.00000000000E+00 -0.18817032611E+03  0.14996046811E+04  0.14877520385E+04 0.  0.
        2    1    3    3  502    0  0.23829853940E+03  0.70082676184E+03 -0.16820457573E+03  0.75910284105E+03  0.25500000920E-02 0. -1.
       -2    1    3    3    0  502 -0.23829853940E+03 -0.70082676184E+03 -0.19965750376E+02  0.74050184009E+03  0.25500000920E-02 0.  1.
</event>
<event>
 5   0  0.1087761E-03  0.1504407E+04  0.7818609E-02  0.8881528E-01
        1   -1    0    0  501    0  0.00000000000E+00  0.00000000000E+00  0.18318919287E+04  0.18318919287E+04  0.50400001928E-02 0.  1.
       -1   -1    0    0    0  501  0.00000000000E+00  0.00000000000E+00 -0.30886652825E+03  0.30886652829E+03  0.50400001928E-02 0. -1.
    10030    2    1    2    0    0  0.00000000000E+00  0.00000000000E+00  0.15230254005E+04  0.21407584570E+04  0.15044069931E+04 0.  0.
        3    1    3    3  502    0  0.33865180342E+03 -0.54568354930E+03  0.13187633728E+04  0.14668307412E+04  0.10100000352E+00 0.  1.
       -3    1    3    3    0  502 -0.33865180342E+03  0.54568354930E+03  0.20426202773E+03  0.67392771579E+03  0.10100000352E+00 0. -1.
</event>
<event>
 5   0  0.2111533E-03  0.1454057E+04  0.7818609E-02  0.8915593E-01
        2   -1    0    0  501    0  0.00000000000E+00  0.00000000000E+00  0.67788855144E+03  0.67788855144E+03  0.25500000920E-02 0.  1.
       -2   -1    0    0    0  501  0.00000000000E+00  0.00000000000E+00 -0.77973074464E+03  0.77973074464E+03  0.25500000920E-02 0. -1.
    10030    2    1    2    0    0  0.00000000000E+00  0.00000000000E+00 -0.10184219320E+03  0.14576192961E+04  0.14540571447E+04 0.  0.
        5    1    3    3  502    0  0.40399942813E+03 -0.44180336018E+02 -0.65520879178E+03  0.77103053821E+03  0.46999998093E+01 0. -1.
       -5    1    3    3    0  502 -0.40399942813E+03  0.44180336018E+02  0.55336659858E+03  0.68658875788E+03  0.46999998093E+01 0.  1.
</event>
<event>
 5   0  0.2150197E-03  0.1510303E+04  0.7818609E-02  0.8877630E-01
       -2   -1    0    0    0  501  0.00000000000E+00  0.00000000000E+00  0.26055016370E+03  0.26055016371E+03  0.25500000920E-02 0.  1.
        2   -1    0    0  501    0  0.00000000000E+00  0.00000000000E+00 -0.21886532349E+04  0.21886532349E+04  0.25500000920E-02 0. -1.
    10030    2    1    2    0    0  0.00000000000E+00  0.00000000000E+00 -0.19281030712E+04  0.24492033986E+04  0.15103032260E+04 0.  0.
        3    1    3    3  502    0 -0.40736705225E+03  0.48835489574E+03 -0.16244001999E+04  0.17444524754E+04  0.10100000352E+00 0. -1.
       -3    1    3    3    0  502  0.40736705225E+03 -0.48835489574E+03 -0.30370287129E+03  0.70475092316E+03  0.10100000352E+00 0.  1.
</event>
<event>
 5   0  0.1078018E-03  0.8405677E+03  0.7818609E-02  0.9503085E-01
       -1   -1    0    0    0  501  0.00000000000E+00  0.00000000000E+00  0.10678186585E+03  0.10678186597E+03  0.50400001928E-02 0.  1.
        1   -1    0    0  501    0  0.00000000000E+00  0.00000000000E+00 -0.16541996651E+04  0.16541996651E+04  0.50400001928E-02 0. -1.
    10030    2    1    2    0    0  0.00000000000E+00  0.00000000000E+00 -0.15474177992E+04  0.17609815311E+04  0.84056772919E+03 0.  0.
        4    1    3    3  502    0 -0.22188970141E+03 -0.27944206687E+02 -0.28230695063E+02  0.22542072515E+03  0.12699999809E+01 0.  1.
       -4    1    3    3    0  502  0.22188970141E+03  0.27944206687E+02 -0.15191871042E+04  0.15355608059E+04  0.12699999809E+01 0. -1.
</event>
<event>
 5   0  0.1077140E-03  0.1480279E+04  0.7818609E-02  0.8897674E-01
       -1   -1    0    0    0  501  0.00000000000E+00  0.00000000000E+00  0.26756658809E+03  0.26756658814E+03  0.50400001928E-02 0. -1.
        1   -1    0    0  501    0  0.00000000000E+00  0.00000000000E+00 -0.20473641307E+04  0.20473641307E+04  0.50400001928E-02 0.  1.
    10030    2    1    2    0    0  0.00000000000E+00  0.00000000000E+00 -0.17797975426E+04  0.23149307188E+04  0.14802786698E+04 0.  0.
        1    1    3    3  502    0 -0.64339423271E+03  0.13531233835E+03 -0.35832694758E+03  0.74877484532E+03  0.50400001928E-02 0. -1.
       -1    1    3    3    0  502  0.64339423271E+03 -0.13531233835E+03 -0.14214705950E+04  0.15661558735E+04  0.50400001928E-02 0.  1.
</event>
<event>
 5   0  0.2111533E-03  0.1490017E+04  0.7818609E-02  0.8891119E-01
        2   -1    0    0  501    0  0.00000000000E+00  0.00000000000E+00  0.18747733950E+04  0.18747733950E+04  0.25500000920E-02 0. -1.
       -2   -1    0    0    0  501  0.00000000000E+00  0.00000000000E+00 -0.29605598952E+03  0.29605598953E+03  0.25500000920E-02 0.  1.
    10030    2    1    2    0    0  0.00000000000E+00  0.00000000000E+00  0.15787174054E+04  0.21708293845E+04  0.14900173054E+04 0.  0.
        5    1    3    3  502    0  0.39982555427E+03  0.54732115671E+03  0.33890340837E+03  0.75782486936E+03  0.46999998093E+01 0. -1.
       -5    1    3    3    0  502 -0.39982555427E+03 -0.54732115671E+03  0.12398139971E+04  0.14130045151E+04  0.46999998093E+01 0.  1.
</event>
<event>
 5   0  0.1078018E-03  0.1521924E+04  0.7818609E-02  0.8870004E-01
        1   -1    0    0  501    0  0.00000000000E+00  0.00000000000E+00  0.17034376492E+04  0.17034376492E+04  0.50400001928E-02 0. -1.
       -1   -1    0    0    0  501  0.00000000000E+00  0.00000000000E+00 -0.33993778075E+03  0.33993778079E+03  0.50400001928E-02 0.  1.
    10030    2    1    2    0    0  0.00000000000E+00  0.00000000000E+00  0.13634998684E+04  0.20433754300E+04  0.15219235384E+04 0.  0.
        4    1    3    3  502    0  0.49305127859E+03 -0.42859343631E+03  0.15783411143E+03  0.67209011048E+03  0.12699999809E+01 0.  1.
       -4    1    3    3    0  502 -0.49305127859E+03  0.42859343631E+03  0.12056657570E+04  0.13712853195E+04  0.12699999809E+01 0. -1.
</event>
<event>
 5   0  0.1077140E-03  0.1509582E+04  0.7818609E-02  0.8878106E-01
       -1   -1    0    0    0  501  0.00000000000E+00  0.00000000000E+00  0.87973770679E+03  0.87973770681E+03  0.50400001928E-02 0. -1.
        1   -1    0    0  501    0  0.00000000000E+00  0.00000000000E+00 -0.64758999201E+03  0.64758999203E+03  0.50400001928E-02 0.  1.
    10030    2    1    2    0    0  0.00000000000E+00  0.00000000000E+00  0.23214771478E+03  0.15273276988E+04  0.15095818422E+04 0.  0.
        1    1    3    3  502    0 -0.44228907198E+02  0.50536281454E+03 -0.44938935876E+03  0.67771569728E+03  0.50400001928E-02 0.  1.
       -1    1    3    3    0  502  0.44228907198E+02 -0.50536281454E+03  0.68153707354E+03  0.84961200156E+03  0.50400001928E-02 0. -1.
</event>
<event>
 5   0  0.1993623E-03  0.1486505E+04  0.7818609E-02  0.8893477E-01
        2   -1    0    0  501    0  0.00000000000E+00  0.00000000000E+00  0.18514878094E+04  0.18514878094E+04  0.25500000920E-02 0.  1.
       -2   -1    0    0    0  501  0.00000000000E+00  0.00000000000E+00 -0.29836771173E+03  0.29836771174E+03  0.25500000920E-02 0. -1.
    10030    2    1    2    0    0  0.00000000000E+00  0.00000000000E+00  0.15531200977E+04  0.21498555212E+04  0.14865048685E+04 0.  0.
        4    1    3    3  502    0  0.34324511077E+03  0.30119764694E+03 -0.71545235847E+02  0.46223107021E+03  0.12699999809E+01 0. -1.
       -4    1    3    3    0  502 -0.34324511077E+03 -0.30119764694E+03  0.16246653335E+04  0.16876244510E+04  0.12699999809E+01 0.  1.
</event>
<event>
 5   0  0.1087761E-03  0.1423965E+04  0.7818609E-02  0.8936652E-01
        1   -1    0    0  501    0  0.00000000000E+00  0.00000000000E+00  0.50553719819E+03  0.50553719822E+03  0.50400001928E-02 0.  1.
       -1   -1    0    0    0  501  0.00000000000E+00  0.00000000000E+00 -0.10027330407E+04  0.10027330407E+04  0.50400001928E-02 0. -1.
    10030    2    1    2    0    0  0.00000000000E+00  0.00000000000E+00 -0.49719584250E+03  0.15082702389E+04  0.14239646793E+04 0.  0.
        3    1    3    3  502    0  0.52949495658E+03 -0.47026409192E+03 -0.17072211377E+03  0.72846364049E+03  0.10100000352E+00 0. -1.
       -3    1    3    3    0  502 -0.52949495658E+03  0.47026409192E+03 -0.32647372872E+03  0.77980659842E+03  0.10100000352E+00 0.  1.
</event>
<event>
 5   0  0.1087761E-03  0.1480365E+04  0.7818609E-02  0.8897616E-01
        1   -1    0    0  501    0  0.00000000000E+00  0.00000000000E+00  0.51004945656E+03  0.51004945658E+03  0.50400001928E-02 0. -1.
       -1   -1    0    0    0  501  0.00000000000E+00  0.00000000000E+00 -0.10741507961E+04  0.10741507961E+04  0.50400001928E-02 0.  1.
    10030    2    1    2    0    0  0.00000000000E+00  0.00000000000E+00 -0.56410133957E+03  0.15842002527E+04  0.14803648602E+04 0.  0.
        3    1    3    3  502    0 -0.32673966066E+03 -0.30102519323E+03 -0.91560265064E+03  0.10176950412E+04  0.10100000352E+00 0.  1.
       -3    1    3    3    0  502  0.32673966066E+03  0.30102519323E+03  0.35150131107E+03  0.56650521153E+03  0.10100000352E+00 0. -1.
</event>
<event>
 5   0  0.1077140E-03  0.1501248E+04  0.7818609E-02  0.8883624E-01
       -1   -1    0    0    0  501  0.00000000000E+00  0.00000000000E+00  0.10421980286E+04  0.10421980287E+04  0.50400001928E-02 0.  1.
        1   -1    0    0  501    0  0.00000000000E+00  0.00000000000E+00 -0.54062294609E+03  0.54062294611E+03  0.50400001928E-02 0. -1.
    10030    2    1    2    0    0  0.00000000000E+00  0.00000000000E+00  0.50157508256E+03  0.15828209748E+04  0.15012477060E+04 0.  0.
        1    1    3    3  502    0 -0.37782079073E+03  0.60895171348E+03  0.48622698420E+03  0.86601814037E+03  0.50400001928E-02 0. -1.
       -1    1    3    3    0  502  0.37782079073E+03 -0.60895171348E+03  0.15348098361E+02  0.71680283440E+03  0.50400001928E-02 0.  1.
</event>
<event>
 5   0  0.1078787E-03  0.1570532E+04  0.7818609E-02  0.8838859E-01
        1   -1    0    0  501    0  0.00000000000E+00  0.00000000000E+00  0.39145165209E+03  0.39145165213E+03  0.50400001928E-02 0. -1.
       -1   -1    0    0    0  501  0.00000000000E+00  0.00000000000E+00 -0.15752707697E+04  0.15752707697E+04  0.50400001928E-02 0.  1.
    10030    2    1    2    0    0  0.00000000000E+00  0.00000000000E+00 -0.11838191176E+04  0.19667224218E+04  0.15705315601E+04 0.  0.
        5    1    3    3  502    0  0.40760157658E+03  0.65824541404E+03 -0.75611486939E+03  0.10822004694E+04  0.46999998093E+01 0.  1.
       -5    1    3    3    0  502 -0.40760157658E+03 -0.65824541404E+03 -0.42770424822E+03  0.88452195240E+03  0.46999998093E+01 0. -1.
</event>
<event>
 5   0  0.1078787E-03  0.1480723E+04  0.7818609E-02  0.8897374E-01
       -1   -1    0    0    0  501  0.00000000000E+00  0.00000000000E+00  0.53676263220E+03  0.53676263223E+03  0.50400001928E-02 0. -1.
        1   -1    0    0  501    0  0.00000000000E+00  0.00000000000E+00 -0.10211874942E+04  0.10211874943E+04  0.50400001928E-02 0.  1.
    10030    2    1    2    0    0  0.00000000000E+00  0.00000000000E+00 -0.48442486204E+03  0.15579501265E+04  0.14807231847E+04 0.  0.
        5    1    3    3  502    0  0.68996287161E+03 -0.23116043413E+03 -0.38582015194E+03  0.82362806542E+03  0.46999998093E+01 0. -1.
       -5    1    3    3    0  502 -0.68996287161E+03  0.23116043413E+03 -0.98604710098E+02  0.73432206106E+03  0.46999998093E+01 0.  1.
</event>
<event>
 5   0  0.1069697E-03  0.1533515E+04  0.7818609E-02  0.8862467E-01
        1   -1    0    0  501    0  0.00000000000E+00  0.00000000000E+00  0.11685208522E+04  0.11685208522E+04  0.50400001928E-02 0.  1.
       -1   -1    0    0    0  501  0.00000000000E+00  0.00000000000E+00 -0.50312910561E+03  0.50312910564E+03  0.50400001928E-02 0. -1.
    10030    2    1    2    0    0  0.00000000000E+00  0.00000000000E+00  0.66539174660E+03  0.16716499579E+04  0.15335147228E+04 0.  0.
        2    1    3    3  502    0 -0.75104929705E+03 -0.14042648353E+02  0.50031495520E+03  0.90254490025E+03  0.25500000920E-02 0.  1.
       -2    1    3    3    0  502  0.75104929705E+03  0.14042648353E+02  0.16507679139E+03  0.76910505760E+03  0.25500000920E-02 0. -1.
</event>
<event>
 5   0  0.1069697E-03  0.1404840E+04  0.7818609E-02  0.8950323E-01
        1   -1    0    0  501    0  0.00000000000E+00  0.00000000000E+00  0.18071257184E+04  0.18071257184E+04  0.50400001928E-02 0. -1.
       -1   -1    0    0    0  501  0.00000000000E+00  0.00000000000E+00 -0.27302667456E+03  0.27302667461E+03  0.50400001928E-02 0.  1.
    10030    2    1    2    0    0  0.00000000000E+00  0.00000000000E+00  0.15340990438E+04  0.20801523930E+04  0.14048395288E+04 0.  0.
        2    1    3    3  502    0 -0.42381681922E+03  0.42909738347E+03  0.23389660682E+03  0.64687934226E+03  0.25500000920E-02 0.  1.
       -2    1    3    3    0  502  0.42381681922E+03 -0.42909738347E+03  0.13002024370E+04  0.14332730507E+04  0.25500000920E-02 0. -1.
</event>
<event>
 5   0  0.1069697E-03  0.1535540E+04  0.7818609E-02  0.8861157E-01
       -1   -1    0    0    0  501  0.00000000000E+00  0.00000000000E+00  0.80502113802E+03  0.80502113803E+03  0.50400001928E-02 0. -1.
        1   -1    0    0  501    0  0.00000000000E+00  0.00000000000E+00 -0.73224242557E+03  0.73224242558E+03  0.50400001928E-02 0.  1.
    10030    2    1    2    0    0  0.00000000000E+00  0.00000000000E+00  0.72778712451E+02  0.15372635636E+04  0.15355398149E+04 0.  0.
        2    1    3    3  502    0 -0.43563383137E+02  0.13493179916E+03 -0.71902132337E+03  0.73286835260E+03  0.25500000920E-02 0.  1.
       -2    1    3    3    0  502  0.43563383137E+02 -0.13493179916E+03  0.79180003582E+03  0.80439521102E+03  0.25500000920E-02 0. -1.
</event>
<event>
 5   0  0.2111533E-03  0.1518804E+04  0.7818609E-02  0.8872044E-01
       -2   -1    0    0    0  501  0.00000000000E+00  0.00000000000E+00  0.49206557070E+03  0.49206557071E+03  0.25500000920E-02 0.  1.
        2   -1    0    0  501    0  0.00000000000E+00  0.00000000000E+00 -0.11719810439E+04  0.11719810439E+04  0.25500000920E-02 0. -1.
    10030    2    1    2    0    0  0.00000000000E+00  0.00000000000E+00 -0.67991547317E+03  0.16640466146E+04  0.15188041628E+04 0.  0.
        5    1    3    3  502    0  0.67321514505E+03  0.90932363920E+02 -0.71179782917E+03  0.98395404666E+03  0.46999998093E+01 0. -1.
       -5    1    3    3    0  502 -0.67321514505E+03 -0.90932363920E+02  0.31882355993E+02  0.68009256793E+03  0.46999998093E+01 0.  1.
</event>
<event>
 5   0  0.1077140E-03  0.1404598E+04  0.7818609E-02  0.8950497E-01
        1   -1    0    0  501    0  0.00000000000E+00  0.00000000000E+00  0.16876808646E+04  0.16876808646E+04  0.50400001928E-02 0.  1.
       -1   -1    0    0    0  501  0.00000000000E+00  0.00000000000E+00 -0.29224929144E+03  0.29224929149E+03  0.50400001928E-02 0. -1.
    10030    2    1    2    0    0  0.00000000000E+00  0.00000000000E+00  0.13954315732E+04  0.19799301561E+04  0.14045975038E+04 0.  0.
        1    1    3    3  502    0 -0.12833133190E+03  0.67121594146E+03  0.92598403646E+03  0.11508458657E+04  0.50400001928E-02 0.  1.
       -1    1    3    3    0  502  0.12833133190E+03 -0.67121594146E+03  0.46944753669E+03  0.82908429038E+03  0.50400001928E-02 0. -1.
</event>
<event>
 5   0  0.7468375E-04  0.1491095E+04  0.7818609E-02  0.8890396E-01
        3   -1    0    0  501    0  0.00000000000E+00  0.00000000000E+00  0.48166867440E+03  0.48166868499E+03  0.10100000352E+00 0. -1.
       -3   -1    0    0    0  501  0.00000000000E+00  0.00000000000E+00 -0.11539911585E+04  0.11539911630E+04  0.10100000352E+00 0.  1.
    10030    2    1    2    0    0  0.00000000000E+00  0.00000000000E+00 -0.67232248415E+03  0.16356598480E+04  0.14910954415E+04 0.  0.
        3    1    3    3  502    0  0.48895775360E+03  0.28628441296E+03  0.19538287881E+03  0.59934374898E+03  0.10100000352E+00 0. -1.
       -3    1    3    3    0  502 -0.48895775360E+03 -0.28628441296E+03 -0.86770536295E+03  0.10363160990E+04  0.10100000352E+00 0.  1.
</event>
<event>
 5   0  0.2111533E-03  0.1208400E+04  0.7818609E-02  0.9105535E-01
       -2   -1    0    0    0  501  0.00000000000E+00  0.00000000000E+00  0.30253525387E+03  0.30253525388E+03  0.25500000920E-02 0.  1.
        2   -1    0    0  501    0  0.00000000000E+00  0.00000000000E+00 -0.12066621272E+04  0.12066621272E+04  0.25500000920E-02 0. -1.
    10030    2    1    2    0    0  0.00000000000E+00  0.00000000000E+00 -0.90412687331E+03  0.15091973811E+04  0.12084003194E+04 0.  0.
        5    1    3    3  502    0  0.13660281626E+03  0.22674787774E+03  0.22622962198E+03  0.34824827542E+03  0.46999998093E+01 0.  1.
       -5    1    3    3    0  502 -0.13660281626E+03 -0.22674787774E+03 -0.11303564953E+04  0.11609491056E+04  0.46999998093E+01 0. -1.
</event>
<event>
 5   0  0.1078018E-03  0.1423262E+04  0.7818609E-02  0.8937151E-01
       -1   -1    0    0    0  501  0.00000000000E+00  0.00000000000E+00  0.44399236112E+03  0.44399236115E+03  0.50400001928E-02 0. -1.
        1   -1    0    0  501    0  0.00000000000E+00  0.00000000000E+00 -0.11406016578E+04  0.11406016578E+04  0.50400001928E-02 0.  1.
    10030    2    1    2    0    0  0.00000000000E+00  0.00000000000E+00 -0.69660929667E+03  0.15845940189E+04  0.14232616389E+04 0.  0.
        4    1    3    3  502    0  0.56555522909E+03  0.41562867525E+03 -0.21743512064E+03  0.73476496748E+03  0.12699999809E+01 0. -1.
       -4    1    3    3    0  502 -0.56555522909E+03 -0.41562867525E+03 -0.47917417603E+03  0.84982905147E+03  0.12699999809E+01 0.  1.
</event>
<event>
 5   0  0.1993623E-03  0.1458117E+04  0.7818609E-02  0.8912792E-01
       -2   -1    0    0    0  501  0.00000000000E+00  0.00000000000E+00  0.77382246097E+03  0.77382246098E+03  0.25500000920E-02 0. -1.
        2   -1    0    0  501    0  0.00000000000E+00  0.00000000000E+00 -0.68688423286E+03  0.68688423286E+03  0.25500000920E-02 0.  1.
    10030    2    1    2    0    0  0.00000000000E+00  0.00000000000E+00  0.86938228117E+02  0.14607066938E+04  0.14581172072E+04 0.  0.
        4    1    3    3  502    0 -0.83701524504E+02 -0.30637610332E+03 -0.61393755791E+03  0.69122586742E+03  0.12699999809E+01 0.  1.
       -4    1    3    3    0  502  0.83701524504E+02  0.30637610332E+03  0.70087578602E+03  0.76948082642E+03  0.12699999809E+01 0. -1.
</event>
<event>
 5   0  0.2094566E-03  0.1473837E+04  0.7818609E-02  0.8902040E-01
       -2   -1    0    0    0  501  0.00000000000E+00  0.00000000000E+00  0.30028825149E+04  0.30028825149E+04  0.25500000920E-02 0.  1.
        2   -1    0    0  501    0  0.00000000000E+00  0.00000000000E+00 -0.18084262329E+03  0.18084262331E+03  0.25500000920E-02 0. -1.
    10030    2    1    2    0    0  0.00000000000E+00  0.00000000000E+00  0.28220398916E+04  0.31837251382E+04  0.14738373743E+04 0.  0.
        1    1    3    3  502    0 -0.17103334677E+03  0.69788298502E+03  0.17643635903E+04  0.19050648139E+04  0.50400001928E-02 0.  1.
       -1    1    3    3    0  502  0.17103334677E+03 -0.69788298502E+03  0.10576763013E+04  0.12786603242E+04  0.50400001928E-02 0. -1.
</event>
<event>
 5   0  0.1087761E-03  0.1499968E+04  0.7818609E-02  0.8884474E-01
       -1   -1    0    0    0  501  0.00000000000E+00  0.00000000000E+00  0.72064043238E+03  0.72064043240E+03  0.50400001928E-02 0.  1.
        1   -1    0    0  501    0  0.00000000000E+00  0.00000000000E+00 -0.78052200690E+03  0.78052200692E+03  0.50400001928E-02 0. -1.
    10030    2    1    2    0    0  0.00000000000E+00  0.00000000000E+00 -0.59881574524E+02  0.15011624393E+04  0.14999676217E+04 0.  0.
        3    1    3    3  502    0 -0.26771131581E+03 -0.13718783136E+03  0.65761872899E+03  0.72315437674E+03  0.10100000352E+00 0.  1.
       -3    1    3    3    0  502  0.26771131581E+03  0.13718783136E+03 -0.71750030351E+03  0.77800806257E+03  0.10100000352E+00 0. -1.
</event>
<event>
 5   0  0.2150197E-03  0.1498758E+04  0.7818609E-02  0.8885279E-01
        2   -1    0    0  501    0  0.00000000000E+00  0.00000000000E+00  0.13812708709E+04  0.13812708709E+04  0.25500000920E-02 0. -1.
       -2   -1    0    0    0  501  0.00000000000E+00  0.00000000000E+00 -0.40655969098E+03  0.40655969098E+03  0.25500000920E-02 0.  1.
    10030    2    1    2    0    0  0.00000000000E+00  0.00000000000E+00  0.97471117990E+03  0.17878305619E+04  0.14987582306E+04 0.  0.
        3    1    3    3  502    0 -0.51288097609E+03 -0.39374212148E+03  0.35494936688E+02  0.64756440189E+03  0.10100000352E+00 0.  1.
       -3    1    3    3    0  502  0.51288097609E+03  0.39374212148E+03  0.93921624322E+03  0.11402661600E+04  0.10100000352E+00 0. -1.
</event>
<event>
 5   0  0.1078018E-03  0.1554957E+04  0.7818609E-02  0.8848708E-01
        1   -1    0    0  501    0  0.00000000000E+00  0.00000000000E+00  0.12018197644E+04  0.12018197644E+04  0.50400001928E-02 0.  1.
       -1   -1    0    0    0  501  0.00000000000E+00  0.00000000000E+00 -0.50296442246E+03  0.50296442249E+03  0.50400001928E-02 0. -1.
    10030    2    1    2    0    0  0.00000000000E+00  0.00000000000E+00  0.69885534194E+03  0.17047841869E+04  0.15549566987E+04 0.  0.
        4    1    3    3  502    0  0.97916890462E+02 -0.70784337757E+02  0.11914629844E+04  0.11975741296E+04  0.12699999809E+01 0.  1.
       -4    1    3    3    0  502 -0.97916890462E+02  0.70784337757E+02 -0.49260764244E+03  0.50721005727E+03  0.12699999809E+01 0. -1.
</event>
<event>
 5   0  0.1961098E-03  0.1487249E+04  0.7818609E-02  0.8892977E-01
        2   -1    0    0  501    0  0.00000000000E+00  0.00000000000E+00  0.13611761216E+04  0.13611761216E+04  0.25500000920E-02 0. -1.
       -2   -1    0    0    0  501  0.00000000000E+00  0.00000000000E+00 -0.40624951157E+03  0.40624951157E+03  0.25500000920E-02 0.  1.
    10030    2    1    2    0    0  0.00000000000E+00  0.00000000000E+00  0.95492661001E+03  0.17674256332E+04  0.14872486471E+04 0.  0.
        2    1    3    3  502    0  0.44996665326E+03 -0.40079085371E+03 -0.40370180248E+02  0.60393132798E+03  0.25500000920E-02 0.  1.
       -2    1    3    3    0  502 -0.44996665326E+03  0.40079085371E+03  0.99529679026E+03  0.11634943052E+04  0.25500000920E-02 0. -1.
</event>
<event>
 5   0  0.1078018E-03  0.1546474E+04  0.7818609E-02  0.8854123E-01
       -1   -1    0    0    0  501  0.00000000000E+00  0.00000000000E+00  0.51565650579E+03  0.51565650581E+03  0.50400001928E-02 0.  1.
        1   -1    0    0  501    0  0.00000000000E+00  0.00000000000E+00 -0.11594843042E+04  0.11594843042E+04  0.50400001928E-02 0. -1.
    10030    2    1    2    0    0  0.00000000000E+00  0.00000000000E+00 -0.64382779844E+03  0.16751408101E+04  0.15464742156E+04 0.  0.
        4    1    3    3  502    0 -0.59799098407E+03 -0.82718645821E+01  0.20900037221E+03  0.63351748931E+03  0.12699999809E+01 0.  1.
       -4    1    3    3    0  502  0.59799098407E+03  0.82718645821E+01 -0.85282817065E+03  0.10416233207E+04  0.12699999809E+01 0. -1.
</event>
<event>
 5   0  0.1078018E-03  0.1524467E+04  0.7818609E-02  0.8868344E-01
       -1   -1    0    0    0  501  0.00000000000E+00  0.00000000000E+00  0.48084114274E+03  0.48084114277E+03  0.50400001928E-02 0.  1.
        1   -1    0    0  501    0  0.00000000000E+00  0.00000000000E+00 -0.12082995992E+04  0.12082995992E+04  0.50400001928E-02 0. -1.
    10030    2    1    2    0    0  0.00000000000E+00  0.00000000000E+00 -0.72745845642E+03  0.16891407419E+04  0.15244673300E+04 0.  0.
        4    1    3    3  502    0 -0.16298977745E+03 -0.52665834667E+03  0.21949782412E+03  0.59339328389E+03  0.12699999809E+01 0.  1.
       -4    1    3    3    0  502  0.16298977745E+03  0.52665834667E+03 -0.94695628054E+03  0.10957474581E+04  0.12699999809E+01 0. -1.
</event>
<event>
 5   0  0.1069697E-03  0.1446015E+04  0.7818609E-02  0.8921168E-01
       -1   -1    0    0    0  501  0.00000000000E+00  0.00000000000E+00  0.41157251654E+03  0.41157251657E+03  0.50400001928E-02 0.  1.
        1   -1    0    0  501    0  0.00000000000E+00  0.00000000000E+00 -0.12701044649E+04  0.12701044649E+04  0.50400001928E-02 0. -1.
    10030    2    1    2    0    0  0.00000000000E+00  0.00000000000E+00 -0.85853194833E+03  0.16816769814E+04  0.14460153400E+04 0.  0.
        2    1    3    3  502    0  0.39243835224E+02  0.66934764587E+03 -0.74385770997E+03  0.10014442782E+04  0.25500000920E-02 0. -1.
       -2    1    3    3    0  502 -0.39243835224E+02 -0.66934764587E+03 -0.11467423836E+03  0.68023270326E+03  0.25500000920E-02 0.  1.
</event>
<event>
 5   0  0.1961098E-03  0.1505858E+04  0.7818609E-02  0.8880567E-01
       -2   -1    0    0    0  501  0.00000000000E+00  0.00000000000E+00  0.30677160357E+03  0.30677160358E+03  0.25500000920E-02 0. -1.
        2   -1    0    0  501    0  0.00000000000E+00  0.00000000000E+00 -0.18479617200E+04  0.18479617200E+04  0.25500000920E-02 0.  1.
    10030    2    1    2    0    0  0.00000000000E+00  0.00000000000E+00 -0.15411901164E+04  0.21547333236E+04  0.15058581343E+04 0.  0.
        2    1    3    3  502    0  0.45363049300E+03 -0.16095886081E+03  0.57862785817E+02  0.48480561160E+03  0.25500000920E-02 0. -1.
       -2    1    3    3    0  502 -0.45363049300E+03  0.16095886081E+03 -0.15990529022E+04  0.16699277120E+04  0.25500000920E-02 0.  1.
</event>
<event>
 5   0  0.2094566E-03  0.1448429E+04  0.7818609E-02  0.8919490E-01
       -2   -1    0    0    0  501  0.00000000000E+00  0.00000000000E+00  0.49022000213E+03  0.49022000213E+03  0.25500000920E-02 0.  1.
        2   -1    0    0  501    0  0.00000000000E+00  0.00000000000E+00 -0.10699012576E+04  0.10699012576E+04  0.25500000920E-02 0. -1.
    10030    2    1    2    0    0  0.00000000000E+00  0.00000000000E+00 -0.57968125550E+03  0.15601212598E+04  0.14484294899E+04 0.  0.
        1    1    3    3  502    0 -0.59794754784E+02  0.55650562547E+03 -0.78485908704E+03  0.96399051365E+03  0.50400001928E-02 0. -1.
       -1    1    3    3    0  502  0.59794754784E+02 -0.55650562547E+03  0.20517783153E+03  0.59613074611E+03  0.50400001928E-02 0.  1.
</event>
<event>
 5   0  0.7468375E-04  0.1514336E+04  0.7818609E-02  0.8874975E-01
        4   -1    0    0  501    0  0.00000000000E+00  0.00000000000E+00  0.11497413711E+04  0.11497420726E+04  0.12699999809E+01 0. -1.
       -4   -1    0    0    0  501  0.00000000000E+00  0.00000000000E+00 -0.49863489900E+03  0.49863651631E+03  0.12699999809E+01 0.  1.
    10030    2    1    2    0    0  0.00000000000E+00  0.00000000000E+00  0.65110647214E+03  0.16483785889E+04  0.15143356082E+04 0.  0.
        5    1    3    3  502    0  0.35775558041E+03  0.15219954409E+03 -0.38166999460E+03  0.54483743568E+03  0.46999998093E+01 0.  1.
       -5    1    3    3    0  502 -0.35775558041E+03 -0.15219954409E+03  0.10327764667E+04  0.11035411532E+04  0.46999998093E+01 0. -1.
</event>
<event>
 5   0  0.2094566E-03  0.1466207E+04  0.7818609E-02  0.8907241E-01
        2   -1    0    0  501    0  0.00000000000E+00  0.00000000000E+00  0.32792716117E+03  0.32792716118E+03  0.25500000920E-02 0. -1.
       -2   -1    0    0    0  501  0.00000000000E+00  0.00000000000E+00 -0.16389017195E+04  0.16389017195E+04  0.25500000920E-02 0.  1.
    10030    2    1    2    0    0  0.00000000000E+00  0.00000000000E+00 -0.13109745583E+04  0.19668288807E+04  0.14662065179E+04 0.  0.
        1    1    3    3  502    0  0.29492511170E+03 -0.35244512361E+03 -0.14216859028E+04  0.14941181991E+04  0.50400001928E-02 0.  1.
       -1    1    3    3    0  502 -0.29492511170E+03  0.35244512361E+03  0.11071134444E+03  0.47271068159E+03  0.50400001928E-02 0. -1.
</event>
<event>
 5   0  0.1077140E-03  0.1544495E+04  0.7818609E-02  0.8855392E-01
       -1   -1    0    0    0  501  0.00000000000E+00  0.00000000000E+00  0.79886836164E+03  0.79886836166E+03  0.50400001928E-02 0. -1.
        1   -1    0    0  501    0  0.00000000000E+00  0.00000000000E+00 -0.74651360674E+03  0.74651360676E+03  0.50400001928E-02 0.  1.
    10030    2    1    2    0    0  0.00000000000E+00  0.00000000000E+00  0.52354754899E+02  0.15453819684E+04  0.15444948715E+04 0.  0.
        1    1    3    3  502    0  0.59994975718E+02 -0.66694395460E+03 -0.35868944524E+03  0.75965239014E+03  0.50400001928E-02 0.  1.
       -1    1    3    3    0  502 -0.59994975718E+02  0.66694395460E+03  0.41104420014E+03  0.78572957828E+03  0.50400001928E-02 0. -1.
</event>
<event>
 5   0  0.2111533E-03  0.1417671E+04  0.7818609E-02  0.8941126E-01
        2   -1    0    0  501    0  0.00000000000E+00  0.00000000000E+00  0.77200949876E+03  0.77200949877E+03  0.25500000920E-02 0.  1.
       -2   -1    0    0    0  501  0.00000000000E+00  0.00000000000E+00 -0.65083119475E+03  0.65083119475E+03  0.25500000920E-02 0. -1.
    10030    2    1    2    0    0  0.00000000000E+00  0.00000000000E+00  0.12117830401E+03  0.14228406935E+04  0.14176711388E+04 0.  0.
        5    1    3    3  502    0  0.49406656376E+03  0.49523756696E+03  0.17530273135E+03  0.72119009615E+03  0.46999998093E+01 0.  1.
       -5    1    3    3    0  502 -0.49406656376E+03 -0.49523756696E+03 -0.54124427341E+02  0.70165059737E+03  0.46999998093E+01 0. -1.
</event>
<event>
 5   0  0.1993623E-03  0.1512529E+04  0.7818609E-02  0.8876164E-01
       -2   -1    0    0    0  501  0.00000000000E+00  0.00000000000E+00  0.10671106520E+04  0.10671106520E+04  0.25500000920E-02 0. -1.
        2   -1    0    0  501    0  0.00000000000E+00  0.00000000000E+00 -0.53596700815E+03  0.53596700815E+03  0.25500000920E-02 0.  1.
    10030    2    1    2    0    0  0.00000000000E+00  0.00000000000E+00  0.53114364382E+03  0.16030776601E+04  0.15125291448E+04 0.  0.
        4    1    3    3  502    0  0.12377689114E+03  0.39276435603E+03  0.93785582371E+03  0.10242849785E+04  0.12699999809E+01 0. -1.
       -4    1    3    3    0  502 -0.12377689114E+03 -0.39276435603E+03 -0.40671217990E+03  0.57879268164E+03  0.12699999809E+01 0.  1.
</event>
<event>
 5   0  0.1993623E-03  0.1481053E+04  0.7818609E-02  0.8897151E-01
       -2   -1    0    0    0  501  0.00000000000E+00  0.00000000000E+00  0.24782091880E+03  0.24782091881E+03  0.25500000920E-02 0. -1.
        2   -1    0    0  501    0  0.00000000000E+00  0.00000000000E+00 -0.22128040579E+04  0.22128040579E+04  0.25500000920E-02 0.  1.
    10030    2    1    2    0    0  0.00000000000E+00  0.00000000000E+00 -0.19649831391E+04  0.24606249767E+04  0.14810525106E+04 0.  0.
        4    1    3    3  502    0 -0.48275552329E+03  0.37559734882E+02 -0.51640419328E+02  0.48696198493E+03  0.12699999809E+01 0. -1.
       -4    1    3    3    0  502  0.48275552329E+03 -0.37559734882E+02 -0.19133427197E+04  0.19736629918E+04  0.12699999809E+01 0.  1.
</event>
<event>
 5   0  0.1069697E-03  0.1534618E+04  0.7818609E-02  0.8861753E-01
       -1   -1    0    0    0  501  0.00000000000E+00  0.00000000000E+00  0.43020615646E+03  0.43020615649E+03  0.50400001928E-02 0.  1.
        1   -1    0    0  501    0  0.00000000000E+00  0.00000000000E+00 -0.13685601428E+04  0.13685601428E+04  0.50400001928E-02 0. -1.
    10030    2    1    2    0    0  0.00000000000E+00  0.00000000000E+00 -0.93835398635E+03  0.17987662993E+04  0.15346178664E+04 0.  0.
        2    1    3    3  502    0 -0.72672225088E+03 -0.22506341605E+03 -0.35205681274E+03  0.83828561396E+03  0.25500000920E-02 0.  1.
       -2    1    3    3    0  502  0.72672225088E+03  0.22506341605E+03 -0.58629717360E+03  0.96048068536E+03  0.25500000920E-02 0. -1.
</event>
<event>
 5   0  0.1087761E-03  0.1492653E+04  0.7818609E-02  0.8889353E-01
        1   -1    0    0  501    0  0.00000000000E+00  0.00000000000E+00  0.22046524236E+04  0.22046524236E+04  0.50400001928E-02 0.  1.
       -1   -1    0    0    0  501  0.00000000000E+00  0.00000000000E+00 -0.25264917283E+03  0.25264917288E+03  0.50400001928E-02 0. -1.
    10030    2    1    2    0    0  0.00000000000E+00  0.00000000000E+00  0.19520032508E+04  0.24573015965E+04  0.14926534913E+04 0.  0.
        3    1    3    3  502    0 -0.54715958961E+03  0.18429374773E+03  0.17545570650E+04  0.18471107997E+04  0.10100000352E+00 0.  1.
       -3    1    3    3    0  502  0.54715958961E+03 -0.18429374773E+03  0.19744618576E+03  0.61019079674E+03  0.10100000352E+00 0. -1.
</event>
<event>
 5   0  0.1078787E-03  0.1505680E+04  0.7818609E-02  0.8880684E-01
       -1   -1    0    0    0  501  0.00000000000E+00  0.00000000000E+00  0.61765528684E+03  0.61765528686E+03  0.50400001928E-02 0.  1.
        1   -1    0    0  501    0  0.00000000000E+00  0.00000000000E+00 -0.91761255571E+03  0.91761255573E+03  0.50400001928E-02 0. -1.
    10030    2    1    2    0    0  0.00000000000E+00  0.00000000000E+00 -0.29995726888E+03  0.15352678426E+04  0.15056802401E+04 0.  0.
        5    1    3    3  502    0  0.21823297405E+03 -0.58237383080E+03 -0.58253319854E+03  0.85214548474E+03  0.46999998093E+01 0. -1.
       -5    1    3    3    0  502 -0.21823297405E+03  0.58237383080E+03  0.28257592966E+03  0.68312235785E+03  0.46999998093E+01 0.  1.
</event>
<event>
 5   0  0.1993623E-03  0.1458074E+04  0.7818609E-02  0.8912822E-01
       -2   -1    0    0    0  501  0.00000000000E+00  0.00000000000E+00  0.34159798477E+03  0.34159798477E+03  0.25500000920E-02 0.  1.
        2   -1    0    0  501    0  0.00000000000E+00  0.00000000000E+00 -0.15559076383E+04  0.15559076383E+04  0.25500000920E-02 0. -1.
    10030    2    1    2    0    0  0.00000000000E+00  0.00000000000E+00 -0.12143096536E+04  0.18975056231E+04  0.14580739539E+04 0.  0.
        4    1    3    3  502    0 -0.84656422766E+02 -0.28612231940E+03  0.25849216872E+03  0.39478159248E+03  0.12699999809E+01 0.  1.
       -4    1    3    3    0  502  0.84656422766E+02  0.28612231940E+03 -0.14728018223E+04  0.15027240306E+04  0.12699999809E+01 0. -1.
</event>
<event>
 5   0  0.2111533E-03  0.1531704E+04  0.7818609E-02  0.8863639E-01
       -2   -1    0    0    0  501  0.00000000000E+00  0.00000000000E+00  0.56805031675E+03  0.56805031676E+03  0.25500000920E-02 0.  1.
        2   -1    0    0  501    0  0.00000000000E+00  0.00000000000E+00 -0.10325307792E+04  0.10325307792E+04  0.25500000920E-02 0. -1.
    10030    2    1    2    0    0  0.00000000000E+00  0.00000000000E+00 -0.46448046242E+03  0.16005810959E+04  0.15317041962E+04 0.  0.
        5    1    3    3  502    0 -0.45197406423E+03  0.14671655028E+03 -0.85983090552E+03  0.98241415754E+03  0.46999998093E+01 0. -1.
       -5    1    3    3    0  502  0.45197406423E+03 -0.14671655028E+03  0.39535044309E+03  0.61816693839E+03  0.46999998093E+01 0.  1.
</event>
<event>
 5   0  0.2094566E-03  0.1556899E+04  0.7818609E-02  0.8847473E-01
       -2   -1    0    0    0  501  0.00000000000E+00  0.00000000000E+00  0.45253402557E+03  0.45253402557E+03  0.25500000920E-02 0.  1.
        2   -1    0    0  501    0  0.00000000000E+00  0.00000000000E+00 -0.13390901006E+04  0.13390901006E+04  0.25500000920E-02 0. -1.
    10030    2    1    2    0    0  0.00000000000E+00  0.00000000000E+00 -0.88655607500E+03  0.17916241261E+04  0.15568992695E+04 0.  0.
        1    1    3    3  502    0 -0.21111016431E+03 -0.57966170247E+03 -0.98962894582E+03  0.11661649288E+04  0.50400001928E-02 0. -1.
       -1    1    3    3    0  502  0.21111016431E+03  0.57966170247E+03  0.10307287081E+03  0.62545919732E+03  0.50400001928E-02 0.  1.
</event>
<event>
 5   0  0.2094566E-03  0.1480544E+04  0.7818609E-02  0.8897495E-01
        2   -1    0    0  501    0  0.00000000000E+00  0.00000000000E+00  0.47627320222E+03  0.47627320223E+03  0.25500000920E-02 0.  1.
       -2   -1    0    0    0  501  0.00000000000E+00  0.00000000000E+00 -0.11506063750E+04  0.11506063750E+04  0.25500000920E-02 0. -1.
    10030    2    1    2    0    0  0.00000000000E+00  0.00000000000E+00 -0.67433317275E+03  0.16268795772E+04  0.14805444711E+04 0.  0.
        1    1    3    3  502    0  0.54116130192E+03  0.34093896420E+03  0.72374670620E+02  0.64368705516E+03  0.50400001928E-02 0.  1.
       -1    1    3    3    0  502 -0.54116130192E+03 -0.34093896420E+03 -0.74670784337E+03  0.98319252203E+03  0.50400001928E-02 0. -1.
</event>
<event>
 5   0  0.7468375E-04  0.1519438E+04  0.7818609E-02  0.8871629E-01
        3   -1    0    0  501    0  0.00000000000E+00  0.00000000000E+00  0.13414741447E+04  0.13414741485E+04  0.10100000352E+00 0. -1.
       -3   -1    0    0    0  501  0.00000000000E+00  0.00000000000E+00 -0.43025249643E+03  0.43025250829E+03  0.10100000352E+00 0.  1.
    10030    2    1    2    0    0  0.00000000000E+00  0.00000000000E+00  0.91122164827E+03  0.17717266568E+04  0.15194375453E+04 0.  0.
        4    1    3    3  502    0 -0.90758054477E+02  0.32669415768E+03 -0.33712984723E+03  0.47814667615E+03  0.12699999809E+01 0.  1.
       -4    1    3    3    0  502  0.90758054477E+02 -0.32669415768E+03  0.12483514955E+04  0.12935799807E+04  0.12699999809E+01 0. -1.
</event>
<event>
 5   0  0.7468375E-04  0.1475105E+04  0.7818609E-02  0.8901178E-01
        3   -1    0    0  501    0  0.00000000000E+00  0.00000000000E+00  0.11968528780E+04  0.11968528822E+04  0.10100000352E+00 0. -1.
       -3   -1    0    0    0  501  0.00000000000E+00  0.00000000000E+00 -0.45451190626E+03  0.45451191748E+03  0.10100000352E+00 0.  1.
    10030    2    1    2    0    0  0.00000000000E+00  0.00000000000E+00  0.74234097172E+03  0.16513647997E+04  0.14751052788E+04 0.  0.
        1    1    3    3  502    0 -0.56129810613E+03 -0.24996238531E+03  0.82789904796E+03  0.10309964072E+04  0.50400001928E-02 0. -1.
       -1    1    3    3    0  502  0.56129810613E+03  0.24996238531E+03 -0.85558076239E+02  0.62036839253E+03  0.50400001928E-02 0.  1.
</event>
<event>
 5   0  0.1993623E-03  0.1499088E+04  0.7818609E-02  0.8885060E-01
        2   -1    0    0  501    0  0.00000000000E+00  0.00000000000E+00  0.12889102370E+04  0.12889102370E+04  0.25500000920E-02 0.  1.
       -2   -1    0    0    0  501  0.00000000000E+00  0.00000000000E+00 -0.43588452096E+03  0.43588452097E+03  0.25500000920E-02 0. -1.
    10030    2    1    2    0    0  0.00000000000E+00  0.00000000000E+00  0.85302571599E+03  0.17247947579E+04  0.14990877509E+04 0.  0.
        4    1    3    3  502    0  0.37832117263E+03 -0.46142444027E+03 -0.95410407918E+02  0.60427161324E+03  0.12699999809E+01 0. -1.
       -4    1    3    3    0  502 -0.37832117263E+03  0.46142444027E+03  0.94843612391E+03  0.11205231447E+04  0.12699999809E+01 0.  1.
</event>
<event>
 5   0  0.1078018E-03  0.1509822E+04  0.7818609E-02  0.8877948E-01
       -1   -1    0    0    0  501  0.00000000000E+00  0.00000000000E+00  0.10861901503E+04  0.10861901504E+04  0.50400001928E-02 0. -1.
        1   -1    0    0  501    0  0.00000000000E+00  0.00000000000E+00 -0.52466903631E+03  0.52466903634E+03  0.50400001928E-02 0.  1.
    10030    2    1    2    0    0  0.00000000000E+00  0.00000000000E+00  0.56152111403E+03  0.16108591867E+04  0.15098216311E+04 0.  0.
        4    1    3    3  502    0  0.44417643469E+03  0.60762884546E+03  0.21870277382E+03  0.78379719006E+03  0.12699999809E+01 0. -1.
       -4    1    3    3    0  502 -0.44417643469E+03 -0.60762884546E+03  0.34281834022E+03  0.82706199663E+03  0.12699999809E+01 0.  1.
</event>
<event>
 5   0  0.1993623E-03  0.1594050E+04  0.7818609E-02  0.8824211E-01
        2   -1    0    0  501    0  0.00000000000E+00  0.00000000000E+00  0.14801686963E+04  0.14801686963E+04  0.25500000920E-02 0.  1.
       -2   -1    0    0    0  501  0.00000000000E+00  0.00000000000E+00 -0.42917352832E+03  0.42917352833E+03  0.25500000920E-02 0. -1.
    10030    2    1    2    0    0  0.00000000000E+00  0.00000000000E+00  0.10509951680E+04  0.19093422247E+04  0.15940504659E+04 0.  0.
        4    1    3    3  502    0 -0.21485328263E+02  0.46323767121E+03 -0.25094278346E+03  0.52728043092E+03  0.12699999809E+01 0. -1.
       -4    1    3    3    0  502  0.21485328263E+02 -0.46323767121E+03  0.13019379515E+04  0.13820617937E+04  0.12699999809E+01 0.  1.
</event>
<event>
 5   0  0.1087761E-03  0.1414547E+04  0.7818609E-02  0.8943356E-01
        1   -1    0    0  501    0  0.00000000000E+00  0.00000000000E+00  0.11909116177E+04  0.11909116177E+04  0.50400001928E-02 0.  1.
       -1   -1    0    0    0  501  0.00000000000E+00  0.00000000000E+00 -0.42004414657E+03  0.42004414660E+03  0.50400001928E-02 0. -1.
    10030    2    1    2    0    0  0.00000000000E+00  0.00000000000E+00  0.77086747111E+03  0.16109557643E+04  0.14145465056E+04 0.  0.
        3    1    3    3  502    0 -0.54349127481E+02 -0.22327134044E+03  0.11472139261E+04  0.11700015904E+04  0.10100000352E+00 0.  1.
       -3    1    3    3    0  502  0.54349127481E+02  0.22327134044E+03 -0.37634645497E+03  0.44095417391E+03  0.10100000352E+00 0. -1.
</event>
<event>
 5   0  0.1078018E-03  0.1513799E+04  0.7818609E-02  0.8875328E-01
       -1   -1    0    0    0  501  0.00000000000E+00  0.00000000000E+00  0.45264828559E+03  0.45264828562E+03  0.50400001928E-02 0.  1.
        1   -1    0    0  501    0  0.00000000000E+00  0.00000000000E+00 -0.12656554115E+04  0.12656554115E+04  0.50400001928E-02 0. -1.
    10030    2    1    2    0    0  0.00000000000E+00  0.00000000000E+00 -0.81300712586E+03  0.17183036971E+04  0.15137988667E+04 0.  0.
        4    1    3    3  502    0  0.30194416150E+03 -0.40191675214E+03 -0.10487979547E+04  0.11630503493E+04  0.12699999809E+01 0. -1.
       -4    1    3    3    0  502 -0.30194416150E+03  0.40191675214E+03  0.23579082888E+03  0.55525334776E+03  0.12699999809E+01 0.  1.
</event>
<event>
 5   0  0.1069697E-03  0.1280552E+04  0.7818609E-02  0.9045131E-01
       -1   -1    0    0    0  501  0.00000000000E+00  0.00000000000E+00  0.32336724600E+03  0.32336724604E+03  0.50400001928E-02 0. -1.
        1   -1    0    0  501    0  0.00000000000E+00  0.00000000000E+00 -0.12677641594E+04  0.12677641594E+04  0.50400001928E-02 0.  1.
    10030    2    1    2    0    0  0.00000000000E+00  0.00000000000E+00 -0.94439691339E+03  0.15911314054E+04  0.12805520760E+04 0.  0.
        2    1    3    3  502    0  0.28371837852E+03  0.47376570590E+03 -0.69564531361E+02  0.55658717774E+03  0.25500000920E-02 0. -1.
       -2    1    3    3    0  502 -0.28371837852E+03 -0.47376570590E+03 -0.87483238203E+03  0.10345442277E+04  0.25500000920E-02 0.  1.
</event>
<event>
 5   0  0.2094566E-03  0.1515723E+04  0.7818609E-02  0.8874064E-01
       -2   -1    0    0    0  501  0.00000000000E+00  0.00000000000E+00  0.52781614675E+03  0.52781614676E+03  0.25500000920E-02 0.  1.
        2   -1    0    0  501    0  0.00000000000E+00  0.00000000000E+00 -0.10881711532E+04  0.10881711532E+04  0.25500000920E-02 0. -1.
    10030    2    1    2    0    0  0.00000000000E+00  0.00000000000E+00 -0.56035500647E+03  0.16159873000E+04  0.15157233324E+04 0.  0.
        1    1    3    3  502    0 -0.34115108810E+03 -0.39591874522E+03 -0.86531629559E+03  0.10108946578E+04  0.50400001928E-02 0. -1.
       -1    1    3    3    0  502  0.34115108810E+03  0.39591874522E+03  0.30496128912E+03  0.60509264218E+03  0.50400001928E-02 0.  1.
</event>
<event>
 5   0  0.1087761E-03  0.1475926E+04  0.7818609E-02  0.8900622E-01
       -1   -1    0    0    0  501  0.00000000000E+00  0.00000000000E+00  0.37465673456E+03  0.37465673460E+03  0.50400001928E-02 0.  1.
        1   -1    0    0  501    0  0.00000000000E+00  0.00000000000E+00 -0.14535681770E+04  0.14535681770E+04  0.50400001928E-02 0. -1.
    10030    2    1    2    0    0  0.00000000000E+00  0.00000000000E+00 -0.10789114424E+04  0.18282249116E+04  0.14759256170E+04 0.  0.
        3    1    3    3  502    0  0.67123853857E+03  0.27552948901E+03 -0.37275348684E+03  0.81573454452E+03  0.10100000352E+00 0.  1.
       -3    1    3    3    0  502 -0.67123853857E+03 -0.27552948901E+03 -0.70615795559E+03  0.10124903671E+04  0.10100000352E+00 0. -1.
</event>
<event>
 5   0  0.2094566E-03  0.1375395E+04  0.7818609E-02  0.8971824E-01
       -2   -1    0    0    0  501  0.00000000000E+00  0.00000000000E+00  0.44252391278E+03  0.44252391279E+03  0.25500000920E-02 0. -1.
        2   -1    0    0  501    0  0.00000000000E+00  0.00000000000E+00 -0.10687050840E+04  0.10687050840E+04  0.25500000920E-02 0.  1.
    10030    2    1    2    0    0  0.00000000000E+00  0.00000000000E+00 -0.62618117117E+03  0.15112289967E+04  0.13753945694E+04 0.  0.
        1    1    3    3  502    0  0.18036172585E+03  0.28880052594E+03 -0.96958628572E+03  0.10276349845E+04  0.50400001928E-02 0.  1.
       -1    1    3    3    0  502 -0.18036172585E+03 -0.28880052594E+03  0.34340511454E+03  0.48359401222E+03  0.50400001928E-02 0. -1.
</event>
<event>
 5   0  0.1961098E-03  0.1505671E+04  0.7818609E-02  0.8880691E-01
       -2   -1    0    0    0  501  0.00000000000E+00  0.00000000000E+00  0.23981111525E+03  0.23981111526E+03  0.25500000920E-02 0.  1.
        2   -1    0    0  501    0  0.00000000000E+00  0.00000000000E+00 -0.23633639913E+04  0.23633639913E+04  0.25500000920E-02 0. -1.
    10030    2    1    2    0    0  0.00000000000E+00  0.00000000000E+00 -0.21235528761E+04  0.26031751066E+04  0.15056705543E+04 0.  0.
        2    1    3    3  502    0 -0.67020444317E+03 -0.24018442754E+03 -0.14849134695E+04  0.16467636645E+04  0.25500000920E-02 0. -1.
       -2    1    3    3    0  502  0.67020444317E+03  0.24018442754E+03 -0.63863940658E+03  0.95641144207E+03  0.25500000920E-02 0.  1.
</event>
<event>
 5   0  0.1993623E-03  0.1467656E+04  0.7818609E-02  0.8906251E-01
       -2   -1    0    0    0  501  0.00000000000E+00  0.00000000000E+00  0.78582092366E+03  0.78582092366E+03  0.25500000920E-02 0. -1.
        2   -1    0    0  501    0  0.00000000000E+00  0.00000000000E+00 -0.68527475892E+03  0.68527475893E+03  0.25500000920E-02 0.  1.
    10030    2    1    2    0    0  0.00000000000E+00  0.00000000000E+00  0.10054616474E+03  0.14710956826E+04  0.14676556054E+04 0.  0.
        4    1    3    3  502    0  0.29137457434E+03 -0.31984121145E+03 -0.54382529345E+03  0.69494251979E+03  0.12699999809E+01 0.  1.
       -4    1    3    3    0  502 -0.29137457434E+03  0.31984121145E+03  0.64437145818E+03  0.77615316281E+03  0.12699999809E+01 0. -1.
</event>
<event>
 5   0  0.1078018E-03  0.1537458E+04  0.7818609E-02  0.8859919E-01
        1   -1    0    0  501    0  0.00000000000E+00  0.00000000000E+00  0.12178240122E+04  0.12178240123E+04  0.50400001928E-02 0.  1.
       -1   -1    0    0    0  501  0.00000000000E+00  0.00000000000E+00 -0.48524618862E+03  0.48524618865E+03  0.50400001928E-02 0. -1.
    10030    2    1    2    0    0  0.00000000000E+00  0.00000000000E+00  0.73257782362E+03  0.17030702009E+04  0.15374582406E+04 0.  0.
        4    1    3    3  502    0 -0.61571403630E+03 -0.97460571371E+02 -0.13198785941E+03  0.63720071046E+03  0.12699999809E+01 0. -1.
       -4    1    3    3    0  502  0.61571403630E+03  0.97460571371E+02  0.86456568303E+03  0.10658694904E+04  0.12699999809E+01 0.  1.
</event>
<event>
 5   0  0.1077140E-03  0.1509060E+04  0.7818609E-02  0.8878450E-01
       -1   -1    0    0    0  501  0.00000000000E+00  0.00000000000E+00  0.32627129539E+03  0.32627129543E+03  0.50400001928E-02 0. -1.
        1   -1    0    0  501    0  0.00000000000E+00  0.00000000000E+00 -0.17449154293E+04  0.17449154293E+04  0.50400001928E-02 0.  1.
    10030    2    1    2    0    0  0.00000000000E+00  0.00000000000E+00 -0.14186441339E+04  0.20711867247E+04  0.15090603931E+04 0.  0.
        1    1    3    3  502    0 -0.30322227101E+03  0.31272687669E+03 -0.15549140282E+04  0.16147753652E+04  0.50400001928E-02 0.  1.
       -1    1    3    3    0  502  0.30322227101E+03 -0.31272687669E+03  0.13626989423E+03  0.45641135956E+03  0.50400001928E-02 0. -1.
</event>
<event>
 5   0  0.1993623E-03  0.1488897E+04  0.7818609E-02  0.8891870E-01
        2   -1    0    0  501    0  0.00000000000E+00  0.00000000000E+00  0.14896408701E+04  0.14896408701E+04  0.25500000920E-02 0. -1.
       -2   -1    0    0    0  501  0.00000000000E+00  0.00000000000E+00 -0.37203839468E+03  0.37203839469E+03  0.25500000920E-02 0.  1.
    10030    2    1    2    0    0  0.00000000000E+00  0.00000000000E+00  0.11176024754E+04  0.18616792648E+04  0.14888970387E+04 0.  0.
        4    1    3    3  502    0  0.59859821451E+03 -0.43889573995E+03  0.63011308299E+03  0.97364952792E+03  0.12699999809E+01 0. -1.
       -4    1    3    3    0  502 -0.59859821451E+03  0.43889573995E+03  0.48748939246E+03  0.88802973691E+03  0.12699999809E+01 0.  1.
</event>
<event>
 5   0  0.2111533E-03  0.1483215E+04  0.7818609E-02  0.8895692E-01
       -2   -1    0    0    0  501  0.00000000000E+00  0.00000000000E+00  0.26550386991E+03  0.26550386992E+03  0.25500000920E-02 0. -1.
        2   -1    0    0  501    0  0.00000000000E+00  0.00000000000E+00 -0.20714648070E+04  0.20714648070E+04  0.25500000920E-02 0.  1.
    10030    2    1    2    0    0  0.00000000000E+00  0.00000000000E+00 -0.18059609370E+04  0.23369686769E+04  0.14832153217E+04 0.  0.
        5    1    3    3  502    0  0.20622490210E+03  0.57842593516E+03 -0.24790835974E+03  0.66225819553E+03  0.46999998093E+01 0. -1.
       -5    1    3    3    0  502 -0.20622490210E+03 -0.57842593516E+03 -0.15580525773E+04  0.16747104814E+04  0.46999998093E+01 0.  1.
</event>
<event>
 5   0  0.1069697E-03  0.1282672E+04  0.7818609E-02  0.9043420E-01
        1   -1    0    0  501    0  0.00000000000E+00  0.00000000000E+00  0.73681358069E+03  0.73681358071E+03  0.50400001928E-02 0.  1.
       -1   -1    0    0    0  501  0.00000000000E+00  0.00000000000E+00 -0.55823087760E+03  0.55823087763E+03  0.50400001928E-02 0. -1.
    10030    2    1    2    0    0  0.00000000000E+00  0.00000000000E+00  0.17858270309E+03  0.12950444583E+04  0.12826723538E+04 0.  0.
        2    1    3    3  502    0  0.63714614922E+03 -0.55270051498E+02  0.40848374768E+02  0.64084208959E+03  0.25500000920E-02 0.  1.
       -2    1    3    3    0  502 -0.63714614922E+03  0.55270051498E+02  0.13773432832E+03  0.65420236874E+03  0.25500000920E-02 0. -1.
</event>
<event>
 5   0  0.1087761E-03  0.1448020E+04  0.7818609E-02  0.8919774E-01
        1   -1    0    0  501    0  0.00000000000E+00  0.00000000000E+00  0.74139316918E+03  0.74139316920E+03  0.50400001928E-02 0. -1.
       -1   -1    0    0    0  501  0.00000000000E+00  0.00000000000E+00 -0.70703426057E+03  0.70703426059E+03  0.50400001928E-02 0.  1.
    10030    2    1    2    0    0  0.00000000000E+00  0.00000000000E+00  0.34358908609E+02  0.14484274298E+04  0.14480198496E+04 0.  0.
        3    1    3    3  502    0 -0.29132411033E+03  0.49433820223E+03 -0.42447666530E+03  0.71373695787E+03  0.10100000352E+00 0.  1.
       -3    1    3    3    0  502  0.29132411033E+03 -0.49433820223E+03  0.45883557391E+03  0.73469047192E+03  0.10100000352E+00 0. -1.
</event>
<event>
 5   0  0.1961098E-03  0.1510149E+04  0.7818609E-02  0.8877732E-01
       -2   -1    0    0    0  501  0.00000000000E+00  0.00000000000E+00  0.41736315760E+03  0.41736315761E+03  0.25500000920E-02 0. -1.
        2   -1    0    0  501    0  0.00000000000E+00  0.00000000000E+00 -0.13660473623E+04  0.13660473623E+04  0.25500000920E-02 0.  1.
    10030    2    1    2    0    0  0.00000000000E+00  0.00000000000E+00 -0.94868420469E+03  0.17834105199E+04  0.15101494503E+04 0.  0.
        2    1    3    3  502    0 -0.36252049908E+03 -0.31181098851E+03 -0.11644560339E+04  0.12588109706E+04  0.25500000920E-02 0.  1.
       -2    1    3    3    0  502  0.36252049908E+03  0.31181098851E+03  0.21577182923E+03  0.52459954928E+03  0.25500000920E-02 0. -1.
</event>
<event>
 5   0  0.1993623E-03  0.1467312E+04  0.7818609E-02  0.8906486E-01
        2   -1    0    0  501    0  0.00000000000E+00  0.00000000000E+00  0.94787891494E+03  0.94787891495E+03  0.25500000920E-02 0. -1.
       -2   -1    0    0    0  501  0.00000000000E+00  0.00000000000E+00 -0.56784781509E+03  0.56784781510E+03  0.25500000920E-02 0.  1.
    10030    2    1    2    0    0  0.00000000000E+00  0.00000000000E+00  0.38003109985E+03  0.15157267300E+04  0.14673117880E+04 0.  0.
        4    1    3    3  502    0 -0.73097263343E+03 -0.40396804784E+02  0.14051290047E+03  0.74545179640E+03  0.12699999809E+01 0.  1.
       -4    1    3    3    0  502  0.73097263343E+03  0.40396804784E+02  0.23951819939E+03  0.77027493364E+03  0.12699999809E+01 0. -1.
</event>
<event>
 5   0  0.1077140E-03  0.1512489E+04  0.7818609E-02  0.8876190E-01
       -1   -1    0    0    0  501  0.00000000000E+00  0.00000000000E+00  0.36840907265E+03  0.36840907268E+03  0.50400001928E-02 0.  1.
        1   -1    0    0  501    0  0.00000000000E+00  0.00000000000E+00 -0.15523658470E+04  0.15523658471E+04  0.50400001928E-02 0. -1.
    10030    2    1    2    0    0  0.00000000000E+00  0.00000000000E+00 -0.11839567744E+04  0.19207749197E+04  0.15124888921E+04 0.  0.
        1    1    3    3  502    0  0.68241505666E+03  0.19703134526E+03 -0.92166013534E+03  0.11636017642E+04  0.50400001928E-02 0. -1.
       -1    1    3    3    0  502 -0.68241505666E+03 -0.19703134526E+03 -0.26229663906E+03  0.75717315553E+03  0.50400001928E-02 0.  1.
</event>
<event>
 5   0  0.1077140E-03  0.1105506E+04  0.7818609E-02  0.9199842E-01
       -1   -1    0    0    0  501  0.00000000000E+00  0.00000000000E+00  0.25897230766E+03  0.25897230771E+03  0.50400001928E-02 0. -1.
        1   -1    0    0  501    0  0.00000000000E+00  0.00000000000E+00 -0.11798018751E+04  0.11798018751E+04  0.50400001928E-02 0.  1.
    10030    2    1    2    0    0  0.00000000000E+00  0.00000000000E+00 -0.92082956746E+03  0.14387741829E+04  0.11055062446E+04 0.  0.
        1    1    3    3  502    0  0.12328408378E+03 -0.57726128333E+02 -0.11576446356E+04  0.11656210248E+04  0.50400001928E-02 0.  1.
       -1    1    3    3    0  502 -0.12328408378E+03  0.57726128333E+02  0.23681506814E+03  0.27315315800E+03  0.50400001928E-02 0. -1.
</event>
<event>
 5   0  0.2150197E-03  0.1468390E+04  0.7818609E-02  0.8905750E-01
       -2   -1    0    0    0  501  0.00000000000E+00  0.00000000000E+00  0.36894514265E+03  0.36894514266E+03  0.25500000920E-02 0. -1.
        2   -1    0    0  501    0  0.00000000000E+00  0.00000000000E+00 -0.14610366759E+04  0.14610366759E+04  0.25500000920E-02 0.  1.
    10030    2    1    2    0    0  0.00000000000E+00  0.00000000000E+00 -0.10920915333E+04  0.18299818186E+04  0.14683901182E+04 0.  0.
        3    1    3    3  502    0 -0.62756464919E+03 -0.34512841023E+03 -0.74735038168E+03  0.10351249256E+04  0.10100000352E+00 0.  1.
       -3    1    3    3    0  502  0.62756464919E+03  0.34512841023E+03 -0.34474115158E+03  0.79485689294E+03  0.10100000352E+00 0. -1.
</event>
<event>
 5   0  0.1078018E-03  0.1526785E+04  0.7818609E-02  0.8866834E-01
        1   -1    0    0  501    0  0.00000000000E+00  0.00000000000E+00  0.16665456724E+04  0.16665456725E+04  0.50400001928E-02 0.  1.
       -1   -1    0    0    0  501  0.00000000000E+00  0.00000000000E+00 -0.34968606467E+03  0.34968606470E+03  0.50400001928E-02 0. -1.
    10030    2    1    2    0    0  0.00000000000E+00  0.00000000000E+00  0.13168596078E+04  0.20162317372E+04  0.15267845923E+04 0.  0.
        4    1    3    3  502    0  0.43856257113E+03 -0.59796624010E+03  0.41902528175E+03  0.85175380993E+03  0.12699999809E+01 0. -1.
       -4    1    3    3    0  502 -0.43856257113E+03  0.59796624010E+03  0.89783432603E+03  0.11644779272E+04  0.12699999809E+01 0.  1.
</event>
<event>
 5   0  0.1087761E-03  0.1474150E+04  0.7818609E-02  0.8901827E-01
        1   -1    0    0  501    0  0.00000000000E+00  0.00000000000E+00  0.66481571167E+03  0.66481571169E+03  0.50400001928E-02 0.  1.
       -1   -1    0    0    0  501  0.00000000000E+00  0.00000000000E+00 -0.81718772846E+03  0.81718772848E+03  0.50400001928E-02 0. -1.
    10030    2    1    2    0    0  0.00000000000E+00  0.00000000000E+00 -0.15237201679E+03  0.14820034402E+04  0.14741495735E+04 0.  0.
        3    1    3    3  502    0  0.75069782479E+02 -0.27114827751E+03 -0.76108087556E+03  0.81141910872E+03  0.10100000352E+00 0. -1.
       -3    1    3    3    0  502 -0.75069782479E+02  0.27114827751E+03  0.60870885877E+03  0.67058433145E+03  0.10100000352E+00 0.  1.
</event>
<event>
 5   0  0.1077140E-03  0.1542424E+04  0.7818609E-02  0.8856722E-01
       -1   -1    0    0    0  501  0.00000000000E+00  0.00000000000E+00  0.46728050775E+03  0.46728050777E+03  0.50400001928E-02 0.  1.
        1   -1    0    0  501    0  0.00000000000E+00  0.00000000000E+00 -0.12728281617E+04  0.12728281618E+04  0.50400001928E-02 0. -1.
    10030    2    1    2    0    0  0.00000000000E+00  0.00000000000E+00 -0.80554765399E+03  0.17401086695E+04  0.15424237935E+04 0.  0.
        1    1    3    3  502    0  0.25869872125E+03 -0.65235831628E+03 -0.76355987191E+03  0.10370728418E+04  0.50400001928E-02 0. -1.
       -1    1    3    3    0  502 -0.25869872125E+03  0.65235831628E+03 -0.41987782084E+02  0.70303582772E+03  0.50400001928E-02 0.  1.
</event>
<event>
 5   0  0.1087761E-03  0.1481447E+04  0.7818609E-02  0.8896885E-01
        1   -1    0    0  501    0  0.00000000000E+00  0.00000000000E+00  0.11191017476E+04  0.11191017476E+04  0.50400001928E-02 0. -1.
       -1   -1    0    0    0  501  0.00000000000E+00  0.00000000000E+00 -0.49027816125E+03  0.49027816128E+03  0.50400001928E-02 0.  1.
    10030    2    1    2    0    0  0.00000000000E+00  0.00000000000E+00  0.62882358632E+03  0.16093799089E+04  0.14814467889E+04 0.  0.
        3    1    3    3  502    0 -0.41987282589E+03 -0.85997457806E+02  0.97072096022E+03  0.10611257915E+04  0.10100000352E+00 0. -1.
       -3    1    3    3    0  502  0.41987282589E+03  0.85997457806E+02 -0.34189737390E+03  0.54825411731E+03  0.10100000352E+00 0.  1.
</event>
<event>
 5   0  0.7468375E-04  0.1491025E+04  0.7818609E-02  0.8890443E-01
        4   -1    0    0  501    0  0.00000000000E+00  0.00000000000E+00  0.48583496560E+03  0.48583662552E+03  0.12699999809E+01 0. -1.
       -4   -1    0    0    0  501  0.00000000000E+00  0.00000000000E+00 -0.11439827649E+04  0.11439834699E+04  0.12699999809E+01 0.  1.
    10030    2    1    2    0    0  0.00000000000E+00  0.00000000000E+00 -0.65814779932E+03  0.16298200954E+04  0.14910248213E+04 0.  0.
        3    1    3    3  502    0 -0.66398394009E+02  0.27977911654E+03 -0.10809269072E+04  0.11185204914E+04  0.10100000352E+00 0.  1.
       -3    1    3    3    0  502  0.66398394009E+02 -0.27977911654E+03  0.42277910788E+03  0.51129960399E+03  0.10100000352E+00 0. -1.
</event>
<event>
 5   0  0.1078018E-03  0.1538476E+04  0.7818609E-02  0.8859262E-01
       -1   -1    0    0    0  501  0.00000000000E+00  0.00000000000E+00  0.58199891303E+03  0.58199891305E+03  0.50400001928E-02 0. -1.
        1   -1    0    0  501    0  0.00000000000E+00  0.00000000000E+00 -0.10167153786E+04  0.10167153786E+04  0.50400001928E-02 0.  1.
    10030    2    1    2    0    0  0.00000000000E+00  0.00000000000E+00 -0.43471646560E+03  0.15987142917E+04  0.15384761880E+04 0.  0.
        4    1    3    3  502    0  0.41776513039E+03  0.50131768280E+03  0.20587049624E+03  0.68427435826E+03  0.12699999809E+01 0. -1.
       -4    1    3    3    0  502 -0.41776513039E+03 -0.50131768280E+03 -0.64058696185E+03  0.91443993342E+03  0.12699999809E+01 0.  1.
</event>
<event>
 5   0  0.1077140E-03  0.1472446E+04  0.7818609E-02  0.8902986E-01
       -1   -1    0    0    0  501  0.00000000000E+00  0.00000000000E+00  0.64608762399E+03  0.64608762401E+03  0.50400001928E-02 0.  1.
        1   -1    0    0  501    0  0.00000000000E+00  0.00000000000E+00 -0.83893304988E+03  0.83893304989E+03  0.50400001928E-02 0. -1.
    10030    2    1    2    0    0  0.00000000000E+00  0.00000000000E+00 -0.19284542589E+03  0.14850206739E+04  0.14724459391E+04 0.  0.
        1    1    3    3  502    0  0.28800874314E+03 -0.63588551128E+03 -0.33235392376E+03  0.77314846585E+03  0.50400001928E-02 0. -1.
       -1    1    3    3    0  502 -0.28800874314E+03  0.63588551128E+03  0.13950849787E+03  0.71187220805E+03  0.50400001928E-02 0.  1.
</event>
<event>
 5   0  0.1087761E-03  0.1477154E+04  0.7818609E-02  0.8899789E-01
       -1   -1    0    0    0  501  0.00000000000E+00  0.00000000000E+00  0.37622683498E+03  0.37622683502E+03  0.50400001928E-02 0. -1.
        1   -1    0    0  501    0  0.00000000000E+00  0.00000000000E+00 -0.14499128720E+04  0.14499128720E+04  0.50400001928E-02 0.  1.
    10030    2    1    2    0    0  0.00000000000E+00  0.00000000000E+00 -0.10736860370E+04  0.18261397070E+04  0.14771541976E+04 0.  0.
        3    1    3    3  502    0  0.62857500358E+02 -0.66034725777E+03 -0.13532344592E+03  0.67699483854E+03  0.10100000352E+00 0.  1.
       -3    1    3    3    0  502 -0.62857500358E+02  0.66034725777E+03 -0.93836259109E+03  0.11491448685E+04  0.10100000352E+00 0. -1.
</event>
<event>
 5   0  0.2111533E-03  0.1483149E+04  0.7818609E-02  0.8895736E-01
        2   -1    0    0  501    0  0.00000000000E+00  0.00000000000E+00  0.13822006619E+04  0.13822006619E+04  0.25500000920E-02 0.  1.
       -2   -1    0    0    0  501  0.00000000000E+00  0.00000000000E+00 -0.39786761058E+03  0.39786761059E+03  0.25500000920E-02 0. -1.
    10030    2    1    2    0    0  0.00000000000E+00  0.00000000000E+00  0.98433305128E+03  0.17800682725E+04  0.14831491829E+04 0.  0.
        5    1    3    3  502    0 -0.41924537463E+03  0.15611039168E+03  0.12019818395E+04  0.12825441790E+04  0.46999998093E+01 0.  1.
       -5    1    3    3    0  502  0.41924537463E+03 -0.15611039168E+03 -0.21764878825E+03  0.49752409345E+03  0.46999998093E+01 0. -1.
</event>
<event>
 5   0  0.1993623E-03  0.1508000E+04  0.7818609E-02  0.8879150E-01
       -2   -1    0    0    0  501  0.00000000000E+00  0.00000000000E+00  0.22871043374E+03  0.22871043375E+03  0.25500000920E-02 0.  1.
        2   -1    0    0  501    0  0.00000000000E+00  0.00000000000E+00 -0.24857458554E+04  0.24857458554E+04  0.25500000920E-02 0. -1.
    10030    2    1    2    0    0  0.00000000000E+00  0.00000000000E+00 -0.22570354217E+04  0.27144562892E+04  0.15080000169E+04 0.  0.
        4    1    3    3  502    0 -0.58424288643E+03  0.47637970142E+03 -0.11562306642E+04  0.13802711081E+04  0.12699999809E+01 0.  1.
       -4    1    3    3    0  502  0.58424288643E+03 -0.47637970142E+03 -0.11008047575E+04  0.13341851811E+04  0.12699999809E+01 0. -1.
</event>
<event>
 5   0  0.1078787E-03  0.1488523E+04  0.7818609E-02  0.8892121E-01
       -1   -1    0    0    0  501  0.00000000000E+00  0.00000000000E+00  0.65776247038E+03  0.65776247040E+03  0.50400001928E-02 0.  1.
        1   -1    0    0  501    0  0.00000000000E+00  0.00000000000E+00 -0.84213574044E+03  0.84213574045E+03  0.50400001928E-02 0. -1.
    10030    2    1    2    0    0  0.00000000000E+00  0.00000000000E+00 -0.18437327006E+03  0.14998982108E+04  0.14885231406E+04 0.  0.
        5    1    3    3  502    0  0.62850644579E+03  0.30311410402E+03 -0.35301737510E+03  0.78201142547E+03  0.46999998093E+01 0. -1.
       -5    1    3    3    0  502 -0.62850644579E+03 -0.30311410402E+03  0.16864410504E+03  0.71788678537E+03  0.46999998093E+01 0.  1.
</event>
<event>
 5   0  0.1993623E-03  0.1552386E+04  0.7818609E-02  0.8850345E-01
        2   -1    0    0  501    0  0.00000000000E+00  0.00000000000E+00  0.11452884134E+04  0.11452884134E+04  0.25500000920E-02 0. -1.
       -2   -1    0    0    0  501  0.00000000000E+00  0.00000000000E+00 -0.52604721549E+03  0.52604721550E+03  0.25500000920E-02 0.  1.
    10030    2    1    2    0    0  0.00000000000E+00  0.00000000000E+00  0.61924119793E+03  0.16713356289E+04  0.15523862674E+04 0.  0.
        4    1    3    3  502    0  0.74962389046E+03 -0.19578284760E+03  0.36020205769E+03  0.85440858834E+03  0.12699999809E+01 0.  1.
       -4    1    3    3    0  502 -0.74962389046E+03  0.19578284760E+03  0.25903914024E+03  0.81692704059E+03  0.12699999809E+01 0. -1.
</event>
<event>
 5   0  0.1087761E-03  0.1487531E+04  0.7818609E-02  0.8892787E-01
       -1   -1    0    0    0  501  0.00000000000E+00  0.00000000000E+00  0.35095344254E+03  0.35095344258E+03  0.50400001928E-02 0.  1.
        1   -1    0    0  501    0  0.00000000000E+00  0.00000000000E+00 -0.15762417176E+04  0.15762417176E+04  0.50400001928E-02 0. -1.
    10030    2    1    2    0    0  0.00000000000E+00  0.00000000000E+00 -0.12252882751E+04  0.19271951602E+04  0.14875314546E+04 0.  0.
        3    1    3    3  502    0 -0.30586774771E+03 -0.63058905453E+03 -0.93521096186E+03  0.11686818165E+04  0.10100000352E+00 0. -1.
       -3    1    3    3    0  502  0.30586774771E+03  0.63058905453E+03 -0.29007731323E+03  0.75851334374E+03  0.10100000352E+00 0.  1.
</event>
<event>
 5   0  0.1961098E-03  0.1571453E+04  0.7818609E-02  0.8838280E-01
        2   -1    0    0  501    0  0.00000000000E+00  0.00000000000E+00  0.16404729110E+04  0.16404729110E+04  0.25500000920E-02 0. -1.
       -2   -1    0    0    0  501  0.00000000000E+00  0.00000000000E+00 -0.37633409154E+03  0.37633409155E+03  0.25500000920E-02 0.  1.
    10030    2    1    2    0    0  0.00000000000E+00  0.00000000000E+00  0.12641388194E+04  0.20168070025E+04  0.15714526816E+04 0.  0.
        2    1    3    3  502    0  0.41677336209E+03 -0.33003539221E+03 -0.11046819287E+03  0.54297938921E+03  0.25500000920E-02 0.  1.
       -2    1    3    3    0  502 -0.41677336209E+03  0.33003539221E+03  0.13746070123E+04  0.14738276133E+04  0.25500000920E-02 0. -1.
</event>
<event>
 5   0  0.2094566E-03  0.1537246E+04  0.7818609E-02  0.8860055E-01
        2   -1    0    0  501    0  0.00000000000E+00  0.00000000000E+00  0.58287162037E+03  0.58287162037E+03  0.25500000920E-02 0.  1.
       -2   -1    0    0    0  501  0.00000000000E+00  0.00000000000E+00 -0.10135707360E+04  0.10135707360E+04  0.25500000920E-02 0. -1.
    10030    2    1    2    0    0  0.00000000000E+00  0.00000000000E+00 -0.43069911568E+03  0.15964423564E+04  0.15372463918E+04 0.  0.
        1    1    3    3  502    0  0.75198800304E+02  0.75395241838E+03 -0.34948404002E+03  0.83440889437E+03  0.50400001928E-02 0. -1.
       -1    1    3    3    0  502 -0.75198800304E+02 -0.75395241838E+03 -0.81215075655E+02  0.76203346205E+03  0.50400001928E-02 0.  1.
</event>
<event>
 5   0  0.1078018E-03  0.1464021E+04  0.7818609E-02  0.8908738E-01
       -1   -1    0    0    0  501  0.00000000000E+00  0.00000000000E+00  0.49425427859E+03  0.49425427861E+03  0.50400001928E-02 0.  1.
        1   -1    0    0  501    0  0.00000000000E+00  0.00000000000E+00 -0.10841368145E+04  0.10841368145E+04  0.50400001928E-02 0. -1.
    10030    2    1    2    0    0  0.00000000000E+00  0.00000000000E+00 -0.58988253589E+03  0.15783910931E+04  0.14640208457E+04 0.  0.
        4    1    3    3  502    0 -0.51370282193E+03 -0.48649921320E+03 -0.49740294531E+03  0.86486032202E+03  0.12699999809E+01 0. -1.
       -4    1    3    3    0  502  0.51370282193E+03  0.48649921320E+03 -0.92479590583E+02  0.71353077108E+03  0.12699999809E+01 0.  1.
</event>
<event>
 5   0  0.2094566E-03  0.1502595E+04  0.7818609E-02  0.8882729E-01
       -2   -1    0    0    0  501  0.00000000000E+00  0.00000000000E+00  0.38311100029E+03  0.38311100030E+03  0.25500000920E-02 0. -1.
        2   -1    0    0  501    0  0.00000000000E+00  0.00000000000E+00 -0.14733282030E+04  0.14733282030E+04  0.25500000920E-02 0.  1.
    10030    2    1    2    0    0  0.00000000000E+00  0.00000000000E+00 -0.10902172027E+04  0.18564392033E+04  0.15025954101E+04 0.  0.
        1    1    3    3  502    0  0.54187134746E+03  0.17182921286E+03  0.61789668844E+02  0.57181098170E+03  0.50400001928E-02 0. -1.
       -1    1    3    3    0  502 -0.54187134746E+03 -0.17182921286E+03 -0.11520068715E+04  0.12846282216E+04  0.50400001928E-02 0.  1.
</event>
<event>
 5   0  0.1069697E-03  0.1379854E+04  0.7818609E-02  0.8968532E-01
        1   -1    0    0  501    0  0.00000000000E+00  0.00000000000E+00  0.61040100469E+03  0.61040100471E+03  0.50400001928E-02 0.  1.
       -1   -1    0    0    0  501  0.00000000000E+00  0.00000000000E+00 -0.77981350946E+03  0.77981350948E+03  0.50400001928E-02 0. -1.
    10030    2    1    2    0    0  0.00000000000E+00  0.00000000000E+00 -0.16941250477E+03  0.13902145142E+04  0.13798535425E+04 0.  0.
        2    1    3    3  502    0  0.15188364833E+03 -0.65880104908E+03 -0.22325788228E+03  0.71199125480E+03  0.25500000920E-02 0.  1.
       -2    1    3    3    0  502 -0.15188364833E+03  0.65880104908E+03  0.53845377504E+02  0.67822325940E+03  0.25500000920E-02 0. -1.
</event>
<event>
 5   0  0.1993623E-03  0.1667726E+04  0.7818609E-02  0.8779989E-01
       -2   -1    0    0    0  501  0.00000000000E+00  0.00000000000E+00  0.36298030445E+03  0.36298030446E+03  0.25500000920E-02 0. -1.
        2   -1    0    0  501    0  0.00000000000E+00  0.00000000000E+00 -0.19156063284E+04  0.19156063284E+04  0.25500000920E-02 0.  1.
    10030    2    1    2    0    0  0.00000000000E+00  0.00000000000E+00 -0.15526260239E+04  0.22785866328E+04  0.16677258387E+04 0.  0.
        4    1    3    3  502    0  0.57130978189E+03  0.60457455979E+03 -0.85622005513E+03  0.11937418737E+04  0.12699999809E+01 0. -1.
       -4    1    3    3    0  502 -0.57130978189E+03 -0.60457455979E+03 -0.69640596879E+03  0.10848447592E+04  0.12699999809E+01 0.  1.
</event>
<event>
 5   0  0.2150197E-03  0.1472239E+04  0.7818609E-02  0.8903126E-01
        2   -1    0    0  501    0  0.00000000000E+00  0.00000000000E+00  0.16177766651E+04  0.16177766651E+04  0.25500000920E-02 0.  1.
       -2   -1    0    0    0  501  0.00000000000E+00  0.00000000000E+00 -0.33494857549E+03  0.33494857550E+03  0.25500000920E-02 0. -1.
    10030    2    1    2    0    0  0.00000000000E+00  0.00000000000E+00  0.12828280896E+04  0.19527252406E+04  0.14722390967E+04 0.  0.
        3    1    3    3  502    0 -0.62294872139E+03  0.21000075051E+03  0.10807321291E+04  0.12649693157E+04  0.10100000352E+00 0.  1.
       -3    1    3    3    0  502  0.62294872139E+03 -0.21000075051E+03  0.20209596050E+03  0.68775592484E+03  0.10100000352E+00 0. -1.
</event>
<event>
 5   0  0.1069697E-03  0.1541941E+04  0.7818609E-02  0.8857032E-01
       -1   -1    0    0    0  501  0.00000000000E+00  0.00000000000E+00  0.11017393833E+04  0.11017393833E+04  0.50400001928E-02 0.  1.
        1   -1    0    0  501    0  0.00000000000E+00  0.00000000000E+00 -0.53950625262E+03  0.53950625264E+03  0.50400001928E-02 0. -1.
    10030    2    1    2    0    0  0.00000000000E+00  0.00000000000E+00  0.56223313067E+03  0.16412456359E+04  0.15419407071E+04 0.  0.
        2    1    3    3  502    0  0.79581819327E+02  0.37288200365E+03 -0.43212928229E+03  0.57628983267E+03  0.25500000920E-02 0. -1.
       -2    1    3    3    0  502 -0.79581819327E+02 -0.37288200365E+03  0.99436241296E+03  0.10649558033E+04  0.25500000920E-02 0.  1.
</event>
<event>
 5   0  0.1078018E-03  0.1667644E+04  0.7818609E-02  0.8780037E-01
        1   -1    0    0  501    0  0.00000000000E+00  0.00000000000E+00  0.54777140430E+03  0.54777140433E+03  0.50400001928E-02 0. -1.
       -1   -1    0    0    0  501  0.00000000000E+00  0.00000000000E+00 -0.12692497427E+04  0.12692497427E+04  0.50400001928E-02 0.  1.
    10030    2    1    2    0    0  0.00000000000E+00  0.00000000000E+00 -0.72147833843E+03  0.18170211471E+04  0.16676435039E+04 0.  0.
        4    1    3    3  502    0 -0.34986504592E+02 -0.81304336866E+03 -0.55865071604E+03  0.98709463085E+03  0.12699999809E+01 0.  1.
       -4    1    3    3    0  502  0.34986504592E+02  0.81304336866E+03 -0.16282762240E+03  0.82992651623E+03  0.12699999809E+01 0. -1.
</event>
<event>
 5   0  0.1087761E-03  0.1483974E+04  0.7818609E-02  0.8895180E-01
       -1   -1    0    0    0  501  0.00000000000E+00  0.00000000000E+00  0.84467072057E+03  0.84467072059E+03  0.50400001928E-02 0.  1.
        1   -1    0    0  501    0  0.00000000000E+00  0.00000000000E+00 -0.65178648046E+03  0.65178648047E+03  0.50400001928E-02 0. -1.
    10030    2    1    2    0    0  0.00000000000E+00  0.00000000000E+00  0.19288424012E+03  0.14964572011E+04  0.14839743342E+04 0.  0.
        3    1    3    3  502    0 -0.48331367287E+03  0.56255612346E+03  0.74269726836E+02  0.74537071377E+03  0.10100000352E+00 0. -1.
       -3    1    3    3    0  502  0.48331367287E+03 -0.56255612346E+03  0.11861451328E+03  0.75108648729E+03  0.10100000352E+00 0.  1.
</event>
<event>
 5   0  0.1087761E-03  0.1493563E+04  0.7818609E-02  0.8888745E-01
        1   -1    0    0  501    0  0.00000000000E+00  0.00000000000E+00  0.91197285821E+03  0.91197285822E+03  0.50400001928E-02 0. -1.
       -1   -1    0    0    0  501  0.00000000000E+00  0.00000000000E+00 -0.61151193138E+03  0.61151193140E+03  0.50400001928E-02 0.  1.
    10030    2    1    2    0    0  0.00000000000E+00  0.00000000000E+00  0.30046092682E+03  0.15234847896E+04  0.14935625650E+04 0.  0.
        3    1    3    3  502    0 -0.51209426725E+02 -0.61597129445E+03  0.57771997952E+03  0.84605166858E+03  0.10100000352E+00 0. -1.
       -3    1    3    3    0  502  0.51209426725E+02  0.61597129445E+03 -0.27725905270E+03  0.67743312104E+03  0.10100000352E+00 0.  1.
</event>
<event>
 5   0  0.2150197E-03  0.8324890E+03  0.7818609E-02  0.9514146E-01
       -2   -1    0    0    0  501  0.00000000000E+00  0.00000000000E+00  0.69341877658E+02  0.69341877705E+02  0.25500000920E-02 0. -1.
        2   -1    0    0  501    0  0.00000000000E+00  0.00000000000E+00 -0.24986268723E+04  0.24986268723E+04  0.25500000920E-02 0.  1.
    10030    2    1    2    0    0  0.00000000000E+00  0.00000000000E+00 -0.24292849947E+04  0.25679687500E+04  0.83248898841E+03 0.  0.
        3    1    3    3  502    0 -0.10765555415E+03 -0.29398988596E+03 -0.20607679449E+04  0.20844146191E+04  0.10100000352E+00 0.  1.
       -3    1    3    3    0  502  0.10765555415E+03  0.29398988596E+03 -0.36851704982E+03  0.48355413099E+03  0.10100000352E+00 0. -1.
</event>
<event>
 5   0  0.2111533E-03  0.1491224E+04  0.7818609E-02  0.8890310E-01
        2   -1    0    0  501    0  0.00000000000E+00  0.00000000000E+00  0.56817032197E+03  0.56817032198E+03  0.25500000920E-02 0. -1.
       -2   -1    0    0    0  501  0.00000000000E+00  0.00000000000E+00 -0.97846980015E+03  0.97846980016E+03  0.25500000920E-02 0.  1.
    10030    2    1    2    0    0  0.00000000000E+00  0.00000000000E+00 -0.41029947818E+03  0.15466401221E+04  0.14912243311E+04 0.  0.
        5    1    3    3  502    0 -0.81550676594E+02 -0.32587786884E+03 -0.89551945959E+03  0.95646436983E+03  0.46999998093E+01 0.  1.
       -5    1    3    3    0  502  0.81550676594E+02  0.32587786884E+03  0.48521998140E+03  0.59017575230E+03  0.46999998093E+01 0. -1.
</event>
<event>
 5   0  0.1961098E-03  0.1511954E+04  0.7818609E-02  0.8876542E-01
       -2   -1    0    0    0  501  0.00000000000E+00  0.00000000000E+00  0.33676434323E+03  0.33676434324E+03  0.25500000920E-02 0.  1.
        2   -1    0    0  501    0  0.00000000000E+00  0.00000000000E+00 -0.16970361445E+04  0.16970361445E+04  0.25500000920E-02 0. -1.
    10030    2    1    2    0    0  0.00000000000E+00  0.00000000000E+00 -0.13602718013E+04  0.20338004878E+04  0.15119540504E+04 0.  0.
        2    1    3    3  502    0 -0.31935966926E+03  0.64480609708E+03 -0.99195409912E+03  0.12254543794E+04  0.25500000920E-02 0.  1.
       -2    1    3    3    0  502  0.31935966926E+03 -0.64480609708E+03 -0.36831770217E+03  0.80834610837E+03  0.25500000920E-02 0. -1.
</event>
<event>
 5   0  0.1087761E-03  0.1502645E+04  0.7818609E-02  0.8882696E-01
       -1   -1    0    0    0  501  0.00000000000E+00  0.00000000000E+00  0.41053132276E+03  0.41053132279E+03  0.50400001928E-02 0. -1.
        1   -1    0    0  501    0  0.00000000000E+00  0.00000000000E+00 -0.13750116286E+04  0.13750116286E+04  0.50400001928E-02 0.  1.
    10030    2    1    2    0    0  0.00000000000E+00  0.00000000000E+00 -0.96448030586E+03  0.17855429514E+04  0.15026447920E+04 0.  0.
        3    1    3    3  502    0  0.11000532838E+03  0.18991309551E+03 -0.13360718195E+04  0.13539778702E+04  0.10100000352E+00 0.  1.
       -3    1    3    3    0  502 -0.11000532838E+03 -0.18991309551E+03  0.37159151360E+03  0.43156508119E+03  0.10100000352E+00 0. -1.
</event>
<event>
 5   0  0.1961098E-03  0.1529136E+04  0.7818609E-02  0.8865306E-01
        2   -1    0    0  501    0  0.00000000000E+00  0.00000000000E+00  0.50807399474E+03  0.50807399475E+03  0.25500000920E-02 0. -1.
       -2   -1    0    0    0  501  0.00000000000E+00  0.00000000000E+00 -0.11505497224E+04  0.11505497225E+04  0.25500000920E-02 0.  1.
    10030    2    1    2    0    0  0.00000000000E+00  0.00000000000E+00 -0.64247572771E+03  0.16586237172E+04  0.15291362184E+04 0.  0.
        2    1    3    3  502    0  0.44074690036E+03 -0.55627956172E+03 -0.62967561260E+03  0.94878667680E+03  0.25500000920E-02 0.  1.
       -2    1    3    3    0  502 -0.44074690036E+03  0.55627956172E+03 -0.12800115110E+02  0.70983704040E+03  0.25500000920E-02 0. -1.
</event>
<event>
 5   0  0.1077140E-03  0.1482922E+04  0.7818609E-02  0.8895890E-01
        1   -1    0    0  501    0  0.00000000000E+00  0.00000000000E+00  0.46219639243E+03  0.46219639246E+03  0.50400001928E-02 0.  1.
       -1   -1    0    0    0  501  0.00000000000E+00  0.00000000000E+00 -0.11894605803E+04  0.11894605803E+04  0.50400001928E-02 0. -1.
    10030    2    1    2    0    0  0.00000000000E+00  0.00000000000E+00 -0.72726418791E+03  0.16516569728E+04  0.14829219658E+04 0.  0.
        1    1    3    3  502    0  0.89005069128E+02 -0.31450539293E+03  0.37762444708E+03  0.49943544885E+03  0.50400001928E-02 0.  1.
       -1    1    3    3    0  502 -0.89005069128E+02  0.31450539293E+03 -0.11048886350E+04  0.11522215240E+04  0.50400001928E-02 0. -1.
</event>
<event>
 5   0  0.1078787E-03  0.1552501E+04  0.7818609E-02  0.8850272E-01
       -1   -1    0    0    0  501  0.00000000000E+00  0.00000000000E+00  0.66398077991E+03  0.66398077992E+03  0.50400001928E-02 0. -1.
        1   -1    0    0  501    0  0.00000000000E+00  0.00000000000E+00 -0.90750304918E+03  0.90750304919E+03  0.50400001928E-02 0.  1.
    10030    2    1    2    0    0  0.00000000000E+00  0.00000000000E+00 -0.24352226927E+03  0.15714838291E+04  0.15525006697E+04 0.  0.
        5    1    3    3  502    0 -0.48672739391E+03  0.31139549593E+03  0.40291238729E+03  0.70443679113E+03  0.46999998093E+01 0. -1.
       -5    1    3    3    0  502  0.48672739391E+03 -0.31139549593E+03 -0.64643465656E+03  0.86704703798E+03  0.46999998093E+01 0.  1.
</event>
<event>
 5   0  0.1993623E-03  0.1076504E+04  0.7818609E-02  0.9228400E-01
        2   -1    0    0  501    0  0.00000000000E+00  0.00000000000E+00  0.10135747395E+04  0.10135747395E+04  0.25500000920E-02 0.  1.
       -2   -1    0    0    0  501  0.00000000000E+00  0.00000000000E+00 -0.28583492120E+03  0.28583492121E+03  0.25500000920E-02 0. -1.
    10030    2    1    2    0    0  0.00000000000E+00  0.00000000000E+00  0.72773981832E+03  0.12994096607E+04  0.10765037033E+04 0.  0.
        4    1    3    3  502    0 -0.27082511846E+03 -0.10516084736E+02 -0.19745621990E+03  0.33533178273E+03  0.12699999809E+01 0. -1.
       -4    1    3    3    0  502  0.27082511846E+03  0.10516084736E+02  0.92519603822E+03  0.96407787801E+03  0.12699999809E+01 0.  1.
</event>
<event>
 5   0  0.1087761E-03  0.1493311E+04  0.7818609E-02  0.8888913E-01
        1   -1    0    0  501    0  0.00000000000E+00  0.00000000000E+00  0.12620431711E+04  0.12620431712E+04  0.50400001928E-02 0. -1.
       -1   -1    0    0    0  501  0.00000000000E+00  0.00000000000E+00 -0.44173975733E+03  0.44173975736E+03  0.50400001928E-02 0.  1.
    10030    2    1    2    0    0  0.00000000000E+00  0.00000000000E+00  0.82030341382E+03  0.17037829285E+04  0.14933112793E+04 0.  0.
        3    1    3    3  502    0 -0.48139517161E+02 -0.74509561471E+03  0.40658987526E+03  0.85017658462E+03  0.10100000352E+00 0.  1.
       -3    1    3    3    0  502  0.48139517161E+02  0.74509561471E+03  0.41371353855E+03  0.85360634390E+03  0.10100000352E+00 0. -1.
</event>
<event>
 5   0  0.7468375E-04  0.7452273E+03  0.7818609E-02  0.9642868E-01
       -3   -1    0    0    0  501  0.00000000000E+00  0.00000000000E+00  0.16457083420E+04  0.16457083451E+04  0.10100000352E+00 0.  1.
        3   -1    0    0  501    0  0.00000000000E+00  0.00000000000E+00 -0.84365429255E+02  0.84365489713E+02  0.10100000352E+00 0. -1.
    10030    2    1    2    0    0  0.00000000000E+00  0.00000000000E+00  0.15613429128E+04  0.17300738349E+04  0.74522733628E+03 0.  0.
        3    1    3    3  502    0 -0.27326505517E+03 -0.12346338398E+03  0.26717604862E+03  0.40162177321E+03  0.10100000352E+00 0. -1.
       -3    1    3    3    0  502  0.27326505517E+03  0.12346338398E+03  0.12941668642E+04  0.13284520616E+04  0.10100000352E+00 0.  1.
</event>
<event>
 5   0  0.1077140E-03  0.1549711E+04  0.7818609E-02  0.8852053E-01
        1   -1    0    0  501    0  0.00000000000E+00  0.00000000000E+00  0.73088601196E+03  0.73088601198E+03  0.50400001928E-02 0.  1.
       -1   -1    0    0    0  501  0.00000000000E+00  0.00000000000E+00 -0.82146977647E+03  0.82146977648E+03  0.50400001928E-02 0. -1.
    10030    2    1    2    0    0  0.00000000000E+00  0.00000000000E+00 -0.90583764506E+02  0.15523557885E+04  0.15497106425E+04 0.  0.
        1    1    3    3  502    0  0.26094982487E+03  0.68231986621E+03 -0.30408447031E+03  0.79127907595E+03  0.50400001928E-02 0.  1.
       -1    1    3    3    0  502 -0.26094982487E+03 -0.68231986621E+03  0.21350070580E+03  0.76107671251E+03  0.50400001928E-02 0. -1.
</event>
<event>
 5   0  0.1069697E-03  0.1499895E+04  0.7818609E-02  0.8884523E-01
       -1   -1    0    0    0  501  0.00000000000E+00  0.00000000000E+00  0.51134642315E+03  0.51134642317E+03  0.50400001928E-02 0. -1.
        1   -1    0    0  501    0  0.00000000000E+00  0.00000000000E+00 -0.10998825037E+04  0.10998825037E+04  0.50400001928E-02 0.  1.
    10030    2    1    2    0    0  0.00000000000E+00  0.00000000000E+00 -0.58853608050E+03  0.16112289268E+04  0.14998946418E+04 0.  0.
        2    1    3    3  502    0 -0.12979359145E+03  0.69975055093E+03 -0.54830372891E+03  0.89840647206E+03  0.25500000920E-02 0.  1.
       -2    1    3    3    0  502  0.12979359145E+03 -0.69975055093E+03 -0.40232351595E+02  0.71282245477E+03  0.25500000920E-02 0. -1.
</event>
<event>
 5   0  0.1078018E-03  0.1477758E+04  0.7818609E-02  0.8899380E-01
       -1   -1    0    0    0  501  0.00000000000E+00  0.00000000000E+00  0.93354956122E+03  0.93354956124E+03  0.50400001928E-02 0.  1.
        1   -1    0    0  501    0  0.00000000000E+00  0.00000000000E+00 -0.58480269417E+03  0.58480269419E+03  0.50400001928E-02 0. -1.
    10030    2    1    2    0    0  0.00000000000E+00  0.00000000000E+00  0.34874686706E+03  0.15183522554E+04  0.14777581650E+04 0.  0.
        4    1    3    3  502    0  0.11797735046E+03 -0.71091370309E+03  0.34202348078E+03  0.79768328475E+03  0.12699999809E+01 0.  1.
       -4    1    3    3    0  502 -0.11797735046E+03  0.71091370309E+03  0.67233862737E+01  0.72066897067E+03  0.12699999809E+01 0. -1.
</event>
<event>
 5   0  0.7468375E-04  0.1501568E+04  0.7818609E-02  0.8883411E-01
        3   -1    0    0  501    0  0.00000000000E+00  0.00000000000E+00  0.59564697789E+03  0.59564698645E+03  0.10100000352E+00 0. -1.
       -3   -1    0    0    0  501  0.00000000000E+00  0.00000000000E+00 -0.94632623735E+03  0.94632624274E+03  0.10100000352E+00 0.  1.
    10030    2    1    2    0    0  0.00000000000E+00  0.00000000000E+00 -0.35067925946E+03  0.15419732292E+04  0.15015676796E+04 0.  0.
        4    1    3    3  502    0  0.65254452151E+03  0.36777484359E+03 -0.12295647262E+03  0.75907351105E+03  0.12699999809E+01 0. -1.
       -4    1    3    3    0  502 -0.65254452151E+03 -0.36777484359E+03 -0.22772278684E+03  0.78289971814E+03  0.12699999809E+01 0.  1.
</event>
<event>
 5   0  0.2094566E-03  0.1503662E+04  0.7818609E-02  0.8882022E-01
       -2   -1    0    0    0  501  0.00000000000E+00  0.00000000000E+00  0.32141551996E+03  0.32141551997E+03  0.25500000920E-02 0.  1.
        2   -1    0    0  501    0  0.00000000000E+00  0.00000000000E+00 -0.17586256209E+04  0.17586256209E+04  0.25500000920E-02 0. -1.
    10030    2    1    2    0    0  0.00000000000E+00  0.00000000000E+00 -0.14372101009E+04  0.20800411409E+04  0.15036616220E+04 0.  0.
        1    1    3    3  502    0  0.16203972821E+03 -0.73229962991E+03 -0.79088184876E+03  0.10899604214E+04  0.50400001928E-02 0.  1.
       -1    1    3    3    0  502 -0.16203972821E+03  0.73229962991E+03 -0.64632825217E+03  0.99008071946E+03  0.50400001928E-02 0. -1.
</event>
<event>
 5   0  0.1069697E-03  0.1469215E+04  0.7818609E-02  0.8905187E-01
       -1   -1    0    0    0  501  0.00000000000E+00  0.00000000000E+00  0.30599228393E+03  0.30599228397E+03  0.50400001928E-02 0. -1.
        1   -1    0    0  501    0  0.00000000000E+00  0.00000000000E+00 -0.17636010844E+04  0.17636010844E+04  0.50400001928E-02 0.  1.
    10030    2    1    2    0    0  0.00000000000E+00  0.00000000000E+00 -0.14576088004E+04  0.20695933684E+04  0.14692151970E+04 0.  0.
        2    1    3    3  502    0  0.51982498879E+03 -0.31525078256E+03 -0.13096817165E+04  0.14439069477E+04  0.25500000920E-02 0.  1.
       -2    1    3    3    0  502 -0.51982498879E+03  0.31525078256E+03 -0.14792708391E+03  0.62568642069E+03  0.25500000920E-02 0. -1.
</event>
<event>
 5   0  0.2150197E-03  0.1438955E+04  0.7818609E-02  0.8926094E-01
        2   -1    0    0  501    0  0.00000000000E+00  0.00000000000E+00  0.11767783168E+04  0.11767783168E+04  0.25500000920E-02 0. -1.
       -2   -1    0    0    0  501  0.00000000000E+00  0.00000000000E+00 -0.43988559035E+03  0.43988559036E+03  0.25500000920E-02 0.  1.
    10030    2    1    2    0    0  0.00000000000E+00  0.00000000000E+00  0.73689272642E+03  0.16166639071E+04  0.14389549327E+04 0.  0.
        3    1    3    3  502    0  0.12116271032E+03 -0.21219184798E+03  0.11287337815E+04  0.11548791030E+04  0.10100000352E+00 0. -1.
       -3    1    3    3    0  502 -0.12116271032E+03  0.21219184798E+03 -0.39184105509E+03  0.46178480418E+03  0.10100000352E+00 0.  1.
</event>
<event>
 5   0  0.1078018E-03  0.1495207E+04  0.7818609E-02  0.8887647E-01
        1   -1    0    0  501    0  0.00000000000E+00  0.00000000000E+00  0.10999960170E+04  0.10999960170E+04  0.50400001928E-02 0. -1.
       -1   -1    0    0    0  501  0.00000000000E+00  0.00000000000E+00 -0.50810240461E+03  0.50810240464E+03  0.50400001928E-02 0.  1.
    10030    2    1    2    0    0  0.00000000000E+00  0.00000000000E+00  0.59189361240E+03  0.16080984217E+04  0.14952065026E+04 0.  0.
        4    1    3    3  502    0 -0.14746935750E+03 -0.38403887376E+03  0.96731883703E+03  0.10511614592E+04  0.12699999809E+01 0. -1.
       -4    1    3    3    0  502  0.14746935750E+03  0.38403887376E+03 -0.37542522462E+03  0.55693696245E+03  0.12699999809E+01 0.  1.
</event>
<event>
 5   0  0.2094566E-03  0.1496590E+04  0.7818609E-02  0.8886724E-01
       -2   -1    0    0    0  501  0.00000000000E+00  0.00000000000E+00  0.66179596800E+03  0.66179596800E+03  0.25500000920E-02 0.  1.
        2   -1    0    0  501    0  0.00000000000E+00  0.00000000000E+00 -0.84609946572E+03  0.84609946572E+03  0.25500000920E-02 0. -1.
    10030    2    1    2    0    0  0.00000000000E+00  0.00000000000E+00 -0.18430349772E+03  0.15078954337E+04  0.14965897433E+04 0.  0.
        1    1    3    3  502    0  0.31982623316E+03  0.26830810047E+03 -0.71786419073E+03  0.83042582603E+03  0.50400001928E-02 0. -1.
       -1    1    3    3    0  502 -0.31982623316E+03 -0.26830810047E+03  0.53356069301E+03  0.67746960769E+03  0.50400001928E-02 0.  1.
</event>
<event>
 5   0  0.1087761E-03  0.1522518E+04  0.7818609E-02  0.8869615E-01
        1   -1    0    0  501    0  0.00000000000E+00  0.00000000000E+00  0.23106836368E+04  0.23106836368E+04  0.50400001928E-02 0. -1.
       -1   -1    0    0    0  501  0.00000000000E+00  0.00000000000E+00 -0.25079817152E+03  0.25079817157E+03  0.50400001928E-02 0.  1.
    10030    2    1    2    0    0  0.00000000000E+00  0.00000000000E+00  0.20598854653E+04  0.25614818084E+04  0.15225179554E+04 0.  0.
        3    1    3    3  502    0 -0.61896844914E+03  0.38421885054E+03  0.65840624821E+03  0.98195970591E+03  0.10100000352E+00 0.  1.
       -3    1    3    3    0  502  0.61896844914E+03 -0.38421885054E+03  0.14014792171E+04  0.15795221025E+04  0.10100000352E+00 0. -1.
</event>
<event>
 5   0  0.1993623E-03  0.1455732E+04  0.7818609E-02  0.8914436E-01
       -2   -1    0    0    0  501  0.00000000000E+00  0.00000000000E+00  0.36043507789E+03  0.36043507790E+03  0.25500000920E-02 0.  1.
        2   -1    0    0  501    0  0.00000000000E+00  0.00000000000E+00 -0.14698594071E+04  0.14698594071E+04  0.25500000920E-02 0. -1.
    10030    2    1    2    0    0  0.00000000000E+00  0.00000000000E+00 -0.11094243292E+04  0.18302944850E+04  0.14557319670E+04 0.  0.
        4    1    3    3  502    0  0.43823555059E+03  0.48906026278E+03 -0.15999759747E+03  0.67589287800E+03  0.12699999809E+01 0.  1.
       -4    1    3    3    0  502 -0.43823555059E+03 -0.48906026278E+03 -0.94942673176E+03  0.11544016070E+04  0.12699999809E+01 0. -1.
</event>
<event>
 5   0  0.1993623E-03  0.1446260E+04  0.7818609E-02  0.8920997E-01
       -2   -1    0    0    0  501  0.00000000000E+00  0.00000000000E+00  0.32805147017E+03  0.32805147018E+03  0.25500000920E-02 0.  1.
        2   -1    0    0  501    0  0.00000000000E+00  0.00000000000E+00 -0.15940097255E+04  0.15940097255E+04  0.25500000920E-02 0. -1.
    10030    2    1    2    0    0  0.00000000000E+00  0.00000000000E+00 -0.12659582553E+04  0.19220611957E+04  0.14462603278E+04 0.  0.
        4    1    3    3  502    0  0.55012867490E+03  0.38212913645E+03 -0.27084202928E+03  0.72251038304E+03  0.12699999809E+01 0.  1.
       -4    1    3    3    0  502 -0.55012867490E+03 -0.38212913645E+03 -0.99511622606E+03  0.11995508127E+04  0.12699999809E+01 0. -1.
</event>
<event>
 5   0  0.2111533E-03  0.1511640E+04  0.7818609E-02  0.8876749E-01
       -2   -1    0    0    0  501  0.00000000000E+00  0.00000000000E+00  0.75840230275E+03  0.75840230276E+03  0.25500000920E-02 0.  1.
        2   -1    0    0  501    0  0.00000000000E+00  0.00000000000E+00 -0.75324634858E+03  0.75324634859E+03  0.25500000920E-02 0. -1.
    10030    2    1    2    0    0  0.00000000000E+00  0.00000000000E+00  0.51559541695E+01  0.15116486513E+04  0.15116398583E+04 0.  0.
        5    1    3    3  502    0  0.71175632077E+03 -0.21908911769E+03  0.13159257822E+03  0.75626437063E+03  0.46999998093E+01 0.  1.
       -5    1    3    3    0  502 -0.71175632077E+03  0.21908911769E+03 -0.12643662405E+03  0.75538428071E+03  0.46999998093E+01 0. -1.
</event>
<event>
 5   0  0.1961098E-03  0.1468342E+04  0.7818609E-02  0.8905783E-01
       -2   -1    0    0    0  501  0.00000000000E+00  0.00000000000E+00  0.26129154494E+03  0.26129154495E+03  0.25500000920E-02 0. -1.
        2   -1    0    0  501    0  0.00000000000E+00  0.00000000000E+00 -0.20628559658E+04  0.20628559658E+04  0.25500000920E-02 0.  1.
    10030    2    1    2    0    0  0.00000000000E+00  0.00000000000E+00 -0.18015644209E+04  0.23241475108E+04  0.14683416800E+04 0.  0.
        2    1    3    3  502    0 -0.54156446496E+03  0.48628459752E+03 -0.74861518539E+03  0.10441213892E+04  0.25500000920E-02 0. -1.
       -2    1    3    3    0  502  0.54156446496E+03 -0.48628459752E+03 -0.10529492355E+04  0.12800261216E+04  0.25500000920E-02 0.  1.
</event>
<event>
 5   0  0.2150197E-03  0.1431295E+04  0.7818609E-02  0.8931472E-01
       -2   -1    0    0    0  501  0.00000000000E+00  0.00000000000E+00  0.23343290124E+03  0.23343290125E+03  0.25500000920E-02 0. -1.
        2   -1    0    0  501    0  0.00000000000E+00  0.00000000000E+00 -0.21939996421E+04  0.21939996421E+04  0.25500000920E-02 0.  1.
    10030    2    1    2    0    0  0.00000000000E+00  0.00000000000E+00 -0.19605667408E+04  0.24274325433E+04  0.14312954996E+04 0.  0.
        3    1    3    3  502    0 -0.57285255567E+03  0.42491969695E+03 -0.10796806319E+04  0.12939965520E+04  0.10100000352E+00 0. -1.
       -3    1    3    3    0  502  0.57285255567E+03 -0.42491969695E+03 -0.88088610894E+03  0.11334359914E+04  0.10100000352E+00 0.  1.
</event>
<event>
 5   0  0.2150197E-03  0.1462426E+04  0.7818609E-02  0.8909831E-01
        2   -1    0    0  501    0  0.00000000000E+00  0.00000000000E+00  0.11944411523E+04  0.11944411523E+04  0.25500000920E-02 0.  1.
       -2   -1    0    0    0  501  0.00000000000E+00  0.00000000000E+00 -0.44763427653E+03  0.44763427654E+03  0.25500000920E-02 0. -1.
    10030    2    1    2    0    0  0.00000000000E+00  0.00000000000E+00  0.74680687581E+03  0.16420754289E+04  0.14624264783E+04 0.  0.
        3    1    3    3  502    0 -0.52293239152E+03 -0.46242306724E+03  0.12899629582E+03  0.70988269014E+03  0.10100000352E+00 0. -1.
       -3    1    3    3    0  502  0.52293239152E+03  0.46242306724E+03  0.61781057999E+03  0.93219273875E+03  0.10100000352E+00 0.  1.
</event>
<event>
 5   0  0.1961098E-03  0.1482066E+04  0.7818609E-02  0.8896467E-01
       -2   -1    0    0    0  501  0.00000000000E+00  0.00000000000E+00  0.40126170202E+03  0.40126170203E+03  0.25500000920E-02 0. -1.
        2   -1    0    0  501    0  0.00000000000E+00  0.00000000000E+00 -0.13685085262E+04  0.13685085262E+04  0.25500000920E-02 0.  1.
    10030    2    1    2    0    0  0.00000000000E+00  0.00000000000E+00 -0.96724682414E+03  0.17697702282E+04  0.14820662069E+04 0.  0.
        2    1    3    3  502    0  0.52337885032E+03  0.13811318922E+03 -0.10879601341E+04  0.12151781464E+04  0.25500000920E-02 0.  1.
       -2    1    3    3    0  502 -0.52337885032E+03 -0.13811318922E+03  0.12071330997E+03  0.55459208181E+03  0.25500000920E-02 0. -1.
</event>
<event>
 5   0  0.7468375E-04  0.1625053E+04  0.7818609E-02  0.8805303E-01
        4   -1    0    0  501    0  0.00000000000E+00  0.00000000000E+00  0.17461579532E+04  0.17461584150E+04  0.12699999809E+01 0. -1.
       -4   -1    0    0    0  501  0.00000000000E+00  0.00000000000E+00 -0.37808524160E+03  0.37808737458E+03  0.12699999809E+01 0.  1.
    10030    2    1    2    0    0  0.00000000000E+00  0.00000000000E+00  0.13680727116E+04  0.21242457896E+04  0.16250529931E+04 0.  0.
        5    1    3    3  502    0 -0.86056042899E+02  0.15288496425E+03  0.17210866896E+04  0.17300118318E+04  0.46999998093E+01 0. -1.
       -5    1    3    3    0  502  0.86056042899E+02 -0.15288496425E+03 -0.35301397805E+03  0.39423395783E+03  0.46999998093E+01 0.  1.
</event>
<event>
 5   0  0.2150197E-03  0.1368224E+04  0.7818609E-02  0.8977146E-01
       -2   -1    0    0    0  501  0.00000000000E+00  0.00000000000E+00  0.27735908508E+03  0.27735908509E+03  0.25500000920E-02 0.  1.
        2   -1    0    0  501    0  0.00000000000E+00  0.00000000000E+00 -0.16873763186E+04  0.16873763186E+04  0.25500000920E-02 0. -1.
    10030    2    1    2    0    0  0.00000000000E+00  0.00000000000E+00 -0.14100172335E+04  0.19647354036E+04  0.13682238880E+04 0.  0.
        3    1    3    3  502    0 -0.20971828489E+03  0.29981085836E+03 -0.15350728047E+04  0.15780737739E+04  0.10100000352E+00 0. -1.
       -3    1    3    3    0  502  0.20971828489E+03 -0.29981085836E+03  0.12505557126E+03  0.38666162975E+03  0.10100000352E+00 0.  1.
</event>
<event>
 5   0  0.1077140E-03  0.1048310E+04  0.7818609E-02  0.9257090E-01
       -1   -1    0    0    0  501  0.00000000000E+00  0.00000000000E+00  0.43186391885E+03  0.43186391888E+03  0.50400001928E-02 0.  1.
        1   -1    0    0  501    0  0.00000000000E+00  0.00000000000E+00 -0.63616943336E+03  0.63616943338E+03  0.50400001928E-02 0. -1.
    10030    2    1    2    0    0  0.00000000000E+00  0.00000000000E+00 -0.20430551451E+03  0.10680333523E+04  0.10483103063E+04 0.  0.
        1    1    3    3  502    0  0.39411758460E+03  0.34544004185E+03 -0.11132952661E+03  0.53577211249E+03  0.50400001928E-02 0.  1.
       -1    1    3    3    0  502 -0.39411758460E+03 -0.34544004185E+03 -0.92975987898E+02  0.53226123977E+03  0.50400001928E-02 0. -1.
</event>
<event>
 5   0  0.2094566E-03  0.8998107E+03  0.7818609E-02  0.9425818E-01
        2   -1    0    0  501    0  0.00000000000E+00  0.00000000000E+00  0.18365932597E+03  0.18365932599E+03  0.25500000920E-02 0.  1.
       -2   -1    0    0    0  501  0.00000000000E+00  0.00000000000E+00 -0.11021211051E+04  0.11021211051E+04  0.25500000920E-02 0. -1.
    10030    2    1    2    0    0  0.00000000000E+00  0.00000000000E+00 -0.91846177914E+03  0.12857804311E+04  0.89981068969E+03 0.  0.
        1    1    3    3  502    0  0.19532594927E+03 -0.39092474203E+03 -0.61207088168E+03  0.75206724740E+03  0.50400001928E-02 0. -1.
       -1    1    3    3    0  502 -0.19532594927E+03  0.39092474203E+03 -0.30639089746E+03  0.53371318371E+03  0.50400001928E-02 0.  1.
</event>
<event>
 5   0  0.1961098E-03  0.1485952E+04  0.7818609E-02  0.8893849E-01
        2   -1    0    0  501    0  0.00000000000E+00  0.00000000000E+00  0.56521414218E+03  0.56521414219E+03  0.25500000920E-02 0.  1.
       -2   -1    0    0    0  501  0.00000000000E+00  0.00000000000E+00 -0.97664428155E+03  0.97664428155E+03  0.25500000920E-02 0. -1.
    10030    2    1    2    0    0  0.00000000000E+00  0.00000000000E+00 -0.41143013937E+03  0.15418584237E+04  0.14859517621E+04 0.  0.
        2    1    3    3  502    0  0.38894824434E+03  0.52816907163E+03  0.15636921902E+03  0.67431049055E+03  0.25500000920E-02 0.  1.
       -2    1    3    3    0  502 -0.38894824434E+03 -0.52816907163E+03 -0.56779935839E+03  0.86754793320E+03  0.25500000920E-02 0. -1.
</event>
<event>
 5   0  0.1069697E-03  0.1469875E+04  0.7818609E-02  0.8904737E-01
       -1   -1    0    0    0  501  0.00000000000E+00  0.00000000000E+00  0.72162488915E+03  0.72162488916E+03  0.50400001928E-02 0.  1.
        1   -1    0    0  501    0  0.00000000000E+00  0.00000000000E+00 -0.74849525582E+03  0.74849525584E+03  0.50400001928E-02 0. -1.
    10030    2    1    2    0    0  0.00000000000E+00  0.00000000000E+00 -0.26870366675E+02  0.14701201450E+04  0.14698745607E+04 0.  0.
        2    1    3    3  502    0 -0.29639905725E+02  0.69789234871E+03  0.21507739018E+03  0.73088339574E+03  0.25500000920E-02 0.  1.
       -2    1    3    3    0  502  0.29639905725E+02 -0.69789234871E+03 -0.24194775685E+03  0.73923674926E+03  0.25500000920E-02 0. -1.
</event>
<event>
 5   0  0.2111533E-03  0.1504128E+04  0.7818609E-02  0.8881713E-01
       -2   -1    0    0    0  501  0.00000000000E+00  0.00000000000E+00  0.40577665473E+03  0.40577665474E+03  0.25500000920E-02 0. -1.
        2   -1    0    0  501    0  0.00000000000E+00  0.00000000000E+00 -0.13938702143E+04  0.13938702143E+04  0.25500000920E-02 0.  1.
    10030    2    1    2    0    0  0.00000000000E+00  0.00000000000E+00 -0.98809355954E+03  0.17996468690E+04  0.15041276444E+04 0.  0.
        5    1    3    3  502    0 -0.53122292708E+03  0.25581032578E+02  0.14214090465E+03  0.55052548920E+03  0.46999998093E+01 0. -1.
       -5    1    3    3    0  502  0.53122292708E+03 -0.25581032578E+02 -0.11302344642E+04  0.12491213798E+04  0.46999998093E+01 0.  1.
</event>
<event>
 5   0  0.1087761E-03  0.1345364E+04  0.7818609E-02  0.8994345E-01
        1   -1    0    0  501    0  0.00000000000E+00  0.00000000000E+00  0.78898157951E+03  0.78898157953E+03  0.50400001928E-02 0.  1.
       -1   -1    0    0    0  501  0.00000000000E+00  0.00000000000E+00 -0.57352581848E+03  0.57352581851E+03  0.50400001928E-02 0. -1.
    10030    2    1    2    0    0  0.00000000000E+00  0.00000000000E+00  0.21545576103E+03  0.13625073980E+04  0.13453643465E+04 0.  0.
        3    1    3    3  502    0 -0.18230738691E+03  0.13951601453E+03 -0.53262692425E+03  0.57999323468E+03  0.10100000352E+00 0. -1.
       -3    1    3    3    0  502  0.18230738691E+03 -0.13951601453E+03  0.74808268528E+03  0.78251416336E+03  0.10100000352E+00 0.  1.
</event>
<event>
 5   0  0.1087761E-03  0.1375247E+04  0.7818609E-02  0.8971934E-01
       -1   -1    0    0    0  501  0.00000000000E+00  0.00000000000E+00  0.11867596701E+04  0.11867596701E+04  0.50400001928E-02 0. -1.
        1   -1    0    0  501    0  0.00000000000E+00  0.00000000000E+00 -0.39841761375E+03  0.39841761378E+03  0.50400001928E-02 0.  1.
    10030    2    1    2    0    0  0.00000000000E+00  0.00000000000E+00  0.78834205635E+03  0.15851772839E+04  0.13752468228E+04 0.  0.
        3    1    3    3  502    0 -0.60587418806E+03  0.16012918169E+02  0.76853547971E+03  0.97876796999E+03  0.10100000352E+00 0.  1.
       -3    1    3    3    0  502  0.60587418806E+03 -0.16012918169E+02  0.19806576643E+02  0.60640931390E+03  0.10100000352E+00 0. -1.
</event>
<event>
 5   0  0.1078018E-03  0.1446573E+04  0.7818609E-02  0.8920780E-01
       -1   -1    0    0    0  501  0.00000000000E+00  0.00000000000E+00  0.34182091808E+03  0.34182091811E+03  0.50400001928E-02 0.  1.
        1   -1    0    0  501    0  0.00000000000E+00  0.00000000000E+00 -0.15304608809E+04  0.15304608809E+04  0.50400001928E-02 0. -1.
    10030    2    1    2    0    0  0.00000000000E+00  0.00000000000E+00 -0.11886399628E+04  0.18722817990E+04  0.14465732521E+04 0.  0.
        4    1    3    3  502    0  0.45125961715E+03  0.23255157326E+03  0.72491221462E+02  0.51280802098E+03  0.12699999809E+01 0.  1.
       -4    1    3    3    0  502 -0.45125961715E+03 -0.23255157326E+03 -0.12611311842E+04  0.13594737780E+04  0.12699999809E+01 0. -1.
</event>
<event>
 5   0  0.1993623E-03  0.1495211E+04  0.7818609E-02  0.8887644E-01
       -2   -1    0    0    0  501  0.00000000000E+00  0.00000000000E+00  0.10860296217E+04  0.10860296217E+04  0.25500000920E-02 0.  1.
        2   -1    0    0  501    0  0.00000000000E+00  0.00000000000E+00 -0.51463977344E+03  0.51463977345E+03  0.25500000920E-02 0. -1.
    10030    2    1    2    0    0  0.00000000000E+00  0.00000000000E+00  0.57138984823E+03  0.16006693951E+04  0.14952110733E+04 0.  0.
        4    1    3    3  502    0  0.57049246358E+03 -0.38552652107E+03  0.59747507687E+03  0.91163064331E+03  0.12699999809E+01 0.  1.
       -4    1    3    3    0  502 -0.57049246358E+03  0.38552652107E+03 -0.26085228640E+02  0.68903875181E+03  0.12699999809E+01 0. -1.
</event>
<event>
 5   0  0.1961098E-03  0.1515364E+04  0.7818609E-02  0.8874300E-01
        2   -1    0    0  501    0  0.00000000000E+00  0.00000000000E+00  0.99667871562E+03  0.99667871563E+03  0.25500000920E-02 0. -1.
       -2   -1    0    0    0  501  0.00000000000E+00  0.00000000000E+00 -0.57599473769E+03  0.57599473769E+03  0.25500000920E-02 0.  1.
    10030    2    1    2    0    0  0.00000000000E+00  0.00000000000E+00  0.42068397793E+03  0.15726734533E+04  0.15153635806E+04 0.  0.
        2    1    3    3  502    0 -0.24281996094E+02  0.59412278665E+03 -0.27700248574E+03  0.65597399191E+03  0.25500000920E-02 0.  1.
       -2    1    3    3    0  502  0.24281996094E+02 -0.59412278665E+03  0.69768646368E+03  0.91669946141E+03  0.25500000920E-02 0. -1.
</event>
<event>
 5   0  0.1993623E-03  0.1635989E+04  0.7818609E-02  0.8798738E-01
       -2   -1    0    0    0  501  0.00000000000E+00  0.00000000000E+00  0.46654779178E+03  0.46654779179E+03  0.25500000920E-02 0.  1.
        2   -1    0    0  501    0  0.00000000000E+00  0.00000000000E+00 -0.14341840052E+04  0.14341840052E+04  0.25500000920E-02 0. -1.
    10030    2    1    2    0    0  0.00000000000E+00  0.00000000000E+00 -0.96763621343E+03  0.19007317970E+04  0.16359894629E+04 0.  0.
        4    1    3    3  502    0 -0.73975660434E+02  0.32082329176E+03  0.38616527017E+03  0.50746941943E+03  0.12699999809E+01 0.  1.
       -4    1    3    3    0  502  0.73975660434E+02 -0.32082329176E+03 -0.13538014836E+04  0.13932623776E+04  0.12699999809E+01 0. -1.
</event>
<event>
 5   0  0.2094566E-03  0.1502285E+04  0.7818609E-02  0.8882935E-01
        2   -1    0    0  501    0  0.00000000000E+00  0.00000000000E+00  0.14625199942E+04  0.14625199942E+04  0.25500000920E-02 0. -1.
       -2   -1    0    0    0  501  0.00000000000E+00  0.00000000000E+00 -0.38578275839E+03  0.38578275840E+03  0.25500000920E-02 0.  1.
    10030    2    1    2    0    0  0.00000000000E+00  0.00000000000E+00  0.10767372358E+04  0.18483027526E+04  0.15022849231E+04 0.  0.
        1    1    3    3  502    0 -0.66317654245E+02 -0.72312737692E+03  0.30201833417E+03  0.78646443576E+03  0.50400001928E-02 0. -1.
       -1    1    3    3    0  502  0.66317654245E+02  0.72312737692E+03  0.77471890163E+03  0.10618383168E+04  0.50400001928E-02 0.  1.
</event>
<event>
 5   0  0.2150197E-03  0.1359561E+04  0.7818609E-02  0.8983622E-01
       -2   -1    0    0    0  501  0.00000000000E+00  0.00000000000E+00  0.41611776677E+03  0.41611776678E+03  0.25500000920E-02 0.  1.
        2   -1    0    0  501    0  0.00000000000E+00  0.00000000000E+00 -0.11105062061E+04  0.11105062061E+04  0.25500000920E-02 0. -1.
    10030    2    1    2    0    0  0.00000000000E+00  0.00000000000E+00 -0.69438843930E+03  0.15266239728E+04  0.13595607562E+04 0.  0.
        3    1    3    3  502    0 -0.47602745614E+03  0.57708547380E+02 -0.88824186839E+03  0.10094087588E+04  0.10100000352E+00 0. -1.
       -3    1    3    3    0  502  0.47602745614E+03 -0.57708547380E+02  0.19385342910E+03  0.51721521402E+03  0.10100000352E+00 0.  1.
</event>
<event>
 5   0  0.1077140E-03  0.1531501E+04  0.7818609E-02  0.8863771E-01
       -1   -1    0    0    0  501  0.00000000000E+00  0.00000000000E+00  0.39106477594E+03  0.39106477597E+03  0.50400001928E-02 0.  1.
        1   -1    0    0  501    0  0.00000000000E+00  0.00000000000E+00 -0.14994283114E+04  0.14994283114E+04  0.50400001928E-02 0. -1.
    10030    2    1    2    0    0  0.00000000000E+00  0.00000000000E+00 -0.11083635355E+04  0.18904930874E+04  0.15315006976E+04 0.  0.
        1    1    3    3  502    0  0.73167642070E+02  0.94225996126E+02 -0.14878866733E+04  0.14926616478E+04  0.50400001928E-02 0. -1.
       -1    1    3    3    0  502 -0.73167642070E+02 -0.94225996126E+02  0.37952313780E+03  0.39783143962E+03  0.50400001928E-02 0.  1.
</event>
<event>
 5   0  0.1961098E-03  0.1492062E+04  0.7818609E-02  0.8889749E-01
       -2   -1    0    0    0  501  0.00000000000E+00  0.00000000000E+00  0.41701905779E+03  0.41701905780E+03  0.25500000920E-02 0. -1.
        2   -1    0    0  501    0  0.00000000000E+00  0.00000000000E+00 -0.13346203151E+04  0.13346203151E+04  0.25500000920E-02 0.  1.
    10030    2    1    2    0    0  0.00000000000E+00  0.00000000000E+00 -0.91760125730E+03  0.17516393729E+04  0.14920618034E+04 0.  0.
        2    1    3    3  502    0  0.25166903960E+03  0.88569208703E+02 -0.12766982725E+04  0.13042776887E+04  0.25500000920E-02 0.  1.
       -2    1    3    3    0  502 -0.25166903960E+03 -0.88569208703E+02  0.35909701515E+03  0.44736168424E+03  0.25500000920E-02 0. -1.
</event>
<event>
 5   0  0.1078018E-03  0.1464828E+04  0.7818609E-02  0.8908185E-01
        1   -1    0    0  501    0  0.00000000000E+00  0.00000000000E+00  0.94301736588E+03  0.94301736590E+03  0.50400001928E-02 0. -1.
       -1   -1    0    0    0  501  0.00000000000E+00  0.00000000000E+00 -0.56884414604E+03  0.56884414607E+03  0.50400001928E-02 0.  1.
    10030    2    1    2    0    0  0.00000000000E+00  0.00000000000E+00  0.37417321984E+03  0.15118615120E+04  0.14648275096E+04 0.  0.
        4    1    3    3  502    0 -0.62801824320E+03  0.56680139524E+02 -0.19744667231E+03  0.66076194905E+03  0.12699999809E+01 0.  1.
       -4    1    3    3    0  502  0.62801824320E+03 -0.56680139524E+02  0.57161989214E+03  0.85109956292E+03  0.12699999809E+01 0. -1.
</event>
<event>
 5   0  0.1961098E-03  0.1494429E+04  0.7818609E-02  0.8888166E-01
       -2   -1    0    0    0  501  0.00000000000E+00  0.00000000000E+00  0.45791303253E+03  0.45791303254E+03  0.25500000920E-02 0.  1.
        2   -1    0    0  501    0  0.00000000000E+00  0.00000000000E+00 -0.12192909167E+04  0.12192909167E+04  0.25500000920E-02 0. -1.
    10030    2    1    2    0    0  0.00000000000E+00  0.00000000000E+00 -0.76137788416E+03  0.16772039492E+04  0.14944285881E+04 0.  0.
        2    1    3    3  502    0  0.51576046303E+03 -0.33728087574E+03 -0.85493658140E+03  0.10538898437E+04  0.25500000920E-02 0. -1.
       -2    1    3    3    0  502 -0.51576046303E+03  0.33728087574E+03  0.93558697236E+02  0.62331410556E+03  0.25500000920E-02 0.  1.
</event>
<event>
 5   0  0.1993623E-03  0.1506539E+04  0.7818609E-02  0.8880116E-01
        2   -1    0    0  501    0  0.00000000000E+00  0.00000000000E+00  0.10725872965E+04  0.10725872965E+04  0.25500000920E-02 0. -1.
       -2   -1    0    0    0  501  0.00000000000E+00  0.00000000000E+00 -0.52901488237E+03  0.52901488238E+03  0.25500000920E-02 0.  1.
    10030    2    1    2    0    0  0.00000000000E+00  0.00000000000E+00  0.54357241412E+03  0.16016021789E+04  0.15065386055E+04 0.  0.
        4    1    3    3  502    0  0.10904871015E+03 -0.39114729371E+03  0.94626907780E+03  0.10297157895E+04  0.12699999809E+01 0. -1.
       -4    1    3    3    0  502 -0.10904871015E+03  0.39114729371E+03 -0.40269666368E+03  0.57188638942E+03  0.12699999809E+01 0.  1.
</event>
<event>
 5   0  0.1077140E-03  0.1459704E+04  0.7818609E-02  0.8911700E-01
        1   -1    0    0  501    0  0.00000000000E+00  0.00000000000E+00  0.11145601783E+04  0.11145601784E+04  0.50400001928E-02 0.  1.
       -1   -1    0    0    0  501  0.00000000000E+00  0.00000000000E+00 -0.47793229263E+03  0.47793229266E+03  0.50400001928E-02 0. -1.
    10030    2    1    2    0    0  0.00000000000E+00  0.00000000000E+00  0.63662788570E+03  0.15924924710E+04  0.14597044925E+04 0.  0.
        1    1    3    3  502    0 -0.20966215934E+03 -0.43705960067E+03 -0.27694440835E+03  0.55828086206E+03  0.50400001928E-02 0. -1.
       -1    1    3    3    0  502  0.20966215934E+03  0.43705960067E+03  0.91357229406E+03  0.10342116090E+04  0.50400001928E-02 0.  1.
</event>
<event>
 5   0  0.1087761E-03  0.1409705E+04  0.7818609E-02  0.8946824E-01
       -1   -1    0    0    0  501  0.00000000000E+00  0.00000000000E+00  0.68776929160E+03  0.68776929161E+03  0.50400001928E-02 0. -1.
        1   -1    0    0  501    0  0.00000000000E+00  0.00000000000E+00 -0.72235974613E+03  0.72235974614E+03  0.50400001928E-02 0.  1.
    10030    2    1    2    0    0  0.00000000000E+00  0.00000000000E+00 -0.34590454530E+02  0.14101290378E+04  0.14097047221E+04 0.  0.
        3    1    3    3  502    0 -0.11909764069E+03 -0.58604391900E+03  0.35589228411E+03  0.69591023207E+03  0.10100000352E+00 0. -1.
       -3    1    3    3    0  502  0.11909764069E+03  0.58604391900E+03 -0.39048273864E+03  0.71421880568E+03  0.10100000352E+00 0.  1.
</event>
<event>
 5   0  0.2150197E-03  0.1503745E+04  0.7818609E-02  0.8881966E-01
        2   -1    0    0  501    0  0.00000000000E+00  0.00000000000E+00  0.81275940867E+03  0.81275940868E+03  0.25500000920E-02 0.  1.
       -2   -1    0    0    0  501  0.00000000000E+00  0.00000000000E+00 -0.69554732338E+03  0.69554732339E+03  0.25500000920E-02 0. -1.
    10030    2    1    2    0    0  0.00000000000E+00  0.00000000000E+00  0.11721208529E+03  0.15083067321E+04  0.15037454988E+04 0.  0.
        3    1    3    3  502    0  0.11178898319E+03 -0.70936563220E+03 -0.16481664513E+03  0.73679095653E+03  0.10100000352E+00 0.  1.
       -3    1    3    3    0  502 -0.11178898319E+03  0.70936563220E+03  0.28202873042E+03  0.77151577553E+03  0.10100000352E+00 0. -1.
</event>
<event>
 5   0  0.1078787E-03  0.1598984E+04  0.7818609E-02  0.8821173E-01
       -1   -1    0    0    0  501  0.00000000000E+00  0.00000000000E+00  0.10246745176E+04  0.10246745176E+04  0.50400001928E-02 0.  1.
        1   -1    0    0  501    0  0.00000000000E+00  0.00000000000E+00 -0.62379543939E+03  0.62379543941E+03  0.50400001928E-02 0. -1.
    10030    2    1    2    0    0  0.00000000000E+00  0.00000000000E+00  0.40087907820E+03  0.16484699570E+04  0.15989837910E+04 0.  0.
        5    1    3    3  502    0  0.51927035687E+03  0.69304071230E+02 -0.42217180418E+03  0.67282678310E+03  0.46999998093E+01 0. -1.
       -5    1    3    3    0  502 -0.51927035687E+03 -0.69304071230E+02  0.82305088238E+03  0.97564317391E+03  0.46999998093E+01 0.  1.
</event>
<event>
 5   0  0.1078018E-03  0.1511566E+04  0.7818609E-02  0.8876798E-01
       -1   -1    0    0    0  501  0.00000000000E+00  0.00000000000E+00  0.85390782114E+03  0.85390782116E+03  0.50400001928E-02 0.  1.
        1   -1    0    0  501    0  0.00000000000E+00  0.00000000000E+00 -0.66893352183E+03  0.66893352185E+03  0.50400001928E-02 0. -1.
    10030    2    1    2    0    0  0.00000000000E+00  0.00000000000E+00  0.18497429932E+03  0.15228413430E+04  0.15115655012E+04 0.  0.
        4    1    3    3  502    0  0.45094346820E+03 -0.26575585396E+03  0.64174192129E+03  0.82813675916E+03  0.12699999809E+01 0.  1.
       -4    1    3    3    0  502 -0.45094346820E+03  0.26575585396E+03 -0.45676762198E+03  0.69470458384E+03  0.12699999809E+01 0. -1.
</event>
<event>
 5   0  0.1993623E-03  0.1532023E+04  0.7818609E-02  0.8863433E-01
        2   -1    0    0  501    0  0.00000000000E+00  0.00000000000E+00  0.13076840940E+04  0.13076840940E+04  0.25500000920E-02 0.  1.
       -2   -1    0    0    0  501  0.00000000000E+00  0.00000000000E+00 -0.44871180497E+03  0.44871180497E+03  0.25500000920E-02 0. -1.
    10030    2    1    2    0    0  0.00000000000E+00  0.00000000000E+00  0.85897228906E+03  0.17563958990E+04  0.15320225718E+04 0.  0.
        4    1    3    3  502    0 -0.99857789585E+02  0.17763214512E+03  0.12760385752E+04  0.12922077292E+04  0.12699999809E+01 0.  1.
       -4    1    3    3    0  502  0.99857789585E+02 -0.17763214512E+03 -0.41706628610E+03  0.46418816984E+03  0.12699999809E+01 0. -1.
</event>
<event>
 5   0  0.2094566E-03  0.1497068E+04  0.7818609E-02  0.8886405E-01
       -2   -1    0    0    0  501  0.00000000000E+00  0.00000000000E+00  0.52603374295E+03  0.52603374295E+03  0.25500000920E-02 0.  1.
        2   -1    0    0  501    0  0.00000000000E+00  0.00000000000E+00 -0.10651466609E+04  0.10651466609E+04  0.25500000920E-02 0. -1.
    10030    2    1    2    0    0  0.00000000000E+00  0.00000000000E+00 -0.53911291797E+03  0.15911804039E+04  0.14970679141E+04 0.  0.
        1    1    3    3  502    0 -0.69586832974E+03 -0.91769827289E+02 -0.54600066397E+03  0.88925314653E+03  0.50400001928E-02 0. -1.
       -1    1    3    3    0  502  0.69586832974E+03  0.91769827289E+02  0.68877459986E+01  0.70192725734E+03  0.50400001928E-02 0.  1.
</event>
<event>
 5   0  0.1069697E-03  0.1520217E+04  0.7818609E-02  0.8871119E-01
       -1   -1    0    0    0  501  0.00000000000E+00  0.00000000000E+00  0.94934721975E+03  0.94934721976E+03  0.50400001928E-02 0. -1.
        1   -1    0    0  501    0  0.00000000000E+00  0.00000000000E+00 -0.60859152122E+03  0.60859152124E+03  0.50400001928E-02 0.  1.
    10030    2    1    2    0    0  0.00000000000E+00  0.00000000000E+00  0.34075569853E+03  0.15579387410E+04  0.15202166538E+04 0.  0.
        2    1    3    3  502    0  0.22787065741E+03 -0.19278517815E+03  0.88677572365E+03  0.93566144811E+03  0.25500000920E-02 0. -1.
       -2    1    3    3    0  502 -0.22787065741E+03  0.19278517815E+03 -0.54602002512E+03  0.62227729290E+03  0.25500000920E-02 0.  1.
</event>
<event>
 5   0  0.1961098E-03  0.1520308E+04  0.7818609E-02  0.8871060E-01
       -2   -1    0    0    0  501  0.00000000000E+00  0.00000000000E+00  0.91258858038E+03  0.91258858038E+03  0.25500000920E-02 0. -1.
        2   -1    0    0  501    0  0.00000000000E+00  0.00000000000E+00 -0.63318140623E+03  0.63318140624E+03  0.25500000920E-02 0.  1.
    10030    2    1    2    0    0  0.00000000000E+00  0.00000000000E+00  0.27940717415E+03  0.15457699866E+04  0.15203080223E+04 0.  0.
        2    1    3    3  502    0 -0.46125756873E+03  0.52119370648E+03 -0.17108332707E+03  0.71670839899E+03  0.25500000920E-02 0.  1.
       -2    1    3    3    0  502  0.46125756873E+03 -0.52119370648E+03  0.45049050122E+03  0.82906158762E+03  0.25500000920E-02 0. -1.
</event>
<event>
 5   0  0.2094566E-03  0.1486685E+04  0.7818609E-02  0.8893355E-01
       -2   -1    0    0    0  501  0.00000000000E+00  0.00000000000E+00  0.56539708951E+03  0.56539708952E+03  0.25500000920E-02 0. -1.
        2   -1    0    0  501    0  0.00000000000E+00  0.00000000000E+00 -0.97729267723E+03  0.97729267723E+03  0.25500000920E-02 0.  1.
    10030    2    1    2    0    0  0.00000000000E+00  0.00000000000E+00 -0.41189558772E+03  0.15426897667E+04  0.14866854883E+04 0.  0.
        1    1    3    3  502    0  0.63124228338E+02 -0.11078792826E+02 -0.97442045817E+03  0.97652579955E+03  0.50400001928E-02 0.  1.
       -1    1    3    3    0  502 -0.63124228338E+02  0.11078792826E+02  0.56252487045E+03  0.56616396720E+03  0.50400001928E-02 0. -1.
</event>
<event>
 5   0  0.2150197E-03  0.1485918E+04  0.7818609E-02  0.8893871E-01
        2   -1    0    0  501    0  0.00000000000E+00  0.00000000000E+00  0.89505360243E+03  0.89505360243E+03  0.25500000920E-02 0.  1.
       -2   -1    0    0    0  501  0.00000000000E+00  0.00000000000E+00 -0.61670992244E+03  0.61670992244E+03  0.25500000920E-02 0. -1.
    10030    2    1    2    0    0  0.00000000000E+00  0.00000000000E+00  0.27834367999E+03  0.15117635249E+04  0.14859184873E+04 0.  0.
        3    1    3    3  502    0 -0.53146033734E+03 -0.14823839601E+03  0.64538376582E+03  0.84908475879E+03  0.10100000352E+00 0.  1.
       -3    1    3    3    0  502  0.53146033734E+03  0.14823839601E+03 -0.36704008583E+03  0.66267876609E+03  0.10100000352E+00 0. -1.
</event>
<event>
 5   0  0.1961098E-03  0.1483288E+04  0.7818609E-02  0.8895643E-01
        2   -1    0    0  501    0  0.00000000000E+00  0.00000000000E+00  0.52582489738E+03  0.52582489739E+03  0.25500000920E-02 0. -1.
       -2   -1    0    0    0  501  0.00000000000E+00  0.00000000000E+00 -0.10460431832E+04  0.10460431832E+04  0.25500000920E-02 0.  1.
    10030    2    1    2    0    0  0.00000000000E+00  0.00000000000E+00 -0.52021828585E+03  0.15718680806E+04  0.14832876316E+04 0.  0.
        2    1    3    3  502    0 -0.11685808100E+03  0.72580443291E+03 -0.36387324023E+03  0.82027533237E+03  0.25500000920E-02 0.  1.
       -2    1    3    3    0  502  0.11685808100E+03 -0.72580443291E+03 -0.15634504562E+03  0.75159274826E+03  0.25500000920E-02 0. -1.
</event>
<event>
 5   0  0.1078787E-03  0.1423823E+04  0.7818609E-02  0.8936752E-01
        1   -1    0    0  501    0  0.00000000000E+00  0.00000000000E+00  0.88630182875E+03  0.88630182877E+03  0.50400001928E-02 0.  1.
       -1   -1    0    0    0  501  0.00000000000E+00  0.00000000000E+00 -0.57183490723E+03  0.57183490725E+03  0.50400001928E-02 0. -1.
    10030    2    1    2    0    0  0.00000000000E+00  0.00000000000E+00  0.31446692152E+03  0.14581367360E+04  0.14238234779E+04 0.  0.
        5    1    3    3  502    0  0.15684582974E+03 -0.27390434678E+03  0.81071160881E+03  0.86999977480E+03  0.46999998093E+01 0.  1.
       -5    1    3    3    0  502 -0.15684582974E+03  0.27390434678E+03 -0.49624468729E+03  0.58813696122E+03  0.46999998093E+01 0. -1.
</event>
<event>
 5   0  0.1993623E-03  0.1510188E+04  0.7818609E-02  0.8877706E-01
       -2   -1    0    0    0  501  0.00000000000E+00  0.00000000000E+00  0.32349842820E+03  0.32349842821E+03  0.25500000920E-02 0.  1.
        2   -1    0    0  501    0  0.00000000000E+00  0.00000000000E+00 -0.17625024773E+04  0.17625024773E+04  0.25500000920E-02 0. -1.
    10030    2    1    2    0    0  0.00000000000E+00  0.00000000000E+00 -0.14390040491E+04  0.20860009055E+04  0.15101877779E+04 0.  0.
        4    1    3    3  502    0  0.29060710055E+03  0.43143564564E+03  0.36524486604E+02  0.52146414473E+03  0.12699999809E+01 0.  1.
       -4    1    3    3    0  502 -0.29060710055E+03 -0.43143564564E+03 -0.14755285357E+04  0.15645367607E+04  0.12699999809E+01 0. -1.
</event>
<event>
 5   0  0.1087761E-03  0.1498094E+04  0.7818609E-02  0.8885721E-01
        1   -1    0    0  501    0  0.00000000000E+00  0.00000000000E+00  0.15182463085E+04  0.15182463085E+04  0.50400001928E-02 0. -1.
       -1   -1    0    0    0  501  0.00000000000E+00  0.00000000000E+00 -0.36955243327E+03  0.36955243330E+03  0.50400001928E-02 0.  1.
    10030    2    1    2    0    0  0.00000000000E+00  0.00000000000E+00  0.11486938753E+04  0.18877987419E+04  0.14980942796E+04 0.  0.
        3    1    3    3  502    0  0.54577057549E+03 -0.30661977248E+03  0.10926746239E+04  0.12592930755E+04  0.10100000352E+00 0. -1.
       -3    1    3    3    0  502 -0.54577057549E+03  0.30661977248E+03  0.56019251335E+02  0.62850566638E+03  0.10100000352E+00 0.  1.
</event>
<event>
 5   0  0.1087761E-03  0.1460719E+04  0.7818609E-02  0.8911003E-01
        1   -1    0    0  501    0  0.00000000000E+00  0.00000000000E+00  0.92202408469E+03  0.92202408470E+03  0.50400001928E-02 0.  1.
       -1   -1    0    0    0  501  0.00000000000E+00  0.00000000000E+00 -0.57853721432E+03  0.57853721434E+03  0.50400001928E-02 0. -1.
    10030    2    1    2    0    0  0.00000000000E+00  0.00000000000E+00  0.34348687037E+03  0.15005612990E+04  0.14607193372E+04 0.  0.
        3    1    3    3  502    0 -0.45856199398E+03 -0.27862275816E+03  0.68075355069E+03  0.86679591062E+03  0.10100000352E+00 0.  1.
       -3    1    3    3    0  502  0.45856199398E+03  0.27862275816E+03 -0.33726668032E+03  0.63376538841E+03  0.10100000352E+00 0. -1.
</event>
<event>
 5   0  0.2150197E-03  0.1227688E+04  0.7818609E-02  0.9088961E-01
        2   -1    0    0  501    0  0.00000000000E+00  0.00000000000E+00  0.68603834229E+03  0.68603834230E+03  0.25500000920E-02 0. -1.
       -2   -1    0    0    0  501  0.00000000000E+00  0.00000000000E+00 -0.54924702455E+03  0.54924702455E+03  0.25500000920E-02 0.  1.
    10030    2    1    2    0    0  0.00000000000E+00  0.00000000000E+00  0.13679131775E+03  0.12352853669E+04  0.12276881008E+04 0.  0.
        3    1    3    3  502    0 -0.45440999131E+03 -0.40249545367E+03 -0.23346850727E+02  0.60748342863E+03  0.10100000352E+00 0.  1.
       -3    1    3    3    0  502  0.45440999131E+03  0.40249545367E+03  0.16013816847E+03  0.62780193822E+03  0.10100000352E+00 0. -1.
</event>
<event>
 5   0  0.7468375E-04  0.1416892E+04  0.7818609E-02  0.8941681E-01
       -3   -1    0    0    0  501  0.00000000000E+00  0.00000000000E+00  0.35384378727E+03  0.35384380169E+03  0.10100000352E+00 0.  1.
        3   -1    0    0  501    0  0.00000000000E+00  0.00000000000E+00 -0.14184109170E+04  0.14184109206E+04  0.10100000352E+00 0. -1.
    10030    2    1    2    0    0  0.00000000000E+00  0.00000000000E+00 -0.10645671297E+04  0.17722547222E+04  0.14168922425E+04 0.  0.
        3    1    3    3  502    0 -0.61187427861E+03  0.23616446857E+03 -0.19728255596E+03  0.68489722304E+03  0.10100000352E+00 0.  1.
       -3    1    3    3    0  502  0.61187427861E+03 -0.23616446857E+03 -0.86728457373E+03  0.10873574992E+04  0.10100000352E+00 0. -1.
</event>
<event>
 5   0  0.1087761E-03  0.1495353E+04  0.7818609E-02  0.8887549E-01
       -1   -1    0    0    0  501  0.00000000000E+00  0.00000000000E+00  0.43432036613E+03  0.43432036616E+03  0.50400001928E-02 0. -1.
        1   -1    0    0  501    0  0.00000000000E+00  0.00000000000E+00 -0.12871138986E+04  0.12871138986E+04  0.50400001928E-02 0.  1.
    10030    2    1    2    0    0  0.00000000000E+00  0.00000000000E+00 -0.85279353245E+03  0.17214342647E+04  0.14953525065E+04 0.  0.
        3    1    3    3  502    0 -0.49114251302E+03 -0.11732361285E+03  0.20836084391E+03  0.54626005685E+03  0.10100000352E+00 0. -1.
       -3    1    3    3    0  502  0.49114251302E+03  0.11732361285E+03 -0.10611543764E+04  0.11751742079E+04  0.10100000352E+00 0.  1.
</event>
<event>
 5   0  0.1078018E-03  0.1310454E+04  0.7818609E-02  0.9021316E-01
        1   -1    0    0  501    0  0.00000000000E+00  0.00000000000E+00  0.91505339671E+03  0.91505339672E+03  0.50400001928E-02 0.  1.
       -1   -1    0    0    0  501  0.00000000000E+00  0.00000000000E+00 -0.46917733119E+03  0.46917733122E+03  0.50400001928E-02 0. -1.
    10030    2    1    2    0    0  0.00000000000E+00  0.00000000000E+00  0.44587606552E+03  0.13842307279E+04  0.13104538307E+04 0.  0.
        4    1    3    3  502    0 -0.17813841397E+03 -0.30706758827E+03  0.80466707534E+03  0.87949673867E+03  0.12699999809E+01 0.  1.
       -4    1    3    3    0  502  0.17813841397E+03  0.30706758827E+03 -0.35879100982E+03  0.50473398927E+03  0.12699999809E+01 0. -1.
</event>
<event>
 5   0  0.1078787E-03  0.1528742E+04  0.7818609E-02  0.8865561E-01
        1   -1    0    0  501    0  0.00000000000E+00  0.00000000000E+00  0.10593259226E+04  0.10593259226E+04  0.50400001928E-02 0. -1.
       -1   -1    0    0    0  501  0.00000000000E+00  0.00000000000E+00 -0.55154258326E+03  0.55154258329E+03  0.50400001928E-02 0.  1.
    10030    2    1    2    0    0  0.00000000000E+00  0.00000000000E+00  0.50778333929E+03  0.16108685059E+04  0.15287424320E+04 0.  0.
        5    1    3    3  502    0  0.37597048895E+01 -0.75741165889E+03  0.36214690595E+03  0.83955882932E+03  0.46999998093E+01 0.  1.
       -5    1    3    3    0  502 -0.37597048895E+01  0.75741165889E+03  0.14563643334E+03  0.77130967653E+03  0.46999998093E+01 0. -1.
</event>
<event>
 5   0  0.1078018E-03  0.1524122E+04  0.7818609E-02  0.8868568E-01
        1   -1    0    0  501    0  0.00000000000E+00  0.00000000000E+00  0.12301486207E+04  0.12301486208E+04  0.50400001928E-02 0.  1.
       -1   -1    0    0    0  501  0.00000000000E+00  0.00000000000E+00 -0.47208712321E+03  0.47208712324E+03  0.50400001928E-02 0. -1.
    10030    2    1    2    0    0  0.00000000000E+00  0.00000000000E+00  0.75806149753E+03  0.17022357440E+04  0.15241224669E+04 0.  0.
        4    1    3    3  502    0 -0.59361154467E+02  0.23469794451E+03 -0.42799739698E+03  0.49172172673E+03  0.12699999809E+01 0. -1.
       -4    1    3    3    0  502  0.59361154467E+02 -0.23469794451E+03  0.11860588945E+04  0.12105140173E+04  0.12699999809E+01 0.  1.
</event>
<event>
 5   0  0.2150197E-03  0.1198096E+04  0.7818609E-02  0.9114524E-01
       -2   -1    0    0    0  501  0.00000000000E+00  0.00000000000E+00  0.44709644411E+03  0.44709644412E+03  0.25500000920E-02 0.  1.
        2   -1    0    0  501    0  0.00000000000E+00  0.00000000000E+00 -0.80264284099E+03  0.80264284100E+03  0.25500000920E-02 0. -1.
    10030    2    1    2    0    0  0.00000000000E+00  0.00000000000E+00 -0.35554639688E+03  0.12497392851E+04  0.11980964237E+04 0.  0.
        3    1    3    3  502    0 -0.56270532213E+03  0.12155930776E+03 -0.35057876382E+03  0.67403221340E+03  0.10100000352E+00 0. -1.
       -3    1    3    3    0  502  0.56270532213E+03 -0.12155930776E+03 -0.49676330550E+01  0.57570707172E+03  0.10100000352E+00 0.  1.
</event>
<event>
 5   0  0.1077140E-03  0.1421424E+04  0.7818609E-02  0.8938455E-01
       -1   -1    0    0    0  501  0.00000000000E+00  0.00000000000E+00  0.51460029060E+03  0.51460029063E+03  0.50400001928E-02 0. -1.
        1   -1    0    0  501    0  0.00000000000E+00  0.00000000000E+00 -0.98156132715E+03  0.98156132716E+03  0.50400001928E-02 0.  1.
    10030    2    1    2    0    0  0.00000000000E+00  0.00000000000E+00 -0.46696103654E+03  0.14961616178E+04  0.14214242776E+04 0.  0.
        1    1    3    3  502    0  0.31674473455E+03 -0.49991842598E+03 -0.64770230706E+03  0.87736191967E+03  0.50400001928E-02 0.  1.
       -1    1    3    3    0  502 -0.31674473455E+03  0.49991842598E+03  0.18074127052E+03  0.61879969812E+03  0.50400001928E-02 0. -1.
</event>
<event>
 5   0  0.2150197E-03  0.1453348E+04  0.7818609E-02  0.8916082E-01
        2   -1    0    0  501    0  0.00000000000E+00  0.00000000000E+00  0.23092690219E+04  0.23092690219E+04  0.25500000920E-02 0. -1.
       -2   -1    0    0    0  501  0.00000000000E+00  0.00000000000E+00 -0.22866779596E+03  0.22866779597E+03  0.25500000920E-02 0.  1.
    10030    2    1    2    0    0  0.00000000000E+00  0.00000000000E+00  0.20806012259E+04  0.25379368178E+04  0.14533484889E+04 0.  0.
        3    1    3    3  502    0  0.41627042575E+03 -0.58707786231E+03  0.12159197080E+04  0.14129409861E+04  0.10100000352E+00 0.  1.
       -3    1    3    3    0  502 -0.41627042575E+03  0.58707786231E+03  0.86468151792E+03  0.11249958317E+04  0.10100000352E+00 0. -1.
</event>
<event>
 5   0  0.1993623E-03  0.1501708E+04  0.7818609E-02  0.8883318E-01
       -2   -1    0    0    0  501  0.00000000000E+00  0.00000000000E+00  0.64046832329E+03  0.64046832330E+03  0.25500000920E-02 0. -1.
        2   -1    0    0  501    0  0.00000000000E+00  0.00000000000E+00 -0.88026486132E+03  0.88026486132E+03  0.25500000920E-02 0.  1.
    10030    2    1    2    0    0  0.00000000000E+00  0.00000000000E+00 -0.23979653802E+03  0.15207331846E+04  0.15017080406E+04 0.  0.
        4    1    3    3  502    0  0.14334892920E+02 -0.15871393123E+03 -0.86294103330E+03  0.87753315662E+03  0.12699999809E+01 0.  1.
       -4    1    3    3    0  502 -0.14334892920E+02  0.15871393123E+03  0.62314449528E+03  0.64320002800E+03  0.12699999809E+01 0. -1.
</event>
<event>
 5   0  0.1078018E-03  0.1548841E+04  0.7818609E-02  0.8852608E-01
        1   -1    0    0  501    0  0.00000000000E+00  0.00000000000E+00  0.85460352871E+03  0.85460352873E+03  0.50400001928E-02 0.  1.
       -1   -1    0    0    0  501  0.00000000000E+00  0.00000000000E+00 -0.70176080415E+03  0.70176080417E+03  0.50400001928E-02 0. -1.
    10030    2    1    2    0    0  0.00000000000E+00  0.00000000000E+00  0.15284272456E+03  0.15563643329E+04  0.15488411921E+04 0.  0.
        4    1    3    3  502    0 -0.36736054533E+03 -0.55718803005E+03 -0.31831411870E+03  0.73941717735E+03  0.12699999809E+01 0. -1.
       -4    1    3    3    0  502  0.36736054533E+03  0.55718803005E+03  0.47115684326E+03  0.81694715554E+03  0.12699999809E+01 0.  1.
</event>
<event>
 5   0  0.1077140E-03  0.1507006E+04  0.7818609E-02  0.8879807E-01
        1   -1    0    0  501    0  0.00000000000E+00  0.00000000000E+00  0.23919756603E+04  0.23919756603E+04  0.50400001928E-02 0.  1.
       -1   -1    0    0    0  501  0.00000000000E+00  0.00000000000E+00 -0.23736309741E+03  0.23736309746E+03  0.50400001928E-02 0. -1.
    10030    2    1    2    0    0  0.00000000000E+00  0.00000000000E+00  0.21546125628E+04  0.26293387577E+04  0.15070059744E+04 0.  0.
        1    1    3    3  502    0  0.10897059070E+03 -0.37154074151E+02 -0.22192641233E+03  0.25001269444E+03  0.50400001928E-02 0. -1.
       -1    1    3    3    0  502 -0.10897059070E+03  0.37154074151E+02  0.23765389752E+04  0.23793260633E+04  0.50400001928E-02 0.  1.
</event>
<event>
 5   0  0.1961098E-03  0.1523431E+04  0.7818609E-02  0.8869019E-01
       -2   -1    0    0    0  501  0.00000000000E+00  0.00000000000E+00  0.85745174575E+03  0.85745174575E+03  0.25500000920E-02 0. -1.
        2   -1    0    0  501    0  0.00000000000E+00  0.00000000000E+00 -0.67666843714E+03  0.67666843714E+03  0.25500000920E-02 0.  1.
    10030    2    1    2    0    0  0.00000000000E+00  0.00000000000E+00  0.18078330861E+03  0.15341201829E+04  0.15234310391E+04 0.  0.
        2    1    3    3  502    0  0.29573361146E+03 -0.62021589201E+03  0.42146034703E+03  0.80607378432E+03  0.25500000920E-02 0. -1.
       -2    1    3    3    0  502 -0.29573361146E+03  0.62021589201E+03 -0.24067703842E+03  0.72804639857E+03  0.25500000920E-02 0.  1.
</event>
<event>
 5   0  0.2150197E-03  0.1469939E+04  0.7818609E-02  0.8904693E-01
        2   -1    0    0  501    0  0.00000000000E+00  0.00000000000E+00  0.10791500855E+04  0.10791500855E+04  0.25500000920E-02 0. -1.
       -2   -1    0    0    0  501  0.00000000000E+00  0.00000000000E+00 -0.50056074710E+03  0.50056074711E+03  0.25500000920E-02 0.  1.
    10030    2    1    2    0    0  0.00000000000E+00  0.00000000000E+00  0.57858933837E+03  0.15797108326E+04  0.14699390097E+04 0.  0.
        3    1    3    3  502    0  0.27809541703E+03 -0.56230758677E+03 -0.12225681355E+03  0.63911941120E+03  0.10100000352E+00 0.  1.
       -3    1    3    3    0  502 -0.27809541703E+03  0.56230758677E+03  0.70084615191E+03  0.94059142138E+03  0.10100000352E+00 0. -1.
</event>
<event>
 5   0  0.1078018E-03  0.1491385E+04  0.7818609E-02  0.8890202E-01
        1   -1    0    0  501    0  0.00000000000E+00  0.00000000000E+00  0.16499708980E+04  0.16499708980E+04  0.50400001928E-02 0.  1.
       -1   -1    0    0    0  501  0.00000000000E+00  0.00000000000E+00 -0.33701016456E+03  0.33701016460E+03  0.50400001928E-02 0. -1.
    10030    2    1    2    0    0  0.00000000000E+00  0.00000000000E+00  0.13129607335E+04  0.19869810626E+04  0.14913845432E+04 0.  0.
        4    1    3    3  502    0 -0.36833468730E+03  0.44986679635E+03  0.12785472664E+04  0.14045409576E+04  0.12699999809E+01 0.  1.
       -4    1    3    3    0  502  0.36833468730E+03 -0.44986679635E+03  0.34413467082E+02  0.58244010502E+03  0.12699999809E+01 0. -1.
</event>
<event>
 5   0  0.1069697E-03  0.1482283E+04  0.7818609E-02  0.8896320E-01
        1   -1    0    0  501    0  0.00000000000E+00  0.00000000000E+00  0.65719736540E+03  0.65719736542E+03  0.50400001928E-02 0. -1.
       -1   -1    0    0    0  501  0.00000000000E+00  0.00000000000E+00 -0.83580838148E+03  0.83580838149E+03  0.50400001928E-02 0.  1.
    10030    2    1    2    0    0  0.00000000000E+00  0.00000000000E+00 -0.17861101608E+03  0.14930057469E+04  0.14822834632E+04 0.  0.
        2    1    3    3  502    0  0.52813945749E+03  0.48198611451E+03 -0.28577846528E+03  0.77000729371E+03  0.25500000920E-02 0.  1.
       -2    1    3    3    0  502 -0.52813945749E+03 -0.48198611451E+03  0.10716744920E+03  0.72299845319E+03  0.25500000920E-02 0. -1.
</event>
<event>
 5   0  0.1077140E-03  0.1504007E+04  0.7818609E-02  0.8881793E-01
        1   -1    0    0  501    0  0.00000000000E+00  0.00000000000E+00  0.15880833841E+04  0.15880833842E+04  0.50400001928E-02 0. -1.
       -1   -1    0    0    0  501  0.00000000000E+00  0.00000000000E+00 -0.35609525523E+03  0.35609525527E+03  0.50400001928E-02 0.  1.
    10030    2    1    2    0    0  0.00000000000E+00  0.00000000000E+00  0.12319881289E+04  0.19441786394E+04  0.15040065931E+04 0.  0.
        1    1    3    3  502    0  0.96104603879E+02  0.50744108042E+03 -0.90583074177E+02  0.52434515191E+03  0.50400001928E-02 0.  1.
       -1    1    3    3    0  502 -0.96104603879E+02 -0.50744108042E+03  0.13225712031E+04  0.14198334875E+04  0.50400001928E-02 0. -1.
</event>
<event>
 5   0  0.1961098E-03  0.1512491E+04  0.7818609E-02  0.8876189E-01
        2   -1    0    0  501    0  0.00000000000E+00  0.00000000000E+00  0.16485348246E+04  0.16485348246E+04  0.25500000920E-02 0. -1.
       -2   -1    0    0    0  501  0.00000000000E+00  0.00000000000E+00 -0.34691853742E+03  0.34691853743E+03  0.25500000920E-02 0.  1.
    10030    2    1    2    0    0  0.00000000000E+00  0.00000000000E+00  0.13016162871E+04  0.19954533620E+04  0.15124910449E+04 0.  0.
        2    1    3    3  502    0  0.48636600427E+02 -0.24195146683E+03 -0.29229622150E+03  0.38254818299E+03  0.25500000920E-02 0.  1.
       -2    1    3    3    0  502 -0.48636600427E+02  0.24195146683E+03  0.15939125086E+04  0.16129051790E+04  0.25500000920E-02 0. -1.
</event>
<event>
 5   0  0.1078787E-03  0.1521737E+04  0.7818609E-02  0.8870126E-01
       -1   -1    0    0    0  501  0.00000000000E+00  0.00000000000E+00  0.57543958876E+03  0.57543958878E+03  0.50400001928E-02 0. -1.
        1   -1    0    0  501    0  0.00000000000E+00  0.00000000000E+00 -0.10060493616E+04  0.10060493616E+04  0.50400001928E-02 0.  1.
    10030    2    1    2    0    0  0.00000000000E+00  0.00000000000E+00 -0.43060977284E+03  0.15814889504E+04  0.15217366802E+04 0.  0.
        5    1    3    3  502    0  0.71503296533E+03  0.12443550114E+03 -0.45261778904E+03  0.85536032665E+03  0.46999998093E+01 0.  1.
       -5    1    3    3    0  502 -0.71503296533E+03 -0.12443550114E+03  0.22008016205E+02  0.72612862375E+03  0.46999998093E+01 0. -1.
</event>
<event>
 5   0  0.1087761E-03  0.1438156E+04  0.7818609E-02  0.8926653E-01
       -1   -1    0    0    0  501  0.00000000000E+00  0.00000000000E+00  0.59786417439E+03  0.59786417441E+03  0.50400001928E-02 0.  1.
        1   -1    0    0  501    0  0.00000000000E+00  0.00000000000E+00 -0.86486758697E+03  0.86486758699E+03  0.50400001928E-02 0. -1.
    10030    2    1    2    0    0  0.00000000000E+00  0.00000000000E+00 -0.26700341258E+03  0.14627317614E+04  0.14381562445E+04 0.  0.
        3    1    3    3  502    0  0.42682192328E+03  0.32599750318E+03  0.35281326443E+03  0.64259515718E+03  0.10100000352E+00 0.  1.
       -3    1    3    3    0  502 -0.42682192328E+03 -0.32599750318E+03 -0.61981667702E+03  0.82013660422E+03  0.10100000352E+00 0. -1.
</event>
<event>
 5   0  0.2150197E-03  0.1368939E+04  0.7818609E-02  0.8976614E-01
        2   -1    0    0  501    0  0.00000000000E+00  0.00000000000E+00  0.48930322307E+03  0.48930322308E+03  0.25500000920E-02 0. -1.
       -2   -1    0    0    0  501  0.00000000000E+00  0.00000000000E+00 -0.95748038646E+03  0.95748038646E+03  0.25500000920E-02 0.  1.
    10030    2    1    2    0    0  0.00000000000E+00  0.00000000000E+00 -0.46817716339E+03  0.14467836095E+04  0.13689386241E+04 0.  0.
        3    1    3    3  502    0 -0.38737441095E+03  0.22298057669E+03 -0.78194752508E+03  0.90067819671E+03  0.10100000352E+00 0.  1.
       -3    1    3    3    0  502  0.38737441095E+03 -0.22298057669E+03  0.31377036170E+03  0.54610541283E+03  0.10100000352E+00 0. -1.
</event>
<event>
 5   0  0.2150197E-03  0.1503214E+04  0.7818609E-02  0.8882318E-01
       -2   -1    0    0    0  501  0.00000000000E+00  0.00000000000E+00  0.80877305719E+03  0.80877305719E+03  0.25500000920E-02 0. -1.
        2   -1    0    0  501    0  0.00000000000E+00  0.00000000000E+00 -0.69848191848E+03  0.69848191848E+03  0.25500000920E-02 0.  1.
    10030    2    1    2    0    0  0.00000000000E+00  0.00000000000E+00  0.11029113871E+03  0.15072549757E+04  0.15032143648E+04 0.  0.
        3    1    3    3  502    0  0.18758872040E+03 -0.10525489780E+03 -0.66696050922E+03  0.70078845067E+03  0.10100000352E+00 0.  1.
       -3    1    3    3    0  502 -0.18758872040E+03  0.10525489780E+03  0.77725164794E+03  0.80646652500E+03  0.10100000352E+00 0. -1.
</event>
<event>
 5   0  0.1077140E-03  0.1656436E+04  0.7818609E-02  0.8786608E-01
        1   -1    0    0  501    0  0.00000000000E+00  0.00000000000E+00  0.11100196487E+04  0.11100196487E+04  0.50400001928E-02 0. -1.
       -1   -1    0    0    0  501  0.00000000000E+00  0.00000000000E+00 -0.61795792502E+03  0.61795792504E+03  0.50400001928E-02 0.  1.
    10030    2    1    2    0    0  0.00000000000E+00  0.00000000000E+00  0.49206172366E+03  0.17279775737E+04  0.16564364628E+04 0.  0.
        1    1    3    3  502    0 -0.56394171242E+03 -0.60559580194E+03  0.28169679373E+03  0.87414507604E+03  0.50400001928E-02 0. -1.
       -1    1    3    3    0  502  0.56394171242E+03  0.60559580194E+03  0.21036492993E+03  0.85383249769E+03  0.50400001928E-02 0.  1.
</event>
<event>
 5   0  0.2094566E-03  0.1503655E+04  0.7818609E-02  0.8882026E-01
        2   -1    0    0  501    0  0.00000000000E+00  0.00000000000E+00  0.70822105295E+03  0.70822105295E+03  0.25500000920E-02 0.  1.
       -2   -1    0    0    0  501  0.00000000000E+00  0.00000000000E+00 -0.79811931369E+03  0.79811931370E+03  0.25500000920E-02 0. -1.
    10030    2    1    2    0    0  0.00000000000E+00  0.00000000000E+00 -0.89898260747E+02  0.15063403666E+04  0.15036554136E+04 0.  0.
        1    1    3    3  502    0  0.52426341392E+03  0.30562182194E+02  0.49402524234E+03  0.72100424011E+03  0.50400001928E-02 0.  1.
       -1    1    3    3    0  502 -0.52426341392E+03 -0.30562182194E+02 -0.58392350309E+03  0.78533612654E+03  0.50400001928E-02 0. -1.
</event>
<event>
 5   0  0.1078018E-03  0.1505091E+04  0.7818609E-02  0.8881075E-01
        1   -1    0    0  501    0  0.00000000000E+00  0.00000000000E+00  0.16046680256E+04  0.16046680256E+04  0.50400001928E-02 0. -1.
       -1   -1    0    0    0  501  0.00000000000E+00  0.00000000000E+00 -0.35292330354E+03  0.35292330358E+03  0.50400001928E-02 0.  1.
    10030    2    1    2    0    0  0.00000000000E+00  0.00000000000E+00  0.12517447220E+04  0.19575913292E+04  0.15050910148E+04 0.  0.
        4    1    3    3  502    0 -0.23823095467E+02 -0.19422292700E+03 -0.31925387642E+03  0.37445258146E+03  0.12699999809E+01 0.  1.
       -4    1    3    3    0  502  0.23823095467E+02  0.19422292700E+03  0.15709985984E+04  0.15831387477E+04  0.12699999809E+01 0. -1.
</event>
<event>
 5   0  0.1077140E-03  0.1473503E+04  0.7818609E-02  0.8902267E-01
        1   -1    0    0  501    0  0.00000000000E+00  0.00000000000E+00  0.84713015536E+03  0.84713015537E+03  0.50400001928E-02 0.  1.
       -1   -1    0    0    0  501  0.00000000000E+00  0.00000000000E+00 -0.64075487675E+03  0.64075487677E+03  0.50400001928E-02 0. -1.
    10030    2    1    2    0    0  0.00000000000E+00  0.00000000000E+00  0.20637527861E+03  0.14878850321E+04  0.14735030075E+04 0.  0.
        1    1    3    3  502    0  0.14606307245E+03  0.46308201912E+03  0.66269278774E+03  0.82154799526E+03  0.50400001928E-02 0.  1.
       -1    1    3    3    0  502 -0.14606307245E+03 -0.46308201912E+03 -0.45631750913E+03  0.66633703689E+03  0.50400001928E-02 0. -1.
</event>
<event>
 5   0  0.1069697E-03  0.1564112E+04  0.7818609E-02  0.8842904E-01
       -1   -1    0    0    0  501  0.00000000000E+00  0.00000000000E+00  0.12218172640E+04  0.12218172640E+04  0.50400001928E-02 0.  1.
        1   -1    0    0  501    0  0.00000000000E+00  0.00000000000E+00 -0.50057522048E+03  0.50057522050E+03  0.50400001928E-02 0. -1.
    10030    2    1    2    0    0  0.00000000000E+00  0.00000000000E+00  0.72124204348E+03  0.17223924845E+04  0.15641118199E+04 0.  0.
        2    1    3    3  502    0  0.25094566947E+03 -0.68686633999E+03  0.66589718508E+03  0.98902889703E+03  0.25500000920E-02 0.  1.
       -2    1    3    3    0  502 -0.25094566947E+03  0.68686633999E+03  0.55344858400E+02  0.73336358745E+03  0.25500000920E-02 0. -1.
</event>
<event>
 5   0  0.2094566E-03  0.1532297E+04  0.7818609E-02  0.8863255E-01
        2   -1    0    0  501    0  0.00000000000E+00  0.00000000000E+00  0.91692688597E+03  0.91692688597E+03  0.25500000920E-02 0. -1.
       -2   -1    0    0    0  501  0.00000000000E+00  0.00000000000E+00 -0.64016385084E+03  0.64016385084E+03  0.25500000920E-02 0.  1.
    10030    2    1    2    0    0  0.00000000000E+00  0.00000000000E+00  0.27676303513E+03  0.15570907368E+04  0.15322968985E+04 0.  0.
        1    1    3    3  502    0  0.90209427950E+02  0.51159127772E+02 -0.63299843287E+03  0.64143745859E+03  0.50400001928E-02 0.  1.
       -1    1    3    3    0  502 -0.90209427950E+02 -0.51159127772E+02  0.90976146800E+03  0.91565327822E+03  0.50400001928E-02 0. -1.
</event>
<event>
 5   0  0.1078018E-03  0.1512269E+04  0.7818609E-02  0.8876335E-01
       -1   -1    0    0    0  501  0.00000000000E+00  0.00000000000E+00  0.56704295986E+03  0.56704295988E+03  0.50400001928E-02 0. -1.
        1   -1    0    0  501    0  0.00000000000E+00  0.00000000000E+00 -0.10082820923E+04  0.10082820923E+04  0.50400001928E-02 0.  1.
    10030    2    1    2    0    0  0.00000000000E+00  0.00000000000E+00 -0.44123913240E+03  0.15753250521E+04  0.15122688412E+04 0.  0.
        4    1    3    3  502    0  0.69930684078E+03 -0.27634646605E+03 -0.13767395421E+03  0.76442995587E+03  0.12699999809E+01 0. -1.
       -4    1    3    3    0  502 -0.69930684078E+03  0.27634646605E+03 -0.30356517818E+03  0.81089509628E+03  0.12699999809E+01 0.  1.
</event>
<event>
 5   0  0.1069697E-03  0.1490266E+04  0.7818609E-02  0.8890952E-01
       -1   -1    0    0    0  501  0.00000000000E+00  0.00000000000E+00  0.40879197512E+03  0.40879197515E+03  0.50400001928E-02 0.  1.
        1   -1    0    0  501    0  0.00000000000E+00  0.00000000000E+00 -0.13582047634E+04  0.13582047634E+04  0.50400001928E-02 0. -1.
    10030    2    1    2    0    0  0.00000000000E+00  0.00000000000E+00 -0.94941278832E+03  0.17669967386E+04  0.14902660271E+04 0.  0.
        2    1    3    3  502    0  0.26611945985E+03 -0.19662725765E+03 -0.12663203005E+04  0.13088349586E+04  0.25500000920E-02 0. -1.
       -2    1    3    3    0  502 -0.26611945985E+03  0.19662725765E+03  0.31690751219E+03  0.45816178000E+03  0.25500000920E-02 0.  1.
</event>
<event>
 5   0  0.1961098E-03  0.1549594E+04  0.7818609E-02  0.8852127E-01
       -2   -1    0    0    0  501  0.00000000000E+00  0.00000000000E+00  0.61523720923E+03  0.61523720923E+03  0.25500000920E-02 0. -1.
        2   -1    0    0  501    0  0.00000000000E+00  0.00000000000E+00 -0.97573795776E+03  0.97573795776E+03  0.25500000920E-02 0.  1.
    10030    2    1    2    0    0  0.00000000000E+00  0.00000000000E+00 -0.36050074853E+03  0.15909751670E+04  0.15495938798E+04 0.  0.
        2    1    3    3  502    0  0.25439156409E+02 -0.25198606526E+01  0.61480410572E+03  0.61533534662E+03  0.25500000920E-02 0. -1.
       -2    1    3    3    0  502 -0.25439156409E+02  0.25198606526E+01 -0.97530485425E+03  0.97563982038E+03  0.25500000920E-02 0.  1.
</event>
<event>
 5   0  0.1087761E-03  0.1595833E+04  0.7818609E-02  0.8823112E-01
        1   -1    0    0  501    0  0.00000000000E+00  0.00000000000E+00  0.72491438180E+03  0.72491438182E+03  0.50400001928E-02 0.  1.
       -1   -1    0    0    0  501  0.00000000000E+00  0.00000000000E+00 -0.87827033881E+03  0.87827033882E+03  0.50400001928E-02 0. -1.
    10030    2    1    2    0    0  0.00000000000E+00  0.00000000000E+00 -0.15335595700E+03  0.16031847206E+04  0.15958330736E+04 0.  0.
        3    1    3    3  502    0  0.22770932579E+03  0.15754786808E+01  0.69157811316E+03  0.72810323169E+03  0.10100000352E+00 0.  1.
       -3    1    3    3    0  502 -0.22770932579E+03 -0.15754786808E+01 -0.84493407017E+03  0.87508148896E+03  0.10100000352E+00 0. -1.
</event>
<event>
 5   0  0.2111533E-03  0.1564203E+04  0.7818609E-02  0.8842846E-01
        2   -1    0    0  501    0  0.00000000000E+00  0.00000000000E+00  0.13556203388E+04  0.13556203388E+04  0.25500000920E-02 0.  1.
       -2   -1    0    0    0  501  0.00000000000E+00  0.00000000000E+00 -0.45121987846E+03  0.45121987846E+03  0.25500000920E-02 0. -1.
    10030    2    1    2    0    0  0.00000000000E+00  0.00000000000E+00  0.90440046034E+03  0.18068402173E+04  0.15642031128E+04 0.  0.
        5    1    3    3  502    0  0.28281301844E+03 -0.60976199232E+03  0.91405686707E+03  0.11345990203E+04  0.46999998093E+01 0.  1.
       -5    1    3    3    0  502 -0.28281301844E+03  0.60976199232E+03 -0.96564067318E+01  0.67224119694E+03  0.46999998093E+01 0. -1.
</event>
<event>
 5   0  0.1087761E-03  0.1256157E+04  0.7818609E-02  0.9065075E-01
       -1   -1    0    0    0  501  0.00000000000E+00  0.00000000000E+00  0.33275525400E+03  0.33275525404E+03  0.50400001928E-02 0.  1.
        1   -1    0    0  501    0  0.00000000000E+00  0.00000000000E+00 -0.11855029641E+04  0.11855029641E+04  0.50400001928E-02 0. -1.
    10030    2    1    2    0    0  0.00000000000E+00  0.00000000000E+00 -0.85274771008E+03  0.15182582181E+04  0.12561565826E+04 0.  0.
        3    1    3    3  502    0  0.91597755512E+02  0.25790017998E+03  0.25689470823E+03  0.37536322805E+03  0.10100000352E+00 0.  1.
       -3    1    3    3    0  502 -0.91597755512E+02 -0.25790017998E+03 -0.11096424183E+04  0.11428949901E+04  0.10100000352E+00 0. -1.
</event>
<event>
 5   0  0.1961098E-03  0.1511893E+04  0.7818609E-02  0.8876583E-01
       -2   -1    0    0    0  501  0.00000000000E+00  0.00000000000E+00  0.35976572342E+03  0.35976572343E+03  0.25500000920E-02 0. -1.
        2   -1    0    0  501    0  0.00000000000E+00  0.00000000000E+00 -0.15884087105E+04  0.15884087105E+04  0.25500000920E-02 0.  1.
    10030    2    1    2    0    0  0.00000000000E+00  0.00000000000E+00 -0.12286429871E+04  0.19481744340E+04  0.15118928650E+04 0.  0.
        2    1    3    3  502    0  0.18392796562E+03  0.89741050074E+02  0.32339024492E+03  0.38270641897E+03  0.25500000920E-02 0. -1.
       -2    1    3    3    0  502 -0.18392796562E+03 -0.89741050074E+02 -0.15520332320E+04  0.15654680150E+04  0.25500000920E-02 0.  1.
</event>
<event>
 5   0  0.1961098E-03  0.1457326E+04  0.7818609E-02  0.8913337E-01
        2   -1    0    0  501    0  0.00000000000E+00  0.00000000000E+00  0.23440498456E+04  0.23440498456E+04  0.25500000920E-02 0.  1.
       -2   -1    0    0    0  501  0.00000000000E+00  0.00000000000E+00 -0.22650954373E+03  0.22650954374E+03  0.25500000920E-02 0. -1.
    10030    2    1    2    0    0  0.00000000000E+00  0.00000000000E+00  0.21175403019E+04  0.25705593894E+04  0.14573258538E+04 0.  0.
        2    1    3    3  502    0  0.32462062246E+03 -0.30864461746E+03  0.20725218120E+04  0.21203741910E+04  0.25500000920E-02 0.  1.
       -2    1    3    3    0  502 -0.32462062246E+03  0.30864461746E+03  0.45018489872E+02  0.45018519839E+03  0.25500000920E-02 0. -1.
</event>
<event>
 5   0  0.1077140E-03  0.1499171E+04  0.7818609E-02  0.8885005E-01
       -1   -1    0    0    0  501  0.00000000000E+00  0.00000000000E+00  0.33711338552E+03  0.33711338556E+03  0.50400001928E-02 0. -1.
        1   -1    0    0  501    0  0.00000000000E+00  0.00000000000E+00 -0.16667337877E+04  0.16667337877E+04  0.50400001928E-02 0.  1.
    10030    2    1    2    0    0  0.00000000000E+00  0.00000000000E+00 -0.13296204021E+04  0.20038471732E+04  0.14991707974E+04 0.  0.
        1    1    3    3  502    0  0.20735964025E+03  0.18389628704E+02 -0.16273207130E+04  0.16405818790E+04  0.50400001928E-02 0.  1.
       -1    1    3    3    0  502 -0.20735964025E+03 -0.18389628704E+02  0.29770031086E+03  0.36326529418E+03  0.50400001928E-02 0. -1.
</event>
<event>
 5   0  0.2150197E-03  0.1403445E+04  0.7818609E-02  0.8951328E-01
       -2   -1    0    0    0  501  0.00000000000E+00  0.00000000000E+00  0.51595345825E+03  0.51595345826E+03  0.25500000920E-02 0. -1.
        2   -1    0    0  501    0  0.00000000000E+00  0.00000000000E+00 -0.95437804361E+03  0.95437804362E+03  0.25500000920E-02 0.  1.
    10030    2    1    2    0    0  0.00000000000E+00  0.00000000000E+00 -0.43842458536E+03  0.14703315019E+04  0.14034452638E+04 0.  0.
        3    1    3    3  502    0 -0.40774202318E+03 -0.19870035508E+03  0.34172965122E+03  0.56790364790E+03  0.10100000352E+00 0. -1.
       -3    1    3    3    0  502  0.40774202318E+03  0.19870035508E+03 -0.78015423658E+03  0.90242785398E+03  0.10100000352E+00 0.  1.
</event>
<event>
 5   0  0.1961098E-03  0.1414132E+04  0.7818609E-02  0.8943652E-01
       -2   -1    0    0    0  501  0.00000000000E+00  0.00000000000E+00  0.70979447610E+03  0.70979447610E+03  0.25500000920E-02 0.  1.
        2   -1    0    0  501    0  0.00000000000E+00  0.00000000000E+00 -0.70434845240E+03  0.70434845241E+03  0.25500000920E-02 0. -1.
    10030    2    1    2    0    0  0.00000000000E+00  0.00000000000E+00  0.54460236914E+01  0.14141429285E+04  0.14141324418E+04 0.  0.
        2    1    3    3  502    0 -0.45156045287E+03 -0.25040123763E+03  0.48577422965E+03  0.70893174890E+03  0.25500000920E-02 0.  1.
       -2    1    3    3    0  502  0.45156045287E+03  0.25040123763E+03 -0.48032820596E+03  0.70521117961E+03  0.25500000920E-02 0. -1.
</event>
<event>
 5   0  0.1087761E-03  0.1396063E+04  0.7818609E-02  0.8956673E-01
       -1   -1    0    0    0  501  0.00000000000E+00  0.00000000000E+00  0.79937436288E+03  0.79937436289E+03  0.50400001928E-02 0. -1.
        1   -1    0    0  501    0  0.00000000000E+00  0.00000000000E+00 -0.60953696367E+03  0.60953696370E+03  0.50400001928E-02 0.  1.
    10030    2    1    2    0    0  0.00000000000E+00  0.00000000000E+00  0.18983739920E+03  0.14089113266E+04  0.13960633539E+04 0.  0.
        3    1    3    3  502    0 -0.66503640532E+03 -0.12691331797E+03  0.26638760907E+03  0.72755946777E+03  0.10100000352E+00 0. -1.
       -3    1    3    3    0  502  0.66503640532E+03  0.12691331797E+03 -0.76550209864E+02  0.68135185882E+03  0.10100000352E+00 0.  1.
</event>
<event>
 5   0  0.1087761E-03  0.1485550E+04  0.7818609E-02  0.8894119E-01
        1   -1    0    0  501    0  0.00000000000E+00  0.00000000000E+00  0.13963392880E+04  0.13963392880E+04  0.50400001928E-02 0. -1.
       -1   -1    0    0    0  501  0.00000000000E+00  0.00000000000E+00 -0.39511510954E+03  0.39511510957E+03  0.50400001928E-02 0.  1.
    10030    2    1    2    0    0  0.00000000000E+00  0.00000000000E+00  0.10012241784E+04  0.17914543976E+04  0.14855500675E+04 0.  0.
        3    1    3    3  502    0 -0.17152528662E+03  0.65350731620E+02  0.13685587300E+04  0.13808130394E+04  0.10100000352E+00 0. -1.
       -3    1    3    3    0  502  0.17152528662E+03 -0.65350731620E+02 -0.36733455156E+03  0.41064135817E+03  0.10100000352E+00 0.  1.
</event>
<event>
 5   0  0.1078018E-03  0.1512281E+04  0.7818609E-02  0.8876327E-01
       -1   -1    0    0    0  501  0.00000000000E+00  0.00000000000E+00  0.14630430153E+04  0.14630430154E+04  0.50400001928E-02 0.  1.
        1   -1    0    0  501    0  0.00000000000E+00  0.00000000000E+00 -0.39079418617E+03  0.39079418620E+03  0.50400001928E-02 0. -1.
    10030    2    1    2    0    0  0.00000000000E+00  0.00000000000E+00  0.10722488292E+04  0.18538372016E+04  0.15122813291E+04 0.  0.
        4    1    3    3  502    0  0.44870472809E+03  0.16920416020E+03  0.12527841934E+04  0.13414305159E+04  0.12699999809E+01 0.  1.
       -4    1    3    3    0  502 -0.44870472809E+03 -0.16920416020E+03 -0.18053536425E+03  0.51240668563E+03  0.12699999809E+01 0. -1.
</event>
<event>
 5   0  0.2150197E-03  0.1496580E+04  0.7818609E-02  0.8886730E-01
       -2   -1    0    0    0  501  0.00000000000E+00  0.00000000000E+00  0.43771607507E+03  0.43771607508E+03  0.25500000920E-02 0.  1.
        2   -1    0    0  501    0  0.00000000000E+00  0.00000000000E+00 -0.12792267110E+04  0.12792267110E+04  0.25500000920E-02 0. -1.
    10030    2    1    2    0    0  0.00000000000E+00  0.00000000000E+00 -0.84151063594E+03  0.17169427861E+04  0.14965802285E+04 0.  0.
        3    1    3    3  502    0 -0.10408347247E+03 -0.38063381375E+02  0.42824861715E+03  0.44235628009E+03  0.10100000352E+00 0.  1.
       -3    1    3    3    0  502  0.10408347247E+03  0.38063381375E+02 -0.12697592531E+04  0.12745865060E+04  0.10100000352E+00 0. -1.
</event>
<event>
 5   0  0.1961098E-03  0.1470641E+04  0.7818609E-02  0.8904215E-01
       -2   -1    0    0    0  501  0.00000000000E+00  0.00000000000E+00  0.63197083017E+03  0.63197083017E+03  0.25500000920E-02 0.  1.
        2   -1    0    0  501    0  0.00000000000E+00  0.00000000000E+00 -0.85557112628E+03  0.85557112628E+03  0.25500000920E-02 0. -1.
    10030    2    1    2    0    0  0.00000000000E+00  0.00000000000E+00 -0.22360029611E+03  0.14875419564E+04  0.14706406698E+04 0.  0.
        2    1    3    3  502    0 -0.15737087420E+03 -0.39475967386E+03  0.49517557313E+03  0.65253324849E+03  0.25500000920E-02 0.  1.
       -2    1    3    3    0  502  0.15737087420E+03  0.39475967386E+03 -0.71877586924E+03  0.83500870796E+03  0.25500000920E-02 0. -1.
</event>
<event>
 5   0  0.1993623E-03  0.1458299E+04  0.7818609E-02  0.8912667E-01
       -2   -1    0    0    0  501  0.00000000000E+00  0.00000000000E+00  0.22291644814E+03  0.22291644815E+03  0.25500000920E-02 0.  1.
        2   -1    0    0  501    0  0.00000000000E+00  0.00000000000E+00 -0.23850151699E+04  0.23850151699E+04  0.25500000920E-02 0. -1.
    10030    2    1    2    0    0  0.00000000000E+00  0.00000000000E+00 -0.21620987217E+04  0.26079316180E+04  0.14582991606E+04 0.  0.
        4    1    3    3  502    0  0.33569147427E+03  0.49167311822E+03 -0.18339083329E+04  0.19281215230E+04  0.12699999809E+01 0. -1.
       -4    1    3    3    0  502 -0.33569147427E+03 -0.49167311822E+03 -0.32819038884E+03  0.67981009503E+03  0.12699999809E+01 0.  1.
</event>
<event>
 5   0  0.1069697E-03  0.1448255E+04  0.7818609E-02  0.8919611E-01
        1   -1    0    0  501    0  0.00000000000E+00  0.00000000000E+00  0.10011270113E+04  0.10011270113E+04  0.50400001928E-02 0. -1.
       -1   -1    0    0    0  501  0.00000000000E+00  0.00000000000E+00 -0.52377020651E+03  0.52377020653E+03  0.50400001928E-02 0.  1.
    10030    2    1    2    0    0  0.00000000000E+00  0.00000000000E+00  0.47735680479E+03  0.15248972178E+04  0.14482548139E+04 0.  0.
        2    1    3    3  502    0 -0.19815411654E+03 -0.13095426855E+03  0.95894563744E+03  0.98792247161E+03  0.25500000920E-02 0. -1.
       -2    1    3    3    0  502  0.19815411654E+03  0.13095426855E+03 -0.48158883264E+03  0.53697474623E+03  0.25500000920E-02 0.  1.
</event>
<event>
 5   0  0.7468375E-04  0.1458627E+04  0.7818609E-02  0.8912441E-01
       -3   -1    0    0    0  501  0.00000000000E+00  0.00000000000E+00  0.72536602028E+03  0.72536602731E+03  0.10100000352E+00 0. -1.
        3   -1    0    0  501    0  0.00000000000E+00  0.00000000000E+00 -0.73328237333E+03  0.73328238029E+03  0.10100000352E+00 0.  1.
    10030    2    1    2    0    0  0.00000000000E+00  0.00000000000E+00 -0.79163530490E+01  0.14586484076E+04  0.14586269257E+04 0.  0.
        5    1    3    3  502    0 -0.10029472647E+03  0.41999090739E+03  0.58377885412E+03  0.72613444689E+03  0.46999998093E+01 0. -1.
       -5    1    3    3    0  502  0.10029472647E+03 -0.41999090739E+03 -0.59169520717E+03  0.73251396071E+03  0.46999998093E+01 0.  1.
</event>
<event>
 5   0  0.2150197E-03  0.1208208E+04  0.7818609E-02  0.9105703E-01
        2   -1    0    0  501    0  0.00000000000E+00  0.00000000000E+00  0.16554439006E+04  0.16554439006E+04  0.25500000920E-02 0.  1.
       -2   -1    0    0    0  501  0.00000000000E+00  0.00000000000E+00 -0.22044925094E+03  0.22044925096E+03  0.25500000920E-02 0. -1.
    10030    2    1    2    0    0  0.00000000000E+00  0.00000000000E+00  0.14349946497E+04  0.18758931516E+04  0.12082075449E+04 0.  0.
        3    1    3    3  502    0 -0.49331826094E+03  0.28072703403E+03  0.10385972152E+04  0.11835771035E+04  0.10100000352E+00 0.  1.
       -3    1    3    3    0  502  0.49331826094E+03 -0.28072703403E+03  0.39639743445E+03  0.69231604809E+03  0.10100000352E+00 0. -1.
</event>
<event>
 5   0  0.1961098E-03  0.1441104E+04  0.7818609E-02  0.8924591E-01
        2   -1    0    0  501    0  0.00000000000E+00  0.00000000000E+00  0.47713439219E+03  0.47713439220E+03  0.25500000920E-02 0. -1.
       -2   -1    0    0    0  501  0.00000000000E+00  0.00000000000E+00 -0.10881525316E+04  0.10881525316E+04  0.25500000920E-02 0.  1.
    10030    2    1    2    0    0  0.00000000000E+00  0.00000000000E+00 -0.61101813939E+03  0.15652869238E+04  0.14411037392E+04 0.  0.
        2    1    3    3  502    0 -0.52249932330E+03 -0.46912980780E+03 -0.13001012348E+03  0.71413650770E+03  0.25500000920E-02 0. -1.
       -2    1    3    3    0  502  0.52249932330E+03  0.46912980780E+03 -0.48100801592E+03  0.85115041608E+03  0.25500000920E-02 0.  1.
</event>
<event>
 5   0  0.1077140E-03  0.1503223E+04  0.7818609E-02  0.8882312E-01
       -1   -1    0    0    0  501  0.00000000000E+00  0.00000000000E+00  0.68345325191E+03  0.68345325193E+03  0.50400001928E-02 0.  1.
        1   -1    0    0  501    0  0.00000000000E+00  0.00000000000E+00 -0.82656737936E+03  0.82656737937E+03  0.50400001928E-02 0. -1.
    10030    2    1    2    0    0  0.00000000000E+00  0.00000000000E+00 -0.14311412744E+03  0.15100206313E+04  0.15032234210E+04 0.  0.
        1    1    3    3  502    0  0.25251671486E+03 -0.29888830498E+03 -0.71619183185E+03  0.81610639636E+03  0.50400001928E-02 0. -1.
       -1    1    3    3    0  502 -0.25251671486E+03  0.29888830498E+03  0.57307770441E+03  0.69391423494E+03  0.50400001928E-02 0.  1.
</event>
<event>
 5   0  0.1078787E-03  0.1565750E+04  0.7818609E-02  0.8841870E-01
       -1   -1    0    0    0  501  0.00000000000E+00  0.00000000000E+00  0.40033017264E+03  0.40033017267E+03  0.50400001928E-02 0.  1.
        1   -1    0    0  501    0  0.00000000000E+00  0.00000000000E+00 -0.15309694131E+04  0.15309694131E+04  0.50400001928E-02 0. -1.
    10030    2    1    2    0    0  0.00000000000E+00  0.00000000000E+00 -0.11306392405E+04  0.19312995858E+04  0.15657499794E+04 0.  0.
        5    1    3    3  502    0 -0.23459119186E+03 -0.61276019140E+03 -0.10920588835E+04  0.12740183572E+04  0.46999998093E+01 0. -1.
       -5    1    3    3    0  502  0.23459119186E+03  0.61276019140E+03 -0.38580356929E+02  0.65728122855E+03  0.46999998093E+01 0.  1.
</event>
<event>
 5   0  0.1078018E-03  0.1491832E+04  0.7818609E-02  0.8889903E-01
        1   -1    0    0  501    0  0.00000000000E+00  0.00000000000E+00  0.12924169176E+04  0.12924169176E+04  0.50400001928E-02 0.  1.
       -1   -1    0    0    0  501  0.00000000000E+00  0.00000000000E+00 -0.43050387779E+03  0.43050387782E+03  0.50400001928E-02 0. -1.
    10030    2    1    2    0    0  0.00000000000E+00  0.00000000000E+00  0.86191303979E+03  0.17229207954E+04  0.14918317529E+04 0.  0.
        4    1    3    3  502    0 -0.14850074091E+02  0.69855770782E+03  0.73252881171E+03  0.10123257720E+04  0.12699999809E+01 0. -1.
       -4    1    3    3    0  502  0.14850074091E+02 -0.69855770782E+03  0.12938422808E+03  0.71059502337E+03  0.12699999809E+01 0.  1.
</event>
<event>
 5   0  0.1087761E-03  0.1500685E+04  0.7818609E-02  0.8883997E-01
       -1   -1    0    0    0  501  0.00000000000E+00  0.00000000000E+00  0.32980271485E+03  0.32980271488E+03  0.50400001928E-02 0. -1.
        1   -1    0    0  501    0  0.00000000000E+00  0.00000000000E+00 -0.17071241803E+04  0.17071241803E+04  0.50400001928E-02 0.  1.
    10030    2    1    2    0    0  0.00000000000E+00  0.00000000000E+00 -0.13773214655E+04  0.20369268952E+04  0.15006854291E+04 0.  0.
        3    1    3    3  502    0  0.26921266174E+03 -0.25788676787E+02  0.26134849489E+03  0.37608982846E+03  0.10100000352E+00 0. -1.
       -3    1    3    3    0  502 -0.26921266174E+03  0.25788676787E+02 -0.16386699603E+04  0.16608370667E+04  0.10100000352E+00 0.  1.
</event>
<event>
 5   0  0.2150197E-03  0.1166427E+04  0.7818609E-02  0.9142762E-01
       -2   -1    0    0    0  501  0.00000000000E+00  0.00000000000E+00  0.20879579004E+03  0.20879579006E+03  0.25500000920E-02 0. -1.
        2   -1    0    0  501    0  0.00000000000E+00  0.00000000000E+00 -0.16290452362E+04  0.16290452362E+04  0.25500000920E-02 0.  1.
    10030    2    1    2    0    0  0.00000000000E+00  0.00000000000E+00 -0.14202494462E+04  0.18378410263E+04  0.11664266580E+04 0.  0.
        3    1    3    3  502    0  0.21076146181E+03  0.46615456879E+03 -0.11513460040E+04  0.12598881327E+04  0.10100000352E+00 0.  1.
       -3    1    3    3    0  502 -0.21076146181E+03 -0.46615456879E+03 -0.26890344217E+03  0.57795289358E+03  0.10100000352E+00 0. -1.
</event>
<event>
 5   0  0.1078018E-03  0.1473559E+04  0.7818609E-02  0.8902229E-01
       -1   -1    0    0    0  501  0.00000000000E+00  0.00000000000E+00  0.80972479228E+03  0.80972479230E+03  0.50400001928E-02 0.  1.
        1   -1    0    0  501    0  0.00000000000E+00  0.00000000000E+00 -0.67040549855E+03  0.67040549857E+03  0.50400001928E-02 0. -1.
    10030    2    1    2    0    0  0.00000000000E+00  0.00000000000E+00  0.13931929373E+03  0.14801302909E+04  0.14735588934E+04 0.  0.
        4    1    3    3  502    0 -0.60756840017E+03  0.28413011637E+03 -0.23661496804E+03  0.71123662723E+03  0.12699999809E+01 0. -1.
       -4    1    3    3    0  502  0.60756840017E+03 -0.28413011637E+03  0.37593426177E+03  0.76889366364E+03  0.12699999809E+01 0.  1.
</event>
<event>
 5   0  0.2094566E-03  0.1492867E+04  0.7818609E-02  0.8889210E-01
       -2   -1    0    0    0  501  0.00000000000E+00  0.00000000000E+00  0.72116836702E+03  0.72116836703E+03  0.25500000920E-02 0. -1.
        2   -1    0    0  501    0  0.00000000000E+00  0.00000000000E+00 -0.77258349764E+03  0.77258349764E+03  0.25500000920E-02 0.  1.
    10030    2    1    2    0    0  0.00000000000E+00  0.00000000000E+00 -0.51415130617E+02  0.14937518647E+04  0.14928667447E+04 0.  0.
        1    1    3    3  502    0  0.89800123482E+02  0.66844033943E+03 -0.34571937240E+03  0.75789077975E+03  0.50400001928E-02 0. -1.
       -1    1    3    3    0  502 -0.89800123482E+02 -0.66844033943E+03  0.29430424178E+03  0.73586108492E+03  0.50400001928E-02 0.  1.
</event>
<event>
 5   0  0.1069697E-03  0.1500359E+04  0.7818609E-02  0.8884214E-01
        1   -1    0    0  501    0  0.00000000000E+00  0.00000000000E+00  0.63530340522E+03  0.63530340524E+03  0.50400001928E-02 0. -1.
       -1   -1    0    0    0  501  0.00000000000E+00  0.00000000000E+00 -0.88582803488E+03  0.88582803489E+03  0.50400001928E-02 0.  1.
    10030    2    1    2    0    0  0.00000000000E+00  0.00000000000E+00 -0.25052462966E+03  0.15211314401E+04  0.15003593796E+04 0.  0.
        2    1    3    3  502    0 -0.43117787949E+03 -0.50477291066E+03  0.22894478304E+03  0.70222914265E+03  0.25500000920E-02 0. -1.
       -2    1    3    3    0  502  0.43117787949E+03  0.50477291066E+03 -0.47946941270E+03  0.81890229748E+03  0.25500000920E-02 0.  1.
</event>
<event>
 5   0  0.1087761E-03  0.1504736E+04  0.7818609E-02  0.8881309E-01
        1   -1    0    0  501    0  0.00000000000E+00  0.00000000000E+00  0.13331535943E+04  0.13331535943E+04  0.50400001928E-02 0.  1.
       -1   -1    0    0    0  501  0.00000000000E+00  0.00000000000E+00 -0.42460070824E+03  0.42460070827E+03  0.50400001928E-02 0. -1.
    10030    2    1    2    0    0  0.00000000000E+00  0.00000000000E+00  0.90855288609E+03  0.17577543026E+04  0.15047364691E+04 0.  0.
        3    1    3    3  502    0 -0.11539742339E+03  0.62258272018E+03  0.92897021012E+03  0.11242381733E+04  0.10100000352E+00 0.  1.
       -3    1    3    3    0  502  0.11539742339E+03 -0.62258272018E+03 -0.20417324028E+02  0.63351612933E+03  0.10100000352E+00 0. -1.
</event>
<event>
 5   0  0.1993623E-03  0.1489491E+04  0.7818609E-02  0.8891471E-01
       -2   -1    0    0    0  501  0.00000000000E+00  0.00000000000E+00  0.30546095855E+03  0.30546095856E+03  0.25500000920E-02 0. -1.
        2   -1    0    0  501    0  0.00000000000E+00  0.00000000000E+00 -0.18157673935E+04  0.18157673935E+04  0.25500000920E-02 0.  1.
    10030    2    1    2    0    0  0.00000000000E+00  0.00000000000E+00 -0.15103064349E+04  0.21212283520E+04  0.14894912534E+04 0.  0.
        4    1    3    3  502    0 -0.32651744442E+03  0.23211556254E+03  0.13893829488E+03  0.42402445515E+03  0.12699999809E+01 0. -1.
       -4    1    3    3    0  502  0.32651744442E+03 -0.23211556254E+03 -0.16492447298E+04  0.16972038969E+04  0.12699999809E+01 0.  1.
</event>
<event>
 5   0  0.1078018E-03  0.1490208E+04  0.7818609E-02  0.8890991E-01
        1   -1    0    0  501    0  0.00000000000E+00  0.00000000000E+00  0.12349824975E+04  0.12349824976E+04  0.50400001928E-02 0.  1.
       -1   -1    0    0    0  501  0.00000000000E+00  0.00000000000E+00 -0.44954495932E+03  0.44954495935E+03  0.50400001928E-02 0. -1.
    10030    2    1    2    0    0  0.00000000000E+00  0.00000000000E+00  0.78543753822E+03  0.16845274569E+04  0.14902082494E+04 0.  0.
        4    1    3    3  502    0  0.41783395555E+02  0.12369526826E+03  0.12219499220E+04  0.12289058533E+04  0.12699999809E+01 0.  1.
       -4    1    3    3    0  502 -0.41783395555E+02 -0.12369526826E+03 -0.43651238379E+03  0.45562160357E+03  0.12699999809E+01 0. -1.
</event>
<event>
 5   0  0.1961098E-03  0.1489874E+04  0.7818609E-02  0.8891215E-01
       -2   -1    0    0    0  501  0.00000000000E+00  0.00000000000E+00  0.63307600382E+03  0.63307600383E+03  0.25500000920E-02 0.  1.
        2   -1    0    0  501    0  0.00000000000E+00  0.00000000000E+00 -0.87656323445E+03  0.87656323446E+03  0.25500000920E-02 0. -1.
    10030    2    1    2    0    0  0.00000000000E+00  0.00000000000E+00 -0.24348723063E+03  0.15096392383E+04  0.14898740209E+04 0.  0.
        2    1    3    3  502    0 -0.45566897634E+03 -0.47381613080E+03  0.23332667655E+03  0.69755091556E+03  0.25500000920E-02 0.  1.
       -2    1    3    3    0  502  0.45566897634E+03  0.47381613080E+03 -0.47681390718E+03  0.81208832272E+03  0.25500000920E-02 0. -1.
</event>
<event>
 5   0  0.1078787E-03  0.1529423E+04  0.7818609E-02  0.8865119E-01
        1   -1    0    0  501    0  0.00000000000E+00  0.00000000000E+00  0.58032048333E+03  0.58032048335E+03  0.50400001928E-02 0. -1.
       -1   -1    0    0    0  501  0.00000000000E+00  0.00000000000E+00 -0.10076910957E+04  0.10076910957E+04  0.50400001928E-02 0.  1.
    10030    2    1    2    0    0  0.00000000000E+00  0.00000000000E+00 -0.42737061233E+03  0.15880115790E+04  0.15294231379E+04 0.  0.
        5    1    3    3  502    0 -0.38551405607E+03  0.64723530063E+03 -0.34996518593E+03  0.83068185437E+03  0.46999998093E+01 0.  1.
       -5    1    3    3    0  502  0.38551405607E+03 -0.64723530063E+03 -0.77405426403E+02  0.75732972466E+03  0.46999998093E+01 0. -1.
</event>
<event>
 5   0  0.2150197E-03  0.1510218E+04  0.7818609E-02  0.8877686E-01
        2   -1    0    0  501    0  0.00000000000E+00  0.00000000000E+00  0.16232413852E+04  0.16232413852E+04  0.25500000920E-02 0. -1.
       -2   -1    0    0    0  501  0.00000000000E+00  0.00000000000E+00 -0.35126628173E+03  0.35126628174E+03  0.25500000920E-02 0.  1.
    10030    2    1    2    0    0  0.00000000000E+00  0.00000000000E+00  0.12719751035E+04  0.19745076669E+04  0.15102184819E+04 0.  0.
        3    1    3    3  502    0  0.17528569175E+03 -0.61588159566E+03  0.11276199999E+03  0.65019265794E+03  0.10100000352E+00 0.  1.
       -3    1    3    3    0  502 -0.17528569175E+03  0.61588159566E+03  0.11592131035E+04  0.13243150090E+04  0.10100000352E+00 0. -1.
</event>
<event>
 5   0  0.1069697E-03  0.1206871E+04  0.7818609E-02  0.9106864E-01
       -1   -1    0    0    0  501  0.00000000000E+00  0.00000000000E+00  0.19346370012E+03  0.19346370018E+03  0.50400001928E-02 0.  1.
        1   -1    0    0  501    0  0.00000000000E+00  0.00000000000E+00 -0.18821839266E+04  0.18821839266E+04  0.50400001928E-02 0. -1.
    10030    2    1    2    0    0  0.00000000000E+00  0.00000000000E+00 -0.16887202265E+04  0.20756476268E+04  0.12068707749E+04 0.  0.
        2    1    3    3  502    0  0.54933015698E+03 -0.22743527897E+03 -0.66692400174E+03  0.89346407404E+03  0.25500000920E-02 0.  1.
       -2    1    3    3    0  502 -0.54933015698E+03  0.22743527897E+03 -0.10217962248E+04  0.11821835528E+04  0.25500000920E-02 0. -1.
</event>
<event>
 5   0  0.1961098E-03  0.1480691E+04  0.7818609E-02  0.8897396E-01
       -2   -1    0    0    0  501  0.00000000000E+00  0.00000000000E+00  0.77217044139E+03  0.77217044139E+03  0.25500000920E-02 0.  1.
        2   -1    0    0  501    0  0.00000000000E+00  0.00000000000E+00 -0.70983179455E+03  0.70983179455E+03  0.25500000920E-02 0. -1.
    10030    2    1    2    0    0  0.00000000000E+00  0.00000000000E+00  0.62338646839E+02  0.14820022359E+04  0.14806905553E+04 0.  0.
        2    1    3    3  502    0  0.79600577575E+02  0.73554522467E+03  0.37936658456E+01  0.73984959377E+03  0.25500000920E-02 0. -1.
       -2    1    3    3    0  502 -0.79600577575E+02 -0.73554522467E+03  0.58544980994E+02  0.74215264218E+03  0.25500000920E-02 0.  1.
</event>
<event>
 5   0  0.2094566E-03  0.1490796E+04  0.7818609E-02  0.8890597E-01
        2   -1    0    0  501    0  0.00000000000E+00  0.00000000000E+00  0.20430546603E+04  0.20430546603E+04  0.25500000920E-02 0. -1.
       -2   -1    0    0    0  501  0.00000000000E+00  0.00000000000E+00 -0.27195465536E+03  0.27195465537E+03  0.25500000920E-02 0.  1.
    10030    2    1    2    0    0  0.00000000000E+00  0.00000000000E+00  0.17711000050E+04  0.23150093157E+04  0.14907960639E+04 0.  0.
        1    1    3    3  502    0 -0.41128552578E+03  0.42207001467E+03  0.17678982820E+03  0.61526703501E+03  0.50400001928E-02 0.  1.
       -1    1    3    3    0  502  0.41128552578E+03 -0.42207001467E+03  0.15943101768E+04  0.16997422807E+04  0.50400001928E-02 0. -1.
</event>
<event>
 5   0  0.1087761E-03  0.1510432E+04  0.7818609E-02  0.8877545E-01
       -1   -1    0    0    0  501  0.00000000000E+00  0.00000000000E+00  0.11507104505E+04  0.11507104505E+04  0.50400001928E-02 0. -1.
        1   -1    0    0  501    0  0.00000000000E+00  0.00000000000E+00 -0.49565138015E+03  0.49565138018E+03  0.50400001928E-02 0.  1.
    10030    2    1    2    0    0  0.00000000000E+00  0.00000000000E+00  0.65505907036E+03  0.16463618307E+04  0.15104320216E+04 0.  0.
        3    1    3    3  502    0  0.61007804312E+03  0.38713339644E+03  0.56704000323E+03  0.91847801324E+03  0.10100000352E+00 0.  1.
       -3    1    3    3    0  502 -0.61007804312E+03 -0.38713339644E+03  0.88019067137E+02  0.72788381746E+03  0.10100000352E+00 0. -1.
</event>
<event>
 5   0  0.1078018E-03  0.1604531E+04  0.7818609E-02  0.8817770E-01
       -1   -1    0    0    0  501  0.00000000000E+00  0.00000000000E+00  0.96207258288E+03  0.96207258289E+03  0.50400001928E-02 0.  1.
        1   -1    0    0  501    0  0.00000000000E+00  0.00000000000E+00 -0.66900314018E+03  0.66900314020E+03  0.50400001928E-02 0. -1.
    10030    2    1    2    0    0  0.00000000000E+00  0.00000000000E+00  0.29306944270E+03  0.16310757231E+04  0.16045305595E+04 0.  0.
        4    1    3    3  502    0  0.57997508764E+02 -0.74924481891E+03  0.43206678209E+03  0.86684186953E+03  0.12699999809E+01 0. -1.
       -4    1    3    3    0  502 -0.57997508764E+02  0.74924481891E+03 -0.13899733940E+03  0.76423385357E+03  0.12699999809E+01 0.  1.
</event>
<event>
 5   0  0.1961098E-03  0.1512545E+04  0.7818609E-02  0.8876153E-01
       -2   -1    0    0    0  501  0.00000000000E+00  0.00000000000E+00  0.82934381620E+03  0.82934381620E+03  0.25500000920E-02 0.  1.
        2   -1    0    0  501    0  0.00000000000E+00  0.00000000000E+00 -0.68963925901E+03  0.68963925901E+03  0.25500000920E-02 0. -1.
    10030    2    1    2    0    0  0.00000000000E+00  0.00000000000E+00  0.13970455719E+03  0.15189830752E+04  0.15125449479E+04 0.  0.
        2    1    3    3  502    0  0.62687106990E+03 -0.38635756259E+03 -0.10324306148E+03  0.74357153940E+03  0.25500000920E-02 0.  1.
       -2    1    3    3    0  502 -0.62687106990E+03  0.38635756259E+03  0.24294761867E+03  0.77541153582E+03  0.25500000920E-02 0. -1.
</event>
<event>
 5   0  0.1993623E-03  0.1505893E+04  0.7818609E-02  0.8880543E-01
        2   -1    0    0  501    0  0.00000000000E+00  0.00000000000E+00  0.13123929228E+04  0.13123929228E+04  0.25500000920E-02 0. -1.
       -2   -1    0    0    0  501  0.00000000000E+00  0.00000000000E+00 -0.43198084882E+03  0.43198084883E+03  0.25500000920E-02 0.  1.
    10030    2    1    2    0    0  0.00000000000E+00  0.00000000000E+00  0.88041207398E+03  0.17443737716E+04  0.15058932350E+04 0.  0.
        4    1    3    3  502    0 -0.60684498015E+03 -0.28599092428E+03  0.83621666478E+03  0.10720594956E+04  0.12699999809E+01 0. -1.
       -4    1    3    3    0  502  0.60684498015E+03  0.28599092428E+03  0.44195409200E+02  0.67231427606E+03  0.12699999809E+01 0.  1.
</event>
<event>
 5   0  0.2150197E-03  0.1464640E+04  0.7818609E-02  0.8908314E-01
        2   -1    0    0  501    0  0.00000000000E+00  0.00000000000E+00  0.18634054635E+04  0.18634054635E+04  0.25500000920E-02 0. -1.
       -2   -1    0    0    0  501  0.00000000000E+00  0.00000000000E+00 -0.28780228805E+03  0.28780228807E+03  0.25500000920E-02 0.  1.
    10030    2    1    2    0    0  0.00000000000E+00  0.00000000000E+00  0.15756031754E+04  0.21512077515E+04  0.14646396908E+04 0.  0.
        3    1    3    3  502    0 -0.39107986212E+03 -0.61913912447E+03  0.79360863900E+03  0.10798571184E+04  0.10100000352E+00 0. -1.
       -3    1    3    3    0  502  0.39107986212E+03  0.61913912447E+03  0.78199453643E+03  0.10713506332E+04  0.10100000352E+00 0.  1.
</event>
<event>
 5   0  0.2111533E-03  0.9463195E+03  0.7818609E-02  0.9369463E-01
       -2   -1    0    0    0  501  0.00000000000E+00  0.00000000000E+00  0.46678905248E+03  0.46678905249E+03  0.25500000920E-02 0.  1.
        2   -1    0    0  501    0  0.00000000000E+00  0.00000000000E+00 -0.47961737142E+03  0.47961737143E+03  0.25500000920E-02 0. -1.
    10030    2    1    2    0    0  0.00000000000E+00  0.00000000000E+00 -0.12828318939E+02  0.94640642392E+03  0.94631947748E+03 0.  0.
        5    1    3    3  502    0  0.17815420187E+03 -0.29160437077E+02 -0.44379722526E+03  0.47913183768E+03  0.46999998093E+01 0. -1.
       -5    1    3    3    0  502 -0.17815420187E+03  0.29160437077E+02  0.43096890632E+03  0.46727458624E+03  0.46999998093E+01 0.  1.
</event>
<event>
 5   0  0.1078018E-03  0.1510612E+04  0.7818609E-02  0.8877426E-01
        1   -1    0    0  501    0  0.00000000000E+00  0.00000000000E+00  0.95046016579E+03  0.95046016581E+03  0.50400001928E-02 0. -1.
       -1   -1    0    0    0  501  0.00000000000E+00  0.00000000000E+00 -0.60022216689E+03  0.60022216692E+03  0.50400001928E-02 0.  1.
    10030    2    1    2    0    0  0.00000000000E+00  0.00000000000E+00  0.35023799890E+03  0.15506823327E+04  0.15106121412E+04 0.  0.
        4    1    3    3  502    0  0.20867028708E+03  0.48958396448E+03  0.72529268100E+03  0.89960370886E+03  0.12699999809E+01 0. -1.
       -4    1    3    3    0  502 -0.20867028708E+03 -0.48958396448E+03 -0.37505468210E+03  0.65107862386E+03  0.12699999809E+01 0.  1.
</event>
<event>
 5   0  0.1078787E-03  0.1513852E+04  0.7818609E-02  0.8875293E-01
       -1   -1    0    0    0  501  0.00000000000E+00  0.00000000000E+00  0.62816877162E+03  0.62816877164E+03  0.50400001928E-02 0.  1.
        1   -1    0    0  501    0  0.00000000000E+00  0.00000000000E+00 -0.91207476782E+03  0.91207476783E+03  0.50400001928E-02 0. -1.
    10030    2    1    2    0    0  0.00000000000E+00  0.00000000000E+00 -0.28390599620E+03  0.15402435395E+04  0.15138518904E+04 0.  0.
        5    1    3    3  502    0 -0.60951631565E+03  0.26717573367E+03 -0.50882457805E+03  0.83774551800E+03  0.46999998093E+01 0. -1.
       -5    1    3    3    0  502  0.60951631565E+03 -0.26717573367E+03  0.22491858185E+03  0.70249802147E+03  0.46999998093E+01 0.  1.
</event>
<event>
 5   0  0.1077140E-03  0.1819381E+04  0.7818609E-02  0.8696060E-01
        1   -1    0    0  501    0  0.00000000000E+00  0.00000000000E+00  0.16962179065E+04  0.16962179065E+04  0.50400001928E-02 0.  1.
       -1   -1    0    0    0  501  0.00000000000E+00  0.00000000000E+00 -0.48787186337E+03  0.48787186340E+03  0.50400001928E-02 0. -1.
    10030    2    1    2    0    0  0.00000000000E+00  0.00000000000E+00  0.12083460432E+04  0.21840897699E+04  0.18193812034E+04 0.  0.
        1    1    3    3  502    0  0.82279028117E+02  0.42359097221E+03 -0.35719619931E+03  0.56016807749E+03  0.50400001928E-02 0. -1.
       -1    1    3    3    0  502 -0.82279028117E+02 -0.42359097221E+03  0.15655422425E+04  0.16239216925E+04  0.50400001928E-02 0.  1.
</event>
<event>
 5   0  0.1993623E-03  0.1515091E+04  0.7818609E-02  0.8874479E-01
        2   -1    0    0  501    0  0.00000000000E+00  0.00000000000E+00  0.77849810657E+03  0.77849810657E+03  0.25500000920E-02 0. -1.
       -2   -1    0    0    0  501  0.00000000000E+00  0.00000000000E+00 -0.73715721081E+03  0.73715721081E+03  0.25500000920E-02 0.  1.
    10030    2    1    2    0    0  0.00000000000E+00  0.00000000000E+00  0.41340895763E+02  0.15156553174E+04  0.15150914070E+04 0.  0.
        4    1    3    3  502    0 -0.61062545302E+02  0.75408810205E+03 -0.18027019364E+02  0.75677214961E+03  0.12699999809E+01 0.  1.
       -4    1    3    3    0  502  0.61062545302E+02 -0.75408810205E+03  0.59367915127E+02  0.75888316778E+03  0.12699999809E+01 0. -1.
</event>
<event>
 5   0  0.1993623E-03  0.1524226E+04  0.7818609E-02  0.8868501E-01
        2   -1    0    0  501    0  0.00000000000E+00  0.00000000000E+00  0.14959912227E+04  0.14959912227E+04  0.25500000920E-02 0.  1.
       -2   -1    0    0    0  501  0.00000000000E+00  0.00000000000E+00 -0.38824844254E+03  0.38824844255E+03  0.25500000920E-02 0. -1.
    10030    2    1    2    0    0  0.00000000000E+00  0.00000000000E+00  0.11077427801E+04  0.18842396652E+04  0.15242260492E+04 0.  0.
        4    1    3    3  502    0 -0.47238419488E+02 -0.86082388737E+02 -0.38039472684E+03  0.39286563484E+03  0.12699999809E+01 0. -1.
       -4    1    3    3    0  502  0.47238419488E+02  0.86082388737E+02  0.14881375070E+04  0.14913740304E+04  0.12699999809E+01 0.  1.
</event>
<event>
 5   0  0.7468375E-04  0.1535181E+04  0.7818609E-02  0.8861389E-01
        3   -1    0    0  501    0  0.00000000000E+00  0.00000000000E+00  0.28179544186E+03  0.28179545996E+03  0.10100000352E+00 0. -1.
       -3   -1    0    0    0  501  0.00000000000E+00  0.00000000000E+00 -0.20908616174E+04  0.20908616198E+04  0.10100000352E+00 0.  1.
    10030    2    1    2    0    0  0.00000000000E+00  0.00000000000E+00 -0.18090661755E+04  0.23726570798E+04  0.15351811590E+04 0.  0.
        1    1    3    3  502    0  0.73185883588E+03  0.72292031674E+02 -0.56468746202E+03  0.92720840337E+03  0.50400001928E-02 0. -1.
       -1    1    3    3    0  502 -0.73185883588E+03 -0.72292031674E+02 -0.12443787135E+04  0.14454486764E+04  0.50400001928E-02 0.  1.
</event>
<event>
 5   0  0.1961098E-03  0.1497629E+04  0.7818609E-02  0.8886031E-01
        2   -1    0    0  501    0  0.00000000000E+00  0.00000000000E+00  0.68188562809E+03  0.68188562809E+03  0.25500000920E-02 0. -1.
       -2   -1    0    0    0  501  0.00000000000E+00  0.00000000000E+00 -0.82231235098E+03  0.82231235099E+03  0.25500000920E-02 0.  1.
    10030    2    1    2    0    0  0.00000000000E+00  0.00000000000E+00 -0.14042672290E+03  0.15041979791E+04  0.14976287577E+04 0.  0.
        2    1    3    3  502    0  0.55684493661E+03  0.50027219181E+03 -0.50778429621E+02  0.75028461150E+03  0.25500000920E-02 0.  1.
       -2    1    3    3    0  502 -0.55684493661E+03 -0.50027219181E+03 -0.89648293277E+02  0.75391336758E+03  0.25500000920E-02 0. -1.
</event>
<event>
 5   0  0.1069697E-03  0.1551122E+04  0.7818609E-02  0.8851151E-01
        1   -1    0    0  501    0  0.00000000000E+00  0.00000000000E+00  0.48282977757E+03  0.48282977759E+03  0.50400001928E-02 0.  1.
       -1   -1    0    0    0  501  0.00000000000E+00  0.00000000000E+00 -0.12457699101E+04  0.12457699101E+04  0.50400001928E-02 0. -1.
    10030    2    1    2    0    0  0.00000000000E+00  0.00000000000E+00 -0.76294013257E+03  0.17285996877E+04  0.15511219277E+04 0.  0.
        2    1    3    3  502    0 -0.57634148782E+03 -0.38879444447E+03  0.16116389350E+01  0.69522171141E+03  0.25500000920E-02 0. -1.
       -2    1    3    3    0  502  0.57634148782E+03  0.38879444447E+03 -0.76455177151E+03  0.10333779763E+04  0.25500000920E-02 0.  1.
</event>
<event>
 5   0  0.1087761E-03  0.1489815E+04  0.7818609E-02  0.8891254E-01
        1   -1    0    0  501    0  0.00000000000E+00  0.00000000000E+00  0.49430477749E+03  0.49430477752E+03  0.50400001928E-02 0.  1.
       -1   -1    0    0    0  501  0.00000000000E+00  0.00000000000E+00 -0.11225607462E+04  0.11225607462E+04  0.50400001928E-02 0. -1.
    10030    2    1    2    0    0  0.00000000000E+00  0.00000000000E+00 -0.62825596870E+03  0.16168655237E+04  0.14898149414E+04 0.  0.
        3    1    3    3  502    0 -0.15809345396E+03  0.25007785506E+03  0.42780531252E+03  0.52014408522E+03  0.10100000352E+00 0.  1.
       -3    1    3    3    0  502  0.15809345396E+03 -0.25007785506E+03 -0.10560612812E+04  0.10967214385E+04  0.10100000352E+00 0. -1.
</event>
<event>
 5   0  0.2111533E-03  0.1484675E+04  0.7818609E-02  0.8894708E-01
       -2   -1    0    0    0  501  0.00000000000E+00  0.00000000000E+00  0.41239591063E+03  0.41239591063E+03  0.25500000920E-02 0.  1.
        2   -1    0    0  501    0  0.00000000000E+00  0.00000000000E+00 -0.13362529758E+04  0.13362529758E+04  0.25500000920E-02 0. -1.
    10030    2    1    2    0    0  0.00000000000E+00  0.00000000000E+00 -0.92385706518E+03  0.17486488864E+04  0.14846754026E+04 0.  0.
        5    1    3    3  502    0 -0.70477224295E+03  0.10986406375E+03 -0.21977944428E+03  0.74639072948E+03  0.46999998093E+01 0.  1.
       -5    1    3    3    0  502  0.70477224295E+03 -0.10986406375E+03 -0.70407762090E+03  0.10022581570E+04  0.46999998093E+01 0. -1.
</event>
<event>
 5   0  0.2094566E-03  0.1426811E+04  0.7818609E-02  0.8934637E-01
       -2   -1    0    0    0  501  0.00000000000E+00  0.00000000000E+00  0.73942539834E+03  0.73942539834E+03  0.25500000920E-02 0. -1.
        2   -1    0    0  501    0  0.00000000000E+00  0.00000000000E+00 -0.68830129961E+03  0.68830129962E+03  0.25500000920E-02 0.  1.
    10030    2    1    2    0    0  0.00000000000E+00  0.00000000000E+00  0.51124098725E+02  0.14277266980E+04  0.14268110774E+04 0.  0.
        1    1    3    3  502    0 -0.41129157826E+03 -0.29482308137E+03  0.52874262938E+03  0.73188126073E+03  0.50400001928E-02 0. -1.
       -1    1    3    3    0  502  0.41129157826E+03  0.29482308137E+03 -0.47761853066E+03  0.69584543723E+03  0.50400001928E-02 0.  1.
</event>
<event>
 5   0  0.1078018E-03  0.1486340E+04  0.7818609E-02  0.8893588E-01
        1   -1    0    0  501    0  0.00000000000E+00  0.00000000000E+00  0.12241298160E+04  0.12241298160E+04  0.50400001928E-02 0. -1.
       -1   -1    0    0    0  501  0.00000000000E+00  0.00000000000E+00 -0.45117916230E+03  0.45117916233E+03  0.50400001928E-02 0.  1.
    10030    2    1    2    0    0  0.00000000000E+00  0.00000000000E+00  0.77295065372E+03  0.16753089784E+04  0.14863402907E+04 0.  0.
        4    1    3    3  502    0  0.27297888576E+03  0.69096282699E+03  0.40765685673E+03  0.84742718041E+03  0.12699999809E+01 0. -1.
       -4    1    3    3    0  502 -0.27297888576E+03 -0.69096282699E+03  0.36529379699E+03  0.82788179795E+03  0.12699999809E+01 0.  1.
</event>
<event>
 5   0  0.1078018E-03  0.1533247E+04  0.7818609E-02  0.8862640E-01
       -1   -1    0    0    0  501  0.00000000000E+00  0.00000000000E+00  0.24177193822E+03  0.24177193828E+03  0.50400001928E-02 0. -1.
        1   -1    0    0  501    0  0.00000000000E+00  0.00000000000E+00 -0.24308499731E+04  0.24308499731E+04  0.50400001928E-02 0.  1.
    10030    2    1    2    0    0  0.00000000000E+00  0.00000000000E+00 -0.21890780349E+04  0.26726219114E+04  0.15332466333E+04 0.  0.
        4    1    3    3  502    0  0.52949546399E+03 -0.47272999606E+02 -0.20573773672E+04  0.21249478645E+04  0.12699999809E+01 0.  1.
       -4    1    3    3    0  502 -0.52949546399E+03  0.47272999606E+02 -0.13170066770E+03  0.54767404690E+03  0.12699999809E+01 0. -1.
</event>
<event>
 5   0  0.1078787E-03  0.1499405E+04  0.7818609E-02  0.8884848E-01
        1   -1    0    0  501    0  0.00000000000E+00  0.00000000000E+00  0.13496157274E+04  0.13496157274E+04  0.50400001928E-02 0. -1.
       -1   -1    0    0    0  501  0.00000000000E+00  0.00000000000E+00 -0.41645496114E+03  0.41645496118E+03  0.50400001928E-02 0.  1.
    10030    2    1    2    0    0  0.00000000000E+00  0.00000000000E+00  0.93316076621E+03  0.17660706885E+04  0.14994054359E+04 0.  0.
        5    1    3    3  502    0 -0.59930996915E+02 -0.45567889417E+01  0.13467559791E+04  0.13481046865E+04  0.46999998093E+01 0. -1.
       -5    1    3    3    0  502  0.59930996915E+02  0.45567889417E+01 -0.41359521287E+03  0.41796600199E+03  0.46999998093E+01 0.  1.
</event>
<event>
 5   0  0.1993623E-03  0.1452591E+04  0.7818609E-02  0.8916606E-01
        2   -1    0    0  501    0  0.00000000000E+00  0.00000000000E+00  0.73886549017E+03  0.73886549017E+03  0.25500000920E-02 0. -1.
       -2   -1    0    0    0  501  0.00000000000E+00  0.00000000000E+00 -0.71393928842E+03  0.71393928842E+03  0.25500000920E-02 0.  1.
    10030    2    1    2    0    0  0.00000000000E+00  0.00000000000E+00  0.24926201752E+02  0.14528047786E+04  0.14525909297E+04 0.  0.
        4    1    3    3  502    0  0.43115108771E+03  0.54725385481E+03  0.21773816414E+03  0.72992435434E+03  0.12699999809E+01 0. -1.
       -4    1    3    3    0  502 -0.43115108771E+03 -0.54725385481E+03 -0.19281196238E+03  0.72288042426E+03  0.12699999809E+01 0.  1.
</event>
<event>
 5   0  0.1078787E-03  0.1524387E+04  0.7818609E-02  0.8868396E-01
        1   -1    0    0  501    0  0.00000000000E+00  0.00000000000E+00  0.98722655159E+03  0.98722655160E+03  0.50400001928E-02 0. -1.
       -1   -1    0    0    0  501  0.00000000000E+00  0.00000000000E+00 -0.58845546843E+03  0.58845546845E+03  0.50400001928E-02 0.  1.
    10030    2    1    2    0    0  0.00000000000E+00  0.00000000000E+00  0.39877108316E+03  0.15756820201E+04  0.15243869101E+04 0.  0.
        5    1    3    3  502    0 -0.57526350785E+03  0.18932370940E+03  0.67771545709E+03  0.90889597930E+03  0.46999998093E+01 0. -1.
       -5    1    3    3    0  502  0.57526350785E+03 -0.18932370940E+03 -0.27894437394E+03  0.66678604076E+03  0.46999998093E+01 0.  1.
</event>
<event>
 5   0  0.2150197E-03  0.1504462E+04  0.7818609E-02  0.8881491E-01
       -2   -1    0    0    0  501  0.00000000000E+00  0.00000000000E+00  0.77462046600E+03  0.77462046600E+03  0.25500000920E-02 0.  1.
        2   -1    0    0  501    0  0.00000000000E+00  0.00000000000E+00 -0.73048819127E+03  0.73048819127E+03  0.25500000920E-02 0. -1.
    10030    2    1    2    0    0  0.00000000000E+00  0.00000000000E+00  0.44132274731E+02  0.15051086573E+04  0.15044615025E+04 0.  0.
        3    1    3    3  502    0 -0.37443707917E+03  0.64812278115E+03 -0.52697710644E+02  0.75036212898E+03  0.10100000352E+00 0. -1.
       -3    1    3    3    0  502  0.37443707917E+03 -0.64812278115E+03  0.96829985375E+02  0.75474652829E+03  0.10100000352E+00 0.  1.
</event>
<event>
 5   0  0.2150197E-03  0.1483817E+04  0.7818609E-02  0.8895286E-01
        2   -1    0    0  501    0  0.00000000000E+00  0.00000000000E+00  0.94220032547E+03  0.94220032548E+03  0.25500000920E-02 0. -1.
       -2   -1    0    0    0  501  0.00000000000E+00  0.00000000000E+00 -0.58419429072E+03  0.58419429072E+03  0.25500000920E-02 0.  1.
    10030    2    1    2    0    0  0.00000000000E+00  0.00000000000E+00  0.35800603475E+03  0.15263946162E+04  0.14838167688E+04 0.  0.
        3    1    3    3  502    0  0.32566153531E+03 -0.62310339966E+03  0.42268594266E+03  0.82035157011E+03  0.10100000352E+00 0. -1.
       -3    1    3    3    0  502 -0.32566153531E+03  0.62310339966E+03 -0.64679907909E+02  0.70604304609E+03  0.10100000352E+00 0.  1.
</event>
<event>
 5   0  0.7468375E-04  0.1499277E+04  0.7818609E-02  0.8884934E-01
       -3   -1    0    0    0  501  0.00000000000E+00  0.00000000000E+00  0.12001023684E+04  0.12001023726E+04  0.10100000352E+00 0. -1.
        3   -1    0    0  501    0  0.00000000000E+00  0.00000000000E+00 -0.46825831931E+03  0.46825833021E+03  0.10100000352E+00 0.  1.
    10030    2    1    2    0    0  0.00000000000E+00  0.00000000000E+00  0.73184404907E+03  0.16683607028E+04  0.14992770667E+04 0.  0.
        3    1    3    3  502    0  0.19615563488E+03 -0.59308694787E+03  0.82705860033E+03  0.10364627825E+04  0.10100000352E+00 0. -1.
       -3    1    3    3    0  502 -0.19615563488E+03  0.59308694787E+03 -0.95214551254E+02  0.63189792039E+03  0.10100000352E+00 0.  1.
</event>
<event>
 5   0  0.1078787E-03  0.1522049E+04  0.7818609E-02  0.8869922E-01
        1   -1    0    0  501    0  0.00000000000E+00  0.00000000000E+00  0.13957931965E+04  0.13957931965E+04  0.50400001928E-02 0.  1.
       -1   -1    0    0    0  501  0.00000000000E+00  0.00000000000E+00 -0.41493128820E+03  0.41493128823E+03  0.50400001928E-02 0. -1.
    10030    2    1    2    0    0  0.00000000000E+00  0.00000000000E+00  0.98086190832E+03  0.18107244848E+04  0.15220489731E+04 0.  0.
        5    1    3    3  502    0  0.77581697730E+02 -0.12007262690E+03  0.13796587199E+04  0.13870532178E+04  0.46999998093E+01 0.  1.
       -5    1    3    3    0  502 -0.77581697730E+02  0.12007262690E+03 -0.39879681158E+03  0.42367126699E+03  0.46999998093E+01 0. -1.
</event>
<event>
 5   0  0.2150197E-03  0.1535424E+04  0.7818609E-02  0.8861232E-01
        2   -1    0    0  501    0  0.00000000000E+00  0.00000000000E+00  0.14967074009E+04  0.14967074009E+04  0.25500000920E-02 0. -1.
       -2   -1    0    0    0  501  0.00000000000E+00  0.00000000000E+00 -0.39378540264E+03  0.39378540265E+03  0.25500000920E-02 0.  1.
    10030    2    1    2    0    0  0.00000000000E+00  0.00000000000E+00  0.11029219983E+04  0.18904928035E+04  0.15354237545E+04 0.  0.
        3    1    3    3  502    0  0.22583013751E+03  0.16908978555E+03 -0.32764818413E+03  0.43237015317E+03  0.10100000352E+00 0.  1.
       -3    1    3    3    0  502 -0.22583013751E+03 -0.16908978555E+03  0.14305701824E+04  0.14581226504E+04  0.10100000352E+00 0. -1.
</event>
<event>
 5   0  0.1961098E-03  0.1492498E+04  0.7818609E-02  0.8889457E-01
       -2   -1    0    0    0  501  0.00000000000E+00  0.00000000000E+00  0.27860946883E+03  0.27860946884E+03  0.25500000920E-02 0.  1.
        2   -1    0    0  501    0  0.00000000000E+00  0.00000000000E+00 -0.19988096011E+04  0.19988096011E+04  0.25500000920E-02 0. -1.
    10030    2    1    2    0    0  0.00000000000E+00  0.00000000000E+00 -0.17202001323E+04  0.22774190700E+04  0.14924976131E+04 0.  0.
        2    1    3    3  502    0 -0.66878010196E+02 -0.78936180047E+02 -0.19878132877E+04  0.19905037693E+04  0.25500000920E-02 0. -1.
       -2    1    3    3    0  502  0.66878010196E+02  0.78936180047E+02  0.26761315544E+03  0.28691530064E+03  0.25500000920E-02 0.  1.
</event>
<event>
 5   0  0.2094566E-03  0.1510205E+04  0.7818609E-02  0.8877695E-01
       -2   -1    0    0    0  501  0.00000000000E+00  0.00000000000E+00  0.76058800692E+03  0.76058800692E+03  0.25500000920E-02 0.  1.
        2   -1    0    0  501    0  0.00000000000E+00  0.00000000000E+00 -0.74965662271E+03  0.74965662271E+03  0.25500000920E-02 0. -1.
    10030    2    1    2    0    0  0.00000000000E+00  0.00000000000E+00  0.10931384215E+02  0.15102446296E+04  0.15102050676E+04 0.  0.
        1    1    3    3  502    0 -0.31604375808E+03  0.32919332137E+03 -0.59615453643E+03  0.75076769455E+03  0.50400001928E-02 0. -1.
       -1    1    3    3    0  502  0.31604375808E+03 -0.32919332137E+03  0.60708592064E+03  0.75947693508E+03  0.50400001928E-02 0.  1.
</event>
<event>
 5   0  0.1077140E-03  0.1465154E+04  0.7818609E-02  0.8907962E-01
        1   -1    0    0  501    0  0.00000000000E+00  0.00000000000E+00  0.92881868036E+03  0.92881868038E+03  0.50400001928E-02 0.  1.
       -1   -1    0    0    0  501  0.00000000000E+00  0.00000000000E+00 -0.57779746275E+03  0.57779746277E+03  0.50400001928E-02 0. -1.
    10030    2    1    2    0    0  0.00000000000E+00  0.00000000000E+00  0.35102121761E+03  0.15066161431E+04  0.14651540218E+04 0.  0.
        1    1    3    3  502    0  0.12647636030E+03 -0.40684930189E+03  0.78831670296E+03  0.89608361683E+03  0.50400001928E-02 0.  1.
       -1    1    3    3    0  502 -0.12647636030E+03  0.40684930189E+03 -0.43729548535E+03  0.61053252632E+03  0.50400001928E-02 0. -1.
</event>
<event>
 5   0  0.1993623E-03  0.1485562E+04  0.7818609E-02  0.8894111E-01
       -2   -1    0    0    0  501  0.00000000000E+00  0.00000000000E+00  0.54286760295E+03  0.54286760296E+03  0.25500000920E-02 0.  1.
        2   -1    0    0  501    0  0.00000000000E+00  0.00000000000E+00 -0.10163134269E+04  0.10163134269E+04  0.25500000920E-02 0. -1.
    10030    2    1    2    0    0  0.00000000000E+00  0.00000000000E+00 -0.47344582390E+03  0.15591810298E+04  0.14855620268E+04 0.  0.
        4    1    3    3  502    0 -0.38472558741E+03 -0.36931492975E+03 -0.77936964735E+03  0.94436537159E+03  0.12699999809E+01 0. -1.
       -4    1    3    3    0  502  0.38472558741E+03  0.36931492975E+03  0.30592382346E+03  0.61481565823E+03  0.12699999809E+01 0.  1.
</event>
<event>
 5   0  0.1993623E-03  0.1558472E+04  0.7818609E-02  0.8846474E-01
        2   -1    0    0  501    0  0.00000000000E+00  0.00000000000E+00  0.14446353755E+04  0.14446353755E+04  0.25500000920E-02 0. -1.
       -2   -1    0    0    0  501  0.00000000000E+00  0.00000000000E+00 -0.42031993850E+03  0.42031993851E+03  0.25500000920E-02 0.  1.
    10030    2    1    2    0    0  0.00000000000E+00  0.00000000000E+00  0.10243154370E+04  0.18649553140E+04  0.15584723959E+04 0.  0.
        4    1    3    3  502    0 -0.72604428860E+03  0.11855150383E+02  0.17384763183E+03  0.74666288618E+03  0.12699999809E+01 0.  1.
       -4    1    3    3    0  502  0.72604428860E+03 -0.11855150383E+02  0.85046780513E+03  0.11182924278E+04  0.12699999809E+01 0. -1.
</event>
<event>
 5   0  0.2111533E-03  0.1516002E+04  0.7818609E-02  0.8873881E-01
       -2   -1    0    0    0  501  0.00000000000E+00  0.00000000000E+00  0.20434517210E+03  0.20434517211E+03  0.25500000920E-02 0.  1.
        2   -1    0    0  501    0  0.00000000000E+00  0.00000000000E+00 -0.28117401485E+04  0.28117401485E+04  0.25500000920E-02 0. -1.
    10030    2    1    2    0    0  0.00000000000E+00  0.00000000000E+00 -0.26073949764E+04  0.30160853206E+04  0.15160020113E+04 0.  0.
        5    1    3    3  502    0 -0.54903151524E+03 -0.43235777737E+03 -0.18877251785E+04  0.20129325105E+04  0.46999998093E+01 0. -1.
       -5    1    3    3    0  502  0.54903151524E+03  0.43235777737E+03 -0.71966979792E+03  0.10031528101E+04  0.46999998093E+01 0.  1.
</event>
<event>
 5   0  0.1078018E-03  0.1487887E+04  0.7818609E-02  0.8892548E-01
       -1   -1    0    0    0  501  0.00000000000E+00  0.00000000000E+00  0.46025191106E+03  0.46025191109E+03  0.50400001928E-02 0.  1.
        1   -1    0    0  501    0  0.00000000000E+00  0.00000000000E+00 -0.12024971834E+04  0.12024971834E+04  0.50400001928E-02 0. -1.
    10030    2    1    2    0    0  0.00000000000E+00  0.00000000000E+00 -0.74224527231E+03  0.16627490945E+04  0.14878865907E+04 0.  0.
        4    1    3    3  502    0 -0.46366678505E+03 -0.57934999974E+03 -0.31181269396E+03  0.80489880033E+03  0.12699999809E+01 0.  1.
       -4    1    3    3    0  502  0.46366678505E+03  0.57934999974E+03 -0.43043257835E+03  0.85785029415E+03  0.12699999809E+01 0. -1.
</event>
<event>
 5   0  0.1069697E-03  0.1505547E+04  0.7818609E-02  0.8880772E-01
       -1   -1    0    0    0  501  0.00000000000E+00  0.00000000000E+00  0.86096261145E+03  0.86096261146E+03  0.50400001928E-02 0.  1.
        1   -1    0    0  501    0  0.00000000000E+00  0.00000000000E+00 -0.65817979546E+03  0.65817979548E+03  0.50400001928E-02 0. -1.
    10030    2    1    2    0    0  0.00000000000E+00  0.00000000000E+00  0.20278281599E+03  0.15191424069E+04  0.15055473364E+04 0.  0.
        2    1    3    3  502    0  0.18633894024E+03 -0.70938500740E+03 -0.69605406333E+02  0.73674568338E+03  0.25500000920E-02 0. -1.
       -2    1    3    3    0  502 -0.18633894024E+03  0.70938500740E+03  0.27238822233E+03  0.78239672356E+03  0.25500000920E-02 0.  1.
</event>
<event>
 5   0  0.2150197E-03  0.1714264E+04  0.7818609E-02  0.8753271E-01
        2   -1    0    0  501    0  0.00000000000E+00  0.00000000000E+00  0.13374110794E+04  0.13374110794E+04  0.25500000920E-02 0. -1.
       -2   -1    0    0    0  501  0.00000000000E+00  0.00000000000E+00 -0.54932646466E+03  0.54932646467E+03  0.25500000920E-02 0.  1.
    10030    2    1    2    0    0  0.00000000000E+00  0.00000000000E+00  0.78808461478E+03  0.18867375441E+04  0.17142640404E+04 0.  0.
        3    1    3    3  502    0  0.66128878388E+03 -0.70576310116E+01  0.99417564809E+03  0.11940426690E+04  0.10100000352E+00 0. -1.
       -3    1    3    3    0  502 -0.66128878388E+03  0.70576310116E+01 -0.20609103332E+03  0.69269487514E+03  0.10100000352E+00 0.  1.
</event>
<event>
 5   0  0.1993623E-03  0.1101908E+04  0.7818609E-02  0.9203334E-01
       -2   -1    0    0    0  501  0.00000000000E+00  0.00000000000E+00  0.77068427009E+03  0.77068427010E+03  0.25500000920E-02 0. -1.
        2   -1    0    0  501    0  0.00000000000E+00  0.00000000000E+00 -0.39387097756E+03  0.39387097757E+03  0.25500000920E-02 0.  1.
    10030    2    1    2    0    0  0.00000000000E+00  0.00000000000E+00  0.37681329253E+03  0.11645552477E+04  0.11019077400E+04 0.  0.
        4    1    3    3  502    0 -0.31175133627E+03  0.60367396244E+02 -0.28743042383E+03  0.42831177854E+03  0.12699999809E+01 0.  1.
       -4    1    3    3    0  502  0.31175133627E+03 -0.60367396244E+02  0.66424371637E+03  0.73624346912E+03  0.12699999809E+01 0. -1.
</event>
<event>
 5   0  0.1993623E-03  0.1494364E+04  0.7818609E-02  0.8888209E-01
        2   -1    0    0  501    0  0.00000000000E+00  0.00000000000E+00  0.59076304691E+03  0.59076304691E+03  0.25500000920E-02 0. -1.
       -2   -1    0    0    0  501  0.00000000000E+00  0.00000000000E+00 -0.94501717146E+03  0.94501717147E+03  0.25500000920E-02 0.  1.
    10030    2    1    2    0    0  0.00000000000E+00  0.00000000000E+00 -0.35425412456E+03  0.15357802184E+04  0.14943643781E+04 0.  0.
        4    1    3    3  502    0  0.19162290600E+01 -0.69888412794E+03 -0.44871788111E+03  0.83053720323E+03  0.12699999809E+01 0.  1.
       -4    1    3    3    0  502 -0.19162290600E+01  0.69888412794E+03  0.94463756549E+02  0.70524301515E+03  0.12699999809E+01 0. -1.
</event>
<event>
 5   0  0.1087761E-03  0.1513625E+04  0.7818609E-02  0.8875442E-01
        1   -1    0    0  501    0  0.00000000000E+00  0.00000000000E+00  0.74739705632E+03  0.74739705633E+03  0.50400001928E-02 0.  1.
       -1   -1    0    0    0  501  0.00000000000E+00  0.00000000000E+00 -0.76634692909E+03  0.76634692910E+03  0.50400001928E-02 0. -1.
    10030    2    1    2    0    0  0.00000000000E+00  0.00000000000E+00 -0.18949872772E+02  0.15137439854E+04  0.15136253684E+04 0.  0.
        3    1    3    3  502    0  0.19439487158E+03 -0.17408803735E+03  0.70098162037E+03  0.74797811007E+03  0.10100000352E+00 0.  1.
       -3    1    3    3    0  502 -0.19439487158E+03  0.17408803735E+03 -0.71993149315E+03  0.76576587536E+03  0.10100000352E+00 0. -1.
</event>
<event>
 5   0  0.1077140E-03  0.1470843E+04  0.7818609E-02  0.8904077E-01
       -1   -1    0    0    0  501  0.00000000000E+00  0.00000000000E+00  0.24151262863E+04  0.24151262863E+04  0.50400001928E-02 0.  1.
        1   -1    0    0  501    0  0.00000000000E+00  0.00000000000E+00 -0.22394072336E+03  0.22394072342E+03  0.50400001928E-02 0. -1.
    10030    2    1    2    0    0  0.00000000000E+00  0.00000000000E+00  0.21911855630E+04  0.26390670098E+04  0.14708434691E+04 0.  0.
        1    1    3    3  502    0 -0.47861702824E+02  0.55958704699E+03  0.24371551992E+03  0.61223007149E+03  0.50400001928E-02 0. -1.
       -1    1    3    3    0  502  0.47861702824E+02 -0.55958704699E+03  0.19474700430E+04  0.20268369383E+04  0.50400001928E-02 0.  1.
</event>
<event>
 5   0  0.1078018E-03  0.1313504E+04  0.7818609E-02  0.9018924E-01
        1   -1    0    0  501    0  0.00000000000E+00  0.00000000000E+00  0.48629473223E+03  0.48629473225E+03  0.50400001928E-02 0.  1.
       -1   -1    0    0    0  501  0.00000000000E+00  0.00000000000E+00 -0.88695897674E+03  0.88695897676E+03  0.50400001928E-02 0. -1.
    10030    2    1    2    0    0  0.00000000000E+00  0.00000000000E+00 -0.40066424451E+03  0.13732537090E+04  0.13135044395E+04 0.  0.
        4    1    3    3  502    0  0.20721571001E+03  0.59161632033E+03 -0.40513486020E+03  0.74638065945E+03  0.12699999809E+01 0. -1.
       -4    1    3    3    0  502 -0.20721571001E+03 -0.59161632033E+03  0.44706156824E+01  0.62687304956E+03  0.12699999809E+01 0.  1.
</event>
<event>
 5   0  0.2094566E-03  0.1507747E+04  0.7818609E-02  0.8879317E-01
        2   -1    0    0  501    0  0.00000000000E+00  0.00000000000E+00  0.12326754066E+04  0.12326754066E+04  0.25500000920E-02 0.  1.
       -2   -1    0    0    0  501  0.00000000000E+00  0.00000000000E+00 -0.46105040567E+03  0.46105040568E+03  0.25500000920E-02 0. -1.
    10030    2    1    2    0    0  0.00000000000E+00  0.00000000000E+00  0.77162500093E+03  0.16937258123E+04  0.15077473214E+04 0.  0.
        1    1    3    3  502    0  0.70966999451E+03  0.25304050949E+03  0.35685502960E+03  0.83367050610E+03  0.50400001928E-02 0. -1.
       -1    1    3    3    0  502 -0.70966999451E+03 -0.25304050949E+03  0.41476997133E+03  0.86005530619E+03  0.50400001928E-02 0.  1.
</event>
<event>
 5   0  0.1993623E-03  0.1496679E+04  0.7818609E-02  0.8886664E-01
        2   -1    0    0  501    0  0.00000000000E+00  0.00000000000E+00  0.88083483013E+03  0.88083483014E+03  0.25500000920E-02 0.  1.
       -2   -1    0    0    0  501  0.00000000000E+00  0.00000000000E+00 -0.63577423783E+03  0.63577423784E+03  0.25500000920E-02 0. -1.
    10030    2    1    2    0    0  0.00000000000E+00  0.00000000000E+00  0.24506059230E+03  0.15166090680E+04  0.14966791143E+04 0.  0.
        4    1    3    3  502    0 -0.67036343031E+03 -0.11224910132E+03  0.43978643295E+03  0.80956822378E+03  0.12699999809E+01 0.  1.
       -4    1    3    3    0  502  0.67036343031E+03  0.11224910132E+03 -0.19472584065E+03  0.70704084419E+03  0.12699999809E+01 0. -1.
</event>
<event>
 5   0  0.1078787E-03  0.1331801E+04  0.7818609E-02  0.9004720E-01
        1   -1    0    0  501    0  0.00000000000E+00  0.00000000000E+00  0.67455883795E+03  0.67455883797E+03  0.50400001928E-02 0.  1.
       -1   -1    0    0    0  501  0.00000000000E+00  0.00000000000E+00 -0.65735299693E+03  0.65735299694E+03  0.50400001928E-02 0. -1.
    10030    2    1    2    0    0  0.00000000000E+00  0.00000000000E+00  0.17205841022E+02  0.13319118349E+04  0.13318006964E+04 0.  0.
        5    1    3    3  502    0 -0.45434238669E+03  0.36003876900E+02 -0.47690427454E+03  0.65968406117E+03  0.46999998093E+01 0. -1.
       -5    1    3    3    0  502  0.45434238669E+03 -0.36003876900E+02  0.49411011556E+03  0.67222777374E+03  0.46999998093E+01 0.  1.
</event>
<event>
 5   0  0.2094566E-03  0.1507041E+04  0.7818609E-02  0.8879784E-01
       -2   -1    0    0    0  501  0.00000000000E+00  0.00000000000E+00  0.53313650682E+03  0.53313650683E+03  0.25500000920E-02 0.  1.
        2   -1    0    0  501    0  0.00000000000E+00  0.00000000000E+00 -0.10650050375E+04  0.10650050375E+04  0.25500000920E-02 0. -1.
    10030    2    1    2    0    0  0.00000000000E+00  0.00000000000E+00 -0.53186853072E+03  0.15981415444E+04  0.15070408959E+04 0.  0.
        1    1    3    3  502    0 -0.63813351408E+03 -0.72352719911E+02 -0.68389657516E+03  0.93817046607E+03  0.50400001928E-02 0. -1.
       -1    1    3    3    0  502  0.63813351408E+03  0.72352719911E+02  0.15202804444E+03  0.65997107830E+03  0.50400001928E-02 0.  1.
</event>
<event>
 5   0  0.1087761E-03  0.1542212E+04  0.7818609E-02  0.8856858E-01
       -1   -1    0    0    0  501  0.00000000000E+00  0.00000000000E+00  0.24024070802E+03  0.24024070807E+03  0.50400001928E-02 0.  1.
        1   -1    0    0  501    0  0.00000000000E+00  0.00000000000E+00 -0.24750359539E+04  0.24750359539E+04  0.50400001928E-02 0. -1.
    10030    2    1    2    0    0  0.00000000000E+00  0.00000000000E+00 -0.22347952459E+04  0.27152766620E+04  0.15422119051E+04 0.  0.
        3    1    3    3  502    0 -0.24163240784E+03 -0.57592663121E+03 -0.32115574693E+03  0.70229532893E+03  0.10100000352E+00 0.  1.
       -3    1    3    3    0  502  0.24163240784E+03  0.57592663121E+03 -0.19136394990E+04  0.20129813331E+04  0.10100000352E+00 0. -1.
</event>
<event>
 5   0  0.7468375E-04  0.1411862E+04  0.7818609E-02  0.8945277E-01
       -3   -1    0    0    0  501  0.00000000000E+00  0.00000000000E+00  0.13888864109E+04  0.13888864145E+04  0.10100000352E+00 0.  1.
        3   -1    0    0  501    0  0.00000000000E+00  0.00000000000E+00 -0.35880415795E+03  0.35880417217E+03  0.10100000352E+00 0. -1.
    10030    2    1    2    0    0  0.00000000000E+00  0.00000000000E+00  0.10300822529E+04  0.17476905867E+04  0.14118615156E+04 0.  0.
        4    1    3    3  502    0  0.58492394794E+03  0.60570168594E+02  0.99849241033E+03  0.11587896602E+04  0.12699999809E+01 0.  1.
       -4    1    3    3    0  502 -0.58492394794E+03 -0.60570168594E+02  0.31589842586E+02  0.58890092651E+03  0.12699999809E+01 0. -1.
</event>
<event>
 5   0  0.1078787E-03  0.1485685E+04  0.7818609E-02  0.8894029E-01
       -1   -1    0    0    0  501  0.00000000000E+00  0.00000000000E+00  0.67028890346E+03  0.67028890348E+03  0.50400001928E-02 0. -1.
        1   -1    0    0  501    0  0.00000000000E+00  0.00000000000E+00 -0.82324920002E+03  0.82324920004E+03  0.50400001928E-02 0.  1.
    10030    2    1    2    0    0  0.00000000000E+00  0.00000000000E+00 -0.15296029656E+03  0.14935381035E+04  0.14856847628E+04 0.  0.
        5    1    3    3  502    0 -0.99732593702E+02 -0.70173494266E+03 -0.29994822632E+03  0.76965547388E+03  0.46999998093E+01 0.  1.
       -5    1    3    3    0  502  0.99732593702E+02  0.70173494266E+03  0.14698792976E+03  0.72388262964E+03  0.46999998093E+01 0. -1.
</event>
<event>
 5   0  0.7468375E-04  0.1481510E+04  0.7818609E-02  0.8896842E-01
       -4   -1    0    0    0  501  0.00000000000E+00  0.00000000000E+00  0.46464048092E+03  0.46464221656E+03  0.12699999809E+01 0. -1.
        4   -1    0    0  501    0  0.00000000000E+00  0.00000000000E+00 -0.11809477206E+04  0.11809484035E+04  0.12699999809E+01 0.  1.
    10030    2    1    2    0    0  0.00000000000E+00  0.00000000000E+00 -0.71630723969E+03  0.16455906201E+04  0.14815101846E+04 0.  0.
        5    1    3    3  502    0 -0.34826460010E+03 -0.30722631858E+03  0.28283773606E+03  0.54377892332E+03  0.46999998093E+01 0. -1.
       -5    1    3    3    0  502  0.34826460010E+03  0.30722631858E+03 -0.99914497575E+03  0.11018116967E+04  0.46999998093E+01 0.  1.
</event>
<event>
 5   0  0.2111533E-03  0.1528451E+04  0.7818609E-02  0.8865751E-01
       -2   -1    0    0    0  501  0.00000000000E+00  0.00000000000E+00  0.77493443933E+03  0.77493443933E+03  0.25500000920E-02 0.  1.
        2   -1    0    0  501    0  0.00000000000E+00  0.00000000000E+00 -0.75366463289E+03  0.75366463290E+03  0.25500000920E-02 0. -1.
    10030    2    1    2    0    0  0.00000000000E+00  0.00000000000E+00  0.21269806438E+02  0.15285990722E+04  0.15284510849E+04 0.  0.
        5    1    3    3  502    0  0.15252090265E+03  0.31944958795E+02 -0.73759225347E+03  0.75388827323E+03  0.46999998093E+01 0. -1.
       -5    1    3    3    0  502 -0.15252090265E+03 -0.31944958795E+02  0.75886205990E+03  0.77471079901E+03  0.46999998093E+01 0.  1.
</event>
<event>
 5   0  0.1961098E-03  0.1501987E+04  0.7818609E-02  0.8883133E-01
       -2   -1    0    0    0  501  0.00000000000E+00  0.00000000000E+00  0.36197174404E+03  0.36197174405E+03  0.25500000920E-02 0. -1.
        2   -1    0    0  501    0  0.00000000000E+00  0.00000000000E+00 -0.15581088797E+04  0.15581088797E+04  0.25500000920E-02 0.  1.
    10030    2    1    2    0    0  0.00000000000E+00  0.00000000000E+00 -0.11961371356E+04  0.19200806237E+04  0.15019872018E+04 0.  0.
        2    1    3    3  502    0  0.17039960289E+03  0.23684903049E+03  0.28655104023E+03  0.40895597144E+03  0.25500000920E-02 0. -1.
       -2    1    3    3    0  502 -0.17039960289E+03 -0.23684903049E+03 -0.14826881758E+04  0.15111246523E+04  0.25500000920E-02 0.  1.
</event>
<event>
 5   0  0.1077140E-03  0.1497494E+04  0.7818609E-02  0.8886121E-01
       -1   -1    0    0    0  501  0.00000000000E+00  0.00000000000E+00  0.46975578873E+03  0.46975578875E+03  0.50400001928E-02 0. -1.
        1   -1    0    0  501    0  0.00000000000E+00  0.00000000000E+00 -0.11934325180E+04  0.11934325180E+04  0.50400001928E-02 0.  1.
    10030    2    1    2    0    0  0.00000000000E+00  0.00000000000E+00 -0.72367672929E+03  0.16631883068E+04  0.14974936846E+04 0.  0.
        1    1    3    3  502    0  0.71810674089E+03  0.42772093471E+01 -0.59724922709E+03  0.93402474545E+03  0.50400001928E-02 0.  1.
       -1    1    3    3    0  502 -0.71810674089E+03 -0.42772093471E+01 -0.12642750220E+03  0.72916356133E+03  0.50400001928E-02 0. -1.
</event>
<event>
 5   0  0.7468375E-04  0.1522060E+04  0.7818609E-02  0.8869915E-01
        4   -1    0    0  501    0  0.00000000000E+00  0.00000000000E+00  0.14605489348E+04  0.14605494870E+04  0.12699999809E+01 0.  1.
       -4   -1    0    0    0  501  0.00000000000E+00  0.00000000000E+00 -0.39653853209E+03  0.39654056581E+03  0.12699999809E+01 0. -1.
    10030    2    1    2    0    0  0.00000000000E+00  0.00000000000E+00  0.10640104027E+04  0.18570900528E+04  0.15220595675E+04 0.  0.
        2    1    3    3  502    0 -0.41510347217E+03 -0.10195197723E+03 -0.23624322319E+03  0.48838095660E+03  0.25500000920E-02 0. -1.
       -2    1    3    3    0  502  0.41510347217E+03  0.10195197723E+03  0.13002536259E+04  0.13687090962E+04  0.25500000920E-02 0.  1.
</event>
<event>
 5   0  0.1078787E-03  0.1479914E+04  0.7818609E-02  0.8897921E-01
       -1   -1    0    0    0  501  0.00000000000E+00  0.00000000000E+00  0.28895820295E+03  0.28895820300E+03  0.50400001928E-02 0.  1.
        1   -1    0    0  501    0  0.00000000000E+00  0.00000000000E+00 -0.18948642151E+04  0.18948642151E+04  0.50400001928E-02 0. -1.
    10030    2    1    2    0    0  0.00000000000E+00  0.00000000000E+00 -0.16059060121E+04  0.21838224181E+04  0.14799142657E+04 0.  0.
        5    1    3    3  502    0  0.52387032448E+03  0.22710361315E+03 -0.14974429514E+04  0.16026146295E+04  0.46999998093E+01 0. -1.
       -5    1    3    3    0  502 -0.52387032448E+03 -0.22710361315E+03 -0.10846306073E+03  0.58120778859E+03  0.46999998093E+01 0.  1.
</event>
<event>
 5   0  0.2150197E-03  0.1501489E+04  0.7818609E-02  0.8883464E-01
       -2   -1    0    0    0  501  0.00000000000E+00  0.00000000000E+00  0.37822312264E+03  0.37822312265E+03  0.25500000920E-02 0.  1.
        2   -1    0    0  501    0  0.00000000000E+00  0.00000000000E+00 -0.14901710239E+04  0.14901710239E+04  0.25500000920E-02 0. -1.
    10030    2    1    2    0    0  0.00000000000E+00  0.00000000000E+00 -0.11119479013E+04  0.18683941466E+04  0.15014887784E+04 0.  0.
        3    1    3    3  502    0 -0.52949342284E+03  0.39611692481E+03 -0.11366490270E+03  0.67096320559E+03  0.10100000352E+00 0.  1.
       -3    1    3    3    0  502  0.52949342284E+03 -0.39611692481E+03 -0.99828299858E+03  0.11974309410E+04  0.10100000352E+00 0. -1.
</event>
<event>
 5   0  0.2111533E-03  0.1636803E+04  0.7818609E-02  0.8798252E-01
        2   -1    0    0  501    0  0.00000000000E+00  0.00000000000E+00  0.13057583033E+04  0.13057583033E+04  0.25500000920E-02 0. -1.
       -2   -1    0    0    0  501  0.00000000000E+00  0.00000000000E+00 -0.51294399361E+03  0.51294399362E+03  0.25500000920E-02 0.  1.
    10030    2    1    2    0    0  0.00000000000E+00  0.00000000000E+00  0.79281430973E+03  0.18187022970E+04  0.16368028333E+04 0.  0.
        5    1    3    3  502    0  0.20671029705E+03 -0.79180745721E+03  0.38707149729E+03  0.90528151986E+03  0.46999998093E+01 0.  1.
       -5    1    3    3    0  502 -0.20671029705E+03  0.79180745721E+03  0.40574281244E+03  0.91342077710E+03  0.46999998093E+01 0. -1.
</event>
<event>
 5   0  0.1078018E-03  0.1492388E+04  0.7818609E-02  0.8889531E-01
        1   -1    0    0  501    0  0.00000000000E+00  0.00000000000E+00  0.83977530890E+03  0.83977530891E+03  0.50400001928E-02 0. -1.
       -1   -1    0    0    0  501  0.00000000000E+00  0.00000000000E+00 -0.66304065724E+03  0.66304065726E+03  0.50400001928E-02 0.  1.
    10030    2    1    2    0    0  0.00000000000E+00  0.00000000000E+00  0.17673465165E+03  0.15028159662E+04  0.14923875807E+04 0.  0.
        4    1    3    3  502    0 -0.14718239558E+03 -0.41400360168E+03 -0.51895724458E+03  0.67998520158E+03  0.12699999809E+01 0.  1.
       -4    1    3    3    0  502  0.14718239558E+03  0.41400360168E+03  0.69569189623E+03  0.82283076459E+03  0.12699999809E+01 0. -1.
</event>
<event>
 5   0  0.2150197E-03  0.1479038E+04  0.7818609E-02  0.8898513E-01
       -2   -1    0    0    0  501  0.00000000000E+00  0.00000000000E+00  0.23007987952E+03  0.23007987954E+03  0.25500000920E-02 0.  1.
        2   -1    0    0  501    0  0.00000000000E+00  0.00000000000E+00 -0.23769514646E+04  0.23769514646E+04  0.25500000920E-02 0. -1.
    10030    2    1    2    0    0  0.00000000000E+00  0.00000000000E+00 -0.21468715851E+04  0.26070313442E+04  0.14790384804E+04 0.  0.
        3    1    3    3  502    0  0.34245812540E+02  0.31181264214E+03 -0.22538721545E+04  0.22755965368E+04  0.10100000352E+00 0. -1.
       -3    1    3    3    0  502 -0.34245812540E+02 -0.31181264214E+03  0.10700056937E+03  0.33143480735E+03  0.10100000352E+00 0.  1.
</event>
<event>
 5   0  0.1961098E-03  0.1454143E+04  0.7818609E-02  0.8915533E-01
        2   -1    0    0  501    0  0.00000000000E+00  0.00000000000E+00  0.16918107546E+04  0.16918107547E+04  0.25500000920E-02 0. -1.
       -2   -1    0    0    0  501  0.00000000000E+00  0.00000000000E+00 -0.31246595287E+03  0.31246595288E+03  0.25500000920E-02 0.  1.
    10030    2    1    2    0    0  0.00000000000E+00  0.00000000000E+00  0.13793448018E+04  0.20042767075E+04  0.14541434036E+04 0.  0.
        2    1    3    3  502    0  0.30843273892E+03 -0.37345573662E+03  0.14370648642E+04  0.15164944331E+04  0.25500000920E-02 0. -1.
       -2    1    3    3    0  502 -0.30843273892E+03  0.37345573662E+03 -0.57720062429E+02  0.48778227444E+03  0.25500000920E-02 0.  1.
</event>
<event>
 5   0  0.1993623E-03  0.1484852E+04  0.7818609E-02  0.8894589E-01
       -2   -1    0    0    0  501  0.00000000000E+00  0.00000000000E+00  0.68764942382E+03  0.68764942383E+03  0.25500000920E-02 0. -1.
        2   -1    0    0  501    0  0.00000000000E+00  0.00000000000E+00 -0.80156576763E+03  0.80156576763E+03  0.25500000920E-02 0.  1.
    10030    2    1    2    0    0  0.00000000000E+00  0.00000000000E+00 -0.11391634381E+03  0.14892151915E+04  0.14848518287E+04 0.  0.
        4    1    3    3  502    0 -0.30210487997E+03 -0.12143599421E+03 -0.72613737959E+03  0.79579593247E+03  0.12699999809E+01 0.  1.
       -4    1    3    3    0  502  0.30210487997E+03  0.12143599421E+03  0.61222103579E+03  0.69341925900E+03  0.12699999809E+01 0. -1.
</event>
<event>
 5   0  0.2111533E-03  0.1451234E+04  0.7818609E-02  0.8917546E-01
        2   -1    0    0  501    0  0.00000000000E+00  0.00000000000E+00  0.52016397701E+03  0.52016397701E+03  0.25500000920E-02 0.  1.
       -2   -1    0    0    0  501  0.00000000000E+00  0.00000000000E+00 -0.10122189806E+04  0.10122189806E+04  0.25500000920E-02 0. -1.
    10030    2    1    2    0    0  0.00000000000E+00  0.00000000000E+00 -0.49205500363E+03  0.15323829577E+04  0.14512337518E+04 0.  0.
        5    1    3    3  502    0 -0.46533945478E+03  0.21429968870E+02  0.34140593387E+03  0.57756398210E+03  0.46999998093E+01 0. -1.
       -5    1    3    3    0  502  0.46533945478E+03 -0.21429968870E+02 -0.83346093750E+03  0.95481897555E+03  0.46999998093E+01 0.  1.
</event>
<event>
 5   0  0.2094566E-03  0.1462258E+04  0.7818609E-02  0.8909946E-01
        2   -1    0    0  501    0  0.00000000000E+00  0.00000000000E+00  0.39499924641E+03  0.39499924642E+03  0.25500000920E-02 0. -1.
       -2   -1    0    0    0  501  0.00000000000E+00  0.00000000000E+00 -0.13532932541E+04  0.13532932541E+04  0.25500000920E-02 0.  1.
    10030    2    1    2    0    0  0.00000000000E+00  0.00000000000E+00 -0.95829400764E+03  0.17482925005E+04  0.14622582748E+04 0.  0.
        1    1    3    3  502    0  0.36513844853E+03 -0.39936538219E+03  0.10868902349E+03  0.55193486839E+03  0.50400001928E-02 0. -1.
       -1    1    3    3    0  502 -0.36513844853E+03  0.39936538219E+03 -0.10669830311E+04  0.11963576321E+04  0.50400001928E-02 0.  1.
</event>
<event>
 5   0  0.2094566E-03  0.1447242E+04  0.7818609E-02  0.8920314E-01
        2   -1    0    0  501    0  0.00000000000E+00  0.00000000000E+00  0.62124254104E+03  0.62124254104E+03  0.25500000920E-02 0.  1.
       -2   -1    0    0    0  501  0.00000000000E+00  0.00000000000E+00 -0.84287160378E+03  0.84287160378E+03  0.25500000920E-02 0. -1.
    10030    2    1    2    0    0  0.00000000000E+00  0.00000000000E+00 -0.22162906274E+03  0.14641141448E+04  0.14472424771E+04 0.  0.
        1    1    3    3  502    0 -0.34675428839E+03  0.42353492927E+03 -0.58962622101E+03  0.80453679428E+03  0.50400001928E-02 0. -1.
       -1    1    3    3    0  502  0.34675428839E+03 -0.42353492927E+03  0.36799715827E+03  0.65957735054E+03  0.50400001928E-02 0.  1.
</event>
<event>
 5   0  0.1077140E-03  0.1684232E+04  0.7818609E-02  0.8770409E-01
        1   -1    0    0  501    0  0.00000000000E+00  0.00000000000E+00  0.12604280523E+04  0.12604280523E+04  0.50400001928E-02 0. -1.
       -1   -1    0    0    0  501  0.00000000000E+00  0.00000000000E+00 -0.56263375119E+03  0.56263375121E+03  0.50400001928E-02 0.  1.
    10030    2    1    2    0    0  0.00000000000E+00  0.00000000000E+00  0.69779430106E+03  0.18230618035E+04  0.16842320068E+04 0.  0.
        1    1    3    3  502    0 -0.52883360970E+02  0.16236521964E+03 -0.54369694840E+03  0.56988199317E+03  0.50400001928E-02 0.  1.
       -1    1    3    3    0  502  0.52883360970E+02 -0.16236521964E+03  0.12414912495E+04  0.12531798103E+04  0.50400001928E-02 0. -1.
</event>
<event>
 5   0  0.1069697E-03  0.1518604E+04  0.7818609E-02  0.8872175E-01
        1   -1    0    0  501    0  0.00000000000E+00  0.00000000000E+00  0.17511183297E+04  0.17511183298E+04  0.50400001928E-02 0. -1.
       -1   -1    0    0    0  501  0.00000000000E+00  0.00000000000E+00 -0.32924062453E+03  0.32924062456E+03  0.50400001928E-02 0.  1.
    10030    2    1    2    0    0  0.00000000000E+00  0.00000000000E+00  0.14218777052E+04  0.20803589543E+04  0.15186036910E+04 0.  0.
        2    1    3    3  502    0 -0.24349422419E+03  0.30975519476E+02  0.16952691182E+04  0.17129466726E+04  0.25500000920E-02 0. -1.
       -2    1    3    3    0  502  0.24349422419E+03 -0.30975519476E+02 -0.27339141301E+03  0.36741228169E+03  0.25500000920E-02 0.  1.
</event>
<event>
 5   0  0.2094566E-03  0.1504968E+04  0.7818609E-02  0.8881156E-01
        2   -1    0    0  501    0  0.00000000000E+00  0.00000000000E+00  0.10787229906E+04  0.10787229906E+04  0.25500000920E-02 0.  1.
       -2   -1    0    0    0  501  0.00000000000E+00  0.00000000000E+00 -0.52490964675E+03  0.52490964675E+03  0.25500000920E-02 0. -1.
    10030    2    1    2    0    0  0.00000000000E+00  0.00000000000E+00  0.55381334385E+03  0.16036326374E+04  0.15049679119E+04 0.  0.
        1    1    3    3  502    0  0.39049124142E+03 -0.98920957788E+02 -0.40034271811E+03  0.56792874332E+03  0.50400001928E-02 0. -1.
       -1    1    3    3    0  502 -0.39049124142E+03  0.98920957788E+02  0.95415606196E+03  0.10357038940E+04  0.50400001928E-02 0.  1.
</event>
<event>
 5   0  0.1078787E-03  0.1473816E+04  0.7818609E-02  0.8902054E-01
       -1   -1    0    0    0  501  0.00000000000E+00  0.00000000000E+00  0.43434000342E+03  0.43434000345E+03  0.50400001928E-02 0.  1.
        1   -1    0    0  501    0  0.00000000000E+00  0.00000000000E+00 -0.12502498026E+04  0.12502498026E+04  0.50400001928E-02 0. -1.
    10030    2    1    2    0    0  0.00000000000E+00  0.00000000000E+00 -0.81590979920E+03  0.16845898061E+04  0.14738161399E+04 0.  0.
        5    1    3    3  502    0 -0.55048650866E+03 -0.46623643879E+03 -0.23612400893E+03  0.75907078106E+03  0.46999998093E+01 0. -1.
       -5    1    3    3    0  502  0.55048650866E+03  0.46623643879E+03 -0.57978579026E+03  0.92551902501E+03  0.46999998093E+01 0.  1.
</event>
<event>
 5   0  0.2111533E-03  0.1516373E+04  0.7818609E-02  0.8873638E-01
        2   -1    0    0  501    0  0.00000000000E+00  0.00000000000E+00  0.18185638518E+04  0.18185638518E+04  0.25500000920E-02 0. -1.
       -2   -1    0    0    0  501  0.00000000000E+00  0.00000000000E+00 -0.31609920792E+03  0.31609920793E+03  0.25500000920E-02 0.  1.
    10030    2    1    2    0    0  0.00000000000E+00  0.00000000000E+00  0.15024646439E+04  0.21346630598E+04  0.15163727683E+04 0.  0.
        5    1    3    3  502    0  0.47310309648E+02 -0.17654991404E+03 -0.28459902016E+03  0.33827035020E+03  0.46999998093E+01 0.  1.
       -5    1    3    3    0  502 -0.47310309648E+02  0.17654991404E+03  0.17870636641E+04  0.17963927096E+04  0.46999998093E+01 0. -1.
</event>
<event>
 5   0  0.1087761E-03  0.1502445E+04  0.7818609E-02  0.8882828E-01
       -1   -1    0    0    0  501  0.00000000000E+00  0.00000000000E+00  0.10451511065E+04  0.10451511065E+04  0.50400001928E-02 0.  1.
        1   -1    0    0  501    0  0.00000000000E+00  0.00000000000E+00 -0.53995594777E+03  0.53995594779E+03  0.50400001928E-02 0. -1.
    10030    2    1    2    0    0  0.00000000000E+00  0.00000000000E+00  0.50519515876E+03  0.15851070543E+04  0.15024454151E+04 0.  0.
        3    1    3    3  502    0  0.49683602537E+03 -0.50548202152E+03 -0.10051993310E+02  0.70884353912E+03  0.10100000352E+00 0. -1.
       -3    1    3    3    0  502 -0.49683602537E+03  0.50548202152E+03  0.51524715207E+03  0.87626351521E+03  0.10100000352E+00 0.  1.
</event>
<event>
 5   0  0.1961098E-03  0.1499210E+04  0.7818609E-02  0.8884978E-01
        2   -1    0    0  501    0  0.00000000000E+00  0.00000000000E+00  0.17653993410E+04  0.17653993410E+04  0.25500000920E-02 0.  1.
       -2   -1    0    0    0  501  0.00000000000E+00  0.00000000000E+00 -0.31828943787E+03  0.31828943788E+03  0.25500000920E-02 0. -1.
    10030    2    1    2    0    0  0.00000000000E+00  0.00000000000E+00  0.14471099031E+04  0.20836887789E+04  0.14992104107E+04 0.  0.
        2    1    3    3  502    0 -0.40183210751E+03  0.20922093943E+03  0.15535984016E+04  0.16183048036E+04  0.25500000920E-02 0.  1.
       -2    1    3    3    0  502  0.40183210751E+03 -0.20922093943E+03 -0.10648849843E+03  0.46538397525E+03  0.25500000920E-02 0. -1.
</event>
<event>
 5   0  0.1078018E-03  0.1568153E+04  0.7818609E-02  0.8840356E-01
       -1   -1    0    0    0  501  0.00000000000E+00  0.00000000000E+00  0.56944618458E+03  0.56944618460E+03  0.50400001928E-02 0. -1.
        1   -1    0    0  501    0  0.00000000000E+00  0.00000000000E+00 -0.10796025979E+04  0.10796025979E+04  0.50400001928E-02 0.  1.
    10030    2    1    2    0    0  0.00000000000E+00  0.00000000000E+00 -0.51015641334E+03  0.16490487825E+04  0.15681525184E+04 0.  0.
        4    1    3    3  502    0 -0.44550026453E+03  0.42336528966E+02  0.42196016876E+03  0.61507305607E+03  0.12699999809E+01 0. -1.
       -4    1    3    3    0  502  0.44550026453E+03 -0.42336528966E+02 -0.93211658210E+03  0.10339757265E+04  0.12699999809E+01 0.  1.
</event>
<event>
 5   0  0.1078787E-03  0.1506078E+04  0.7818609E-02  0.8880421E-01
       -1   -1    0    0    0  501  0.00000000000E+00  0.00000000000E+00  0.44387460698E+03  0.44387460701E+03  0.50400001928E-02 0.  1.
        1   -1    0    0  501    0  0.00000000000E+00  0.00000000000E+00 -0.12775405243E+04  0.12775405244E+04  0.50400001928E-02 0. -1.
    10030    2    1    2    0    0  0.00000000000E+00  0.00000000000E+00 -0.83366591736E+03  0.17214151314E+04  0.15060780832E+04 0.  0.
        5    1    3    3  502    0 -0.47137852842E+03  0.56635173921E+03 -0.23941815119E+03  0.77478716476E+03  0.46999998093E+01 0. -1.
       -5    1    3    3    0  502  0.47137852842E+03 -0.56635173921E+03 -0.59424776618E+03  0.94662796661E+03  0.46999998093E+01 0.  1.
</event>
<event>
 5   0  0.1077140E-03  0.1474880E+04  0.7818609E-02  0.8901331E-01
       -1   -1    0    0    0  501  0.00000000000E+00  0.00000000000E+00  0.39493530988E+03  0.39493530991E+03  0.50400001928E-02 0.  1.
        1   -1    0    0  501    0  0.00000000000E+00  0.00000000000E+00 -0.13769794382E+04  0.13769794382E+04  0.50400001928E-02 0. -1.
    10030    2    1    2    0    0  0.00000000000E+00  0.00000000000E+00 -0.98204412832E+03  0.17719147481E+04  0.14748800645E+04 0.  0.
        1    1    3    3  502    0 -0.41600524365E+03  0.60888338705E+03 -0.49618378352E+03  0.88881814159E+03  0.50400001928E-02 0. -1.
       -1    1    3    3    0  502  0.41600524365E+03 -0.60888338705E+03 -0.48586034480E+03  0.88309660652E+03  0.50400001928E-02 0.  1.
</event>
<event>
 5   0  0.1069697E-03  0.1478578E+04  0.7818609E-02  0.8898825E-01
       -1   -1    0    0    0  501  0.00000000000E+00  0.00000000000E+00  0.12082189462E+04  0.12082189463E+04  0.50400001928E-02 0. -1.
        1   -1    0    0  501    0  0.00000000000E+00  0.00000000000E+00 -0.45235855070E+03  0.45235855073E+03  0.50400001928E-02 0.  1.
    10030    2    1    2    0    0  0.00000000000E+00  0.00000000000E+00  0.75586039555E+03  0.16605774970E+04  0.14785779269E+04 0.  0.
        2    1    3    3  502    0  0.29519433776E+03  0.16210776325E+03 -0.36120491791E+03  0.49384979162E+03  0.25500000920E-02 0.  1.
       -2    1    3    3    0  502 -0.29519433776E+03 -0.16210776325E+03  0.11170653135E+04  0.11667277054E+04  0.25500000920E-02 0. -1.
</event>
<event>
 5   0  0.2150197E-03  0.1512564E+04  0.7818609E-02  0.8876141E-01
        2   -1    0    0  501    0  0.00000000000E+00  0.00000000000E+00  0.14977952994E+04  0.14977952994E+04  0.25500000920E-02 0.  1.
       -2   -1    0    0    0  501  0.00000000000E+00  0.00000000000E+00 -0.38186939180E+03  0.38186939181E+03  0.25500000920E-02 0. -1.
    10030    2    1    2    0    0  0.00000000000E+00  0.00000000000E+00  0.11159259076E+04  0.18796646912E+04  0.15125636251E+04 0.  0.
        3    1    3    3  502    0  0.49841869151E+03  0.45645715341E+02 -0.14661406976E+03  0.52153659415E+03  0.10100000352E+00 0. -1.
       -3    1    3    3    0  502 -0.49841869151E+03 -0.45645715341E+02  0.12625399773E+04  0.13581280970E+04  0.10100000352E+00 0.  1.
</event>
<event>
 5   0  0.2094566E-03  0.1449567E+04  0.7818609E-02  0.8918700E-01
       -2   -1    0    0    0  501  0.00000000000E+00  0.00000000000E+00  0.21923400809E+03  0.21923400811E+03  0.25500000920E-02 0.  1.
        2   -1    0    0  501    0  0.00000000000E+00  0.00000000000E+00 -0.23961218365E+04  0.23961218365E+04  0.25500000920E-02 0. -1.
    10030    2    1    2    0    0  0.00000000000E+00  0.00000000000E+00 -0.21768878284E+04  0.26153558446E+04  0.14495673756E+04 0.  0.
        1    1    3    3  502    0 -0.67143650089E+03 -0.26139961418E+03 -0.94689894054E+03  0.11898631588E+04  0.50400001928E-02 0.  1.
       -1    1    3    3    0  502  0.67143650089E+03  0.26139961418E+03 -0.12299888878E+04  0.14254926858E+04  0.50400001928E-02 0. -1.
</event>
<event>
 5   0  0.1069697E-03  0.1519034E+04  0.7818609E-02  0.8871894E-01
       -1   -1    0    0    0  501  0.00000000000E+00  0.00000000000E+00  0.12934075738E+04  0.12934075739E+04  0.50400001928E-02 0. -1.
        1   -1    0    0  501    0  0.00000000000E+00  0.00000000000E+00 -0.44600463401E+03  0.44600463404E+03  0.50400001928E-02 0.  1.
    10030    2    1    2    0    0  0.00000000000E+00  0.00000000000E+00  0.84740293983E+03  0.17394122079E+04  0.15190336028E+04 0.  0.
        2    1    3    3  502    0  0.39019701145E+03 -0.19138503997E+03  0.11369517418E+04  0.12171857723E+04  0.25500000920E-02 0. -1.
       -2    1    3    3    0  502 -0.39019701145E+03  0.19138503997E+03 -0.28954880195E+03  0.52222643555E+03  0.25500000920E-02 0.  1.
</event>
<event>
 5   0  0.1078018E-03  0.1487345E+04  0.7818609E-02  0.8892912E-01
        1   -1    0    0  501    0  0.00000000000E+00  0.00000000000E+00  0.14804263653E+04  0.14804263653E+04  0.50400001928E-02 0.  1.
       -1   -1    0    0    0  501  0.00000000000E+00  0.00000000000E+00 -0.37357401106E+03  0.37357401109E+03  0.50400001928E-02 0. -1.
    10030    2    1    2    0    0  0.00000000000E+00  0.00000000000E+00  0.11068523542E+04  0.18540003764E+04  0.14873450378E+04 0.  0.
        4    1    3    3  502    0  0.50793522375E+03  0.51531332567E+03  0.33932560048E+03  0.79918051226E+03  0.12699999809E+01 0.  1.
       -4    1    3    3    0  502 -0.50793522375E+03 -0.51531332567E+03  0.76752675374E+03  0.10548198641E+04  0.12699999809E+01 0. -1.
</event>
<event>
 5   0  0.1087761E-03  0.1489162E+04  0.7818609E-02  0.8891692E-01
        1   -1    0    0  501    0  0.00000000000E+00  0.00000000000E+00  0.10561790396E+04  0.10561790396E+04  0.50400001928E-02 0. -1.
       -1   -1    0    0    0  501  0.00000000000E+00  0.00000000000E+00 -0.52491183736E+03  0.52491183739E+03  0.50400001928E-02 0.  1.
    10030    2    1    2    0    0  0.00000000000E+00  0.00000000000E+00  0.53126720220E+03  0.15810908770E+04  0.14891620198E+04 0.  0.
        3    1    3    3  502    0  0.75114635334E+01 -0.71890503906E+03  0.47129190732E+03  0.85964931767E+03  0.10100000352E+00 0. -1.
       -3    1    3    3    0  502 -0.75114635334E+01  0.71890503906E+03  0.59975294885E+02  0.72144155929E+03  0.10100000352E+00 0.  1.
</event>
<event>
 5   0  0.1078018E-03  0.1411716E+04  0.7818609E-02  0.8945381E-01
        1   -1    0    0  501    0  0.00000000000E+00  0.00000000000E+00  0.11121645606E+04  0.11121645606E+04  0.50400001928E-02 0. -1.
       -1   -1    0    0    0  501  0.00000000000E+00  0.00000000000E+00 -0.44798719192E+03  0.44798719195E+03  0.50400001928E-02 0.  1.
    10030    2    1    2    0    0  0.00000000000E+00  0.00000000000E+00  0.66417736869E+03  0.15601517526E+04  0.14117159466E+04 0.  0.
        4    1    3    3  502    0  0.41960554652E+03  0.15294150360E+03 -0.27198634729E+03  0.52291309431E+03  0.12699999809E+01 0.  1.
       -4    1    3    3    0  502 -0.41960554652E+03 -0.15294150360E+03  0.93616371598E+03  0.10372386583E+04  0.12699999809E+01 0. -1.
</event>
<event>
 5   0  0.1961098E-03  0.1496961E+04  0.7818609E-02  0.8886476E-01
        2   -1    0    0  501    0  0.00000000000E+00  0.00000000000E+00  0.99675047301E+03  0.99675047301E+03  0.25500000920E-02 0.  1.
       -2   -1    0    0    0  501  0.00000000000E+00  0.00000000000E+00 -0.56204950611E+03  0.56204950611E+03  0.25500000920E-02 0. -1.
    10030    2    1    2    0    0  0.00000000000E+00  0.00000000000E+00  0.43470096690E+03  0.15587999791E+04  0.14969610697E+04 0.  0.
        2    1    3    3  502    0 -0.39145897147E+03  0.29083119874E+03  0.80860917161E+03  0.94428369939E+03  0.25500000920E-02 0.  1.
       -2    1    3    3    0  502  0.39145897147E+03 -0.29083119874E+03 -0.37390820471E+03  0.61451627974E+03  0.25500000920E-02 0. -1.
</event>
<event>
 5   0  0.2094566E-03  0.1558437E+04  0.7818609E-02  0.8846497E-01
        2   -1    0    0  501    0  0.00000000000E+00  0.00000000000E+00  0.67604300434E+03  0.67604300435E+03  0.25500000920E-02 0. -1.
       -2   -1    0    0    0  501  0.00000000000E+00  0.00000000000E+00 -0.89813989274E+03  0.89813989274E+03  0.25500000920E-02 0.  1.
    10030    2    1    2    0    0  0.00000000000E+00  0.00000000000E+00 -0.22209688840E+03  0.15741828971E+04  0.15584366415E+04 0.  0.
        1    1    3    3  502    0  0.17831118758E+03 -0.54456918458E+03 -0.64442797519E+03  0.86234441590E+03  0.50400001928E-02 0.  1.
       -1    1    3    3    0  502 -0.17831118758E+03  0.54456918458E+03  0.42233108679E+03  0.71183848119E+03  0.50400001928E-02 0. -1.
</event>
<event>
 5   0  0.1077140E-03  0.1229185E+04  0.7818609E-02  0.9087687E-01
        1   -1    0    0  501    0  0.00000000000E+00  0.00000000000E+00  0.91173705164E+03  0.91173705166E+03  0.50400001928E-02 0. -1.
       -1   -1    0    0    0  501  0.00000000000E+00  0.00000000000E+00 -0.41429059216E+03  0.41429059220E+03  0.50400001928E-02 0.  1.
    10030    2    1    2    0    0  0.00000000000E+00  0.00000000000E+00  0.49744645948E+03  0.13260276439E+04  0.12291852310E+04 0.  0.
        1    1    3    3  502    0 -0.58844623437E+02 -0.56549931217E+03 -0.30569800939E+01  0.56856090872E+03  0.50400001928E-02 0.  1.
       -1    1    3    3    0  502  0.58844623437E+02  0.56549931217E+03  0.50050343957E+03  0.75746673513E+03  0.50400001928E-02 0. -1.
</event>
<event>
 5   0  0.1961098E-03  0.1505061E+04  0.7818609E-02  0.8881094E-01
       -2   -1    0    0    0  501  0.00000000000E+00  0.00000000000E+00  0.72903919702E+03  0.72903919703E+03  0.25500000920E-02 0.  1.
        2   -1    0    0  501    0  0.00000000000E+00  0.00000000000E+00 -0.77677876947E+03  0.77677876947E+03  0.25500000920E-02 0. -1.
    10030    2    1    2    0    0  0.00000000000E+00  0.00000000000E+00 -0.47739572443E+02  0.15058179665E+04  0.15050610225E+04 0.  0.
        2    1    3    3  502    0  0.56439122677E+02 -0.65652552516E+03 -0.38749587128E+03  0.76443717206E+03  0.25500000920E-02 0. -1.
       -2    1    3    3    0  502 -0.56439122677E+02  0.65652552516E+03  0.33975629884E+03  0.74138079444E+03  0.25500000920E-02 0.  1.
</event>
<event>
 5   0  0.1087761E-03  0.1505863E+04  0.7818609E-02  0.8880563E-01
       -1   -1    0    0    0  501  0.00000000000E+00  0.00000000000E+00  0.45757320751E+03  0.45757320753E+03  0.50400001928E-02 0.  1.
        1   -1    0    0  501    0  0.00000000000E+00  0.00000000000E+00 -0.12389402946E+04  0.12389402946E+04  0.50400001928E-02 0. -1.
    10030    2    1    2    0    0  0.00000000000E+00  0.00000000000E+00 -0.78136708711E+03  0.16965135022E+04  0.15058630543E+04 0.  0.
        3    1    3    3  502    0  0.24738996562E+02  0.22349598701E+03 -0.12002288467E+04  0.12211108749E+04  0.10100000352E+00 0. -1.
       -3    1    3    3    0  502 -0.24738996562E+02 -0.22349598701E+03  0.41886175958E+03  0.47540262726E+03  0.10100000352E+00 0.  1.
</event>
<event>
 5   0  0.2094566E-03  0.1424552E+04  0.7818609E-02  0.8936236E-01
        2   -1    0    0  501    0  0.00000000000E+00  0.00000000000E+00  0.13957996737E+04  0.13957996737E+04  0.25500000920E-02 0.  1.
       -2   -1    0    0    0  501  0.00000000000E+00  0.00000000000E+00 -0.36347397300E+03  0.36347397301E+03  0.25500000920E-02 0. -1.
    10030    2    1    2    0    0  0.00000000000E+00  0.00000000000E+00  0.10323257007E+04  0.17592736468E+04  0.14245516529E+04 0.  0.
        1    1    3    3  502    0  0.62445847699E+03  0.61368312900E+02  0.93244440062E+03  0.11239070333E+04  0.50400001928E-02 0.  1.
       -1    1    3    3    0  502 -0.62445847699E+03 -0.61368312900E+02  0.99881300122E+02  0.63536661342E+03  0.50400001928E-02 0. -1.
</event>
<event>
 5   0  0.1087761E-03  0.1361464E+04  0.7818609E-02  0.8982195E-01
       -1   -1    0    0    0  501  0.00000000000E+00  0.00000000000E+00  0.24552692022E+03  0.24552692028E+03  0.50400001928E-02 0.  1.
        1   -1    0    0  501    0  0.00000000000E+00  0.00000000000E+00 -0.18873531264E+04  0.18873531264E+04  0.50400001928E-02 0. -1.
    10030    2    1    2    0    0  0.00000000000E+00  0.00000000000E+00 -0.16418262061E+04  0.21328800467E+04  0.13614639188E+04 0.  0.
        3    1    3    3  502    0 -0.32590509330E+03 -0.33659954720E+03 -0.47252097238E+02  0.47089930549E+03  0.10100000352E+00 0.  1.
       -3    1    3    3    0  502  0.32590509330E+03  0.33659954720E+03 -0.15945741089E+04  0.16619807412E+04  0.10100000352E+00 0. -1.
</event>
<event>
 5   0  0.7468375E-04  0.1061500E+04  0.7818609E-02  0.9243551E-01
       -4   -1    0    0    0  501  0.00000000000E+00  0.00000000000E+00  0.52247157129E+03  0.52247311482E+03  0.12699999809E+01 0. -1.
        4   -1    0    0  501    0  0.00000000000E+00  0.00000000000E+00 -0.53915625535E+03  0.53915775111E+03  0.12699999809E+01 0.  1.
    10030    2    1    2    0    0  0.00000000000E+00  0.00000000000E+00 -0.16684684058E+02  0.10616308659E+04  0.10614997489E+04 0.  0.
        4    1    3    3  502    0  0.76475742734E+02  0.11812075391E+03  0.50347546430E+03  0.52277165931E+03  0.12699999809E+01 0. -1.
       -4    1    3    3    0  502 -0.76475742734E+02 -0.11812075391E+03 -0.52016014835E+03  0.53885920663E+03  0.12699999809E+01 0.  1.
</event>
<event>
 5   0  0.2094566E-03  0.1535507E+04  0.7818609E-02  0.8861178E-01
        2   -1    0    0  501    0  0.00000000000E+00  0.00000000000E+00  0.67392602270E+03  0.67392602270E+03  0.25500000920E-02 0. -1.
       -2   -1    0    0    0  501  0.00000000000E+00  0.00000000000E+00 -0.87464448364E+03  0.87464448364E+03  0.25500000920E-02 0.  1.
    10030    2    1    2    0    0  0.00000000000E+00  0.00000000000E+00 -0.20071846094E+03  0.15485705063E+04  0.15355073144E+04 0.  0.
        1    1    3    3  502    0  0.52784293452E+02  0.62219471515E+02 -0.87025951747E+03  0.87407612485E+03  0.50400001928E-02 0.  1.
       -1    1    3    3    0  502 -0.52784293452E+02 -0.62219471515E+02  0.66954105652E+03  0.67449438149E+03  0.50400001928E-02 0. -1.
</event>
<event>
 5   0  0.1069697E-03  0.1505681E+04  0.7818609E-02  0.8880684E-01
        1   -1    0    0  501    0  0.00000000000E+00  0.00000000000E+00  0.76909139269E+03  0.76909139271E+03  0.50400001928E-02 0. -1.
       -1   -1    0    0    0  501  0.00000000000E+00  0.00000000000E+00 -0.73693251080E+03  0.73693251082E+03  0.50400001928E-02 0.  1.
    10030    2    1    2    0    0  0.00000000000E+00  0.00000000000E+00  0.32158881891E+02  0.15060239035E+04  0.15056805120E+04 0.  0.
        2    1    3    3  502    0 -0.53819481488E+02  0.56130676841E+03  0.51499839911E+03  0.76366561789E+03  0.25500000920E-02 0. -1.
       -2    1    3    3    0  502  0.53819481488E+02 -0.56130676841E+03 -0.48283951722E+03  0.74235828563E+03  0.25500000920E-02 0.  1.
</event>
<event>
 5   0  0.1961098E-03  0.1491289E+04  0.7818609E-02  0.8890266E-01
        2   -1    0    0  501    0  0.00000000000E+00  0.00000000000E+00  0.14668063503E+04  0.14668063503E+04  0.25500000920E-02 0. -1.
       -2   -1    0    0    0  501  0.00000000000E+00  0.00000000000E+00 -0.37904526663E+03  0.37904526664E+03  0.25500000920E-02 0.  1.
    10030    2    1    2    0    0  0.00000000000E+00  0.00000000000E+00  0.10877610837E+04  0.18458516169E+04  0.14912893806E+04 0.  0.
        2    1    3    3  502    0  0.44633374412E+03 -0.35171078194E+03 -0.53676887902E+02  0.57078498016E+03  0.25500000920E-02 0.  1.
       -2    1    3    3    0  502 -0.44633374412E+03  0.35171078194E+03  0.11414379716E+04  0.12750666368E+04  0.25500000920E-02 0. -1.
</event>
<event>
 5   0  0.2094566E-03  0.1528243E+04  0.7818609E-02  0.8865886E-01
        2   -1    0    0  501    0  0.00000000000E+00  0.00000000000E+00  0.13355321434E+04  0.13355321434E+04  0.25500000920E-02 0.  1.
       -2   -1    0    0    0  501  0.00000000000E+00  0.00000000000E+00 -0.43719003731E+03  0.43719003732E+03  0.25500000920E-02 0. -1.
    10030    2    1    2    0    0  0.00000000000E+00  0.00000000000E+00  0.89834210606E+03  0.17727221807E+04  0.15282425823E+04 0.  0.
        1    1    3    3  502    0  0.53714556905E+03 -0.26335148237E+03 -0.10227687097E+03  0.60691014489E+03  0.50400001928E-02 0. -1.
       -1    1    3    3    0  502 -0.53714556905E+03  0.26335148237E+03  0.10006189770E+04  0.11658120358E+04  0.50400001928E-02 0.  1.
</event>
<event>
 5   0  0.1069697E-03  0.1075555E+04  0.7818609E-02  0.9229350E-01
       -1   -1    0    0    0  501  0.00000000000E+00  0.00000000000E+00  0.32772280911E+03  0.32772280915E+03  0.50400001928E-02 0. -1.
        1   -1    0    0  501    0  0.00000000000E+00  0.00000000000E+00 -0.88246764452E+03  0.88246764453E+03  0.50400001928E-02 0.  1.
    10030    2    1    2    0    0  0.00000000000E+00  0.00000000000E+00 -0.55474483540E+03  0.12101904537E+04  0.10755552528E+04 0.  0.
        2    1    3    3  502    0  0.97698388384E+02  0.85928206253E+02  0.30974611952E+03  0.33596322758E+03  0.25500000920E-02 0. -1.
       -2    1    3    3    0  502 -0.97698388384E+02 -0.85928206253E+02 -0.86449095492E+03  0.87422722611E+03  0.25500000920E-02 0.  1.
</event>
<event>
 5   0  0.1078018E-03  0.8487890E+03  0.7818609E-02  0.9491964E-01
        1   -1    0    0  501    0  0.00000000000E+00  0.00000000000E+00  0.13645682339E+04  0.13645682339E+04  0.50400001928E-02 0. -1.
       -1   -1    0    0    0  501  0.00000000000E+00  0.00000000000E+00 -0.13199098166E+03  0.13199098175E+03  0.50400001928E-02 0.  1.
    10030    2    1    2    0    0  0.00000000000E+00  0.00000000000E+00  0.12325772523E+04  0.14965592157E+04  0.84878902165E+03 0.  0.
        4    1    3    3  502    0  0.12962885368E+02  0.21850012668E+03  0.12573621189E+04  0.12762724838E+04  0.12699999809E+01 0. -1.
       -4    1    3    3    0  502 -0.12962885368E+02 -0.21850012668E+03 -0.24784866656E+02  0.22028673195E+03  0.12699999809E+01 0.  1.
</event>
<event>
 5   0  0.2111533E-03  0.1439834E+04  0.7818609E-02  0.8925479E-01
       -2   -1    0    0    0  501  0.00000000000E+00  0.00000000000E+00  0.71030488606E+03  0.71030488606E+03  0.25500000920E-02 0.  1.
        2   -1    0    0  501    0  0.00000000000E+00  0.00000000000E+00 -0.72965874793E+03  0.72965874793E+03  0.25500000920E-02 0. -1.
    10030    2    1    2    0    0  0.00000000000E+00  0.00000000000E+00 -0.19353861868E+02  0.14399636340E+04  0.14398335651E+04 0.  0.
        5    1    3    3  502    0  0.26628196162E+03 -0.64004725750E+03  0.18448361865E+03  0.71737219800E+03  0.46999998093E+01 0.  1.
       -5    1    3    3    0  502 -0.26628196162E+03  0.64004725750E+03 -0.20383748052E+03  0.72259143600E+03  0.46999998093E+01 0. -1.
</event>
<event>
 5   0  0.1078787E-03  0.1495023E+04  0.7818609E-02  0.8887769E-01
        1   -1    0    0  501    0  0.00000000000E+00  0.00000000000E+00  0.10385554710E+04  0.10385554710E+04  0.50400001928E-02 0.  1.
       -1   -1    0    0    0  501  0.00000000000E+00  0.00000000000E+00 -0.53802958860E+03  0.53802958863E+03  0.50400001928E-02 0. -1.
    10030    2    1    2    0    0  0.00000000000E+00  0.00000000000E+00  0.50052588236E+03  0.15765850596E+04  0.14950231741E+04 0.  0.
        5    1    3    3  502    0  0.57887772979E+02 -0.66707865590E+03 -0.10013932983E+03  0.67704867092E+03  0.46999998093E+01 0. -1.
       -5    1    3    3    0  502 -0.57887772979E+02  0.66707865590E+03  0.60066521218E+03  0.89953638867E+03  0.46999998093E+01 0.  1.
</event>
<event>
 5   0  0.1087761E-03  0.1499487E+04  0.7818609E-02  0.8884794E-01
        1   -1    0    0  501    0  0.00000000000E+00  0.00000000000E+00  0.15717643358E+04  0.15717643358E+04  0.50400001928E-02 0. -1.
       -1   -1    0    0    0  501  0.00000000000E+00  0.00000000000E+00 -0.35763315568E+03  0.35763315572E+03  0.50400001928E-02 0.  1.
    10030    2    1    2    0    0  0.00000000000E+00  0.00000000000E+00  0.12141311801E+04  0.19293974915E+04  0.14994866314E+04 0.  0.
        3    1    3    3  502    0  0.71276192964E+03  0.47382225812E+02  0.31410228744E+03  0.78034280983E+03  0.10100000352E+00 0.  1.
       -3    1    3    3    0  502 -0.71276192964E+03 -0.47382225812E+02  0.90002889265E+03  0.11490546817E+04  0.10100000352E+00 0. -1.
</event>
<event>
 5   0  0.2150197E-03  0.1393491E+04  0.7818609E-02  0.8958544E-01
        2   -1    0    0  501    0  0.00000000000E+00  0.00000000000E+00  0.23807820980E+04  0.23807820980E+04  0.25500000920E-02 0. -1.
       -2   -1    0    0    0  501  0.00000000000E+00  0.00000000000E+00 -0.20390539978E+03  0.20390539979E+03  0.25500000920E-02 0.  1.
    10030    2    1    2    0    0  0.00000000000E+00  0.00000000000E+00  0.21768766982E+04  0.25846874978E+04  0.13934910484E+04 0.  0.
        3    1    3    3  502    0 -0.49189207549E+03 -0.48846137489E+03  0.95857400734E+03  0.11829693430E+04  0.10100000352E+00 0. -1.
       -3    1    3    3    0  502  0.49189207549E+03  0.48846137489E+03  0.12183026908E+04  0.14017181548E+04  0.10100000352E+00 0.  1.
</event>
<event>
 5   0  0.2111533E-03  0.1512891E+04  0.7818609E-02  0.8875925E-01
       -2   -1    0    0    0  501  0.00000000000E+00  0.00000000000E+00  0.34731450417E+03  0.34731450418E+03  0.25500000920E-02 0.  1.
        2   -1    0    0  501    0  0.00000000000E+00  0.00000000000E+00 -0.16475272641E+04  0.16475272641E+04  0.25500000920E-02 0. -1.
    10030    2    1    2    0    0  0.00000000000E+00  0.00000000000E+00 -0.13002127600E+04  0.19948417683E+04  0.15128914235E+04 0.  0.
        5    1    3    3  502    0  0.34795316709E+02  0.47337093008E+03  0.12650032393E+03  0.49123840797E+03  0.46999998093E+01 0.  1.
       -5    1    3    3    0  502 -0.34795316709E+02 -0.47337093008E+03 -0.14267130839E+04  0.15036033603E+04  0.46999998093E+01 0. -1.
</event>
<event>
 5   0  0.1078787E-03  0.1562566E+04  0.7818609E-02  0.8843881E-01
       -1   -1    0    0    0  501  0.00000000000E+00  0.00000000000E+00  0.46095856062E+03  0.46095856065E+03  0.50400001928E-02 0.  1.
        1   -1    0    0  501    0  0.00000000000E+00  0.00000000000E+00 -0.13242034663E+04  0.13242034663E+04  0.50400001928E-02 0. -1.
    10030    2    1    2    0    0  0.00000000000E+00  0.00000000000E+00 -0.86324490563E+03  0.17851620269E+04  0.15625657411E+04 0.  0.
        5    1    3    3  502    0  0.50930052594E+03  0.27078795567E+03 -0.10336301116E+04  0.11836918688E+04  0.46999998093E+01 0. -1.
       -5    1    3    3    0  502 -0.50930052594E+03 -0.27078795567E+03  0.17038520599E+03  0.60147015809E+03  0.46999998093E+01 0.  1.
</event>
<event>
 5   0  0.1069697E-03  0.1514919E+04  0.7818609E-02  0.8874592E-01
       -1   -1    0    0    0  501  0.00000000000E+00  0.00000000000E+00  0.35302988623E+03  0.35302988627E+03  0.50400001928E-02 0. -1.
        1   -1    0    0  501    0  0.00000000000E+00  0.00000000000E+00 -0.16252018263E+04  0.16252018263E+04  0.50400001928E-02 0.  1.
    10030    2    1    2    0    0  0.00000000000E+00  0.00000000000E+00 -0.12721719401E+04  0.19782317126E+04  0.15149188967E+04 0.  0.
        2    1    3    3  502    0 -0.69651715681E+03 -0.93408308653E+02 -0.26700940844E+03  0.75176810657E+03  0.25500000920E-02 0. -1.
       -2    1    3    3    0  502  0.69651715681E+03  0.93408308653E+02 -0.10051625316E+04  0.12264636060E+04  0.25500000920E-02 0.  1.
</event>
<event>
 5   0  0.1993623E-03  0.1484758E+04  0.7818609E-02  0.8894652E-01
        2   -1    0    0  501    0  0.00000000000E+00  0.00000000000E+00  0.18245284695E+04  0.18245284695E+04  0.25500000920E-02 0. -1.
       -2   -1    0    0    0  501  0.00000000000E+00  0.00000000000E+00 -0.30206528871E+03  0.30206528872E+03  0.25500000920E-02 0.  1.
    10030    2    1    2    0    0  0.00000000000E+00  0.00000000000E+00  0.15224631808E+04  0.21265937582E+04  0.14847581876E+04 0.  0.
        4    1    3    3  502    0 -0.39444436020E+03 -0.18023567267E+03  0.16242386181E+04  0.16811376958E+04  0.12699999809E+01 0. -1.
       -4    1    3    3    0  502  0.39444436020E+03  0.18023567267E+03 -0.10177543728E+03  0.44545606240E+03  0.12699999809E+01 0.  1.
</event>
<event>
 5   0  0.7468375E-04  0.1403742E+04  0.7818609E-02  0.8951114E-01
       -4   -1    0    0    0  501  0.00000000000E+00  0.00000000000E+00  0.78231778088E+03  0.78231881172E+03  0.12699999809E+01 0. -1.
        4   -1    0    0  501    0  0.00000000000E+00  0.00000000000E+00 -0.62969455445E+03  0.62969583515E+03  0.12699999809E+01 0.  1.
    10030    2    1    2    0    0  0.00000000000E+00  0.00000000000E+00  0.15262322643E+03  0.14120146469E+04  0.14037419684E+04 0.  0.
        1    1    3    3  502    0 -0.38237367379E+03  0.34231575483E+03  0.55791624277E+03  0.75806347780E+03  0.50400001928E-02 0. -1.
       -1    1    3    3    0  502  0.38237367379E+03 -0.34231575483E+03 -0.40529301634E+03  0.65395116907E+03  0.50400001928E-02 0.  1.
</event>
<event>
 5   0  0.1077140E-03  0.1497345E+04  0.7818609E-02  0.8886220E-01
        1   -1    0    0  501    0  0.00000000000E+00  0.00000000000E+00  0.86175328939E+03  0.86175328940E+03  0.50400001928E-02 0. -1.
       -1   -1    0    0    0  501  0.00000000000E+00  0.00000000000E+00 -0.65043056547E+03  0.65043056549E+03  0.50400001928E-02 0.  1.
    10030    2    1    2    0    0  0.00000000000E+00  0.00000000000E+00  0.21132272392E+03  0.15121838549E+04  0.14973452232E+04 0.  0.
        1    1    3    3  502    0  0.46761125522E+03  0.25287872145E+03 -0.42672763866E+03  0.68169231431E+03  0.50400001928E-02 0.  1.
       -1    1    3    3    0  502 -0.46761125522E+03 -0.25287872145E+03  0.63805036258E+03  0.83049154058E+03  0.50400001928E-02 0. -1.
</event>
<event>
 5   0  0.1961098E-03  0.1285284E+04  0.7818609E-02  0.9041317E-01
       -2   -1    0    0    0  501  0.00000000000E+00  0.00000000000E+00  0.55505583571E+03  0.55505583571E+03  0.25500000920E-02 0.  1.
        2   -1    0    0  501    0  0.00000000000E+00  0.00000000000E+00 -0.74404915196E+03  0.74404915197E+03  0.25500000920E-02 0. -1.
    10030    2    1    2    0    0  0.00000000000E+00  0.00000000000E+00 -0.18899331625E+03  0.12991049877E+04  0.12852841302E+04 0.  0.
        2    1    3    3  502    0  0.26806358554E+03 -0.58158414747E+03 -0.40154058619E+02  0.64164675243E+03  0.25500000920E-02 0.  1.
       -2    1    3    3    0  502 -0.26806358554E+03  0.58158414747E+03 -0.14883925764E+03  0.65745823525E+03  0.25500000920E-02 0. -1.
</event>
<event>
 5   0  0.1069697E-03  0.1482176E+04  0.7818609E-02  0.8896393E-01
        1   -1    0    0  501    0  0.00000000000E+00  0.00000000000E+00  0.10533063496E+04  0.10533063496E+04  0.50400001928E-02 0. -1.
       -1   -1    0    0    0  501  0.00000000000E+00  0.00000000000E+00 -0.52141633496E+03  0.52141633498E+03  0.50400001928E-02 0.  1.
    10030    2    1    2    0    0  0.00000000000E+00  0.00000000000E+00  0.53189001467E+03  0.15747226846E+04  0.14821756123E+04 0.  0.
        2    1    3    3  502    0  0.11589567538E+03  0.28863531228E+03 -0.44871392873E+03  0.54597283899E+03  0.25500000920E-02 0.  1.
       -2    1    3    3    0  502 -0.11589567538E+03 -0.28863531228E+03  0.98060394340E+03  0.10287498456E+04  0.25500000920E-02 0. -1.
</event>
<event>
 5   0  0.2094566E-03  0.1485876E+04  0.7818609E-02  0.8893900E-01
        2   -1    0    0  501    0  0.00000000000E+00  0.00000000000E+00  0.75507043655E+03  0.75507043656E+03  0.25500000920E-02 0. -1.
       -2   -1    0    0    0  501  0.00000000000E+00  0.00000000000E+00 -0.73100055804E+03  0.73100055804E+03  0.25500000920E-02 0.  1.
    10030    2    1    2    0    0  0.00000000000E+00  0.00000000000E+00  0.24069878518E+02  0.14860709946E+04  0.14858760520E+04 0.  0.
        1    1    3    3  502    0 -0.42370334755E+02  0.58619832516E+03  0.46655378973E+03  0.75039733503E+03  0.50400001928E-02 0. -1.
       -1    1    3    3    0  502  0.42370334755E+02 -0.58619832516E+03 -0.44248391121E+03  0.73567365957E+03  0.50400001928E-02 0.  1.
</event>
<event>
 5   0  0.1087761E-03  0.1493153E+04  0.7818609E-02  0.8889019E-01
       -1   -1    0    0    0  501  0.00000000000E+00  0.00000000000E+00  0.39124278620E+03  0.39124278623E+03  0.50400001928E-02 0.  1.
        1   -1    0    0  501    0  0.00000000000E+00  0.00000000000E+00 -0.14246309313E+04  0.14246309313E+04  0.50400001928E-02 0. -1.
    10030    2    1    2    0    0  0.00000000000E+00  0.00000000000E+00 -0.10333881451E+04  0.18158737175E+04  0.14931531400E+04 0.  0.
        3    1    3    3  502    0 -0.54186508824E+03 -0.50765130296E+03 -0.42210932157E+03  0.85411000978E+03  0.10100000352E+00 0. -1.
       -3    1    3    3    0  502  0.54186508824E+03  0.50765130296E+03 -0.61127882349E+03  0.96176370772E+03  0.10100000352E+00 0.  1.
</event>
<event>
 5   0  0.1087761E-03  0.1508678E+04  0.7818609E-02  0.8878703E-01
        1   -1    0    0  501    0  0.00000000000E+00  0.00000000000E+00  0.14958423054E+04  0.14958423054E+04  0.50400001928E-02 0.  1.
       -1   -1    0    0    0  501  0.00000000000E+00  0.00000000000E+00 -0.38040574347E+03  0.38040574350E+03  0.50400001928E-02 0. -1.
    10030    2    1    2    0    0  0.00000000000E+00  0.00000000000E+00  0.11154365619E+04  0.18762480489E+04  0.15086775724E+04 0.  0.
        3    1    3    3  502    0 -0.96561388103E+02 -0.70926899710E+03  0.85369456070E+03  0.11140830423E+04  0.10100000352E+00 0.  1.
       -3    1    3    3    0  502  0.96561388103E+02  0.70926899710E+03  0.26174200123E+03  0.76216500663E+03  0.10100000352E+00 0. -1.
</event>
<event>
 5   0  0.1993623E-03  0.1155527E+04  0.7818609E-02  0.9152700E-01
        2   -1    0    0  501    0  0.00000000000E+00  0.00000000000E+00  0.71889859153E+03  0.71889859153E+03  0.25500000920E-02 0. -1.
       -2   -1    0    0    0  501  0.00000000000E+00  0.00000000000E+00 -0.46433619984E+03  0.46433619985E+03  0.25500000920E-02 0.  1.
    10030    2    1    2    0    0  0.00000000000E+00  0.00000000000E+00  0.25456239169E+03  0.11832347914E+04  0.11555269622E+04 0.  0.
        4    1    3    3  502    0  0.40632418977E+03 -0.24215130864E+03 -0.21244584188E+03  0.51852815941E+03  0.12699999809E+01 0.  1.
       -4    1    3    3    0  502 -0.40632418977E+03  0.24215130864E+03  0.46700823356E+03  0.66470663197E+03  0.12699999809E+01 0. -1.
</event>
<event>
 5   0  0.2094566E-03  0.1509428E+04  0.7818609E-02  0.8878208E-01
       -2   -1    0    0    0  501  0.00000000000E+00  0.00000000000E+00  0.93071691777E+03  0.93071691777E+03  0.25500000920E-02 0.  1.
        2   -1    0    0  501    0  0.00000000000E+00  0.00000000000E+00 -0.61199376743E+03  0.61199376744E+03  0.25500000920E-02 0. -1.
    10030    2    1    2    0    0  0.00000000000E+00  0.00000000000E+00  0.31872315033E+03  0.15427106852E+04  0.15094276437E+04 0.  0.
        1    1    3    3  502    0  0.36152541229E+03 -0.56604725258E+03 -0.19244172607E+03  0.69867298062E+03  0.50400001928E-02 0. -1.
       -1    1    3    3    0  502 -0.36152541229E+03  0.56604725258E+03  0.51116487640E+03  0.84403770460E+03  0.50400001928E-02 0.  1.
</event>
<event>
 5   0  0.1069697E-03  0.1503133E+04  0.7818609E-02  0.8882372E-01
        1   -1    0    0  501    0  0.00000000000E+00  0.00000000000E+00  0.14058440050E+04  0.14058440050E+04  0.50400001928E-02 0. -1.
       -1   -1    0    0    0  501  0.00000000000E+00  0.00000000000E+00 -0.40178857982E+03  0.40178857985E+03  0.50400001928E-02 0.  1.
    10030    2    1    2    0    0  0.00000000000E+00  0.00000000000E+00  0.10040554252E+04  0.18076325849E+04  0.15031328168E+04 0.  0.
        2    1    3    3  502    0  0.13774877446E+03  0.20384831031E+03 -0.35199079370E+03  0.42944892285E+03  0.25500000920E-02 0.  1.
       -2    1    3    3    0  502 -0.13774877446E+03 -0.20384831031E+03  0.13560462189E+04  0.13781836620E+04  0.25500000920E-02 0. -1.
</event>
<event>
 5   0  0.1078018E-03  0.1483822E+04  0.7818609E-02  0.8895283E-01
       -1   -1    0    0    0  501  0.00000000000E+00  0.00000000000E+00  0.11537851698E+04  0.11537851698E+04  0.50400001928E-02 0. -1.
        1   -1    0    0  501    0  0.00000000000E+00  0.00000000000E+00 -0.47706604672E+03  0.47706604675E+03  0.50400001928E-02 0.  1.
    10030    2    1    2    0    0  0.00000000000E+00  0.00000000000E+00  0.67671912305E+03  0.16308512165E+04  0.14838217275E+04 0.  0.
        4    1    3    3  502    0 -0.63152696429E+02 -0.40631971808E+03  0.10170821349E+04  0.10970604625E+04  0.12699999809E+01 0. -1.
       -4    1    3    3    0  502  0.63152696429E+02  0.40631971808E+03 -0.34036301184E+03  0.53379075404E+03  0.12699999809E+01 0.  1.
</event>
<event>
 5   0  0.1078787E-03  0.1512137E+04  0.7818609E-02  0.8876422E-01
        1   -1    0    0  501    0  0.00000000000E+00  0.00000000000E+00  0.77185306615E+03  0.77185306616E+03  0.50400001928E-02 0. -1.
       -1   -1    0    0    0  501  0.00000000000E+00  0.00000000000E+00 -0.74060634891E+03  0.74060634893E+03  0.50400001928E-02 0.  1.
    10030    2    1    2    0    0  0.00000000000E+00  0.00000000000E+00  0.31246717232E+02  0.15124594151E+04  0.15121366092E+04 0.  0.
        5    1    3    3  502    0 -0.56948979338E+03 -0.17836880552E+03 -0.44867734863E+03  0.74663746807E+03  0.46999998093E+01 0.  1.
       -5    1    3    3    0  502  0.56948979338E+03  0.17836880552E+03  0.47992406586E+03  0.76582194702E+03  0.46999998093E+01 0. -1.
</event>
<event>
 5   0  0.1961098E-03  0.1340025E+04  0.7818609E-02  0.8998414E-01
        2   -1    0    0  501    0  0.00000000000E+00  0.00000000000E+00  0.70016369600E+03  0.70016369600E+03  0.25500000920E-02 0.  1.
       -2   -1    0    0    0  501  0.00000000000E+00  0.00000000000E+00 -0.64115975723E+03  0.64115975723E+03  0.25500000920E-02 0. -1.
    10030    2    1    2    0    0  0.00000000000E+00  0.00000000000E+00  0.59003938773E+02  0.13413234532E+04  0.13400250525E+04 0.  0.
        2    1    3    3  502    0 -0.22912745222E+03 -0.49072456491E+03  0.42435446087E+03  0.68803102869E+03  0.25500000920E-02 0.  1.
       -2    1    3    3    0  502  0.22912745222E+03  0.49072456491E+03 -0.36535052210E+03  0.65329242455E+03  0.25500000920E-02 0. -1.
</event>
<event>
 5   0  0.1078018E-03  0.1481645E+04  0.7818609E-02  0.8896751E-01
        1   -1    0    0  501    0  0.00000000000E+00  0.00000000000E+00  0.96729596013E+03  0.96729596014E+03  0.50400001928E-02 0. -1.
       -1   -1    0    0    0  501  0.00000000000E+00  0.00000000000E+00 -0.56737357386E+03  0.56737357388E+03  0.50400001928E-02 0.  1.
    10030    2    1    2    0    0  0.00000000000E+00  0.00000000000E+00  0.39992238627E+03  0.15346695340E+04  0.14816452557E+04 0.  0.
        4    1    3    3  502    0 -0.36029953377E+03  0.61599257292E+03 -0.60380202343E+01  0.71365304912E+03  0.12699999809E+01 0.  1.
       -4    1    3    3    0  502  0.36029953377E+03 -0.61599257292E+03  0.40596040651E+03  0.82101648490E+03  0.12699999809E+01 0. -1.
</event>
<event>
 5   0  0.2111533E-03  0.1538943E+04  0.7818609E-02  0.8858962E-01
       -2   -1    0    0    0  501  0.00000000000E+00  0.00000000000E+00  0.49371369804E+03  0.49371369805E+03  0.25500000920E-02 0.  1.
        2   -1    0    0  501    0  0.00000000000E+00  0.00000000000E+00 -0.11992501912E+04  0.11992501912E+04  0.25500000920E-02 0. -1.
    10030    2    1    2    0    0  0.00000000000E+00  0.00000000000E+00 -0.70553649312E+03  0.16929638892E+04  0.15389428147E+04 0.  0.
        5    1    3    3  502    0  0.13739354199E+03 -0.17075796951E+03 -0.11641704689E+04  0.11846308455E+04  0.46999998093E+01 0. -1.
       -5    1    3    3    0  502 -0.13739354199E+03  0.17075796951E+03  0.45863397579E+03  0.50833304366E+03  0.46999998093E+01 0.  1.
</event>
<event>
 5   0  0.1078787E-03  0.1436143E+04  0.7818609E-02  0.8928064E-01
       -1   -1    0    0    0  501  0.00000000000E+00  0.00000000000E+00  0.57352345392E+03  0.57352345394E+03  0.50400001928E-02 0. -1.
        1   -1    0    0  501    0  0.00000000000E+00  0.00000000000E+00 -0.89905101331E+03  0.89905101332E+03  0.50400001928E-02 0.  1.
    10030    2    1    2    0    0  0.00000000000E+00  0.00000000000E+00 -0.32552755939E+03  0.14725744673E+04  0.14361432274E+04 0.  0.
        5    1    3    3  502    0 -0.63856050496E+03  0.25378894142E+03  0.50937173452E+02  0.68904646499E+03  0.46999998093E+01 0. -1.
       -5    1    3    3    0  502  0.63856050496E+03 -0.25378894142E+03 -0.37646473284E+03  0.78352800227E+03  0.46999998093E+01 0.  1.
</event>
<event>
 5   0  0.1077140E-03  0.1532511E+04  0.7818609E-02  0.8863117E-01
        1   -1    0    0  501    0  0.00000000000E+00  0.00000000000E+00  0.19608002339E+04  0.19608002339E+04  0.50400001928E-02 0. -1.
       -1   -1    0    0    0  501  0.00000000000E+00  0.00000000000E+00 -0.29944281602E+03  0.29944281607E+03  0.50400001928E-02 0.  1.
    10030    2    1    2    0    0  0.00000000000E+00  0.00000000000E+00  0.16613574179E+04  0.22602430500E+04  0.15325110685E+04 0.  0.
        1    1    3    3  502    0 -0.33586832528E+03  0.43994555214E+03  0.16121998574E+04  0.17045668074E+04  0.50400001928E-02 0. -1.
       -1    1    3    3    0  502  0.33586832528E+03 -0.43994555214E+03  0.49157560503E+02  0.55567624257E+03  0.50400001928E-02 0.  1.
</event>
<event>
 5   0  0.1961098E-03  0.1508924E+04  0.7818609E-02  0.8878540E-01
       -2   -1    0    0    0  501  0.00000000000E+00  0.00000000000E+00  0.56431510180E+03  0.56431510181E+03  0.25500000920E-02 0. -1.
        2   -1    0    0  501    0  0.00000000000E+00  0.00000000000E+00 -0.10086793722E+04  0.10086793723E+04  0.25500000920E-02 0.  1.
    10030    2    1    2    0    0  0.00000000000E+00  0.00000000000E+00 -0.44436427044E+03  0.15729944741E+04  0.15089241235E+04 0.  0.
        2    1    3    3  502    0 -0.76011598728E+02 -0.60780579612E+02 -0.10021080295E+04  0.10068229958E+04  0.25500000920E-02 0.  1.
       -2    1    3    3    0  502  0.76011598728E+02  0.60780579612E+02  0.55774375909E+03  0.56617147827E+03  0.25500000920E-02 0. -1.
</event>
<event>
 5   0  0.1078787E-03  0.1501697E+04  0.7818609E-02  0.8883325E-01
       -1   -1    0    0    0  501  0.00000000000E+00  0.00000000000E+00  0.81786107023E+03  0.81786107024E+03  0.50400001928E-02 0. -1.
        1   -1    0    0  501    0  0.00000000000E+00  0.00000000000E+00 -0.68932692819E+03  0.68932692821E+03  0.50400001928E-02 0.  1.
    10030    2    1    2    0    0  0.00000000000E+00  0.00000000000E+00  0.12853414204E+03  0.15071879985E+04  0.15016972521E+04 0.  0.
        5    1    3    3  502    0  0.72402394016E+03 -0.66165721906E+02  0.25247070507E+03  0.76964414868E+03  0.46999998093E+01 0. -1.
       -5    1    3    3    0  502 -0.72402394016E+03  0.66165721906E+02 -0.12393656303E+03  0.73754384977E+03  0.46999998093E+01 0.  1.
</event>
<event>
 5   0  0.2094566E-03  0.1490204E+04  0.7818609E-02  0.8890993E-01
        2   -1    0    0  501    0  0.00000000000E+00  0.00000000000E+00  0.46836855339E+03  0.46836855339E+03  0.25500000920E-02 0.  1.
       -2   -1    0    0    0  501  0.00000000000E+00  0.00000000000E+00 -0.11853427452E+04  0.11853427452E+04  0.25500000920E-02 0. -1.
    10030    2    1    2    0    0  0.00000000000E+00  0.00000000000E+00 -0.71697419184E+03  0.16537112986E+04  0.14902043710E+04 0.  0.
        1    1    3    3  502    0 -0.53724824140E+03  0.29058842579E+02  0.21352779052E+03  0.57885594630E+03  0.50400001928E-02 0.  1.
       -1    1    3    3    0  502  0.53724824140E+03 -0.29058842579E+02 -0.93050198236E+03  0.10748553523E+04  0.50400001928E-02 0. -1.
</event>
<event>
 5   0  0.1077140E-03  0.1498659E+04  0.7818609E-02  0.8885345E-01
       -1   -1    0    0    0  501  0.00000000000E+00  0.00000000000E+00  0.88814313379E+03  0.88814313380E+03  0.50400001928E-02 0.  1.
        1   -1    0    0  501    0  0.00000000000E+00  0.00000000000E+00 -0.63221214750E+03  0.63221214752E+03  0.50400001928E-02 0. -1.
    10030    2    1    2    0    0  0.00000000000E+00  0.00000000000E+00  0.25593098628E+03  0.15203552813E+04  0.14986592380E+04 0.  0.
        1    1    3    3  502    0 -0.21096173336E+02 -0.33424169997E+03  0.80799227762E+03  0.87465083504E+03  0.50400001928E-02 0.  1.
       -1    1    3    3    0  502  0.21096173336E+02  0.33424169997E+03 -0.55206129133E+03  0.64570444628E+03  0.50400001928E-02 0. -1.
</event>
<event>
 5   0  0.1069697E-03  0.1552234E+04  0.7818609E-02  0.8850442E-01
        1   -1    0    0  501    0  0.00000000000E+00  0.00000000000E+00  0.73333295011E+03  0.73333295013E+03  0.50400001928E-02 0. -1.
       -1   -1    0    0    0  501  0.00000000000E+00  0.00000000000E+00 -0.82139687000E+03  0.82139687002E+03  0.50400001928E-02 0.  1.
    10030    2    1    2    0    0  0.00000000000E+00  0.00000000000E+00 -0.88063919896E+02  0.15547298201E+04  0.15522337323E+04 0.  0.
        2    1    3    3  502    0  0.51857324663E+03 -0.42851424843E+03 -0.43171343583E+03  0.79932419200E+03  0.25500000920E-02 0.  1.
       -2    1    3    3    0  502 -0.51857324663E+03  0.42851424843E+03  0.34364951594E+03  0.75540562815E+03  0.25500000920E-02 0. -1.
</event>
<event>
 5   0  0.1993623E-03  0.1509108E+04  0.7818609E-02  0.8878419E-01
        2   -1    0    0  501    0  0.00000000000E+00  0.00000000000E+00  0.28955262555E+04  0.28955262555E+04  0.25500000920E-02 0. -1.
       -2   -1    0    0    0  501  0.00000000000E+00  0.00000000000E+00 -0.19663160421E+03  0.19663160422E+03  0.25500000920E-02 0.  1.
    10030    2    1    2    0    0  0.00000000000E+00  0.00000000000E+00  0.26988946513E+04  0.30921578598E+04  0.15091083098E+04 0.  0.
        4    1    3    3  502    0 -0.30854519194E+03 -0.51391045591E+03  0.41037567245E+03  0.72643919058E+03  0.12699999809E+01 0.  1.
       -4    1    3    3    0  502  0.30854519194E+03  0.51391045591E+03  0.22885189789E+04  0.23657186692E+04  0.12699999809E+01 0. -1.
</event>
<event>
 5   0  0.1961098E-03  0.1527182E+04  0.7818609E-02  0.8866576E-01
       -2   -1    0    0    0  501  0.00000000000E+00  0.00000000000E+00  0.15694090665E+04  0.15694090665E+04  0.25500000920E-02 0. -1.
        2   -1    0    0  501    0  0.00000000000E+00  0.00000000000E+00 -0.37152266634E+03  0.37152266635E+03  0.25500000920E-02 0.  1.
    10030    2    1    2    0    0  0.00000000000E+00  0.00000000000E+00  0.11978864002E+04  0.19409317328E+04  0.15271817717E+04 0.  0.
        2    1    3    3  502    0 -0.27193046795E+03 -0.43275773292E+03  0.13199565750E+04  0.14154542715E+04  0.25500000920E-02 0. -1.
       -2    1    3    3    0  502  0.27193046795E+03  0.43275773292E+03 -0.12207017484E+03  0.52547746136E+03  0.25500000920E-02 0.  1.
</event>
<event>
 5   0  0.1993623E-03  0.1505343E+04  0.7818609E-02  0.8880907E-01
       -2   -1    0    0    0  501  0.00000000000E+00  0.00000000000E+00  0.61783070173E+03  0.61783070173E+03  0.25500000920E-02 0. -1.
        2   -1    0    0  501    0  0.00000000000E+00  0.00000000000E+00 -0.91694150652E+03  0.91694150652E+03  0.25500000920E-02 0.  1.
    10030    2    1    2    0    0  0.00000000000E+00  0.00000000000E+00 -0.29911080480E+03  0.15347722083E+04  0.15053433023E+04 0.  0.
        4    1    3    3  502    0  0.32921695738E+03  0.23290101625E+03  0.49838929461E+03  0.64110856356E+03  0.12699999809E+01 0. -1.
       -4    1    3    3    0  502 -0.32921695738E+03 -0.23290101625E+03 -0.79750009940E+03  0.89366364469E+03  0.12699999809E+01 0.  1.
</event>
<event>
 5   0  0.1069697E-03  0.8111061E+03  0.7818609E-02  0.9544079E-01
        1   -1    0    0  501    0  0.00000000000E+00  0.00000000000E+00  0.14948357230E+04  0.14948357230E+04  0.50400001928E-02 0. -1.
       -1   -1    0    0    0  501  0.00000000000E+00  0.00000000000E+00 -0.11002765465E+03  0.11002765476E+03  0.50400001928E-02 0.  1.
    10030    2    1    2    0    0  0.00000000000E+00  0.00000000000E+00  0.13848080684E+04  0.16048633778E+04  0.81110608132E+03 0.  0.
        2    1    3    3  502    0 -0.13741805480E+03  0.14221812535E+03 -0.81571217246E+01  0.19792992599E+03  0.25500000920E-02 0.  1.
       -2    1    3    3    0  502  0.13741805480E+03 -0.14221812535E+03  0.13929651901E+04  0.14069334518E+04  0.25500000920E-02 0. -1.
</event>
<event>
 5   0  0.2094566E-03  0.1479189E+04  0.7818609E-02  0.8898411E-01
        2   -1    0    0  501    0  0.00000000000E+00  0.00000000000E+00  0.28929834751E+03  0.28929834752E+03  0.25500000920E-02 0. -1.
       -2   -1    0    0    0  501  0.00000000000E+00  0.00000000000E+00 -0.18907806008E+04  0.18907806008E+04  0.25500000920E-02 0.  1.
    10030    2    1    2    0    0  0.00000000000E+00  0.00000000000E+00 -0.16014822533E+04  0.21800789483E+04  0.14791885658E+04 0.  0.
        1    1    3    3  502    0  0.19700329361E+03 -0.22804443349E+03  0.19470840872E+03  0.35878395420E+03  0.50400001928E-02 0. -1.
       -1    1    3    3    0  502 -0.19700329361E+03  0.22804443349E+03 -0.17961906620E+04  0.18212949941E+04  0.50400001928E-02 0.  1.
</event>
<event>
 5   0  0.1078018E-03  0.1426980E+04  0.7818609E-02  0.8934517E-01
       -1   -1    0    0    0  501  0.00000000000E+00  0.00000000000E+00  0.10023617533E+04  0.10023617533E+04  0.50400001928E-02 0. -1.
        1   -1    0    0  501    0  0.00000000000E+00  0.00000000000E+00 -0.50786834788E+03  0.50786834790E+03  0.50400001928E-02 0.  1.
    10030    2    1    2    0    0  0.00000000000E+00  0.00000000000E+00  0.49449340541E+03  0.15102301012E+04  0.14269797583E+04 0.  0.
        4    1    3    3  502    0  0.52126837208E+03 -0.26729156828E+03 -0.18382490001E+03  0.61396962870E+03  0.12699999809E+01 0.  1.
       -4    1    3    3    0  502 -0.52126837208E+03  0.26729156828E+03  0.67831830541E+03  0.89626047250E+03  0.12699999809E+01 0. -1.
</event>
<event>
 5   0  0.1069697E-03  0.1475022E+04  0.7818609E-02  0.8901235E-01
        1   -1    0    0  501    0  0.00000000000E+00  0.00000000000E+00  0.76104992118E+03  0.76104992120E+03  0.50400001928E-02 0. -1.
       -1   -1    0    0    0  501  0.00000000000E+00  0.00000000000E+00 -0.71469983023E+03  0.71469983025E+03  0.50400001928E-02 0.  1.
    10030    2    1    2    0    0  0.00000000000E+00  0.00000000000E+00  0.46350090949E+02  0.14757497515E+04  0.14750216941E+04 0.  0.
        2    1    3    3  502    0 -0.44020725386E+03  0.28072751336E+03 -0.49797733764E+03  0.72150661252E+03  0.25500000920E-02 0.  1.
       -2    1    3    3    0  502  0.44020725386E+03 -0.28072751336E+03  0.54432742859E+03  0.75424313893E+03  0.25500000920E-02 0. -1.
</event>
<event>
 5   0  0.1077140E-03  0.1425578E+04  0.7818609E-02  0.8935509E-01
       -1   -1    0    0    0  501  0.00000000000E+00  0.00000000000E+00  0.31645090856E+03  0.31645090860E+03  0.50400001928E-02 0.  1.
        1   -1    0    0  501    0  0.00000000000E+00  0.00000000000E+00 -0.16055191043E+04  0.16055191043E+04  0.50400001928E-02 0. -1.
    10030    2    1    2    0    0  0.00000000000E+00  0.00000000000E+00 -0.12890681958E+04  0.19219700129E+04  0.14255777486E+04 0.  0.
        1    1    3    3  502    0  0.72478816597E+02 -0.15103335520E+03  0.28953284781E+03  0.33450489267E+03  0.50400001928E-02 0.  1.
       -1    1    3    3    0  502 -0.72478816597E+02  0.15103335520E+03 -0.15786010436E+04  0.15874651202E+04  0.50400001928E-02 0. -1.
</event>
<event>
 5   0  0.2094566E-03  0.1481863E+04  0.7818609E-02  0.8896604E-01
        2   -1    0    0  501    0  0.00000000000E+00  0.00000000000E+00  0.10963412862E+04  0.10963412862E+04  0.25500000920E-02 0.  1.
       -2   -1    0    0    0  501  0.00000000000E+00  0.00000000000E+00 -0.50073805346E+03  0.50073805346E+03  0.25500000920E-02 0. -1.
    10030    2    1    2    0    0  0.00000000000E+00  0.00000000000E+00  0.59560323274E+03  0.15970793397E+04  0.14818634236E+04 0.  0.
        1    1    3    3  502    0 -0.34135951412E+03 -0.23926659947E+03 -0.36236355573E+03  0.55234243912E+03  0.50400001928E-02 0. -1.
       -1    1    3    3    0  502  0.34135951412E+03  0.23926659947E+03  0.95796678847E+03  0.10447369005E+04  0.50400001928E-02 0.  1.
</event>
<event>
 5   0  0.1087761E-03  0.1508059E+04  0.7818609E-02  0.8879111E-01
        1   -1    0    0  501    0  0.00000000000E+00  0.00000000000E+00  0.85867084853E+03  0.85867084855E+03  0.50400001928E-02 0.  1.
       -1   -1    0    0    0  501  0.00000000000E+00  0.00000000000E+00 -0.66214011165E+03  0.66214011167E+03  0.50400001928E-02 0. -1.
    10030    2    1    2    0    0  0.00000000000E+00  0.00000000000E+00  0.19653073688E+03  0.15208109602E+04  0.15080589001E+04 0.  0.
        3    1    3    3  502    0  0.64507690435E+03  0.17251417211E+03 -0.25494630651E+03  0.71476078621E+03  0.10100000352E+00 0. -1.
       -3    1    3    3    0  502 -0.64507690435E+03 -0.17251417211E+03  0.45147704339E+03  0.80605017400E+03  0.10100000352E+00 0.  1.
</event>
<event>
 5   0  0.1078787E-03  0.1526519E+04  0.7818609E-02  0.8867007E-01
        1   -1    0    0  501    0  0.00000000000E+00  0.00000000000E+00  0.37682857586E+03  0.37682857589E+03  0.50400001928E-02 0.  1.
       -1   -1    0    0    0  501  0.00000000000E+00  0.00000000000E+00 -0.15459678415E+04  0.15459678416E+04  0.50400001928E-02 0. -1.
    10030    2    1    2    0    0  0.00000000000E+00  0.00000000000E+00 -0.11691392657E+04  0.19227964174E+04  0.15265187324E+04 0.  0.
        5    1    3    3  502    0 -0.17566680029E+02 -0.40175737893E+03  0.23254319870E+03  0.46456001661E+03  0.46999998093E+01 0.  1.
       -5    1    3    3    0  502  0.17566680029E+02  0.40175737893E+03 -0.14016824644E+04  0.14582364008E+04  0.46999998093E+01 0. -1.
</event>
<event>
 5   0  0.1087761E-03  0.1538627E+04  0.7818609E-02  0.8859165E-01
       -1   -1    0    0    0  501  0.00000000000E+00  0.00000000000E+00  0.59202008571E+03  0.59202008573E+03  0.50400001928E-02 0.  1.
        1   -1    0    0  501    0  0.00000000000E+00  0.00000000000E+00 -0.99970095415E+03  0.99970095416E+03  0.50400001928E-02 0. -1.
    10030    2    1    2    0    0  0.00000000000E+00  0.00000000000E+00 -0.40768086844E+03  0.15917210399E+04  0.15386267183E+04 0.  0.
        3    1    3    3  502    0  0.49494529298E+03 -0.19284372684E+03  0.37185490363E+03  0.64841007517E+03  0.10100000352E+00 0.  1.
       -3    1    3    3    0  502 -0.49494529298E+03  0.19284372684E+03 -0.77953577208E+03  0.94331096472E+03  0.10100000352E+00 0. -1.
</event>
<event>
 5   0  0.1961098E-03  0.1489910E+04  0.7818609E-02  0.8891190E-01
        2   -1    0    0  501    0  0.00000000000E+00  0.00000000000E+00  0.49762353477E+03  0.49762353478E+03  0.25500000920E-02 0. -1.
       -2   -1    0    0    0  501  0.00000000000E+00  0.00000000000E+00 -0.11152168601E+04  0.11152168601E+04  0.25500000920E-02 0.  1.
    10030    2    1    2    0    0  0.00000000000E+00  0.00000000000E+00 -0.61759332533E+03  0.16128403949E+04  0.14899102738E+04 0.  0.
        2    1    3    3  502    0  0.17352555068E+03 -0.71928808579E+03 -0.21522579282E+03  0.77058977997E+03  0.25500000920E-02 0.  1.
       -2    1    3    3    0  502 -0.17352555068E+03  0.71928808579E+03 -0.40236753252E+03  0.84225061492E+03  0.25500000920E-02 0. -1.
</event>
<event>
 5   0  0.1961098E-03  0.1496395E+04  0.7818609E-02  0.8886854E-01
        2   -1    0    0  501    0  0.00000000000E+00  0.00000000000E+00  0.33629228381E+03  0.33629228382E+03  0.25500000920E-02 0. -1.
       -2   -1    0    0    0  501  0.00000000000E+00  0.00000000000E+00 -0.16646209824E+04  0.16646209824E+04  0.25500000920E-02 0.  1.
    10030    2    1    2    0    0  0.00000000000E+00  0.00000000000E+00 -0.13283286986E+04  0.20009132662E+04  0.14963945895E+04 0.  0.
        2    1    3    3  502    0  0.36325080629E+03 -0.16436034523E+03  0.18240835055E+03  0.43844985770E+03  0.25500000920E-02 0. -1.
       -2    1    3    3    0  502 -0.36325080629E+03  0.16436034523E+03 -0.15107370491E+04  0.15624634085E+04  0.25500000920E-02 0.  1.
</event>
<event>
 5   0  0.1993623E-03  0.1506407E+04  0.7818609E-02  0.8880203E-01
        2   -1    0    0  501    0  0.00000000000E+00  0.00000000000E+00  0.12125045997E+04  0.12125045997E+04  0.25500000920E-02 0.  1.
       -2   -1    0    0    0  501  0.00000000000E+00  0.00000000000E+00 -0.46788752850E+03  0.46788752850E+03  0.25500000920E-02 0. -1.
    10030    2    1    2    0    0  0.00000000000E+00  0.00000000000E+00  0.74461707119E+03  0.16803921282E+04  0.15064073559E+04 0.  0.
        4    1    3    3  502    0 -0.61227441963E+03  0.43523599485E+03  0.31117127334E+03  0.81310485818E+03  0.12699999809E+01 0. -1.
       -4    1    3    3    0  502  0.61227441963E+03 -0.43523599485E+03  0.43344579785E+03  0.86728727001E+03  0.12699999809E+01 0.  1.
</event>
<event>
 5   0  0.7468375E-04  0.1527514E+04  0.7818609E-02  0.8866360E-01
        3   -1    0    0  501    0  0.00000000000E+00  0.00000000000E+00  0.94285120921E+03  0.94285121462E+03  0.10100000352E+00 0. -1.
       -3   -1    0    0    0  501  0.00000000000E+00  0.00000000000E+00 -0.61868171034E+03  0.61868171858E+03  0.10100000352E+00 0.  1.
    10030    2    1    2    0    0  0.00000000000E+00  0.00000000000E+00  0.32416949887E+03  0.15615329332E+04  0.15275140711E+04 0.  0.
        3    1    3    3  502    0  0.48707160688E+03  0.47239500695E+03  0.52050547452E+03  0.85517352159E+03  0.10100000352E+00 0. -1.
       -3    1    3    3    0  502 -0.48707160688E+03 -0.47239500695E+03 -0.19633597565E+03  0.70635941160E+03  0.10100000352E+00 0.  1.
</event>
<event>
 5   0  0.1087761E-03  0.1453203E+04  0.7818609E-02  0.8916183E-01
        1   -1    0    0  501    0  0.00000000000E+00  0.00000000000E+00  0.14557046590E+04  0.14557046590E+04  0.50400001928E-02 0.  1.
       -1   -1    0    0    0  501  0.00000000000E+00  0.00000000000E+00 -0.36267650234E+03  0.36267650238E+03  0.50400001928E-02 0. -1.
    10030    2    1    2    0    0  0.00000000000E+00  0.00000000000E+00  0.10930281567E+04  0.18183811614E+04  0.14532031850E+04 0.  0.
        3    1    3    3  502    0 -0.47898495700E+03 -0.78514912849E+02 -0.13006191076E+03  0.50250103623E+03  0.10100000352E+00 0. -1.
       -3    1    3    3    0  502  0.47898495700E+03  0.78514912849E+02  0.12230900674E+04  0.13158801252E+04  0.10100000352E+00 0.  1.
</event>
<event>
 5   0  0.1078018E-03  0.1465077E+04  0.7818609E-02  0.8908015E-01
       -1   -1    0    0    0  501  0.00000000000E+00  0.00000000000E+00  0.72450801002E+03  0.72450801003E+03  0.50400001928E-02 0.  1.
        1   -1    0    0  501    0  0.00000000000E+00  0.00000000000E+00 -0.74065753721E+03  0.74065753723E+03  0.50400001928E-02 0. -1.
    10030    2    1    2    0    0  0.00000000000E+00  0.00000000000E+00 -0.16149527196E+02  0.14651655473E+04  0.14650765419E+04 0.  0.
        4    1    3    3  502    0  0.82629693950E+02  0.51279727120E+03 -0.52465430095E+03  0.73827667990E+03  0.12699999809E+01 0. -1.
       -4    1    3    3    0  502 -0.82629693950E+02 -0.51279727120E+03  0.50850477375E+03  0.72688886737E+03  0.12699999809E+01 0.  1.
</event>
<event>
 5   0  0.2111533E-03  0.1458917E+04  0.7818609E-02  0.8912241E-01
        2   -1    0    0  501    0  0.00000000000E+00  0.00000000000E+00  0.69304007118E+03  0.69304007119E+03  0.25500000920E-02 0. -1.
       -2   -1    0    0    0  501  0.00000000000E+00  0.00000000000E+00 -0.76779116882E+03  0.76779116883E+03  0.25500000920E-02 0.  1.
    10030    2    1    2    0    0  0.00000000000E+00  0.00000000000E+00 -0.74751097641E+02  0.14608312400E+04  0.14589174703E+04 0.  0.
        5    1    3    3  502    0  0.14131037445E+03 -0.63331223289E+03  0.29628063137E+03  0.71334235034E+03  0.46999998093E+01 0. -1.
       -5    1    3    3    0  502 -0.14131037445E+03  0.63331223289E+03 -0.37103172901E+03  0.74748888968E+03  0.46999998093E+01 0.  1.
</event>
<event>
 5   0  0.1078787E-03  0.1501351E+04  0.7818609E-02  0.8883555E-01
        1   -1    0    0  501    0  0.00000000000E+00  0.00000000000E+00  0.20855817821E+04  0.20855817821E+04  0.50400001928E-02 0. -1.
       -1   -1    0    0    0  501  0.00000000000E+00  0.00000000000E+00 -0.27019487639E+03  0.27019487644E+03  0.50400001928E-02 0.  1.
    10030    2    1    2    0    0  0.00000000000E+00  0.00000000000E+00  0.18153869057E+04  0.23557766586E+04  0.15013507410E+04 0.  0.
        5    1    3    3  502    0 -0.17285097956E+03  0.32393964838E+03 -0.11965335542E+03  0.38620379645E+03  0.46999998093E+01 0.  1.
       -5    1    3    3    0  502  0.17285097956E+03 -0.32393964838E+03  0.19350402612E+04  0.19695728621E+04  0.46999998093E+01 0. -1.
</event>
<event>
 5   0  0.1069697E-03  0.1350642E+04  0.7818609E-02  0.8990342E-01
        1   -1    0    0  501    0  0.00000000000E+00  0.00000000000E+00  0.11497074666E+04  0.11497074666E+04  0.50400001928E-02 0. -1.
       -1   -1    0    0    0  501  0.00000000000E+00  0.00000000000E+00 -0.39667345655E+03  0.39667345658E+03  0.50400001928E-02 0.  1.
    10030    2    1    2    0    0  0.00000000000E+00  0.00000000000E+00  0.75303401008E+03  0.15463809232E+04  0.13506419730E+04 0.  0.
        2    1    3    3  502    0 -0.41947885633E+03  0.48067929991E+03  0.63006853596E+03  0.89666128515E+03  0.25500000920E-02 0. -1.
       -2    1    3    3    0  502  0.41947885633E+03 -0.48067929991E+03  0.12296547412E+03  0.64971963807E+03  0.25500000920E-02 0.  1.
</event>
<event>
 5   0  0.2111533E-03  0.1549395E+04  0.7818609E-02  0.8852254E-01
       -2   -1    0    0    0  501  0.00000000000E+00  0.00000000000E+00  0.65117980614E+03  0.65117980615E+03  0.25500000920E-02 0.  1.
        2   -1    0    0  501    0  0.00000000000E+00  0.00000000000E+00 -0.92164484260E+03  0.92164484260E+03  0.25500000920E-02 0. -1.
    10030    2    1    2    0    0  0.00000000000E+00  0.00000000000E+00 -0.27046503646E+03  0.15728246487E+04  0.15493953788E+04 0.  0.
        5    1    3    3  502    0 -0.26082317213E+03 -0.44180792859E+03  0.45398538440E+03  0.68508962343E+03  0.46999998093E+01 0.  1.
       -5    1    3    3    0  502  0.26082317213E+03  0.44180792859E+03 -0.72445042086E+03  0.88773502531E+03  0.46999998093E+01 0. -1.
</event>
<event>
 5   0  0.1087761E-03  0.1068262E+04  0.7818609E-02  0.9236691E-01
       -1   -1    0    0    0  501  0.00000000000E+00  0.00000000000E+00  0.12212319335E+03  0.12212319345E+03  0.50400001928E-02 0.  1.
        1   -1    0    0  501    0  0.00000000000E+00  0.00000000000E+00 -0.23361303479E+04  0.23361303479E+04  0.50400001928E-02 0. -1.
    10030    2    1    2    0    0  0.00000000000E+00  0.00000000000E+00 -0.22140071546E+04  0.24582535414E+04  0.10682615753E+04 0.  0.
        3    1    3    3  502    0  0.51301441268E+03  0.10830520354E+03 -0.13414734993E+04  0.14403003035E+04  0.10100000352E+00 0. -1.
       -3    1    3    3    0  502 -0.51301441268E+03 -0.10830520354E+03 -0.87253365525E+03  0.10179532379E+04  0.10100000352E+00 0.  1.
</event>
<event>
 5   0  0.1087761E-03  0.1463386E+04  0.7818609E-02  0.8909173E-01
        1   -1    0    0  501    0  0.00000000000E+00  0.00000000000E+00  0.89749318249E+03  0.89749318250E+03  0.50400001928E-02 0.  1.
       -1   -1    0    0    0  501  0.00000000000E+00  0.00000000000E+00 -0.59652220433E+03  0.59652220436E+03  0.50400001928E-02 0. -1.
    10030    2    1    2    0    0  0.00000000000E+00  0.00000000000E+00  0.30097097815E+03  0.14940153869E+04  0.14633859527E+04 0.  0.
        3    1    3    3  502    0 -0.57094997659E+03  0.28715795468E+03 -0.21324532836E+03  0.67373373596E+03  0.10100000352E+00 0. -1.
       -3    1    3    3    0  502  0.57094997659E+03 -0.28715795468E+03  0.51421630651E+03  0.82028165089E+03  0.10100000352E+00 0.  1.
</event>
<event>
 5   0  0.1087761E-03  0.1524771E+04  0.7818609E-02  0.8868146E-01
       -1   -1    0    0    0  501  0.00000000000E+00  0.00000000000E+00  0.35004962730E+03  0.35004962734E+03  0.50400001928E-02 0.  1.
        1   -1    0    0  501    0  0.00000000000E+00  0.00000000000E+00 -0.16604256840E+04  0.16604256840E+04  0.50400001928E-02 0. -1.
    10030    2    1    2    0    0  0.00000000000E+00  0.00000000000E+00 -0.13103760567E+04  0.20104753114E+04  0.15247706607E+04 0.  0.
        3    1    3    3  502    0  0.59092190621E+03 -0.38570427333E+03 -0.27469100200E+03  0.75723948820E+03  0.10100000352E+00 0.  1.
       -3    1    3    3    0  502 -0.59092190621E+03  0.38570427333E+03 -0.10356850547E+04  0.12532358232E+04  0.10100000352E+00 0. -1.
</event>
<event>
 5   0  0.1069697E-03  0.1554796E+04  0.7818609E-02  0.8848810E-01
       -1   -1    0    0    0  501  0.00000000000E+00  0.00000000000E+00  0.14467072124E+04  0.14467072124E+04  0.50400001928E-02 0.  1.
        1   -1    0    0  501    0  0.00000000000E+00  0.00000000000E+00 -0.41773993278E+03  0.41773993281E+03  0.50400001928E-02 0. -1.
    10030    2    1    2    0    0  0.00000000000E+00  0.00000000000E+00  0.10289672797E+04  0.18644471453E+04  0.15547956441E+04 0.  0.
        2    1    3    3  502    0 -0.64377929096E+03 -0.31412750355E+03  0.15230683931E+03  0.73234229515E+03  0.25500000920E-02 0. -1.
       -2    1    3    3    0  502  0.64377929096E+03  0.31412750355E+03  0.87666044035E+03  0.11321048501E+04  0.25500000920E-02 0.  1.
</event>
<event>
 5   0  0.1078018E-03  0.1426169E+04  0.7818609E-02  0.8935091E-01
        1   -1    0    0  501    0  0.00000000000E+00  0.00000000000E+00  0.19452337633E+04  0.19452337633E+04  0.50400001928E-02 0. -1.
       -1   -1    0    0    0  501  0.00000000000E+00  0.00000000000E+00 -0.26140294982E+03  0.26140294986E+03  0.50400001928E-02 0.  1.
    10030    2    1    2    0    0  0.00000000000E+00  0.00000000000E+00  0.16838308135E+04  0.22066367132E+04  0.14261694764E+04 0.  0.
        4    1    3    3  502    0  0.10688744114E+03  0.34262729080E+03  0.17952882020E+04  0.18308139520E+04  0.12699999809E+01 0. -1.
       -4    1    3    3    0  502 -0.10688744114E+03 -0.34262729080E+03 -0.11145738855E+03  0.37582276120E+03  0.12699999809E+01 0.  1.
</event>
<event>
 5   0  0.1078018E-03  0.1461586E+04  0.7818609E-02  0.8910407E-01
        1   -1    0    0  501    0  0.00000000000E+00  0.00000000000E+00  0.68798874327E+03  0.68798874329E+03  0.50400001928E-02 0. -1.
       -1   -1    0    0    0  501  0.00000000000E+00  0.00000000000E+00 -0.77626088451E+03  0.77626088452E+03  0.50400001928E-02 0.  1.
    10030    2    1    2    0    0  0.00000000000E+00  0.00000000000E+00 -0.88272141234E+02  0.14642496278E+04  0.14615864674E+04 0.  0.
        4    1    3    3  502    0  0.24644449020E+03 -0.52749184565E+03  0.39834120909E+03  0.70545011570E+03  0.12699999809E+01 0. -1.
       -4    1    3    3    0  502 -0.24644449020E+03  0.52749184565E+03 -0.48661335032E+03  0.75879951212E+03  0.12699999809E+01 0.  1.
</event>
<event>
 5   0  0.2150197E-03  0.1499904E+04  0.7818609E-02  0.8884517E-01
        2   -1    0    0  501    0  0.00000000000E+00  0.00000000000E+00  0.16449555668E+04  0.16449555668E+04  0.25500000920E-02 0. -1.
       -2   -1    0    0    0  501  0.00000000000E+00  0.00000000000E+00 -0.34191076089E+03  0.34191076090E+03  0.25500000920E-02 0.  1.
    10030    2    1    2    0    0  0.00000000000E+00  0.00000000000E+00  0.13030448059E+04  0.19868663277E+04  0.14999040096E+04 0.  0.
        3    1    3    3  502    0  0.86931643747E+01 -0.74982315651E+03  0.63715350147E+03  0.98400961976E+03  0.10100000352E+00 0.  1.
       -3    1    3    3    0  502 -0.86931643747E+01  0.74982315651E+03  0.66589130446E+03  0.10028567080E+04  0.10100000352E+00 0. -1.
</event>
<event>
 5   0  0.1993623E-03  0.1401151E+04  0.7818609E-02  0.8952986E-01
       -2   -1    0    0    0  501  0.00000000000E+00  0.00000000000E+00  0.43356769561E+03  0.43356769562E+03  0.25500000920E-02 0.  1.
        2   -1    0    0  501    0  0.00000000000E+00  0.00000000000E+00 -0.11320163428E+04  0.11320163428E+04  0.25500000920E-02 0. -1.
    10030    2    1    2    0    0  0.00000000000E+00  0.00000000000E+00 -0.69844864716E+03  0.15655840384E+04  0.14011505517E+04 0.  0.
        4    1    3    3  502    0  0.81754893337E+02 -0.70174789313E+02 -0.11227024870E+04  0.11278611842E+04  0.12699999809E+01 0. -1.
       -4    1    3    3    0  502 -0.81754893337E+02  0.70174789313E+02  0.42425383979E+03  0.43772285423E+03  0.12699999809E+01 0.  1.
</event>
<event>
 5   0  0.1993623E-03  0.1499154E+04  0.7818609E-02  0.8885016E-01
       -2   -1    0    0    0  501  0.00000000000E+00  0.00000000000E+00  0.12186756388E+04  0.12186756388E+04  0.25500000920E-02 0.  1.
        2   -1    0    0  501    0  0.00000000000E+00  0.00000000000E+00 -0.46104612836E+03  0.46104612837E+03  0.25500000920E-02 0. -1.
    10030    2    1    2    0    0  0.00000000000E+00  0.00000000000E+00  0.75762951042E+03  0.16797217671E+04  0.14991540081E+04 0.  0.
        4    1    3    3  502    0 -0.11374337292E+01 -0.54955279059E+03  0.94997270799E+03  0.10974786204E+04  0.12699999809E+01 0.  1.
       -4    1    3    3    0  502  0.11374337292E+01  0.54955279059E+03 -0.19234319756E+03  0.58224314676E+03  0.12699999809E+01 0. -1.
</event>
<event>
 5   0  0.1078787E-03  0.1505761E+04  0.7818609E-02  0.8880631E-01
       -1   -1    0    0    0  501  0.00000000000E+00  0.00000000000E+00  0.23011592827E+03  0.23011592832E+03  0.50400001928E-02 0.  1.
        1   -1    0    0  501    0  0.00000000000E+00  0.00000000000E+00 -0.24632333270E+04  0.24632333270E+04  0.50400001928E-02 0. -1.
    10030    2    1    2    0    0  0.00000000000E+00  0.00000000000E+00 -0.22331173987E+04  0.26933492553E+04  0.15057612343E+04 0.  0.
        5    1    3    3  502    0 -0.65525753640E+03  0.92953093896E+02 -0.47460761105E+03  0.81441831459E+03  0.46999998093E+01 0.  1.
       -5    1    3    3    0  502  0.65525753640E+03 -0.92953093896E+02 -0.17585097876E+04  0.18789309407E+04  0.46999998093E+01 0. -1.
</event>
<event>
 5   0  0.1087761E-03  0.1446224E+04  0.7818609E-02  0.8921023E-01
       -1   -1    0    0    0  501  0.00000000000E+00  0.00000000000E+00  0.52070649105E+03  0.52070649108E+03  0.50400001928E-02 0. -1.
        1   -1    0    0  501    0  0.00000000000E+00  0.00000000000E+00 -0.10041949825E+04  0.10041949825E+04  0.50400001928E-02 0.  1.
    10030    2    1    2    0    0  0.00000000000E+00  0.00000000000E+00 -0.48348849148E+03  0.15249014736E+04  0.14462238357E+04 0.  0.
        3    1    3    3  502    0  0.55275724362E+03  0.89491289825E+02  0.24068542686E+03  0.60949056287E+03  0.10100000352E+00 0. -1.
       -3    1    3    3    0  502 -0.55275724362E+03 -0.89491289825E+02 -0.72417391833E+03  0.91541091075E+03  0.10100000352E+00 0.  1.
</event>
<event>
 5   0  0.1993623E-03  0.1175810E+04  0.7818609E-02  0.9134298E-01
       -2   -1    0    0    0  501  0.00000000000E+00  0.00000000000E+00  0.19356892654E+03  0.19356892656E+03  0.25500000920E-02 0. -1.
        2   -1    0    0  501    0  0.00000000000E+00  0.00000000000E+00 -0.17855764603E+04  0.17855764603E+04  0.25500000920E-02 0.  1.
    10030    2    1    2    0    0  0.00000000000E+00  0.00000000000E+00 -0.15920075338E+04  0.19791453869E+04  0.11758097103E+04 0.  0.
        4    1    3    3  502    0 -0.19866058952E+03  0.41696519669E+03 -0.18375493518E+03  0.49708499694E+03  0.12699999809E+01 0. -1.
       -4    1    3    3    0  502  0.19866058952E+03 -0.41696519669E+03 -0.14082525986E+04  0.14820603899E+04  0.12699999809E+01 0.  1.
</event>
<event>
 5   0  0.2111533E-03  0.1462325E+04  0.7818609E-02  0.8909900E-01
       -2   -1    0    0    0  501  0.00000000000E+00  0.00000000000E+00  0.21816440564E+03  0.21816440566E+03  0.25500000920E-02 0. -1.
        2   -1    0    0  501    0  0.00000000000E+00  0.00000000000E+00 -0.24504405631E+04  0.24504405631E+04  0.25500000920E-02 0.  1.
    10030    2    1    2    0    0  0.00000000000E+00  0.00000000000E+00 -0.22322761574E+04  0.26686049687E+04  0.14623254207E+04 0.  0.
        5    1    3    3  502    0 -0.40260182120E+03  0.22451426226E+03 -0.80463189910E+02  0.46796505780E+03  0.46999998093E+01 0. -1.
       -5    1    3    3    0  502  0.40260182120E+03 -0.22451426226E+03 -0.21518129675E+04  0.22006399109E+04  0.46999998093E+01 0.  1.
</event>
<event>
 5   0  0.1078787E-03  0.1470830E+04  0.7818609E-02  0.8904086E-01
       -1   -1    0    0    0  501  0.00000000000E+00  0.00000000000E+00  0.49925890529E+03  0.49925890532E+03  0.50400001928E-02 0.  1.
        1   -1    0    0  501    0  0.00000000000E+00  0.00000000000E+00 -0.10832753495E+04  0.10832753495E+04  0.50400001928E-02 0. -1.
    10030    2    1    2    0    0  0.00000000000E+00  0.00000000000E+00 -0.58401644420E+03  0.15825342548E+04  0.14708295145E+04 0.  0.
        5    1    3    3  502    0  0.27265718731E+03  0.39644394681E+03 -0.89039621537E+03  0.10120954773E+04  0.46999998093E+01 0. -1.
       -5    1    3    3    0  502 -0.27265718731E+03 -0.39644394681E+03  0.30637977117E+03  0.57043877755E+03  0.46999998093E+01 0.  1.
</event>
<event>
 5   0  0.1087761E-03  0.1373727E+04  0.7818609E-02  0.8973059E-01
        1   -1    0    0  501    0  0.00000000000E+00  0.00000000000E+00  0.77731542475E+03  0.77731542477E+03  0.50400001928E-02 0.  1.
       -1   -1    0    0    0  501  0.00000000000E+00  0.00000000000E+00 -0.60693722149E+03  0.60693722151E+03  0.50400001928E-02 0. -1.
    10030    2    1    2    0    0  0.00000000000E+00  0.00000000000E+00  0.17037820326E+03  0.13842526463E+04  0.13737272861E+04 0.  0.
        3    1    3    3  502    0 -0.66266953335E+03 -0.31017415126E+02  0.26456611923E+03  0.71420461502E+03  0.10100000352E+00 0.  1.
       -3    1    3    3    0  502  0.66266953335E+03  0.31017415126E+02 -0.94187915965E+02  0.67004803125E+03  0.10100000352E+00 0. -1.
</event>
<event>
 5   0  0.1961098E-03  0.1535415E+04  0.7818609E-02  0.8861238E-01
        2   -1    0    0  501    0  0.00000000000E+00  0.00000000000E+00  0.60782018111E+03  0.60782018112E+03  0.25500000920E-02 0.  1.
       -2   -1    0    0    0  501  0.00000000000E+00  0.00000000000E+00 -0.96965276116E+03  0.96965276116E+03  0.25500000920E-02 0. -1.
    10030    2    1    2    0    0  0.00000000000E+00  0.00000000000E+00 -0.36183258005E+03  0.15774729423E+04  0.15354146240E+04 0.  0.
        2    1    3    3  502    0  0.13761392859E+03  0.23402846752E+03  0.55685401065E+03  0.61951053755E+03  0.25500000920E-02 0.  1.
       -2    1    3    3    0  502 -0.13761392859E+03 -0.23402846752E+03 -0.91868659069E+03  0.95796240473E+03  0.25500000920E-02 0. -1.
</event>
<event>
 5   0  0.2111533E-03  0.1495987E+04  0.7818609E-02  0.8887126E-01
        2   -1    0    0  501    0  0.00000000000E+00  0.00000000000E+00  0.18828360883E+04  0.18828360883E+04  0.25500000920E-02 0.  1.
       -2   -1    0    0    0  501  0.00000000000E+00  0.00000000000E+00 -0.29715486662E+03  0.29715486663E+03  0.25500000920E-02 0. -1.
    10030    2    1    2    0    0  0.00000000000E+00  0.00000000000E+00  0.15856812217E+04  0.21799909549E+04  0.14959865062E+04 0.  0.
        5    1    3    3  502    0 -0.57844781464E+03 -0.15884312997E+03  0.14439433067E+04  0.15635943774E+04  0.46999998093E+01 0.  1.
       -5    1    3    3    0  502  0.57844781464E+03  0.15884312997E+03  0.14173791498E+03  0.61639657749E+03  0.46999998093E+01 0. -1.
</event>
<event>
 5   0  0.2094566E-03  0.1488264E+04  0.7818609E-02  0.8892295E-01
        2   -1    0    0  501    0  0.00000000000E+00  0.00000000000E+00  0.48173425253E+03  0.48173425253E+03  0.25500000920E-02 0.  1.
       -2   -1    0    0    0  501  0.00000000000E+00  0.00000000000E+00 -0.11494555081E+04  0.11494555081E+04  0.25500000920E-02 0. -1.
    10030    2    1    2    0    0  0.00000000000E+00  0.00000000000E+00 -0.66772125555E+03  0.16311897606E+04  0.14882635385E+04 0.  0.
        1    1    3    3  502    0 -0.25773124523E+03  0.33370359753E+03  0.33816971615E+03  0.54050184340E+03  0.50400001928E-02 0.  1.
       -1    1    3    3    0  502  0.25773124523E+03 -0.33370359753E+03 -0.10058909717E+04  0.10906879172E+04  0.50400001928E-02 0. -1.
</event>
<event>
 5   0  0.1993623E-03  0.1501618E+04  0.7818609E-02  0.8883378E-01
       -2   -1    0    0    0  501  0.00000000000E+00  0.00000000000E+00  0.84469128518E+03  0.84469128518E+03  0.25500000920E-02 0. -1.
        2   -1    0    0  501    0  0.00000000000E+00  0.00000000000E+00 -0.66736097074E+03  0.66736097075E+03  0.25500000920E-02 0.  1.
    10030    2    1    2    0    0  0.00000000000E+00  0.00000000000E+00  0.17733031443E+03  0.15120522559E+04  0.15016177890E+04 0.  0.
        4    1    3    3  502    0  0.55234132483E+03  0.47808812297E+03 -0.85927080774E+02  0.73555031680E+03  0.12699999809E+01 0. -1.
       -4    1    3    3    0  502 -0.55234132483E+03 -0.47808812297E+03  0.26325739521E+03  0.77650193913E+03  0.12699999809E+01 0.  1.
</event>
<event>
 5   0  0.2111533E-03  0.1480071E+04  0.7818609E-02  0.8897815E-01
        2   -1    0    0  501    0  0.00000000000E+00  0.00000000000E+00  0.13280019934E+04  0.13280019934E+04  0.25500000920E-02 0. -1.
       -2   -1    0    0    0  501  0.00000000000E+00  0.00000000000E+00 -0.41238821192E+03  0.41238821192E+03  0.25500000920E-02 0.  1.
    10030    2    1    2    0    0  0.00000000000E+00  0.00000000000E+00  0.91561378153E+03  0.17403902054E+04  0.14800707652E+04 0.  0.
        5    1    3    3  502    0  0.72961727625E+03 -0.99800157209E+02  0.54364503911E+03  0.91535428099E+03  0.46999998093E+01 0.  1.
       -5    1    3    3    0  502 -0.72961727625E+03  0.99800157209E+02  0.37196874241E+03  0.82503592438E+03  0.46999998093E+01 0. -1.
</event>
<event>
 5   0  0.2150197E-03  0.1412943E+04  0.7818609E-02  0.8944503E-01
        2   -1    0    0  501    0  0.00000000000E+00  0.00000000000E+00  0.10391381943E+04  0.10391381943E+04  0.25500000920E-02 0.  1.
       -2   -1    0    0    0  501  0.00000000000E+00  0.00000000000E+00 -0.48030374818E+03  0.48030374819E+03  0.25500000920E-02 0. -1.
    10030    2    1    2    0    0  0.00000000000E+00  0.00000000000E+00  0.55883444608E+03  0.15194419425E+04  0.14129429848E+04 0.  0.
        3    1    3    3  502    0  0.32073387727E+03  0.40529785041E+03 -0.23851278060E+03  0.56923187217E+03  0.10100000352E+00 0. -1.
       -3    1    3    3    0  502 -0.32073387727E+03 -0.40529785041E+03  0.79734722669E+03  0.95021007029E+03  0.10100000352E+00 0.  1.
</event>
<event>
 5   0  0.1078018E-03  0.1510834E+04  0.7818609E-02  0.8877280E-01
        1   -1    0    0  501    0  0.00000000000E+00  0.00000000000E+00  0.86063589431E+03  0.86063589433E+03  0.50400001928E-02 0.  1.
       -1   -1    0    0    0  501  0.00000000000E+00  0.00000000000E+00 -0.66306170662E+03  0.66306170664E+03  0.50400001928E-02 0. -1.
    10030    2    1    2    0    0  0.00000000000E+00  0.00000000000E+00  0.19757418769E+03  0.15236976010E+04  0.15108338160E+04 0.  0.
        4    1    3    3  502    0 -0.47012834942E+03 -0.21989315645E+03  0.65234980181E+03  0.83362793979E+03  0.12699999809E+01 0.  1.
       -4    1    3    3    0  502  0.47012834942E+03  0.21989315645E+03 -0.45477561412E+03  0.69006966118E+03  0.12699999809E+01 0. -1.
</event>
<event>
 5   0  0.7468375E-04  0.1495332E+04  0.7818609E-02  0.8887563E-01
       -4   -1    0    0    0  501  0.00000000000E+00  0.00000000000E+00  0.74067589167E+03  0.74067698047E+03  0.12699999809E+01 0.  1.
        4   -1    0    0  501    0  0.00000000000E+00  0.00000000000E+00 -0.75472001413E+03  0.75472108267E+03  0.12699999809E+01 0. -1.
    10030    2    1    2    0    0  0.00000000000E+00  0.00000000000E+00 -0.14044122458E+02  0.14953980631E+04  0.14953321136E+04 0.  0.
        2    1    3    3  502    0  0.26599408526E+03  0.41301386332E+03  0.55662609968E+03  0.74240549536E+03  0.25500000920E-02 0.  1.
       -2    1    3    3    0  502 -0.26599408526E+03 -0.41301386332E+03 -0.57067022214E+03  0.75299256778E+03  0.25500000920E-02 0. -1.
</event>
<event>
 5   0  0.1078787E-03  0.1493506E+04  0.7818609E-02  0.8888783E-01
        1   -1    0    0  501    0  0.00000000000E+00  0.00000000000E+00  0.13918386874E+04  0.13918386874E+04  0.50400001928E-02 0. -1.
       -1   -1    0    0    0  501  0.00000000000E+00  0.00000000000E+00 -0.40064965219E+03  0.40064965222E+03  0.50400001928E-02 0.  1.
    10030    2    1    2    0    0  0.00000000000E+00  0.00000000000E+00  0.99118903516E+03  0.17924883396E+04  0.14935055220E+04 0.  0.
        5    1    3    3  502    0 -0.20438945836E+03  0.65413574259E+03  0.85152476721E+03  0.10930622762E+04  0.46999998093E+01 0.  1.
       -5    1    3    3    0  502  0.20438945836E+03 -0.65413574259E+03  0.13966426795E+03  0.69942606340E+03  0.46999998093E+01 0. -1.
</event>
<event>
 5   0  0.1078787E-03  0.1473101E+04  0.7818609E-02  0.8902540E-01
       -1   -1    0    0    0  501  0.00000000000E+00  0.00000000000E+00  0.11771145979E+04  0.11771145979E+04  0.50400001928E-02 0.  1.
        1   -1    0    0  501    0  0.00000000000E+00  0.00000000000E+00 -0.46087865191E+03  0.46087865194E+03  0.50400001928E-02 0. -1.
    10030    2    1    2    0    0  0.00000000000E+00  0.00000000000E+00  0.71623594600E+03  0.16379932499E+04  0.14731014752E+04 0.  0.
        5    1    3    3  502    0  0.34345604355E+02 -0.72488574898E+03  0.49808904939E+03  0.88020097746E+03  0.46999998093E+01 0.  1.
       -5    1    3    3    0  502 -0.34345604355E+02  0.72488574898E+03  0.21814689661E+03  0.75779227240E+03  0.46999998093E+01 0. -1.
</event>
<event>
 5   0  0.1078787E-03  0.1616303E+04  0.7818609E-02  0.8810594E-01
       -1   -1    0    0    0  501  0.00000000000E+00  0.00000000000E+00  0.50637493704E+03  0.50637493707E+03  0.50400001928E-02 0.  1.
        1   -1    0    0  501    0  0.00000000000E+00  0.00000000000E+00 -0.12897737954E+04  0.12897737955E+04  0.50400001928E-02 0. -1.
    10030    2    1    2    0    0  0.00000000000E+00  0.00000000000E+00 -0.78339885840E+03  0.17961487325E+04  0.16163033434E+04 0.  0.
        5    1    3    3  502    0 -0.38410535258E+03  0.65859938074E+03 -0.68946362667E+03  0.10279456448E+04  0.46999998093E+01 0. -1.
       -5    1    3    3    0  502  0.38410535258E+03 -0.65859938074E+03 -0.93935231730E+02  0.76820308770E+03  0.46999998093E+01 0.  1.
</event>
<event>
 5   0  0.1077140E-03  0.7586331E+03  0.7818609E-02  0.9621903E-01
        1   -1    0    0  501    0  0.00000000000E+00  0.00000000000E+00  0.72311803142E+03  0.72311803144E+03  0.50400001928E-02 0.  1.
       -1   -1    0    0    0  501  0.00000000000E+00  0.00000000000E+00 -0.19897313135E+03  0.19897313141E+03  0.50400001928E-02 0. -1.
    10030    2    1    2    0    0  0.00000000000E+00  0.00000000000E+00  0.52414490008E+03  0.92209116285E+03  0.75863313685E+03 0.  0.
        1    1    3    3  502    0  0.27716945604E+03  0.54499988504E+02 -0.45629381808E+02  0.28613842213E+03  0.50400001928E-02 0. -1.
       -1    1    3    3    0  502 -0.27716945604E+03 -0.54499988504E+02  0.56977428189E+03  0.63595274072E+03  0.50400001928E-02 0.  1.
</event>
<event>
 5   0  0.2150197E-03  0.1006707E+04  0.7818609E-02  0.9301219E-01
       -2   -1    0    0    0  501  0.00000000000E+00  0.00000000000E+00  0.21432746819E+03  0.21432746820E+03  0.25500000920E-02 0.  1.
        2   -1    0    0  501    0  0.00000000000E+00  0.00000000000E+00 -0.11821377664E+04  0.11821377664E+04  0.25500000920E-02 0. -1.
    10030    2    1    2    0    0  0.00000000000E+00  0.00000000000E+00 -0.96781029817E+03  0.13964652346E+04  0.10067066991E+04 0.  0.
        3    1    3    3  502    0  0.61678395147E+01  0.27226078616E+03  0.10330953494E+03  0.29126765720E+03  0.10100000352E+00 0.  1.
       -3    1    3    3    0  502 -0.61678395147E+01 -0.27226078616E+03 -0.10711198331E+04  0.11051975774E+04  0.10100000352E+00 0. -1.
</event>
<event>
 5   0  0.1069697E-03  0.1434018E+04  0.7818609E-02  0.8929556E-01
        1   -1    0    0  501    0  0.00000000000E+00  0.00000000000E+00  0.65138458424E+03  0.65138458426E+03  0.50400001928E-02 0.  1.
       -1   -1    0    0    0  501  0.00000000000E+00  0.00000000000E+00 -0.78924507818E+03  0.78924507819E+03  0.50400001928E-02 0. -1.
    10030    2    1    2    0    0  0.00000000000E+00  0.00000000000E+00 -0.13786049394E+03  0.14406296624E+04  0.14340182386E+04 0.  0.
        2    1    3    3  502    0  0.13771685778E+03  0.67497652923E+03  0.13084034068E+03  0.70119786272E+03  0.25500000920E-02 0.  1.
       -2    1    3    3    0  502 -0.13771685778E+03 -0.67497652923E+03 -0.26870083463E+03  0.73943179973E+03  0.25500000920E-02 0. -1.
</event>
<event>
 5   0  0.1078018E-03  0.1574477E+04  0.7818609E-02  0.8836383E-01
       -1   -1    0    0    0  501  0.00000000000E+00  0.00000000000E+00  0.44503377615E+03  0.44503377618E+03  0.50400001928E-02 0.  1.
        1   -1    0    0  501    0  0.00000000000E+00  0.00000000000E+00 -0.13925776282E+04  0.13925776282E+04  0.50400001928E-02 0. -1.
    10030    2    1    2    0    0  0.00000000000E+00  0.00000000000E+00 -0.94754385208E+03  0.18376114044E+04  0.15744765232E+04 0.  0.
        4    1    3    3  502    0 -0.12820117989E+03 -0.65313876371E+03  0.16860514826E+02  0.66581654909E+03  0.12699999809E+01 0.  1.
       -4    1    3    3    0  502  0.12820117989E+03  0.65313876371E+03 -0.96440436690E+03  0.11717948553E+04  0.12699999809E+01 0. -1.
</event>
<event>
 5   0  0.1961098E-03  0.1506126E+04  0.7818609E-02  0.8880389E-01
        2   -1    0    0  501    0  0.00000000000E+00  0.00000000000E+00  0.72858238193E+03  0.72858238193E+03  0.25500000920E-02 0.  1.
       -2   -1    0    0    0  501  0.00000000000E+00  0.00000000000E+00 -0.77836654849E+03  0.77836654850E+03  0.25500000920E-02 0. -1.
    10030    2    1    2    0    0  0.00000000000E+00  0.00000000000E+00 -0.49784166567E+02  0.15069489304E+04  0.15061263611E+04 0.  0.
        2    1    3    3  502    0  0.58076577213E+03 -0.30033151000E+03 -0.39874874047E+03  0.76582534302E+03  0.25500000920E-02 0. -1.
       -2    1    3    3    0  502 -0.58076577213E+03  0.30033151000E+03  0.34896457390E+03  0.74112358741E+03  0.25500000920E-02 0.  1.
</event>
<event>
 5   0  0.1961098E-03  0.1509227E+04  0.7818609E-02  0.8878340E-01
        2   -1    0    0  501    0  0.00000000000E+00  0.00000000000E+00  0.63347416914E+03  0.63347416914E+03  0.25500000920E-02 0. -1.
       -2   -1    0    0    0  501  0.00000000000E+00  0.00000000000E+00 -0.89891843414E+03  0.89891843414E+03  0.25500000920E-02 0.  1.
    10030    2    1    2    0    0  0.00000000000E+00  0.00000000000E+00 -0.26544426500E+03  0.15323926033E+04  0.15092270978E+04 0.  0.
        2    1    3    3  502    0  0.54450039134E+03 -0.38805652833E+03 -0.48791020039E+03  0.82772272471E+03  0.25500000920E-02 0.  1.
       -2    1    3    3    0  502 -0.54450039134E+03  0.38805652833E+03  0.22246593539E+03  0.70466987857E+03  0.25500000920E-02 0. -1.
</event>
<event>
 5   0  0.1077140E-03  0.1508054E+04  0.7818609E-02  0.8879115E-01
       -1   -1    0    0    0  501  0.00000000000E+00  0.00000000000E+00  0.38621491199E+03  0.38621491202E+03  0.50400001928E-02 0. -1.
        1   -1    0    0  501    0  0.00000000000E+00  0.00000000000E+00 -0.14721247810E+04  0.14721247811E+04  0.50400001928E-02 0.  1.
    10030    2    1    2    0    0  0.00000000000E+00  0.00000000000E+00 -0.10859098691E+04  0.18583396931E+04  0.15080537693E+04 0.  0.
        1    1    3    3  502    0  0.17510728650E+03 -0.40057327489E+03  0.21410346207E+03  0.48678722543E+03  0.50400001928E-02 0. -1.
       -1    1    3    3    0  502 -0.17510728650E+03  0.40057327489E+03 -0.13000133311E+04  0.13715524676E+04  0.50400001928E-02 0.  1.
</event>
<event>
 5   0  0.2111533E-03  0.1542765E+04  0.7818609E-02  0.8856502E-01
       -2   -1    0    0    0  501  0.00000000000E+00  0.00000000000E+00  0.98946774960E+03  0.98946774960E+03  0.25500000920E-02 0. -1.
        2   -1    0    0  501    0  0.00000000000E+00  0.00000000000E+00 -0.60136455739E+03  0.60136455740E+03  0.25500000920E-02 0.  1.
    10030    2    1    2    0    0  0.00000000000E+00  0.00000000000E+00  0.38810319221E+03  0.15908323070E+04  0.15427648366E+04 0.  0.
        5    1    3    3  502    0  0.40337065163E+03 -0.53583647799E+03 -0.19884499730E+03  0.69956417625E+03  0.46999998093E+01 0.  1.
       -5    1    3    3    0  502 -0.40337065163E+03  0.53583647799E+03  0.58694818951E+03  0.89126813076E+03  0.46999998093E+01 0. -1.
</event>
<event>
 5   0  0.1087761E-03  0.1282599E+04  0.7818609E-02  0.9043479E-01
        1   -1    0    0  501    0  0.00000000000E+00  0.00000000000E+00  0.13999584881E+04  0.13999584881E+04  0.50400001928E-02 0. -1.
       -1   -1    0    0    0  501  0.00000000000E+00  0.00000000000E+00 -0.29376938352E+03  0.29376938357E+03  0.50400001928E-02 0.  1.
    10030    2    1    2    0    0  0.00000000000E+00  0.00000000000E+00  0.11061891046E+04  0.16937278717E+04  0.12825988337E+04 0.  0.
        3    1    3    3  502    0  0.92562826638E+02  0.28074487470E+03  0.13046212905E+04  0.13376928957E+04  0.10100000352E+00 0. -1.
       -3    1    3    3    0  502 -0.92562826638E+02 -0.28074487470E+03 -0.19843218585E+03  0.35603497599E+03  0.10100000352E+00 0.  1.
</event>
<event>
 5   0  0.1993623E-03  0.1516340E+04  0.7818609E-02  0.8873659E-01
        2   -1    0    0  501    0  0.00000000000E+00  0.00000000000E+00  0.10599120381E+04  0.10599120381E+04  0.25500000920E-02 0. -1.
       -2   -1    0    0    0  501  0.00000000000E+00  0.00000000000E+00 -0.54232989320E+03  0.54232989321E+03  0.25500000920E-02 0.  1.
    10030    2    1    2    0    0  0.00000000000E+00  0.00000000000E+00  0.51758214493E+03  0.16022419313E+04  0.15163403080E+04 0.  0.
        4    1    3    3  502    0 -0.18441383755E+03  0.24332208504E+03 -0.47450182614E+03  0.56424081424E+03  0.12699999809E+01 0.  1.
       -4    1    3    3    0  502  0.18441383755E+03 -0.24332208504E+03  0.99208397107E+03  0.10380011171E+04  0.12699999809E+01 0. -1.
</event>
<event>
 5   0  0.1069697E-03  0.1491054E+04  0.7818609E-02  0.8890424E-01
       -1   -1    0    0    0  501  0.00000000000E+00  0.00000000000E+00  0.64615378046E+03  0.64615378048E+03  0.50400001928E-02 0. -1.
        1   -1    0    0  501    0  0.00000000000E+00  0.00000000000E+00 -0.86018257965E+03  0.86018257966E+03  0.50400001928E-02 0.  1.
    10030    2    1    2    0    0  0.00000000000E+00  0.00000000000E+00 -0.21402879919E+03  0.15063363601E+04  0.14910536218E+04 0.  0.
        2    1    3    3  502    0 -0.59175340790E+03 -0.39504149664E+03 -0.33196309225E+03  0.78513016402E+03  0.25500000920E-02 0.  1.
       -2    1    3    3    0  502  0.59175340790E+03  0.39504149664E+03  0.11793429307E+03  0.72120619612E+03  0.25500000920E-02 0. -1.
</event>
<event>
 5   0  0.1087761E-03  0.1483352E+04  0.7818609E-02  0.8895600E-01
        1   -1    0    0  501    0  0.00000000000E+00  0.00000000000E+00  0.14164852321E+04  0.14164852321E+04  0.50400001928E-02 0. -1.
       -1   -1    0    0    0  501  0.00000000000E+00  0.00000000000E+00 -0.38834391422E+03  0.38834391425E+03  0.50400001928E-02 0.  1.
    10030    2    1    2    0    0  0.00000000000E+00  0.00000000000E+00  0.10281413179E+04  0.18048291463E+04  0.14833521760E+04 0.  0.
        3    1    3    3  502    0 -0.33820496129E+03  0.38194984161E+03 -0.14094600899E+03  0.52927692657E+03  0.10100000352E+00 0.  1.
       -3    1    3    3    0  502  0.33820496129E+03 -0.38194984161E+03  0.11690873268E+04  0.12755522198E+04  0.10100000352E+00 0. -1.
</event>
<event>
 5   0  0.1077140E-03  0.1492346E+04  0.7818609E-02  0.8889559E-01
       -1   -1    0    0    0  501  0.00000000000E+00  0.00000000000E+00  0.70791971422E+03  0.70791971424E+03  0.50400001928E-02 0. -1.
        1   -1    0    0  501    0  0.00000000000E+00  0.00000000000E+00 -0.78649289254E+03  0.78649289256E+03  0.50400001928E-02 0.  1.
    10030    2    1    2    0    0  0.00000000000E+00  0.00000000000E+00 -0.78573178318E+02  0.14944126068E+04  0.14923455682E+04 0.  0.
        1    1    3    3  502    0 -0.27618910536E+03  0.24966162844E+03  0.60826392147E+03  0.71315941333E+03  0.50400001928E-02 0. -1.
       -1    1    3    3    0  502  0.27618910536E+03 -0.24966162844E+03 -0.68683709979E+03  0.78125319347E+03  0.50400001928E-02 0.  1.
</event>
<event>
 5   0  0.1087761E-03  0.1717974E+04  0.7818609E-02  0.8751179E-01
        1   -1    0    0  501    0  0.00000000000E+00  0.00000000000E+00  0.78264392350E+03  0.78264392351E+03  0.50400001928E-02 0.  1.
       -1   -1    0    0    0  501  0.00000000000E+00  0.00000000000E+00 -0.94277665383E+03  0.94277665384E+03  0.50400001928E-02 0. -1.
    10030    2    1    2    0    0  0.00000000000E+00  0.00000000000E+00 -0.16013273033E+03  0.17254205774E+04  0.17179737127E+04 0.  0.
        3    1    3    3  502    0 -0.16919917449E+03 -0.15713462424E+03  0.75088858675E+03  0.78559107092E+03  0.10100000352E+00 0.  1.
       -3    1    3    3    0  502  0.16919917449E+03  0.15713462424E+03 -0.91102131708E+03  0.93982950644E+03  0.10100000352E+00 0. -1.
</event>
<event>
 5   0  0.1993623E-03  0.1633741E+04  0.7818609E-02  0.8800084E-01
       -2   -1    0    0    0  501  0.00000000000E+00  0.00000000000E+00  0.36051520855E+03  0.36051520856E+03  0.25500000920E-02 0.  1.
        2   -1    0    0  501    0  0.00000000000E+00  0.00000000000E+00 -0.18508998302E+04  0.18508998302E+04  0.25500000920E-02 0. -1.
    10030    2    1    2    0    0  0.00000000000E+00  0.00000000000E+00 -0.14903846217E+04  0.22114150388E+04  0.16337411525E+04 0.  0.
        4    1    3    3  502    0 -0.57312829872E+03 -0.58044357777E+03 -0.80396260310E+03  0.11453157966E+04  0.12699999809E+01 0.  1.
       -4    1    3    3    0  502  0.57312829872E+03  0.58044357777E+03 -0.68642201856E+03  0.10660992422E+04  0.12699999809E+01 0. -1.
</event>
<event>
 5   0  0.2094566E-03  0.1484117E+04  0.7818609E-02  0.8895084E-01
       -2   -1    0    0    0  501  0.00000000000E+00  0.00000000000E+00  0.38189868042E+03  0.38189868043E+03  0.25500000920E-02 0.  1.
        2   -1    0    0  501    0  0.00000000000E+00  0.00000000000E+00 -0.14418766940E+04  0.14418766940E+04  0.25500000920E-02 0. -1.
    10030    2    1    2    0    0  0.00000000000E+00  0.00000000000E+00 -0.10599780136E+04  0.18237753745E+04  0.14841169857E+04 0.  0.
        1    1    3    3  502    0  0.63439707299E+03 -0.12099516809E+03 -0.80905277778E+02  0.65088028155E+03  0.50400001928E-02 0.  1.
       -1    1    3    3    0  502 -0.63439707299E+03  0.12099516809E+03 -0.97907273584E+03  0.11728950929E+04  0.50400001928E-02 0. -1.
</event>
<event>
 5   0  0.1069697E-03  0.1440784E+04  0.7818609E-02  0.8924815E-01
        1   -1    0    0  501    0  0.00000000000E+00  0.00000000000E+00  0.60190893424E+03  0.60190893427E+03  0.50400001928E-02 0. -1.
       -1   -1    0    0    0  501  0.00000000000E+00  0.00000000000E+00 -0.86219791497E+03  0.86219791498E+03  0.50400001928E-02 0.  1.
    10030    2    1    2    0    0  0.00000000000E+00  0.00000000000E+00 -0.26028898072E+03  0.14641068492E+04  0.14407839923E+04 0.  0.
        2    1    3    3  502    0  0.33818329332E+03  0.41297777479E+02 -0.77515646688E+03  0.84672368247E+03  0.25500000920E-02 0.  1.
       -2    1    3    3    0  502 -0.33818329332E+03 -0.41297777479E+02  0.51486748616E+03  0.61738316677E+03  0.25500000920E-02 0. -1.
</event>
<event>
 5   0  0.1069697E-03  0.1595105E+04  0.7818609E-02  0.8823561E-01
       -1   -1    0    0    0  501  0.00000000000E+00  0.00000000000E+00  0.52037546962E+03  0.52037546964E+03  0.50400001928E-02 0. -1.
        1   -1    0    0  501    0  0.00000000000E+00  0.00000000000E+00 -0.12223668789E+04  0.12223668789E+04  0.50400001928E-02 0.  1.
    10030    2    1    2    0    0  0.00000000000E+00  0.00000000000E+00 -0.70199140932E+03  0.17427423486E+04  0.15951046846E+04 0.  0.
        2    1    3    3  502    0  0.76413212515E+03 -0.15821740201E+03 -0.53104921091E+03  0.94389825479E+03  0.25500000920E-02 0.  1.
       -2    1    3    3    0  502 -0.76413212515E+03  0.15821740201E+03 -0.17094219841E+03  0.79884409379E+03  0.25500000920E-02 0. -1.
</event>
<event>
 5   0  0.7468375E-04  0.1482936E+04  0.7818609E-02  0.8895880E-01
       -3   -1    0    0    0  501  0.00000000000E+00  0.00000000000E+00  0.64112374427E+03  0.64112375223E+03  0.10100000352E+00 0.  1.
        3   -1    0    0  501    0  0.00000000000E+00  0.00000000000E+00 -0.85751772837E+03  0.85751773431E+03  0.10100000352E+00 0. -1.
    10030    2    1    2    0    0  0.00000000000E+00  0.00000000000E+00 -0.21639398410E+03  0.14986414865E+04  0.14829362592E+04 0.  0.
        4    1    3    3  502    0  0.68749615336E+03 -0.16452166316E+03 -0.33429625924E+03  0.78196799191E+03  0.12699999809E+01 0. -1.
       -4    1    3    3    0  502 -0.68749615336E+03  0.16452166316E+03  0.11790227514E+03  0.71667349463E+03  0.12699999809E+01 0.  1.
</event>
<event>
 5   0  0.1993623E-03  0.1493945E+04  0.7818609E-02  0.8888489E-01
       -2   -1    0    0    0  501  0.00000000000E+00  0.00000000000E+00  0.25296181057E+03  0.25296181058E+03  0.25500000920E-02 0.  1.
        2   -1    0    0  501    0  0.00000000000E+00  0.00000000000E+00 -0.22057402104E+04  0.22057402104E+04  0.25500000920E-02 0. -1.
    10030    2    1    2    0    0  0.00000000000E+00  0.00000000000E+00 -0.19527783998E+04  0.24587020210E+04  0.14939451627E+04 0.  0.
        4    1    3    3  502    0  0.16637419518E+03 -0.24801846355E+03 -0.21032038563E+04  0.21243026162E+04  0.12699999809E+01 0. -1.
       -4    1    3    3    0  502 -0.16637419518E+03  0.24801846355E+03  0.15042545646E+03  0.33439940480E+03  0.12699999809E+01 0.  1.
</event>
<event>
 5   0  0.1087761E-03  0.1820815E+04  0.7818609E-02  0.8695308E-01
       -1   -1    0    0    0  501  0.00000000000E+00  0.00000000000E+00  0.54230193269E+03  0.54230193271E+03  0.50400001928E-02 0.  1.
        1   -1    0    0  501    0  0.00000000000E+00  0.00000000000E+00 -0.15283766015E+04  0.15283766015E+04  0.50400001928E-02 0. -1.
    10030    2    1    2    0    0  0.00000000000E+00  0.00000000000E+00 -0.98607466882E+03  0.20706785342E+04  0.18208147461E+04 0.  0.
        3    1    3    3  502    0 -0.73875661440E+02 -0.28281935954E+03 -0.14735594003E+04  0.15022721857E+04  0.10100000352E+00 0. -1.
       -3    1    3    3    0  502  0.73875661440E+02  0.28281935954E+03  0.48748473146E+03  0.56840634857E+03  0.10100000352E+00 0.  1.
</event>
<event>
 5   0  0.1993623E-03  0.1510412E+04  0.7818609E-02  0.8877558E-01
       -2   -1    0    0    0  501  0.00000000000E+00  0.00000000000E+00  0.65926251563E+03  0.65926251564E+03  0.25500000920E-02 0. -1.
        2   -1    0    0  501    0  0.00000000000E+00  0.00000000000E+00 -0.86511227847E+03  0.86511227848E+03  0.25500000920E-02 0.  1.
    10030    2    1    2    0    0  0.00000000000E+00  0.00000000000E+00 -0.20584976284E+03  0.15243747941E+04  0.15104119928E+04 0.  0.
        4    1    3    3  502    0 -0.62941843367E+02 -0.36810683604E+03 -0.76539996035E+03  0.85164724539E+03  0.12699999809E+01 0.  1.
       -4    1    3    3    0  502  0.62941843367E+02  0.36810683604E+03  0.55955019751E+03  0.67272754872E+03  0.12699999809E+01 0. -1.
</event>
<event>
 5   0  0.1087761E-03  0.1020421E+04  0.7818609E-02  0.9286426E-01
       -1   -1    0    0    0  501  0.00000000000E+00  0.00000000000E+00  0.13192720995E+04  0.13192720995E+04  0.50400001928E-02 0.  1.
        1   -1    0    0  501    0  0.00000000000E+00  0.00000000000E+00 -0.19731710755E+03  0.19731710761E+03  0.50400001928E-02 0. -1.
    10030    2    1    2    0    0  0.00000000000E+00  0.00000000000E+00  0.11219549920E+04  0.15165892071E+04  0.10204213930E+04 0.  0.
        3    1    3    3  502    0  0.87100916161E+02 -0.46371533680E+03  0.84953920299E+03  0.97176918597E+03  0.10100000352E+00 0.  1.
       -3    1    3    3    0  502 -0.87100916161E+02  0.46371533680E+03  0.27241578900E+03  0.54482002118E+03  0.10100000352E+00 0. -1.
</event>
<event>
 5   0  0.1087761E-03  0.1460855E+04  0.7818609E-02  0.8910909E-01
       -1   -1    0    0    0  501  0.00000000000E+00  0.00000000000E+00  0.57162070750E+03  0.57162070752E+03  0.50400001928E-02 0. -1.
        1   -1    0    0  501    0  0.00000000000E+00  0.00000000000E+00 -0.93335367186E+03  0.93335367187E+03  0.50400001928E-02 0.  1.
    10030    2    1    2    0    0  0.00000000000E+00  0.00000000000E+00 -0.36173296436E+03  0.15049743794E+04  0.14608549364E+04 0.  0.
        3    1    3    3  502    0  0.47982255081E+02  0.11674846193E+03  0.56029987505E+03  0.57434176267E+03  0.10100000352E+00 0. -1.
       -3    1    3    3    0  502 -0.47982255081E+02 -0.11674846193E+03 -0.92203283941E+03  0.93063261672E+03  0.10100000352E+00 0.  1.
</event>
<event>
 5   0  0.1993623E-03  0.9666011E+03  0.7818609E-02  0.9345954E-01
       -2   -1    0    0    0  501  0.00000000000E+00  0.00000000000E+00  0.17768151772E+03  0.17768151774E+03  0.25500000920E-02 0.  1.
        2   -1    0    0  501    0  0.00000000000E+00  0.00000000000E+00 -0.13145959270E+04  0.13145959270E+04  0.25500000920E-02 0. -1.
    10030    2    1    2    0    0  0.00000000000E+00  0.00000000000E+00 -0.11369144093E+04  0.14922774447E+04  0.96660105423E+03 0.  0.
        4    1    3    3  502    0  0.46634778297E+03  0.12669697315E+03 -0.57886054770E+03  0.75406466849E+03  0.12699999809E+01 0. -1.
       -4    1    3    3    0  502 -0.46634778297E+03 -0.12669697315E+03 -0.55805386158E+03  0.73821277624E+03  0.12699999809E+01 0.  1.
</event>
<event>
 5   0  0.2094566E-03  0.1469460E+04  0.7818609E-02  0.8905020E-01
        2   -1    0    0  501    0  0.00000000000E+00  0.00000000000E+00  0.53409788870E+03  0.53409788871E+03  0.25500000920E-02 0.  1.
       -2   -1    0    0    0  501  0.00000000000E+00  0.00000000000E+00 -0.10107288276E+04  0.10107288276E+04  0.25500000920E-02 0. -1.
    10030    2    1    2    0    0  0.00000000000E+00  0.00000000000E+00 -0.47663093886E+03  0.15448267163E+04  0.14694599455E+04 0.  0.
        1    1    3    3  502    0  0.11746137237E+03  0.58322699053E+03  0.21493172268E+03  0.63257137299E+03  0.50400001928E-02 0.  1.
       -1    1    3    3    0  502 -0.11746137237E+03 -0.58322699053E+03 -0.69156266154E+03  0.91225534328E+03  0.50400001928E-02 0. -1.
</event>
<event>
 5   0  0.1961098E-03  0.1505719E+04  0.7818609E-02  0.8880659E-01
        2   -1    0    0  501    0  0.00000000000E+00  0.00000000000E+00  0.11837891121E+04  0.11837891121E+04  0.25500000920E-02 0. -1.
       -2   -1    0    0    0  501  0.00000000000E+00  0.00000000000E+00 -0.47879906397E+03  0.47879906398E+03  0.25500000920E-02 0.  1.
    10030    2    1    2    0    0  0.00000000000E+00  0.00000000000E+00  0.70499004816E+03  0.16625881761E+04  0.15057185910E+04 0.  0.
        2    1    3    3  502    0  0.17417913460E+03  0.76204469509E+02 -0.45185601077E+03  0.49022377194E+03  0.25500000920E-02 0.  1.
       -2    1    3    3    0  502 -0.17417913460E+03 -0.76204469509E+02  0.11568460589E+04  0.11723644042E+04  0.25500000920E-02 0. -1.
</event>
<event>
 5   0  0.1993623E-03  0.1512529E+04  0.7818609E-02  0.8876164E-01
        2   -1    0    0  501    0  0.00000000000E+00  0.00000000000E+00  0.18453092471E+04  0.18453092471E+04  0.25500000920E-02 0.  1.
       -2   -1    0    0    0  501  0.00000000000E+00  0.00000000000E+00 -0.30994029566E+03  0.30994029567E+03  0.25500000920E-02 0. -1.
    10030    2    1    2    0    0  0.00000000000E+00  0.00000000000E+00  0.15353689514E+04  0.21552495428E+04  0.15125286029E+04 0.  0.
        4    1    3    3  502    0  0.10417723793E+03  0.74904465980E+03  0.77287745910E+03  0.10813241785E+04  0.12699999809E+01 0.  1.
       -4    1    3    3    0  502 -0.10417723793E+03 -0.74904465980E+03  0.76249149234E+03  0.10739253643E+04  0.12699999809E+01 0. -1.
</event>
<event>
 5   0  0.1077140E-03  0.1500836E+04  0.7818609E-02  0.8883897E-01
        1   -1    0    0  501    0  0.00000000000E+00  0.00000000000E+00  0.18629235832E+04  0.18629235832E+04  0.50400001928E-02 0. -1.
       -1   -1    0    0    0  501  0.00000000000E+00  0.00000000000E+00 -0.30228155343E+03  0.30228155347E+03  0.50400001928E-02 0.  1.
    10030    2    1    2    0    0  0.00000000000E+00  0.00000000000E+00  0.15606420298E+04  0.21652051367E+04  0.15008363465E+04 0.  0.
        1    1    3    3  502    0  0.32087212988E+03  0.51663239991E+03  0.14610660258E+03  0.62547190161E+03  0.50400001928E-02 0.  1.
       -1    1    3    3    0  502 -0.32087212988E+03 -0.51663239991E+03  0.14145354272E+04  0.15397332351E+04  0.50400001928E-02 0. -1.
</event>
<event>
 5   0  0.1087761E-03  0.1501773E+04  0.7818609E-02  0.8883275E-01
       -1   -1    0    0    0  501  0.00000000000E+00  0.00000000000E+00  0.84562378203E+03  0.84562378204E+03  0.50400001928E-02 0.  1.
        1   -1    0    0  501    0  0.00000000000E+00  0.00000000000E+00 -0.66676256924E+03  0.66676256926E+03  0.50400001928E-02 0. -1.
    10030    2    1    2    0    0  0.00000000000E+00  0.00000000000E+00  0.17886121279E+03  0.15123863513E+04  0.15017726666E+04 0.  0.
        3    1    3    3  502    0  0.15679594493E+03 -0.26190379276E+03 -0.60145854680E+03  0.67448569942E+03  0.10100000352E+00 0. -1.
       -3    1    3    3    0  502 -0.15679594493E+03  0.26190379276E+03  0.78031975959E+03  0.83790065187E+03  0.10100000352E+00 0.  1.
</event>
<event>
 5   0  0.1961098E-03  0.1454754E+04  0.7818609E-02  0.8915112E-01
       -2   -1    0    0    0  501  0.00000000000E+00  0.00000000000E+00  0.25012153919E+03  0.25012153920E+03  0.25500000920E-02 0. -1.
        2   -1    0    0  501    0  0.00000000000E+00  0.00000000000E+00 -0.21152795714E+04  0.21152795715E+04  0.25500000920E-02 0.  1.
    10030    2    1    2    0    0  0.00000000000E+00  0.00000000000E+00 -0.18651580323E+04  0.23654011107E+04  0.14547535630E+04 0.  0.
        2    1    3    3  502    0  0.64990434087E+03 -0.10925016765E+03 -0.43203643944E+03  0.78801442654E+03  0.25500000920E-02 0. -1.
       -2    1    3    3    0  502 -0.64990434087E+03  0.10925016765E+03 -0.14331215928E+04  0.15773866841E+04  0.25500000920E-02 0.  1.
</event>
<event>
 5   0  0.1069697E-03  0.1474093E+04  0.7818609E-02  0.8901866E-01
       -1   -1    0    0    0  501  0.00000000000E+00  0.00000000000E+00  0.36752406570E+03  0.36752406574E+03  0.50400001928E-02 0.  1.
        1   -1    0    0  501    0  0.00000000000E+00  0.00000000000E+00 -0.14781010117E+04  0.14781010117E+04  0.50400001928E-02 0. -1.
    10030    2    1    2    0    0  0.00000000000E+00  0.00000000000E+00 -0.11105769460E+04  0.18456250775E+04  0.14740932038E+04 0.  0.
        2    1    3    3  502    0  0.39414851733E+03  0.38641923065E+03  0.56247116939E+02  0.55483025666E+03  0.25500000920E-02 0.  1.
       -2    1    3    3    0  502 -0.39414851733E+03 -0.38641923065E+03 -0.11668240630E+04  0.12907948208E+04  0.25500000920E-02 0. -1.
</event>
<event>
 5   0  0.1078018E-03  0.1552539E+04  0.7818609E-02  0.8850247E-01
       -1   -1    0    0    0  501  0.00000000000E+00  0.00000000000E+00  0.56446220592E+03  0.56446220594E+03  0.50400001928E-02 0. -1.
        1   -1    0    0  501    0  0.00000000000E+00  0.00000000000E+00 -0.10675550187E+04  0.10675550188E+04  0.50400001928E-02 0.  1.
    10030    2    1    2    0    0  0.00000000000E+00  0.00000000000E+00 -0.50309281283E+03  0.16320172247E+04  0.15525391600E+04 0.  0.
        4    1    3    3  502    0 -0.12692002698E+03  0.30134766321E+02  0.55285686456E+03  0.56803971955E+03  0.12699999809E+01 0. -1.
       -4    1    3    3    0  502  0.12692002698E+03 -0.30134766321E+02 -0.10559496774E+04  0.10639775052E+04  0.12699999809E+01 0.  1.
</event>
<event>
 5   0  0.1078018E-03  0.1477955E+04  0.7818609E-02  0.8899246E-01
        1   -1    0    0  501    0  0.00000000000E+00  0.00000000000E+00  0.11730562682E+04  0.11730562682E+04  0.50400001928E-02 0.  1.
       -1   -1    0    0    0  501  0.00000000000E+00  0.00000000000E+00 -0.46552551088E+03  0.46552551091E+03  0.50400001928E-02 0. -1.
    10030    2    1    2    0    0  0.00000000000E+00  0.00000000000E+00  0.70753075727E+03  0.16385817791E+04  0.14779548282E+04 0.  0.
        4    1    3    3  502    0 -0.32937429353E+03  0.99006931557E+02  0.10789113289E+04  0.11324049922E+04  0.12699999809E+01 0.  1.
       -4    1    3    3    0  502  0.32937429353E+03 -0.99006931557E+02 -0.37138057163E+03  0.50617678692E+03  0.12699999809E+01 0. -1.
</event>
<event>
 5   0  0.1961098E-03  0.1664488E+04  0.7818609E-02  0.8781881E-01
       -2   -1    0    0    0  501  0.00000000000E+00  0.00000000000E+00  0.13144664133E+04  0.13144664133E+04  0.25500000920E-02 0. -1.
        2   -1    0    0  501    0  0.00000000000E+00  0.00000000000E+00 -0.52692858151E+03  0.52692858151E+03  0.25500000920E-02 0.  1.
    10030    2    1    2    0    0  0.00000000000E+00  0.00000000000E+00  0.78753783176E+03  0.18413949948E+04  0.16644878162E+04 0.  0.
        2    1    3    3  502    0 -0.82022673920E+03 -0.12617104712E+03  0.32433797820E+03  0.89100289614E+03  0.25500000920E-02 0.  1.
       -2    1    3    3    0  502  0.82022673920E+03  0.12617104712E+03  0.46319985356E+03  0.95039209864E+03  0.25500000920E-02 0. -1.
</event>
<event>
 5   0  0.1077140E-03  0.1469426E+04  0.7818609E-02  0.8905043E-01
        1   -1    0    0  501    0  0.00000000000E+00  0.00000000000E+00  0.60373349411E+03  0.60373349413E+03  0.50400001928E-02 0. -1.
       -1   -1    0    0    0  501  0.00000000000E+00  0.00000000000E+00 -0.89410838625E+03  0.89410838626E+03  0.50400001928E-02 0.  1.
    10030    2    1    2    0    0  0.00000000000E+00  0.00000000000E+00 -0.29037489214E+03  0.14978418804E+04  0.14694259834E+04 0.  0.
        1    1    3    3  502    0 -0.47192293104E+03  0.46057270643E+03 -0.47543522716E+03  0.81294349496E+03  0.50400001928E-02 0.  1.
       -1    1    3    3    0  502  0.47192293104E+03 -0.46057270643E+03  0.18506033501E+03  0.68489838543E+03  0.50400001928E-02 0. -1.
</event>
<event>
 5   0  0.1961098E-03  0.1471299E+04  0.7818609E-02  0.8903766E-01
        2   -1    0    0  501    0  0.00000000000E+00  0.00000000000E+00  0.13645762679E+04  0.13645762679E+04  0.25500000920E-02 0. -1.
       -2   -1    0    0    0  501  0.00000000000E+00  0.00000000000E+00 -0.39659228035E+03  0.39659228036E+03  0.25500000920E-02 0.  1.
    10030    2    1    2    0    0  0.00000000000E+00  0.00000000000E+00  0.96798398757E+03  0.17611685483E+04  0.14712993085E+04 0.  0.
        2    1    3    3  502    0 -0.67386563126E+03 -0.27987267791E+03  0.59600612838E+03  0.94215015253E+03  0.25500000920E-02 0. -1.
       -2    1    3    3    0  502  0.67386563126E+03  0.27987267791E+03  0.37197785918E+03  0.81901839574E+03  0.25500000920E-02 0.  1.
</event>
<event>
 5   0  0.1961098E-03  0.1477713E+04  0.7818609E-02  0.8899410E-01
       -2   -1    0    0    0  501  0.00000000000E+00  0.00000000000E+00  0.32241785934E+03  0.32241785935E+03  0.25500000920E-02 0.  1.
        2   -1    0    0  501    0  0.00000000000E+00  0.00000000000E+00 -0.16931713140E+04  0.16931713140E+04  0.25500000920E-02 0. -1.
    10030    2    1    2    0    0  0.00000000000E+00  0.00000000000E+00 -0.13707534547E+04  0.20155891734E+04  0.14777126522E+04 0.  0.
        2    1    3    3  502    0 -0.51626668951E+03 -0.44050236512E+03 -0.28692498619E+03  0.73681719312E+03  0.25500000920E-02 0.  1.
       -2    1    3    3    0  502  0.51626668951E+03  0.44050236512E+03 -0.10838284685E+04  0.12787719803E+04  0.25500000920E-02 0. -1.
</event>
<event>
 5   0  0.1961098E-03  0.1670638E+04  0.7818609E-02  0.8778290E-01
       -2   -1    0    0    0  501  0.00000000000E+00  0.00000000000E+00  0.77909629948E+03  0.77909629949E+03  0.25500000920E-02 0.  1.
        2   -1    0    0  501    0  0.00000000000E+00  0.00000000000E+00 -0.89559899791E+03  0.89559899791E+03  0.25500000920E-02 0. -1.
    10030    2    1    2    0    0  0.00000000000E+00  0.00000000000E+00 -0.11650269843E+03  0.16746952974E+04  0.16706380399E+04 0.  0.
        2    1    3    3  502    0  0.10525549929E+03 -0.38456355708E+03 -0.79405714511E+03  0.88853508613E+03  0.25500000920E-02 0. -1.
       -2    1    3    3    0  502 -0.10525549929E+03  0.38456355708E+03  0.67755444668E+03  0.78616021128E+03  0.25500000920E-02 0.  1.
</event>
<event>
 5   0  0.2094566E-03  0.1493968E+04  0.7818609E-02  0.8888474E-01
        2   -1    0    0  501    0  0.00000000000E+00  0.00000000000E+00  0.74369809408E+03  0.74369809409E+03  0.25500000920E-02 0.  1.
       -2   -1    0    0    0  501  0.00000000000E+00  0.00000000000E+00 -0.75028435396E+03  0.75028435397E+03  0.25500000920E-02 0. -1.
    10030    2    1    2    0    0  0.00000000000E+00  0.00000000000E+00 -0.65862598791E+01  0.14939824481E+04  0.14939679301E+04 0.  0.
        1    1    3    3  502    0 -0.28648596336E+03  0.13346381323E+03  0.67354300293E+03  0.74400737460E+03  0.50400001928E-02 0.  1.
       -1    1    3    3    0  502  0.28648596336E+03 -0.13346381323E+03 -0.68012926281E+03  0.74997507345E+03  0.50400001928E-02 0. -1.
</event>
<event>
 5   0  0.1069697E-03  0.1562599E+04  0.7818609E-02  0.8843860E-01
       -1   -1    0    0    0  501  0.00000000000E+00  0.00000000000E+00  0.67622686667E+03  0.67622686669E+03  0.50400001928E-02 0. -1.
        1   -1    0    0  501    0  0.00000000000E+00  0.00000000000E+00 -0.90269800705E+03  0.90269800706E+03  0.50400001928E-02 0.  1.
    10030    2    1    2    0    0  0.00000000000E+00  0.00000000000E+00 -0.22647114038E+03  0.15789248737E+04  0.15625986623E+04 0.  0.
        2    1    3    3  502    0 -0.36527083923E+03 -0.64859055000E+03 -0.35306784602E+03  0.82386248333E+03  0.25500000920E-02 0.  1.
       -2    1    3    3    0  502  0.36527083923E+03  0.64859055000E+03  0.12659670564E+03  0.75506239042E+03  0.25500000920E-02 0. -1.
</event>
<event>
 5   0  0.1993623E-03  0.1500502E+04  0.7818609E-02  0.8884119E-01
       -2   -1    0    0    0  501  0.00000000000E+00  0.00000000000E+00  0.46767804323E+03  0.46767804324E+03  0.25500000920E-02 0.  1.
        2   -1    0    0  501    0  0.00000000000E+00  0.00000000000E+00 -0.12035562723E+04  0.12035562723E+04  0.25500000920E-02 0. -1.
    10030    2    1    2    0    0  0.00000000000E+00  0.00000000000E+00 -0.73587822902E+03  0.16712343155E+04  0.15005023723E+04 0.  0.
        4    1    3    3  502    0  0.99748082242E+02  0.46468966673E+03  0.27862048067E+03  0.55092390711E+03  0.12699999809E+01 0.  1.
       -4    1    3    3    0  502 -0.99748082242E+02 -0.46468966673E+03 -0.10144987097E+04  0.11203104084E+04  0.12699999809E+01 0. -1.
</event>
<event>
 5   0  0.2111533E-03  0.1478380E+04  0.7818609E-02  0.8898959E-01
       -2   -1    0    0    0  501  0.00000000000E+00  0.00000000000E+00  0.49163668476E+03  0.49163668477E+03  0.25500000920E-02 0.  1.
        2   -1    0    0  501    0  0.00000000000E+00  0.00000000000E+00 -0.11113930012E+04  0.11113930012E+04  0.25500000920E-02 0. -1.
    10030    2    1    2    0    0  0.00000000000E+00  0.00000000000E+00 -0.61975631643E+03  0.16030296860E+04  0.14783796137E+04 0.  0.
        5    1    3    3  502    0 -0.39887271793E+03  0.62224802009E+03 -0.32001734570E+03  0.80543481124E+03  0.46999998093E+01 0. -1.
       -5    1    3    3    0  502  0.39887271793E+03 -0.62224802009E+03 -0.29973897073E+03  0.79759487473E+03  0.46999998093E+01 0.  1.
</event>
<event>
 5   0  0.1078787E-03  0.1495112E+04  0.7818609E-02  0.8887710E-01
       -1   -1    0    0    0  501  0.00000000000E+00  0.00000000000E+00  0.11243494278E+04  0.11243494278E+04  0.50400001928E-02 0. -1.
        1   -1    0    0  501    0  0.00000000000E+00  0.00000000000E+00 -0.49703401570E+03  0.49703401573E+03  0.50400001928E-02 0.  1.
    10030    2    1    2    0    0  0.00000000000E+00  0.00000000000E+00  0.62731541207E+03  0.16213834435E+04  0.14951119171E+04 0.  0.
        5    1    3    3  502    0  0.33064305864E+02 -0.60460417571E+03  0.78906328760E+03  0.99462677394E+03  0.46999998093E+01 0. -1.
       -5    1    3    3    0  502 -0.33064305864E+02  0.60460417571E+03 -0.16174787553E+03  0.62675666957E+03  0.46999998093E+01 0.  1.
</event>
<event>
 5   0  0.2111533E-03  0.1536914E+04  0.7818609E-02  0.8860270E-01
        2   -1    0    0  501    0  0.00000000000E+00  0.00000000000E+00  0.15710679642E+04  0.15710679642E+04  0.25500000920E-02 0. -1.
       -2   -1    0    0    0  501  0.00000000000E+00  0.00000000000E+00 -0.37587548224E+03  0.37587548225E+03  0.25500000920E-02 0.  1.
    10030    2    1    2    0    0  0.00000000000E+00  0.00000000000E+00  0.11951924820E+04  0.19469434465E+04  0.15369136979E+04 0.  0.
        5    1    3    3  502    0  0.66163716944E+02  0.66462367112E+03  0.10789782149E+04  0.12689831913E+04  0.46999998093E+01 0. -1.
       -5    1    3    3    0  502 -0.66163716944E+02 -0.66462367112E+03  0.11621426706E+03  0.67796025512E+03  0.46999998093E+01 0.  1.
</event>
<event>
 5   0  0.1078787E-03  0.1537154E+04  0.7818609E-02  0.8860115E-01
        1   -1    0    0  501    0  0.00000000000E+00  0.00000000000E+00  0.42995147462E+03  0.42995147465E+03  0.50400001928E-02 0. -1.
       -1   -1    0    0    0  501  0.00000000000E+00  0.00000000000E+00 -0.13739001092E+04  0.13739001092E+04  0.50400001928E-02 0.  1.
    10030    2    1    2    0    0  0.00000000000E+00  0.00000000000E+00 -0.94394863457E+03  0.18038515839E+04  0.15371537047E+04 0.  0.
        5    1    3    3  502    0 -0.16994275510E+03 -0.24426280960E+03  0.35959297185E+03  0.46676981005E+03  0.46999998093E+01 0. -1.
       -5    1    3    3    0  502  0.16994275510E+03  0.24426280960E+03 -0.13035416064E+04  0.13370817738E+04  0.46999998093E+01 0.  1.
</event>
<event>
 5   0  0.2111533E-03  0.1506484E+04  0.7818609E-02  0.8880152E-01
       -2   -1    0    0    0  501  0.00000000000E+00  0.00000000000E+00  0.29052238416E+03  0.29052238417E+03  0.25500000920E-02 0. -1.
        2   -1    0    0  501    0  0.00000000000E+00  0.00000000000E+00 -0.19529432478E+04  0.19529432478E+04  0.25500000920E-02 0.  1.
    10030    2    1    2    0    0  0.00000000000E+00  0.00000000000E+00 -0.16624208637E+04  0.22434656320E+04  0.15064842893E+04 0.  0.
        5    1    3    3  502    0 -0.69436276056E+03 -0.94600969977E+02 -0.41995583531E+03  0.81699080802E+03  0.46999998093E+01 0. -1.
       -5    1    3    3    0  502  0.69436276056E+03  0.94600969977E+02 -0.12424650284E+04  0.14264748240E+04  0.46999998093E+01 0.  1.
</event>
<event>
 5   0  0.1961098E-03  0.1457091E+04  0.7818609E-02  0.8913500E-01
       -2   -1    0    0    0  501  0.00000000000E+00  0.00000000000E+00  0.80559264285E+03  0.80559264285E+03  0.25500000920E-02 0.  1.
        2   -1    0    0  501    0  0.00000000000E+00  0.00000000000E+00 -0.65886673995E+03  0.65886673996E+03  0.25500000920E-02 0. -1.
    10030    2    1    2    0    0  0.00000000000E+00  0.00000000000E+00  0.14672590290E+03  0.14644593828E+04  0.14570905234E+04 0.  0.
        2    1    3    3  502    0  0.54131098241E+02  0.13000368044E+03 -0.64505760740E+03  0.66025029314E+03  0.25500000920E-02 0. -1.
       -2    1    3    3    0  502 -0.54131098241E+02 -0.13000368044E+03  0.79178351030E+03  0.80420908967E+03  0.25500000920E-02 0.  1.
</event>
<event>
 5   0  0.1077140E-03  0.1594401E+04  0.7818609E-02  0.8823995E-01
       -1   -1    0    0    0  501  0.00000000000E+00  0.00000000000E+00  0.74103976783E+03  0.74103976784E+03  0.50400001928E-02 0.  1.
        1   -1    0    0  501    0  0.00000000000E+00  0.00000000000E+00 -0.85761795659E+03  0.85761795661E+03  0.50400001928E-02 0. -1.
    10030    2    1    2    0    0  0.00000000000E+00  0.00000000000E+00 -0.11657818877E+03  0.15986577244E+04  0.15944014695E+04 0.  0.
        1    1    3    3  502    0 -0.25899443249E+03  0.62310749098E+03 -0.48390777072E+03  0.83036605901E+03  0.50400001928E-02 0. -1.
       -1    1    3    3    0  502  0.25899443249E+03 -0.62310749098E+03  0.36732958195E+03  0.76829166544E+03  0.50400001928E-02 0.  1.
</event>
<event>
 5   0  0.1087761E-03  0.7995317E+03  0.7818609E-02  0.9560695E-01
       -1   -1    0    0    0  501  0.00000000000E+00  0.00000000000E+00  0.13212753245E+03  0.13212753254E+03  0.50400001928E-02 0.  1.
        1   -1    0    0  501    0  0.00000000000E+00  0.00000000000E+00 -0.12095340869E+04  0.12095340869E+04  0.50400001928E-02 0. -1.
    10030    2    1    2    0    0  0.00000000000E+00  0.00000000000E+00 -0.10774065544E+04  0.13416616194E+04  0.79953174892E+03 0.  0.
        3    1    3    3  502    0  0.35800109018E+03 -0.67564776437E+02 -0.81485984933E+03  0.89259529678E+03  0.10100000352E+00 0. -1.
       -3    1    3    3    0  502 -0.35800109018E+03  0.67564776437E+02 -0.26254670512E+03  0.44906632267E+03  0.10100000352E+00 0.  1.
</event>
<event>
 5   0  0.1993623E-03  0.1502484E+04  0.7818609E-02  0.8882803E-01
        2   -1    0    0  501    0  0.00000000000E+00  0.00000000000E+00  0.17499134930E+04  0.17499134930E+04  0.25500000920E-02 0.  1.
       -2   -1    0    0    0  501  0.00000000000E+00  0.00000000000E+00 -0.32251001165E+03  0.32251001166E+03  0.25500000920E-02 0. -1.
    10030    2    1    2    0    0  0.00000000000E+00  0.00000000000E+00  0.14274034814E+04  0.20724235047E+04  0.15024841045E+04 0.  0.
        4    1    3    3  502    0  0.32753231014E+01  0.75123381390E+03  0.71343554991E+03  0.10360284106E+04  0.12699999809E+01 0. -1.
       -4    1    3    3    0  502 -0.32753231014E+01 -0.75123381390E+03  0.71396793144E+03  0.10363950940E+04  0.12699999809E+01 0.  1.
</event>
<event>
 5   0  0.1993623E-03  0.1519913E+04  0.7818609E-02  0.8871318E-01
       -2   -1    0    0    0  501  0.00000000000E+00  0.00000000000E+00  0.64274272363E+03  0.64274272364E+03  0.25500000920E-02 0. -1.
        2   -1    0    0  501    0  0.00000000000E+00  0.00000000000E+00 -0.89854555157E+03  0.89854555158E+03  0.25500000920E-02 0.  1.
    10030    2    1    2    0    0  0.00000000000E+00  0.00000000000E+00 -0.25580282794E+03  0.15412882752E+04  0.15199126490E+04 0.  0.
        4    1    3    3  502    0 -0.22676999603E+02 -0.23002021622E+03  0.60623341554E+03  0.64880206011E+03  0.12699999809E+01 0. -1.
       -4    1    3    3    0  502  0.22676999603E+02  0.23002021622E+03 -0.86203624348E+03  0.89248621511E+03  0.12699999809E+01 0.  1.
</event>
<event>
 5   0  0.2094566E-03  0.1473626E+04  0.7818609E-02  0.8902183E-01
       -2   -1    0    0    0  501  0.00000000000E+00  0.00000000000E+00  0.33170904628E+03  0.33170904629E+03  0.25500000920E-02 0.  1.
        2   -1    0    0  501    0  0.00000000000E+00  0.00000000000E+00 -0.16366546092E+04  0.16366546092E+04  0.25500000920E-02 0. -1.
    10030    2    1    2    0    0  0.00000000000E+00  0.00000000000E+00 -0.13049455629E+04  0.19683636555E+04  0.14736256506E+04 0.  0.
        1    1    3    3  502    0 -0.21526277793E+03 -0.35996561239E+03 -0.14616418349E+04  0.15206282120E+04  0.50400001928E-02 0. -1.
       -1    1    3    3    0  502  0.21526277793E+03  0.35996561239E+03  0.15669627197E+03  0.44773544347E+03  0.50400001928E-02 0.  1.
</event>
<event>
 5   0  0.7468375E-04  0.1538463E+04  0.7818609E-02  0.8859271E-01
        4   -1    0    0  501    0  0.00000000000E+00  0.00000000000E+00  0.14517277754E+04  0.14517283309E+04  0.12699999809E+01 0.  1.
       -4   -1    0    0    0  501  0.00000000000E+00  0.00000000000E+00 -0.40759337823E+03  0.40759535679E+03  0.12699999809E+01 0. -1.
    10030    2    1    2    0    0  0.00000000000E+00  0.00000000000E+00  0.10441343971E+04  0.18593236877E+04  0.15384628485E+04 0.  0.
        5    1    3    3  502    0  0.67717782829E+03  0.42555509572E+02  0.96001634966E+03  0.11755995339E+04  0.46999998093E+01 0. -1.
       -5    1    3    3    0  502 -0.67717782829E+03 -0.42555509572E+02  0.84118047476E+02  0.68372415376E+03  0.46999998093E+01 0.  1.
</event>
<event>
 5   0  0.1087761E-03  0.1482629E+04  0.7818609E-02  0.8896088E-01
        1   -1    0    0  501    0  0.00000000000E+00  0.00000000000E+00  0.78210512034E+03  0.78210512036E+03  0.50400001928E-02 0.  1.
       -1   -1    0    0    0  501  0.00000000000E+00  0.00000000000E+00 -0.70265098832E+03  0.70265098834E+03  0.50400001928E-02 0. -1.
    10030    2    1    2    0    0  0.00000000000E+00  0.00000000000E+00  0.79454132017E+02  0.14847561087E+04  0.14826286599E+04 0.  0.
        3    1    3    3  502    0  0.48033800844E+03 -0.23603562271E+03 -0.47395097548E+03  0.71488947041E+03  0.10100000352E+00 0. -1.
       -3    1    3    3    0  502 -0.48033800844E+03  0.23603562271E+03  0.55340510750E+03  0.76986663829E+03  0.10100000352E+00 0.  1.
</event>
<event>
 5   0  0.1077140E-03  0.1479027E+04  0.7818609E-02  0.8898521E-01
       -1   -1    0    0    0  501  0.00000000000E+00  0.00000000000E+00  0.10780113504E+04  0.10780113504E+04  0.50400001928E-02 0.  1.
        1   -1    0    0  501    0  0.00000000000E+00  0.00000000000E+00 -0.50730483882E+03  0.50730483884E+03  0.50400001928E-02 0. -1.
    10030    2    1    2    0    0  0.00000000000E+00  0.00000000000E+00  0.57070651159E+03  0.15853161893E+04  0.14790272133E+04 0.  0.
        1    1    3    3  502    0  0.14316395824E+03 -0.64012705979E+03  0.65139414785E+03  0.92443112642E+03  0.50400001928E-02 0.  1.
       -1    1    3    3    0  502 -0.14316395824E+03  0.64012705979E+03 -0.80687636258E+02  0.66088506284E+03  0.50400001928E-02 0. -1.
</event>
<event>
 5   0  0.1961098E-03  0.1408699E+04  0.7818609E-02  0.8947545E-01
        2   -1    0    0  501    0  0.00000000000E+00  0.00000000000E+00  0.77438759176E+03  0.77438759176E+03  0.25500000920E-02 0.  1.
       -2   -1    0    0    0  501  0.00000000000E+00  0.00000000000E+00 -0.64064621362E+03  0.64064621363E+03  0.25500000920E-02 0. -1.
    10030    2    1    2    0    0  0.00000000000E+00  0.00000000000E+00  0.13374137814E+03  0.14150338054E+04  0.14086993697E+04 0.  0.
        2    1    3    3  502    0  0.39299410864E+03  0.58072622332E+03  0.13366150389E+03  0.71382961097E+03  0.25500000920E-02 0. -1.
       -2    1    3    3    0  502 -0.39299410864E+03 -0.58072622332E+03  0.79874243999E-01  0.70120419441E+03  0.25500000920E-02 0.  1.
</event>
<event>
 5   0  0.1078787E-03  0.1462737E+04  0.7818609E-02  0.8909618E-01
       -1   -1    0    0    0  501  0.00000000000E+00  0.00000000000E+00  0.40919843639E+03  0.40919843642E+03  0.50400001928E-02 0. -1.
        1   -1    0    0  501    0  0.00000000000E+00  0.00000000000E+00 -0.13071886579E+04  0.13071886579E+04  0.50400001928E-02 0.  1.
    10030    2    1    2    0    0  0.00000000000E+00  0.00000000000E+00 -0.89799022151E+03  0.17163870943E+04  0.14627365517E+04 0.  0.
        5    1    3    3  502    0  0.23357906748E+03  0.65858563011E+03 -0.19573661207E+03  0.72569216907E+03  0.46999998093E+01 0. -1.
       -5    1    3    3    0  502 -0.23357906748E+03 -0.65858563011E+03 -0.70225360944E+03  0.99069492525E+03  0.46999998093E+01 0.  1.
</event>
<event>
 5   0  0.1087761E-03  0.1433721E+04  0.7818609E-02  0.8929765E-01
        1   -1    0    0  501    0  0.00000000000E+00  0.00000000000E+00  0.14962488977E+04  0.14962488977E+04  0.50400001928E-02 0.  1.
       -1   -1    0    0    0  501  0.00000000000E+00  0.00000000000E+00 -0.34345133445E+03  0.34345133449E+03  0.50400001928E-02 0. -1.
    10030    2    1    2    0    0  0.00000000000E+00  0.00000000000E+00  0.11527975632E+04  0.18397002322E+04  0.14337205873E+04 0.  0.
        3    1    3    3  502    0  0.20319355744E+03 -0.54726746912E+03  0.11102623440E+04  0.12543810375E+04  0.10100000352E+00 0.  1.
       -3    1    3    3    0  502 -0.20319355744E+03  0.54726746912E+03  0.42535219188E+02  0.58531919464E+03  0.10100000352E+00 0. -1.
</event>
<event>
 5   0  0.1069697E-03  0.1447484E+04  0.7818609E-02  0.8920147E-01
        1   -1    0    0  501    0  0.00000000000E+00  0.00000000000E+00  0.15931532781E+04  0.15931532781E+04  0.50400001928E-02 0.  1.
       -1   -1    0    0    0  501  0.00000000000E+00  0.00000000000E+00 -0.32878338434E+03  0.32878338438E+03  0.50400001928E-02 0. -1.
    10030    2    1    2    0    0  0.00000000000E+00  0.00000000000E+00  0.12643698937E+04  0.19219366625E+04  0.14474837845E+04 0.  0.
        2    1    3    3  502    0  0.13913883072E+03  0.28952424349E+03  0.14933165154E+04  0.15274744243E+04  0.25500000920E-02 0.  1.
       -2    1    3    3    0  502 -0.13913883072E+03 -0.28952424349E+03 -0.22894662164E+03  0.39446223818E+03  0.25500000920E-02 0. -1.
</event>
<event>
 5   0  0.1961098E-03  0.1567365E+04  0.7818609E-02  0.8840851E-01
        2   -1    0    0  501    0  0.00000000000E+00  0.00000000000E+00  0.14914083749E+04  0.14914083749E+04  0.25500000920E-02 0.  1.
       -2   -1    0    0    0  501  0.00000000000E+00  0.00000000000E+00 -0.41179767881E+03  0.41179767882E+03  0.25500000920E-02 0. -1.
    10030    2    1    2    0    0  0.00000000000E+00  0.00000000000E+00  0.10796106960E+04  0.19032060537E+04  0.15673653141E+04 0.  0.
        2    1    3    3  502    0  0.29158478038E+03  0.13524195624E+03 -0.32807681516E+03  0.45928908928E+03  0.25500000920E-02 0. -1.
       -2    1    3    3    0  502 -0.29158478038E+03 -0.13524195624E+03  0.14076875112E+04  0.14439169644E+04  0.25500000920E-02 0.  1.
</event>
<event>
 5   0  0.2111533E-03  0.1355293E+04  0.7818609E-02  0.8986831E-01
        2   -1    0    0  501    0  0.00000000000E+00  0.00000000000E+00  0.30595129794E+03  0.30595129795E+03  0.25500000920E-02 0. -1.
       -2   -1    0    0    0  501  0.00000000000E+00  0.00000000000E+00 -0.15009078821E+04  0.15009078821E+04  0.25500000920E-02 0.  1.
    10030    2    1    2    0    0  0.00000000000E+00  0.00000000000E+00 -0.11949565842E+04  0.18068591801E+04  0.13552929051E+04 0.  0.
        5    1    3    3  502    0 -0.19260866280E+03  0.64755356854E+03 -0.52745227933E+03  0.85711826377E+03  0.46999998093E+01 0. -1.
       -5    1    3    3    0  502  0.19260866280E+03 -0.64755356854E+03 -0.66750430487E+03  0.94974091632E+03  0.46999998093E+01 0.  1.
</event>
<event>
 5   0  0.1078787E-03  0.1768216E+04  0.7818609E-02  0.8723387E-01
       -1   -1    0    0    0  501  0.00000000000E+00  0.00000000000E+00  0.97432181948E+03  0.97432181949E+03  0.50400001928E-02 0.  1.
        1   -1    0    0  501    0  0.00000000000E+00  0.00000000000E+00 -0.80224758354E+03  0.80224758356E+03  0.50400001928E-02 0. -1.
    10030    2    1    2    0    0  0.00000000000E+00  0.00000000000E+00  0.17207423594E+03  0.17765694030E+04  0.17682164181E+04 0.  0.
        5    1    3    3  502    0  0.32932537411E+03  0.69778725697E+03  0.51965784150E+03  0.93028416102E+03  0.46999998093E+01 0.  1.
       -5    1    3    3    0  502 -0.32932537411E+03 -0.69778725697E+03 -0.34758360556E+03  0.84628524203E+03  0.46999998093E+01 0. -1.
</event>
<event>
 5   0  0.1077140E-03  0.1494475E+04  0.7818609E-02  0.8888135E-01
       -1   -1    0    0    0  501  0.00000000000E+00  0.00000000000E+00  0.43235629872E+03  0.43235629875E+03  0.50400001928E-02 0. -1.
        1   -1    0    0  501    0  0.00000000000E+00  0.00000000000E+00 -0.12914442085E+04  0.12914442085E+04  0.50400001928E-02 0.  1.
    10030    2    1    2    0    0  0.00000000000E+00  0.00000000000E+00 -0.85908790980E+03  0.17238005073E+04  0.14944752096E+04 0.  0.
        1    1    3    3  502    0 -0.40008784216E+02  0.15969415390E+03  0.41117783275E+03  0.44291097951E+03  0.50400001928E-02 0. -1.
       -1    1    3    3    0  502  0.40008784216E+02 -0.15969415390E+03 -0.12702657426E+04  0.12808895278E+04  0.50400001928E-02 0.  1.
</event>
<event>
 5   0  0.1078787E-03  0.1492114E+04  0.7818609E-02  0.8889714E-01
       -1   -1    0    0    0  501  0.00000000000E+00  0.00000000000E+00  0.58155245160E+03  0.58155245162E+03  0.50400001928E-02 0. -1.
        1   -1    0    0  501    0  0.00000000000E+00  0.00000000000E+00 -0.95709568558E+03  0.95709568560E+03  0.50400001928E-02 0.  1.
    10030    2    1    2    0    0  0.00000000000E+00  0.00000000000E+00 -0.37554323399E+03  0.15386481372E+04  0.14921143956E+04 0.  0.
        5    1    3    3  502    0  0.17131173743E+03 -0.50227488266E+03 -0.72848264648E+03  0.90129730131E+03  0.46999998093E+01 0.  1.
       -5    1    3    3    0  502 -0.17131173743E+03  0.50227488266E+03  0.35293941249E+03  0.63735083590E+03  0.46999998093E+01 0. -1.
</event>
<event>
 5   0  0.2111533E-03  0.1502110E+04  0.7818609E-02  0.8883051E-01
        2   -1    0    0  501    0  0.00000000000E+00  0.00000000000E+00  0.20499306682E+04  0.20499306682E+04  0.25500000920E-02 0. -1.
       -2   -1    0    0    0  501  0.00000000000E+00  0.00000000000E+00 -0.27517195851E+03  0.27517195853E+03  0.25500000920E-02 0.  1.
    10030    2    1    2    0    0  0.00000000000E+00  0.00000000000E+00  0.17747587097E+04  0.23251026268E+04  0.15021097654E+04 0.  0.
        5    1    3    3  502    0 -0.96282814923E+02  0.69452282156E+03  0.13039577590E+04  0.14805270201E+04  0.46999998093E+01 0. -1.
       -5    1    3    3    0  502  0.96282814923E+02 -0.69452282156E+03  0.47080095076E+03  0.84457560666E+03  0.46999998093E+01 0.  1.
</event>
<event>
 5   0  0.7468375E-04  0.1506330E+04  0.7818609E-02  0.8880254E-01
       -3   -1    0    0    0  501  0.00000000000E+00  0.00000000000E+00  0.80153244451E+03  0.80153245088E+03  0.10100000352E+00 0.  1.
        3   -1    0    0  501    0  0.00000000000E+00  0.00000000000E+00 -0.70771618014E+03  0.70771618735E+03  0.10100000352E+00 0. -1.
    10030    2    1    2    0    0  0.00000000000E+00  0.00000000000E+00  0.93816264371E+02  0.15092486382E+04  0.15063299640E+04 0.  0.
        3    1    3    3  502    0 -0.28422029298E+03  0.69730938968E+03  0.31518681893E+02  0.75366769692E+03  0.10100000352E+00 0.  1.
       -3    1    3    3    0  502  0.28422029298E+03 -0.69730938968E+03  0.62297582478E+02  0.75558094130E+03  0.10100000352E+00 0. -1.
</event>
<event>
 5   0  0.1961098E-03  0.1495213E+04  0.7818609E-02  0.8887642E-01
        2   -1    0    0  501    0  0.00000000000E+00  0.00000000000E+00  0.78389498716E+03  0.78389498716E+03  0.25500000920E-02 0.  1.
       -2   -1    0    0    0  501  0.00000000000E+00  0.00000000000E+00 -0.71299837031E+03  0.71299837032E+03  0.25500000920E-02 0. -1.
    10030    2    1    2    0    0  0.00000000000E+00  0.00000000000E+00  0.70896616845E+02  0.14968933575E+04  0.14952134942E+04 0.  0.
        2    1    3    3  502    0  0.15613691265E+03  0.28866252983E+03  0.70792543962E+03  0.78029687920E+03  0.25500000920E-02 0.  1.
       -2    1    3    3    0  502 -0.15613691265E+03 -0.28866252983E+03 -0.63702882278E+03  0.71659647827E+03  0.25500000920E-02 0. -1.
</event>
<event>
 5   0  0.1961098E-03  0.1479239E+04  0.7818609E-02  0.8898377E-01
       -2   -1    0    0    0  501  0.00000000000E+00  0.00000000000E+00  0.97751899261E+03  0.97751899261E+03  0.25500000920E-02 0. -1.
        2   -1    0    0  501    0  0.00000000000E+00  0.00000000000E+00 -0.55961808238E+03  0.55961808238E+03  0.25500000920E-02 0.  1.
    10030    2    1    2    0    0  0.00000000000E+00  0.00000000000E+00  0.41790091023E+03  0.15371370750E+04  0.14792394047E+04 0.  0.
        2    1    3    3  502    0 -0.48002743886E+03 -0.35666917101E+03  0.66118308912E+03  0.89151686296E+03  0.25500000920E-02 0. -1.
       -2    1    3    3    0  502  0.48002743886E+03  0.35666917101E+03 -0.24328217889E+03  0.64562021203E+03  0.25500000920E-02 0.  1.
</event>
<event>
 5   0  0.2111533E-03  0.1473518E+04  0.7818609E-02  0.8902257E-01
        2   -1    0    0  501    0  0.00000000000E+00  0.00000000000E+00  0.10688609041E+04  0.10688609041E+04  0.25500000920E-02 0.  1.
       -2   -1    0    0    0  501  0.00000000000E+00  0.00000000000E+00 -0.50784331127E+03  0.50784331127E+03  0.25500000920E-02 0. -1.
    10030    2    1    2    0    0  0.00000000000E+00  0.00000000000E+00  0.56101759279E+03  0.15767042153E+04  0.14735180498E+04 0.  0.
        5    1    3    3  502    0 -0.30515524220E+03  0.63911375389E+03  0.63302105953E+02  0.71106635335E+03  0.46999998093E+01 0. -1.
       -5    1    3    3    0  502  0.30515524220E+03 -0.63911375389E+03  0.49771548684E+03  0.86563786198E+03  0.46999998093E+01 0.  1.
</event>
<event>
 5   0  0.2094566E-03  0.1480512E+04  0.7818609E-02  0.8897517E-01
       -2   -1    0    0    0  501  0.00000000000E+00  0.00000000000E+00  0.58348750757E+03  0.58348750758E+03  0.25500000920E-02 0.  1.
        2   -1    0    0  501    0  0.00000000000E+00  0.00000000000E+00 -0.93914421811E+03  0.93914421812E+03  0.25500000920E-02 0. -1.
    10030    2    1    2    0    0  0.00000000000E+00  0.00000000000E+00 -0.35565671054E+03  0.15226317257E+04  0.14805119643E+04 0.  0.
        1    1    3    3  502    0 -0.44854409535E+02  0.63765313856E+03 -0.56176587436E+03  0.85099608741E+03  0.50400001928E-02 0. -1.
       -1    1    3    3    0  502  0.44854409535E+02 -0.63765313856E+03  0.20610916382E+03  0.67163563828E+03  0.50400001928E-02 0.  1.
</event>
<event>
 5   0  0.1961098E-03  0.1551429E+04  0.7818609E-02  0.8850955E-01
       -2   -1    0    0    0  501  0.00000000000E+00  0.00000000000E+00  0.83011206383E+03  0.83011206384E+03  0.25500000920E-02 0.  1.
        2   -1    0    0  501    0  0.00000000000E+00  0.00000000000E+00 -0.72488180292E+03  0.72488180293E+03  0.25500000920E-02 0. -1.
    10030    2    1    2    0    0  0.00000000000E+00  0.00000000000E+00  0.10523026091E+03  0.15549938668E+04  0.15514291856E+04 0.  0.
        2    1    3    3  502    0  0.60167800383E+03 -0.48769464110E+03  0.95965474935E+02  0.78043055785E+03  0.25500000920E-02 0.  1.
       -2    1    3    3    0  502 -0.60167800383E+03  0.48769464110E+03  0.92647859749E+01  0.77456330891E+03  0.25500000920E-02 0. -1.
</event>
<event>
 5   0  0.2094566E-03  0.1538884E+04  0.7818609E-02  0.8859000E-01
        2   -1    0    0  501    0  0.00000000000E+00  0.00000000000E+00  0.93324753581E+03  0.93324753581E+03  0.25500000920E-02 0.  1.
       -2   -1    0    0    0  501  0.00000000000E+00  0.00000000000E+00 -0.63438767951E+03  0.63438767952E+03  0.25500000920E-02 0. -1.
    10030    2    1    2    0    0  0.00000000000E+00  0.00000000000E+00  0.29885985630E+03  0.15676352153E+04  0.15388836716E+04 0.  0.
        1    1    3    3  502    0 -0.65867612853E+03  0.26728138937E+03 -0.15060156278E+03  0.72661847907E+03  0.50400001928E-02 0. -1.
       -1    1    3    3    0  502  0.65867612853E+03 -0.26728138937E+03  0.44946141908E+03  0.84101673625E+03  0.50400001928E-02 0.  1.
</event>
<event>
 5   0  0.1078018E-03  0.1501549E+04  0.7818609E-02  0.8883423E-01
        1   -1    0    0  501    0  0.00000000000E+00  0.00000000000E+00  0.50669140887E+03  0.50669140889E+03  0.50400001928E-02 0.  1.
       -1   -1    0    0    0  501  0.00000000000E+00  0.00000000000E+00 -0.11124377030E+04  0.11124377030E+04  0.50400001928E-02 0. -1.
    10030    2    1    2    0    0  0.00000000000E+00  0.00000000000E+00 -0.60574629417E+03  0.16191291119E+04  0.15015493692E+04 0.  0.
        4    1    3    3  502    0  0.61803325914E+03  0.11433310376E+03  0.13992047937E+03  0.64390723048E+03  0.12699999809E+01 0.  1.
       -4    1    3    3    0  502 -0.61803325914E+03 -0.11433310376E+03 -0.74566677353E+03  0.97522188146E+03  0.12699999809E+01 0. -1.
</event>
<event>
 5   0  0.1077140E-03  0.1575241E+04  0.7818609E-02  0.8835904E-01
        1   -1    0    0  501    0  0.00000000000E+00  0.00000000000E+00  0.10077249944E+04  0.10077249944E+04  0.50400001928E-02 0.  1.
       -1   -1    0    0    0  501  0.00000000000E+00  0.00000000000E+00 -0.61559073717E+03  0.61559073719E+03  0.50400001928E-02 0. -1.
    10030    2    1    2    0    0  0.00000000000E+00  0.00000000000E+00  0.39213425720E+03  0.16233157316E+04  0.15752411526E+04 0.  0.
        1    1    3    3  502    0 -0.54106198081E+03 -0.22262174967E+03 -0.34731801702E+03  0.68039570507E+03  0.50400001928E-02 0. -1.
       -1    1    3    3    0  502  0.54106198081E+03  0.22262174967E+03  0.73945227422E+03  0.94292002650E+03  0.50400001928E-02 0.  1.
</event>
<event>
 5   0  0.1078018E-03  0.1365049E+04  0.7818609E-02  0.8979514E-01
        1   -1    0    0  501    0  0.00000000000E+00  0.00000000000E+00  0.14054795171E+04  0.14054795171E+04  0.50400001928E-02 0. -1.
       -1   -1    0    0    0  501  0.00000000000E+00  0.00000000000E+00 -0.33144552616E+03  0.33144552619E+03  0.50400001928E-02 0.  1.
    10030    2    1    2    0    0  0.00000000000E+00  0.00000000000E+00  0.10740339910E+04  0.17369250433E+04  0.13650493003E+04 0.  0.
        4    1    3    3  502    0 -0.15366126298E+03 -0.13453045502E+03 -0.29165229041E+03  0.35605181992E+03  0.12699999809E+01 0.  1.
       -4    1    3    3    0  502  0.15366126298E+03  0.13453045502E+03  0.13656862814E+04  0.13808732234E+04  0.12699999809E+01 0. -1.
</event>
<event>
 5   0  0.1993623E-03  0.1469878E+04  0.7818609E-02  0.8904735E-01
        2   -1    0    0  501    0  0.00000000000E+00  0.00000000000E+00  0.43309585827E+03  0.43309585828E+03  0.25500000920E-02 0.  1.
       -2   -1    0    0    0  501  0.00000000000E+00  0.00000000000E+00 -0.12471494766E+04  0.12471494766E+04  0.25500000920E-02 0. -1.
    10030    2    1    2    0    0  0.00000000000E+00  0.00000000000E+00 -0.81405361831E+03  0.16802453349E+04  0.14698779173E+04 0.  0.
        4    1    3    3  502    0 -0.11646992766E+03 -0.61848739475E+03  0.26819233488E+02  0.62993077850E+03  0.12699999809E+01 0.  1.
       -4    1    3    3    0  502  0.11646992766E+03  0.61848739475E+03 -0.84087285180E+03  0.10503145564E+04  0.12699999809E+01 0. -1.
</event>
<event>
 5   0  0.1078787E-03  0.1524995E+04  0.7818609E-02  0.8868000E-01
       -1   -1    0    0    0  501  0.00000000000E+00  0.00000000000E+00  0.11644423735E+04  0.11644423735E+04  0.50400001928E-02 0. -1.
        1   -1    0    0  501    0  0.00000000000E+00  0.00000000000E+00 -0.49929663001E+03  0.49929663004E+03  0.50400001928E-02 0.  1.
    10030    2    1    2    0    0  0.00000000000E+00  0.00000000000E+00  0.66514574346E+03  0.16637390035E+04  0.15249946268E+04 0.  0.
        5    1    3    3  502    0  0.16112503374E+03  0.44298562691E+03 -0.32127163833E+03  0.57046919088E+03  0.46999998093E+01 0.  1.
       -5    1    3    3    0  502 -0.16112503374E+03 -0.44298562691E+03  0.98641738180E+03  0.10932698126E+04  0.46999998093E+01 0. -1.
</event>
<event>
 5   0  0.1069697E-03  0.1485893E+04  0.7818609E-02  0.8893888E-01
       -1   -1    0    0    0  501  0.00000000000E+00  0.00000000000E+00  0.78776885499E+03  0.78776885500E+03  0.50400001928E-02 0. -1.
        1   -1    0    0  501    0  0.00000000000E+00  0.00000000000E+00 -0.70067459821E+03  0.70067459823E+03  0.50400001928E-02 0.  1.
    10030    2    1    2    0    0  0.00000000000E+00  0.00000000000E+00  0.87094256774E+02  0.14884434532E+04  0.14858931671E+04 0.  0.
        2    1    3    3  502    0  0.24511400276E+03  0.70104733253E+03  0.64110126910E+02  0.74542494268E+03  0.25500000920E-02 0.  1.
       -2    1    3    3    0  502 -0.24511400276E+03 -0.70104733253E+03  0.22984129865E+02  0.74301851055E+03  0.25500000920E-02 0. -1.
</event>
<event>
 5   0  0.1078018E-03  0.1454695E+04  0.7818609E-02  0.8915152E-01
       -1   -1    0    0    0  501  0.00000000000E+00  0.00000000000E+00  0.60165092019E+03  0.60165092021E+03  0.50400001928E-02 0. -1.
        1   -1    0    0  501    0  0.00000000000E+00  0.00000000000E+00 -0.87930450517E+03  0.87930450519E+03  0.50400001928E-02 0.  1.
    10030    2    1    2    0    0  0.00000000000E+00  0.00000000000E+00 -0.27765358498E+03  0.14809554254E+04  0.14546949710E+04 0.  0.
        4    1    3    3  502    0 -0.61510387791E+03  0.37684089987E+03 -0.44028105345E+02  0.72270459483E+03  0.12699999809E+01 0. -1.
       -4    1    3    3    0  502  0.61510387791E+03 -0.37684089987E+03 -0.23362547963E+03  0.75825083057E+03  0.12699999809E+01 0.  1.
</event>
<event>
 5   0  0.1078018E-03  0.1497502E+04  0.7818609E-02  0.8886116E-01
        1   -1    0    0  501    0  0.00000000000E+00  0.00000000000E+00  0.13411633102E+04  0.13411633102E+04  0.50400001928E-02 0.  1.
       -1   -1    0    0    0  501  0.00000000000E+00  0.00000000000E+00 -0.41801622766E+03  0.41801622769E+03  0.50400001928E-02 0. -1.
    10030    2    1    2    0    0  0.00000000000E+00  0.00000000000E+00  0.92314708253E+03  0.17591795379E+04  0.14975019568E+04 0.  0.
        4    1    3    3  502    0 -0.26655737105E+03 -0.17166607541E+03  0.12584131834E+04  0.12977393524E+04  0.12699999809E+01 0.  1.
       -4    1    3    3    0  502  0.26655737105E+03  0.17166607541E+03 -0.33526610090E+03  0.46144018553E+03  0.12699999809E+01 0. -1.
</event>
<event>
 5   0  0.2150197E-03  0.1489665E+04  0.7818609E-02  0.8891355E-01
       -2   -1    0    0    0  501  0.00000000000E+00  0.00000000000E+00  0.48500015559E+03  0.48500015559E+03  0.25500000920E-02 0.  1.
        2   -1    0    0  501    0  0.00000000000E+00  0.00000000000E+00 -0.11438662246E+04  0.11438662246E+04  0.25500000920E-02 0. -1.
    10030    2    1    2    0    0  0.00000000000E+00  0.00000000000E+00 -0.65886606903E+03  0.16288663802E+04  0.14896647904E+04 0.  0.
        3    1    3    3  502    0  0.69630858431E+03  0.68901528606E+02 -0.60859836702E+03  0.92735378781E+03  0.10100000352E+00 0.  1.
       -3    1    3    3    0  502 -0.69630858431E+03 -0.68901528606E+02 -0.50267702016E+02  0.70151259240E+03  0.10100000352E+00 0. -1.
</event>
<event>
 5   0  0.1069697E-03  0.1454120E+04  0.7818609E-02  0.8915549E-01
       -1   -1    0    0    0  501  0.00000000000E+00  0.00000000000E+00  0.21459234875E+03  0.21459234881E+03  0.50400001928E-02 0.  1.
        1   -1    0    0  501    0  0.00000000000E+00  0.00000000000E+00 -0.24633516996E+04  0.24633516996E+04  0.50400001928E-02 0. -1.
    10030    2    1    2    0    0  0.00000000000E+00  0.00000000000E+00 -0.22487593509E+04  0.26779440484E+04  0.14541202524E+04 0.  0.
        2    1    3    3  502    0  0.33214687742E+03 -0.32819463729E+03 -0.21507170096E+04  0.22008218745E+04  0.25500000920E-02 0. -1.
       -2    1    3    3    0  502 -0.33214687742E+03  0.32819463729E+03 -0.98042341281E+02  0.47712217389E+03  0.25500000920E-02 0.  1.
</event>
<event>
 5   0  0.2150197E-03  0.1535264E+04  0.7818609E-02  0.8861336E-01
        2   -1    0    0  501    0  0.00000000000E+00  0.00000000000E+00  0.11370316056E+04  0.11370316056E+04  0.25500000920E-02 0. -1.
       -2   -1    0    0    0  501  0.00000000000E+00  0.00000000000E+00 -0.51824316567E+03  0.51824316567E+03  0.25500000920E-02 0.  1.
    10030    2    1    2    0    0  0.00000000000E+00  0.00000000000E+00  0.61878843995E+03  0.16552747713E+04  0.15352639627E+04 0.  0.
        3    1    3    3  502    0  0.62801025843E+03  0.38926496288E+03  0.84951666775E+02  0.74373442297E+03  0.10100000352E+00 0. -1.
       -3    1    3    3    0  502 -0.62801025843E+03 -0.38926496288E+03  0.53383677318E+03  0.91154034832E+03  0.10100000352E+00 0.  1.
</event>
<event>
 5   0  0.1078787E-03  0.1471405E+04  0.7818609E-02  0.8903694E-01
        1   -1    0    0  501    0  0.00000000000E+00  0.00000000000E+00  0.82244070834E+03  0.82244070835E+03  0.50400001928E-02 0. -1.
       -1   -1    0    0    0  501  0.00000000000E+00  0.00000000000E+00 -0.65811232793E+03  0.65811232795E+03  0.50400001928E-02 0.  1.
    10030    2    1    2    0    0  0.00000000000E+00  0.00000000000E+00  0.16432838041E+03  0.14805530363E+04  0.14714052728E+04 0.  0.
        5    1    3    3  502    0 -0.19607348573E+03  0.68674600091E+03 -0.95487686059E+02  0.72055872055E+03  0.46999998093E+01 0.  1.
       -5    1    3    3    0  502  0.19607348573E+03 -0.68674600091E+03  0.25981606647E+03  0.75999431575E+03  0.46999998093E+01 0. -1.
</event>
<event>
 5   0  0.2111533E-03  0.1490827E+04  0.7818609E-02  0.8890576E-01
        2   -1    0    0  501    0  0.00000000000E+00  0.00000000000E+00  0.53823883906E+03  0.53823883907E+03  0.25500000920E-02 0.  1.
       -2   -1    0    0    0  501  0.00000000000E+00  0.00000000000E+00 -0.10323327030E+04  0.10323327030E+04  0.25500000920E-02 0. -1.
    10030    2    1    2    0    0  0.00000000000E+00  0.00000000000E+00 -0.49409386395E+03  0.15705715421E+04  0.14908273617E+04 0.  0.
        5    1    3    3  502    0 -0.63857184219E+02  0.12688735250E+03  0.52383224136E+03  0.54277108185E+03  0.46999998093E+01 0.  1.
       -5    1    3    3    0  502  0.63857184219E+02 -0.12688735250E+03 -0.10179261053E+04  0.10278004602E+04  0.46999998093E+01 0. -1.
</event>
<event>
 5   0  0.1087761E-03  0.1401197E+04  0.7818609E-02  0.8952953E-01
       -1   -1    0    0    0  501  0.00000000000E+00  0.00000000000E+00  0.10245953345E+04  0.10245953345E+04  0.50400001928E-02 0. -1.
        1   -1    0    0  501    0  0.00000000000E+00  0.00000000000E+00 -0.47905570394E+03  0.47905570397E+03  0.50400001928E-02 0.  1.
    10030    2    1    2    0    0  0.00000000000E+00  0.00000000000E+00  0.54553963053E+03  0.15036510385E+04  0.14011969729E+04 0.  0.
        3    1    3    3  502    0  0.97316431252E+02 -0.47980336992E+03 -0.26502926003E+03  0.55670663770E+03  0.10100000352E+00 0.  1.
       -3    1    3    3    0  502 -0.97316431252E+02  0.47980336992E+03  0.81056889056E+03  0.94694440076E+03  0.10100000352E+00 0. -1.
</event>
<event>
 5   0  0.1078787E-03  0.1488320E+04  0.7818609E-02  0.8892257E-01
       -1   -1    0    0    0  501  0.00000000000E+00  0.00000000000E+00  0.77371021017E+03  0.77371021019E+03  0.50400001928E-02 0.  1.
        1   -1    0    0  501    0  0.00000000000E+00  0.00000000000E+00 -0.71573843294E+03  0.71573843296E+03  0.50400001928E-02 0. -1.
    10030    2    1    2    0    0  0.00000000000E+00  0.00000000000E+00  0.57971777227E+02  0.14894486431E+04  0.14883200374E+04 0.  0.
        5    1    3    3  502    0  0.18116454233E+03  0.34204953312E+03  0.66502552081E+03  0.76948002432E+03  0.46999998093E+01 0.  1.
       -5    1    3    3    0  502 -0.18116454233E+03 -0.34204953312E+03 -0.60705374358E+03  0.71996861883E+03  0.46999998093E+01 0. -1.
</event>
<event>
 5   0  0.2111533E-03  0.1510628E+04  0.7818609E-02  0.8877416E-01
        2   -1    0    0  501    0  0.00000000000E+00  0.00000000000E+00  0.11590602453E+04  0.11590602453E+04  0.25500000920E-02 0.  1.
       -2   -1    0    0    0  501  0.00000000000E+00  0.00000000000E+00 -0.49220849234E+03  0.49220849235E+03  0.25500000920E-02 0. -1.
    10030    2    1    2    0    0  0.00000000000E+00  0.00000000000E+00  0.66685175294E+03  0.16512687376E+04  0.15106280758E+04 0.  0.
        5    1    3    3  502    0  0.41753535614E+02 -0.65143401924E+02  0.11547005011E+04  0.11572995973E+04  0.46999998093E+01 0.  1.
       -5    1    3    3    0  502 -0.41753535614E+02  0.65143401924E+02 -0.48784874817E+03  0.49396914037E+03  0.46999998093E+01 0. -1.
</event>
<event>
 5   0  0.1087761E-03  0.1416757E+04  0.7818609E-02  0.8941777E-01
        1   -1    0    0  501    0  0.00000000000E+00  0.00000000000E+00  0.52867214373E+03  0.52867214376E+03  0.50400001928E-02 0.  1.
       -1   -1    0    0    0  501  0.00000000000E+00  0.00000000000E+00 -0.94917099782E+03  0.94917099784E+03  0.50400001928E-02 0. -1.
    10030    2    1    2    0    0  0.00000000000E+00  0.00000000000E+00 -0.42049885409E+03  0.14778431416E+04  0.14167572357E+04 0.  0.
        3    1    3    3  502    0 -0.56778402091E+03 -0.10105485440E+03 -0.63933631541E+03  0.86101202802E+03  0.10100000352E+00 0.  1.
       -3    1    3    3    0  502  0.56778402091E+03  0.10105485440E+03  0.21883746132E+03  0.61683111357E+03  0.10100000352E+00 0. -1.
</event>
<event>
 5   0  0.1069697E-03  0.1631461E+04  0.7818609E-02  0.8801450E-01
       -1   -1    0    0    0  501  0.00000000000E+00  0.00000000000E+00  0.47391178313E+03  0.47391178316E+03  0.50400001928E-02 0.  1.
        1   -1    0    0  501    0  0.00000000000E+00  0.00000000000E+00 -0.14040938909E+04  0.14040938909E+04  0.50400001928E-02 0. -1.
    10030    2    1    2    0    0  0.00000000000E+00  0.00000000000E+00 -0.93018210779E+03  0.18780056741E+04  0.16314614792E+04 0.  0.
        2    1    3    3  502    0  0.42238465391E+03 -0.59120509665E+03 -0.38269097912E+02  0.72759658192E+03  0.25500000920E-02 0. -1.
       -2    1    3    3    0  502 -0.42238465391E+03  0.59120509665E+03 -0.89191300988E+03  0.11504090922E+04  0.25500000920E-02 0.  1.
</event>
<event>
 5   0  0.1961098E-03  0.1516354E+04  0.7818609E-02  0.8873650E-01
        2   -1    0    0  501    0  0.00000000000E+00  0.00000000000E+00  0.19318273964E+04  0.19318273964E+04  0.25500000920E-02 0.  1.
       -2   -1    0    0    0  501  0.00000000000E+00  0.00000000000E+00 -0.29755873896E+03  0.29755873897E+03  0.25500000920E-02 0. -1.
    10030    2    1    2    0    0  0.00000000000E+00  0.00000000000E+00  0.16342686574E+04  0.22293861353E+04  0.15163536843E+04 0.  0.
        2    1    3    3  502    0  0.24567350880E+03  0.27865203099E+03 -0.15458504727E+03  0.40236670358E+03  0.25500000920E-02 0. -1.
       -2    1    3    3    0  502 -0.24567350880E+03 -0.27865203099E+03  0.17888537047E+04  0.18270194318E+04  0.25500000920E-02 0.  1.
</event>
<event>
 5   0  0.1961098E-03  0.1296885E+04  0.7818609E-02  0.9032039E-01
       -2   -1    0    0    0  501  0.00000000000E+00  0.00000000000E+00  0.31210159334E+03  0.31210159335E+03  0.25500000920E-02 0. -1.
        2   -1    0    0  501    0  0.00000000000E+00  0.00000000000E+00 -0.13472462945E+04  0.13472462945E+04  0.25500000920E-02 0.  1.
    10030    2    1    2    0    0  0.00000000000E+00  0.00000000000E+00 -0.10351447011E+04  0.16593478878E+04  0.12968850607E+04 0.  0.
        2    1    3    3  502    0  0.18460472803E+03 -0.12686291100E+02 -0.13127485721E+04  0.13257257111E+04  0.25500000920E-02 0.  1.
       -2    1    3    3    0  502 -0.18460472803E+03  0.12686291100E+02  0.27760387098E+03  0.33362217669E+03  0.25500000920E-02 0. -1.
</event>
<event>
 5   0  0.1993623E-03  0.1494497E+04  0.7818609E-02  0.8888121E-01
        2   -1    0    0  501    0  0.00000000000E+00  0.00000000000E+00  0.11039194619E+04  0.11039194619E+04  0.25500000920E-02 0. -1.
       -2   -1    0    0    0  501  0.00000000000E+00  0.00000000000E+00 -0.50581606347E+03  0.50581606348E+03  0.25500000920E-02 0.  1.
    10030    2    1    2    0    0  0.00000000000E+00  0.00000000000E+00  0.59810339847E+03  0.16097355254E+04  0.14944968339E+04 0.  0.
        4    1    3    3  502    0  0.29362831036E+03 -0.26861179586E+02 -0.44050674822E+03  0.53008198964E+03  0.12699999809E+01 0.  1.
       -4    1    3    3    0  502 -0.29362831036E+03  0.26861179586E+02  0.10386101467E+04  0.10796535358E+04  0.12699999809E+01 0. -1.
</event>
<event>
 5   0  0.2094566E-03  0.1309119E+04  0.7818609E-02  0.9022365E-01
        2   -1    0    0  501    0  0.00000000000E+00  0.00000000000E+00  0.50764717902E+03  0.50764717903E+03  0.25500000920E-02 0.  1.
       -2   -1    0    0    0  501  0.00000000000E+00  0.00000000000E+00 -0.84398844814E+03  0.84398844815E+03  0.25500000920E-02 0. -1.
    10030    2    1    2    0    0  0.00000000000E+00  0.00000000000E+00 -0.33634126912E+03  0.13516356272E+04  0.13091193297E+04 0.  0.
        1    1    3    3  502    0 -0.24442703583E+03  0.60683303664E+03 -0.14608806278E+03  0.67032278219E+03  0.50400001928E-02 0.  1.
       -1    1    3    3    0  502  0.24442703583E+03 -0.60683303664E+03 -0.19025320634E+03  0.68131284499E+03  0.50400001928E-02 0. -1.
</event>
<event>
 5   0  0.1069697E-03  0.1496938E+04  0.7818609E-02  0.8886491E-01
       -1   -1    0    0    0  501  0.00000000000E+00  0.00000000000E+00  0.76320512532E+03  0.76320512533E+03  0.50400001928E-02 0. -1.
        1   -1    0    0  501    0  0.00000000000E+00  0.00000000000E+00 -0.73401773464E+03  0.73401773466E+03  0.50400001928E-02 0.  1.
    10030    2    1    2    0    0  0.00000000000E+00  0.00000000000E+00  0.29187390678E+02  0.14972228600E+04  0.14969383383E+04 0.  0.
        2    1    3    3  502    0 -0.67953765239E+03 -0.17130500018E+03 -0.24830464820E+03  0.74348639693E+03  0.25500000920E-02 0. -1.
       -2    1    3    3    0  502  0.67953765239E+03  0.17130500018E+03  0.27749203888E+03  0.75373646306E+03  0.25500000920E-02 0.  1.
</event>
<event>
 5   0  0.1961098E-03  0.1318765E+04  0.7818609E-02  0.9014816E-01
       -2   -1    0    0    0  501  0.00000000000E+00  0.00000000000E+00  0.53812082519E+03  0.53812082520E+03  0.25500000920E-02 0.  1.
        2   -1    0    0  501    0  0.00000000000E+00  0.00000000000E+00 -0.80796909450E+03  0.80796909451E+03  0.25500000920E-02 0. -1.
    10030    2    1    2    0    0  0.00000000000E+00  0.00000000000E+00 -0.26984826931E+03  0.13460899197E+04  0.13187645671E+04 0.  0.
        2    1    3    3  502    0  0.48820194601E+03  0.20189166844E+03 -0.53766736471E+03  0.75378218403E+03  0.25500000920E-02 0.  1.
       -2    1    3    3    0  502 -0.48820194601E+03 -0.20189166844E+03  0.26781909540E+03  0.59230773568E+03  0.25500000920E-02 0. -1.
</event>
<event>
 5   0  0.2150197E-03  0.1473779E+04  0.7818609E-02  0.8902079E-01
       -2   -1    0    0    0  501  0.00000000000E+00  0.00000000000E+00  0.45152703419E+03  0.45152703419E+03  0.25500000920E-02 0. -1.
        2   -1    0    0  501    0  0.00000000000E+00  0.00000000000E+00 -0.12025989183E+04  0.12025989183E+04  0.25500000920E-02 0.  1.
    10030    2    1    2    0    0  0.00000000000E+00  0.00000000000E+00 -0.75107188412E+03  0.16541259525E+04  0.14737787119E+04 0.  0.
        3    1    3    3  502    0  0.28422244098E+03  0.17150664715E+03  0.36285172020E+03  0.49179091800E+03  0.10100000352E+00 0. -1.
       -3    1    3    3    0  502 -0.28422244098E+03 -0.17150664715E+03 -0.11139236043E+04  0.11623350345E+04  0.10100000352E+00 0.  1.
</event>
<event>
 5   0  0.7468375E-04  0.1511498E+04  0.7818609E-02  0.8876843E-01
       -3   -1    0    0    0  501  0.00000000000E+00  0.00000000000E+00  0.49813300415E+03  0.49813301439E+03  0.10100000352E+00 0. -1.
        3   -1    0    0  501    0  0.00000000000E+00  0.00000000000E+00 -0.11465940941E+04  0.11465940985E+04  0.10100000352E+00 0.  1.
    10030    2    1    2    0    0  0.00000000000E+00  0.00000000000E+00 -0.64846108991E+03  0.16447271129E+04  0.15114977641E+04 0.  0.
        5    1    3    3  502    0  0.55496452567E+03  0.23387520400E+03 -0.82103831887E+03  0.10182383055E+04  0.46999998093E+01 0.  1.
       -5    1    3    3    0  502 -0.55496452567E+03 -0.23387520400E+03  0.17257722896E+03  0.62648880737E+03  0.46999998093E+01 0. -1.
</event>
<event>
 5   0  0.7468375E-04  0.1524892E+04  0.7818609E-02  0.8868067E-01
        3   -1    0    0  501    0  0.00000000000E+00  0.00000000000E+00  0.17596931847E+04  0.17596931876E+04  0.10100000352E+00 0. -1.
       -3   -1    0    0    0  501  0.00000000000E+00  0.00000000000E+00 -0.33035532606E+03  0.33035534150E+03  0.10100000352E+00 0.  1.
    10030    2    1    2    0    0  0.00000000000E+00  0.00000000000E+00  0.14293378587E+04  0.20900485291E+04  0.15248921732E+04 0.  0.
        5    1    3    3  502    0 -0.70335802602E+02  0.74081471129E+03  0.48717736663E+03  0.88944782767E+03  0.46999998093E+01 0.  1.
       -5    1    3    3    0  502  0.70335802602E+02 -0.74081471129E+03  0.94216049203E+03  0.12006007015E+04  0.46999998093E+01 0. -1.
</event>
<event>
 5   0  0.1087761E-03  0.8211970E+03  0.7818609E-02  0.9529832E-01
       -1   -1    0    0    0  501  0.00000000000E+00  0.00000000000E+00  0.57161491010E+03  0.57161491013E+03  0.50400001928E-02 0. -1.
        1   -1    0    0  501    0  0.00000000000E+00  0.00000000000E+00 -0.29493831913E+03  0.29493831917E+03  0.50400001928E-02 0.  1.
    10030    2    1    2    0    0  0.00000000000E+00  0.00000000000E+00  0.27667659098E+03  0.86655322930E+03  0.82119703069E+03 0.  0.
        3    1    3    3  502    0 -0.25718690775E+03 -0.91565481371E+02  0.46197255478E+03  0.53660785912E+03  0.10100000352E+00 0. -1.
       -3    1    3    3    0  502  0.25718690775E+03  0.91565481371E+02 -0.18529596381E+03  0.32994537018E+03  0.10100000352E+00 0.  1.
</event>
<event>
 5   0  0.2111533E-03  0.1080884E+04  0.7818609E-02  0.9224026E-01
        2   -1    0    0  501    0  0.00000000000E+00  0.00000000000E+00  0.18701240849E+04  0.18701240849E+04  0.25500000920E-02 0.  1.
       -2   -1    0    0    0  501  0.00000000000E+00  0.00000000000E+00 -0.15618085727E+03  0.15618085729E+03  0.25500000920E-02 0. -1.
    10030    2    1    2    0    0  0.00000000000E+00  0.00000000000E+00  0.17139432276E+04  0.20263049422E+04  0.10808840507E+04 0.  0.
        5    1    3    3  502    0 -0.22548857200E+03 -0.36989851931E+03  0.25128810961E+03  0.50083711396E+03  0.46999998093E+01 0. -1.
       -5    1    3    3    0  502  0.22548857200E+03  0.36989851931E+03  0.14626551180E+04  0.15254678282E+04  0.46999998093E+01 0.  1.
</event>
<event>
 5   0  0.1078018E-03  0.1477595E+04  0.7818609E-02  0.8899490E-01
        1   -1    0    0  501    0  0.00000000000E+00  0.00000000000E+00  0.76199695235E+03  0.76199695237E+03  0.50400001928E-02 0. -1.
       -1   -1    0    0    0  501  0.00000000000E+00  0.00000000000E+00 -0.71630473744E+03  0.71630473746E+03  0.50400001928E-02 0.  1.
    10030    2    1    2    0    0  0.00000000000E+00  0.00000000000E+00  0.45692214912E+02  0.14783016898E+04  0.14775953802E+04 0.  0.
        4    1    3    3  502    0  0.37052046242E+03 -0.30954109887E+03  0.58232653447E+03  0.75644359381E+03  0.12699999809E+01 0. -1.
       -4    1    3    3    0  502 -0.37052046242E+03  0.30954109887E+03 -0.53663431955E+03  0.72185809602E+03  0.12699999809E+01 0.  1.
</event>
<event>
 5   0  0.2094566E-03  0.1537119E+04  0.7818609E-02  0.8860138E-01
       -2   -1    0    0    0  501  0.00000000000E+00  0.00000000000E+00  0.22052313074E+03  0.22052313075E+03  0.25500000920E-02 0.  1.
        2   -1    0    0  501    0  0.00000000000E+00  0.00000000000E+00 -0.26785565867E+04  0.26785565867E+04  0.25500000920E-02 0. -1.
    10030    2    1    2    0    0  0.00000000000E+00  0.00000000000E+00 -0.24580334559E+04  0.28990797174E+04  0.15371189731E+04 0.  0.
        1    1    3    3  502    0 -0.13407211862E+03  0.46074362330E+03 -0.96722421540E+02  0.48950510340E+03  0.50400001928E-02 0.  1.
       -1    1    3    3    0  502  0.13407211862E+03 -0.46074362330E+03 -0.23613110344E+04  0.24095746140E+04  0.50400001928E-02 0. -1.
</event>
<event>
 5   0  0.1961098E-03  0.1506919E+04  0.7818609E-02  0.8879865E-01
       -2   -1    0    0    0  501  0.00000000000E+00  0.00000000000E+00  0.41776680470E+03  0.41776680471E+03  0.25500000920E-02 0. -1.
        2   -1    0    0  501    0  0.00000000000E+00  0.00000000000E+00 -0.13588949162E+04  0.13588949162E+04  0.25500000920E-02 0.  1.
    10030    2    1    2    0    0  0.00000000000E+00  0.00000000000E+00 -0.94112811146E+03  0.17766617209E+04  0.15069189587E+04 0.  0.
        2    1    3    3  502    0 -0.31596499701E+03  0.35472057094E+03 -0.11600948933E+04  0.12535871427E+04  0.25500000920E-02 0.  1.
       -2    1    3    3    0  502  0.31596499701E+03 -0.35472057094E+03  0.21896678186E+03  0.52307457819E+03  0.25500000920E-02 0. -1.
</event>
<event>
 5   0  0.1078787E-03  0.1486322E+04  0.7818609E-02  0.8893600E-01
        1   -1    0    0  501    0  0.00000000000E+00  0.00000000000E+00  0.78311549359E+03  0.78311549361E+03  0.50400001928E-02 0. -1.
       -1   -1    0    0    0  501  0.00000000000E+00  0.00000000000E+00 -0.70524529216E+03  0.70524529218E+03  0.50400001928E-02 0.  1.
    10030    2    1    2    0    0  0.00000000000E+00  0.00000000000E+00  0.77870201434E+02  0.14883607858E+04  0.14863223272E+04 0.  0.
        5    1    3    3  502    0  0.25031967935E+03 -0.67572393080E+03  0.22085333022E+03  0.75369825261E+03  0.46999998093E+01 0. -1.
       -5    1    3    3    0  502 -0.25031967935E+03  0.67572393080E+03 -0.14298312878E+03  0.73466253317E+03  0.46999998093E+01 0.  1.
</event>
<event>
 5   0  0.1993623E-03  0.1485330E+04  0.7818609E-02  0.8894267E-01
        2   -1    0    0  501    0  0.00000000000E+00  0.00000000000E+00  0.15516823555E+04  0.15516823555E+04  0.25500000920E-02 0.  1.
       -2   -1    0    0    0  501  0.00000000000E+00  0.00000000000E+00 -0.35545377278E+03  0.35545377278E+03  0.25500000920E-02 0. -1.
    10030    2    1    2    0    0  0.00000000000E+00  0.00000000000E+00  0.11962285827E+04  0.19071361283E+04  0.14853300609E+04 0.  0.
        4    1    3    3  502    0  0.48265574888E+03  0.55928931786E+03  0.50042514821E+03  0.89229370437E+03  0.12699999809E+01 0.  1.
       -4    1    3    3    0  502 -0.48265574888E+03 -0.55928931786E+03  0.69580343451E+03  0.10148424239E+04  0.12699999809E+01 0. -1.
</event>
<event>
 5   0  0.2111533E-03  0.1520038E+04  0.7818609E-02  0.8871236E-01
        2   -1    0    0  501    0  0.00000000000E+00  0.00000000000E+00  0.75910920253E+03  0.75910920253E+03  0.25500000920E-02 0.  1.
       -2   -1    0    0    0  501  0.00000000000E+00  0.00000000000E+00 -0.76092954849E+03  0.76092954850E+03  0.25500000920E-02 0. -1.
    10030    2    1    2    0    0  0.00000000000E+00  0.00000000000E+00 -0.18203459656E+01  0.15200387510E+04  0.15200376610E+04 0.  0.
        5    1    3    3  502    0 -0.11920879895E+03  0.38444138414E+03 -0.64558157238E+03  0.76079141174E+03  0.46999998093E+01 0. -1.
       -5    1    3    3    0  502  0.11920879895E+03 -0.38444138414E+03  0.64376122641E+03  0.75924733929E+03  0.46999998093E+01 0.  1.
</event>
<event>
 5   0  0.1078018E-03  0.1750494E+04  0.7818609E-02  0.8733078E-01
        1   -1    0    0  501    0  0.00000000000E+00  0.00000000000E+00  0.11733508369E+04  0.11733508369E+04  0.50400001928E-02 0. -1.
       -1   -1    0    0    0  501  0.00000000000E+00  0.00000000000E+00 -0.65288026227E+03  0.65288026229E+03  0.50400001928E-02 0.  1.
    10030    2    1    2    0    0  0.00000000000E+00  0.00000000000E+00  0.52047057463E+03  0.18262310992E+04  0.17504943326E+04 0.  0.
        4    1    3    3  502    0  0.15156276768E+03 -0.45636311725E+03 -0.50271773583E+03  0.69567614747E+03  0.12699999809E+01 0.  1.
       -4    1    3    3    0  502 -0.15156276768E+03  0.45636311725E+03  0.10231883105E+04  0.11305549517E+04  0.12699999809E+01 0. -1.
</event>
<event>
 5   0  0.2150197E-03  0.1446341E+04  0.7818609E-02  0.8920941E-01
        2   -1    0    0  501    0  0.00000000000E+00  0.00000000000E+00  0.13595288720E+04  0.13595288720E+04  0.25500000920E-02 0.  1.
       -2   -1    0    0    0  501  0.00000000000E+00  0.00000000000E+00 -0.38467425335E+03  0.38467425335E+03  0.25500000920E-02 0. -1.
    10030    2    1    2    0    0  0.00000000000E+00  0.00000000000E+00  0.97485461861E+03  0.17442031253E+04  0.14463412512E+04 0.  0.
        3    1    3    3  502    0  0.43060074542E+03  0.24721102255E+03  0.11214882666E+04  0.12264853175E+04  0.10100000352E+00 0.  1.
       -3    1    3    3    0  502 -0.43060074542E+03 -0.24721102255E+03 -0.14663364800E+03  0.51771780784E+03  0.10100000352E+00 0. -1.
</event>
<event>
 5   0  0.7468375E-04  0.1468836E+04  0.7818609E-02  0.8905445E-01
       -3   -1    0    0    0  501  0.00000000000E+00  0.00000000000E+00  0.40056076645E+03  0.40056077918E+03  0.10100000352E+00 0. -1.
        3   -1    0    0  501    0  0.00000000000E+00  0.00000000000E+00 -0.13465363124E+04  0.13465363162E+04  0.10100000352E+00 0.  1.
    10030    2    1    2    0    0  0.00000000000E+00  0.00000000000E+00 -0.94597554594E+03  0.17470970954E+04  0.14688357727E+04 0.  0.
        4    1    3    3  502    0 -0.13465788985E+03  0.34488763244E+03  0.28143054989E+03  0.46506450479E+03  0.12699999809E+01 0. -1.
       -4    1    3    3    0  502  0.13465788985E+03 -0.34488763244E+03 -0.12274060958E+04  0.12820325906E+04  0.12699999809E+01 0.  1.
</event>
<event>
 5   0  0.1087761E-03  0.1581381E+04  0.7818609E-02  0.8832069E-01
        1   -1    0    0  501    0  0.00000000000E+00  0.00000000000E+00  0.13535828281E+04  0.13535828281E+04  0.50400001928E-02 0.  1.
       -1   -1    0    0    0  501  0.00000000000E+00  0.00000000000E+00 -0.46187905254E+03  0.46187905257E+03  0.50400001928E-02 0. -1.
    10030    2    1    2    0    0  0.00000000000E+00  0.00000000000E+00  0.89170377554E+03  0.18154618807E+04  0.15813811105E+04 0.  0.
        3    1    3    3  502    0 -0.34060274336E+03 -0.19584045823E+02 -0.37303363191E+03  0.50551742243E+03  0.10100000352E+00 0. -1.
       -3    1    3    3    0  502  0.34060274336E+03  0.19584045823E+02  0.12647374075E+04  0.13099444582E+04  0.10100000352E+00 0.  1.
</event>
<event>
 5   0  0.1087761E-03  0.1480973E+04  0.7818609E-02  0.8897205E-01
       -1   -1    0    0    0  501  0.00000000000E+00  0.00000000000E+00  0.16923898093E+04  0.16923898093E+04  0.50400001928E-02 0.  1.
        1   -1    0    0  501    0  0.00000000000E+00  0.00000000000E+00 -0.32399188405E+03  0.32399188409E+03  0.50400001928E-02 0. -1.
    10030    2    1    2    0    0  0.00000000000E+00  0.00000000000E+00  0.13683979253E+04  0.20163816934E+04  0.14809734136E+04 0.  0.
        3    1    3    3  502    0 -0.51696011855E+03  0.19806997774E+03  0.14637400763E+02  0.55379937157E+03  0.10100000352E+00 0. -1.
       -3    1    3    3    0  502  0.51696011855E+03 -0.19806997774E+03  0.13537605245E+04  0.14625823218E+04  0.10100000352E+00 0.  1.
</event>
<event>
 5   0  0.1077140E-03  0.1521324E+04  0.7818609E-02  0.8870395E-01
       -1   -1    0    0    0  501  0.00000000000E+00  0.00000000000E+00  0.49030280773E+03  0.49030280775E+03  0.50400001928E-02 0.  1.
        1   -1    0    0  501    0  0.00000000000E+00  0.00000000000E+00 -0.11801009329E+04  0.11801009329E+04  0.50400001928E-02 0. -1.
    10030    2    1    2    0    0  0.00000000000E+00  0.00000000000E+00 -0.68979812516E+03  0.16704037406E+04  0.15213241611E+04 0.  0.
        1    1    3    3  502    0  0.14341628877E+03 -0.42192177173E+03  0.33196780138E+03  0.55568771313E+03  0.50400001928E-02 0.  1.
       -1    1    3    3    0  502 -0.14341628877E+03  0.42192177173E+03 -0.10217659265E+04  0.11147160275E+04  0.50400001928E-02 0. -1.
</event>
<event>
 5   0  0.2150197E-03  0.1531720E+04  0.7818609E-02  0.8863629E-01
       -2   -1    0    0    0  501  0.00000000000E+00  0.00000000000E+00  0.55937820892E+03  0.55937820893E+03  0.25500000920E-02 0. -1.
        2   -1    0    0  501    0  0.00000000000E+00  0.00000000000E+00 -0.10485600287E+04  0.10485600287E+04  0.25500000920E-02 0.  1.
    10030    2    1    2    0    0  0.00000000000E+00  0.00000000000E+00 -0.48918181975E+03  0.16079382376E+04  0.15317201191E+04 0.  0.
        3    1    3    3  502    0 -0.43522176028E+03  0.40218417160E+03  0.26470115941E+03  0.64902758224E+03  0.10100000352E+00 0. -1.
       -3    1    3    3    0  502  0.43522176028E+03 -0.40218417160E+03 -0.75388297916E+03  0.95891065537E+03  0.10100000352E+00 0.  1.
</event>
<event>
 5   0  0.7468375E-04  0.1508709E+04  0.7818609E-02  0.8878682E-01
        3   -1    0    0  501    0  0.00000000000E+00  0.00000000000E+00  0.10527761896E+04  0.10527761945E+04  0.10100000352E+00 0. -1.
       -3   -1    0    0    0  501  0.00000000000E+00  0.00000000000E+00 -0.54052392416E+03  0.54052393360E+03  0.10100000352E+00 0.  1.
    10030    2    1    2    0    0  0.00000000000E+00  0.00000000000E+00  0.51225226545E+03  0.15933001281E+04  0.15087090225E+04 0.  0.
        3    1    3    3  502    0  0.23663245134E+02  0.45623070426E+03 -0.37781793200E+03  0.59283455080E+03  0.10100000352E+00 0.  1.
       -3    1    3    3    0  502 -0.23663245134E+02 -0.45623070426E+03  0.89007019744E+03  0.10004655772E+04  0.10100000352E+00 0. -1.
</event>
<event>
 5   0  0.2150197E-03  0.1498819E+04  0.7818609E-02  0.8885239E-01
       -2   -1    0    0    0  501  0.00000000000E+00  0.00000000000E+00  0.49608196294E+03  0.49608196295E+03  0.25500000920E-02 0. -1.
        2   -1    0    0  501    0  0.00000000000E+00  0.00000000000E+00 -0.11320997906E+04  0.11320997906E+04  0.25500000920E-02 0.  1.
    10030    2    1    2    0    0  0.00000000000E+00  0.00000000000E+00 -0.63601782764E+03  0.16281817535E+04  0.14988185832E+04 0.  0.
        3    1    3    3  502    0 -0.24910281573E+03 -0.69559776294E+03 -0.18186944216E+03  0.76091061551E+03  0.10100000352E+00 0. -1.
       -3    1    3    3    0  502  0.24910281573E+03  0.69559776294E+03 -0.45414838549E+03  0.86727113802E+03  0.10100000352E+00 0.  1.
</event>
<event>
 5   0  0.2111533E-03  0.1519993E+04  0.7818609E-02  0.8871265E-01
        2   -1    0    0  501    0  0.00000000000E+00  0.00000000000E+00  0.13881657083E+04  0.13881657083E+04  0.25500000920E-02 0. -1.
       -2   -1    0    0    0  501  0.00000000000E+00  0.00000000000E+00 -0.41608497688E+03  0.41608497688E+03  0.25500000920E-02 0.  1.
    10030    2    1    2    0    0  0.00000000000E+00  0.00000000000E+00  0.97208073138E+03  0.18042506851E+04  0.15199932850E+04 0.  0.
        5    1    3    3  502    0 -0.28124937042E+02 -0.66341234036E+03  0.47221560348E+02  0.66570181853E+03  0.46999998093E+01 0.  1.
       -5    1    3    3    0  502  0.28124937042E+02  0.66341234036E+03  0.92485917104E+03  0.11385488666E+04  0.46999998093E+01 0. -1.
</event>
<event>
 5   0  0.1078018E-03  0.1517722E+04  0.7818609E-02  0.8872753E-01
       -1   -1    0    0    0  501  0.00000000000E+00  0.00000000000E+00  0.10392972953E+04  0.10392972953E+04  0.50400001928E-02 0. -1.
        1   -1    0    0  501    0  0.00000000000E+00  0.00000000000E+00 -0.55409537540E+03  0.55409537543E+03  0.50400001928E-02 0.  1.
    10030    2    1    2    0    0  0.00000000000E+00  0.00000000000E+00  0.48520191992E+03  0.15933926708E+04  0.15177217466E+04 0.  0.
        4    1    3    3  502    0 -0.55820436641E+03  0.12322372251E+03 -0.28137403028E+03  0.63714139583E+03  0.12699999809E+01 0.  1.
       -4    1    3    3    0  502  0.55820436641E+03 -0.12322372251E+03  0.76657595020E+03  0.95625127492E+03  0.12699999809E+01 0. -1.
</event>
<event>
 5   0  0.1078018E-03  0.1488417E+04  0.7818609E-02  0.8892192E-01
       -1   -1    0    0    0  501  0.00000000000E+00  0.00000000000E+00  0.71175732724E+03  0.71175732725E+03  0.50400001928E-02 0.  1.
        1   -1    0    0  501    0  0.00000000000E+00  0.00000000000E+00 -0.77813934805E+03  0.77813934807E+03  0.50400001928E-02 0. -1.
    10030    2    1    2    0    0  0.00000000000E+00  0.00000000000E+00 -0.66382020814E+02  0.14898966753E+04  0.14884171225E+04 0.  0.
        4    1    3    3  502    0 -0.38773965280E+03  0.23590073217E+03  0.55718639728E+03  0.71864420126E+03  0.12699999809E+01 0.  1.
       -4    1    3    3    0  502  0.38773965280E+03 -0.23590073217E+03 -0.62356841809E+03  0.77125247406E+03  0.12699999809E+01 0. -1.
</event>
<event>
 5   0  0.1961098E-03  0.1467588E+04  0.7818609E-02  0.8906297E-01
        2   -1    0    0  501    0  0.00000000000E+00  0.00000000000E+00  0.10420412165E+04  0.10420412165E+04  0.25500000920E-02 0.  1.
       -2   -1    0    0    0  501  0.00000000000E+00  0.00000000000E+00 -0.51672980536E+03  0.51672980537E+03  0.25500000920E-02 0. -1.
    10030    2    1    2    0    0  0.00000000000E+00  0.00000000000E+00  0.52531141114E+03  0.15587710219E+04  0.14675881643E+04 0.  0.
        2    1    3    3  502    0  0.45070122812E+03  0.57644954729E+03  0.20420878858E+03  0.75968869081E+03  0.25500000920E-02 0. -1.
       -2    1    3    3    0  502 -0.45070122812E+03 -0.57644954729E+03  0.32110262256E+03  0.79908233106E+03  0.25500000920E-02 0.  1.
</event>
<event>
 5   0  0.2150197E-03  0.1523566E+04  0.7818609E-02  0.8868931E-01
        2   -1    0    0  501    0  0.00000000000E+00  0.00000000000E+00  0.50879359280E+03  0.50879359280E+03  0.25500000920E-02 0.  1.
       -2   -1    0    0    0  501  0.00000000000E+00  0.00000000000E+00 -0.11405673056E+04  0.11405673056E+04  0.25500000920E-02 0. -1.
    10030    2    1    2    0    0  0.00000000000E+00  0.00000000000E+00 -0.63177371283E+03  0.16493608984E+04  0.15235659976E+04 0.  0.
        3    1    3    3  502    0  0.71341110081E+03 -0.24769262136E+03 -0.20759618554E+03  0.78320062557E+03  0.10100000352E+00 0.  1.
       -3    1    3    3    0  502 -0.71341110081E+03  0.24769262136E+03 -0.42417752729E+03  0.86616027287E+03  0.10100000352E+00 0. -1.
</event>
<event>
 5   0  0.1077140E-03  0.1505876E+04  0.7818609E-02  0.8880555E-01
       -1   -1    0    0    0  501  0.00000000000E+00  0.00000000000E+00  0.26259480329E+03  0.26259480334E+03  0.50400001928E-02 0.  1.
        1   -1    0    0  501    0  0.00000000000E+00  0.00000000000E+00 -0.21588974903E+04  0.21588974904E+04  0.50400001928E-02 0. -1.
    10030    2    1    2    0    0  0.00000000000E+00  0.00000000000E+00 -0.18963026871E+04  0.24214922937E+04  0.15058755086E+04 0.  0.
        1    1    3    3  502    0 -0.68523499905E+03 -0.28395067807E+03 -0.11562049530E+04  0.13736756841E+04  0.50400001928E-02 0. -1.
       -1    1    3    3    0  502  0.68523499905E+03  0.28395067807E+03 -0.74009773402E+03  0.10478166096E+04  0.50400001928E-02 0.  1.
</event>
<event>
 5   0  0.2111533E-03  0.1400309E+04  0.7818609E-02  0.8953595E-01
        2   -1    0    0  501    0  0.00000000000E+00  0.00000000000E+00  0.10680783976E+04  0.10680783976E+04  0.25500000920E-02 0.  1.
       -2   -1    0    0    0  501  0.00000000000E+00  0.00000000000E+00 -0.45897032265E+03  0.45897032266E+03  0.25500000920E-02 0. -1.
    10030    2    1    2    0    0  0.00000000000E+00  0.00000000000E+00  0.60910807495E+03  0.15270487203E+04  0.14003089470E+04 0.  0.
        5    1    3    3  502    0 -0.53901360721E+03 -0.34985633438E+03  0.60766648897E+03  0.88442963275E+03  0.46999998093E+01 0.  1.
       -5    1    3    3    0  502  0.53901360721E+03  0.34985633438E+03  0.14415859801E+01  0.64261908751E+03  0.46999998093E+01 0. -1.
</event>
<event>
 5   0  0.1078018E-03  0.1477541E+04  0.7818609E-02  0.8899527E-01
       -1   -1    0    0    0  501  0.00000000000E+00  0.00000000000E+00  0.98044841169E+03  0.98044841170E+03  0.50400001928E-02 0. -1.
        1   -1    0    0  501    0  0.00000000000E+00  0.00000000000E+00 -0.55666544776E+03  0.55666544779E+03  0.50400001928E-02 0.  1.
    10030    2    1    2    0    0  0.00000000000E+00  0.00000000000E+00  0.42378296392E+03  0.15371138595E+04  0.14775408680E+04 0.  0.
        4    1    3    3  502    0  0.54871367852E+03  0.44429611262E+03  0.43813253696E+03  0.83093168764E+03  0.12699999809E+01 0.  1.
       -4    1    3    3    0  502 -0.54871367852E+03 -0.44429611262E+03 -0.14349573034E+02  0.70618217185E+03  0.12699999809E+01 0. -1.
</event>
<event>
 5   0  0.1078787E-03  0.1436795E+04  0.7818609E-02  0.8927606E-01
       -1   -1    0    0    0  501  0.00000000000E+00  0.00000000000E+00  0.75351967274E+03  0.75351967276E+03  0.50400001928E-02 0. -1.
        1   -1    0    0  501    0  0.00000000000E+00  0.00000000000E+00 -0.68491286887E+03  0.68491286889E+03  0.50400001928E-02 0.  1.
    10030    2    1    2    0    0  0.00000000000E+00  0.00000000000E+00  0.68606803871E+02  0.14384325417E+04  0.14367954911E+04 0.  0.
        5    1    3    3  502    0 -0.48652415643E+03  0.10925784352E+03  0.55202915369E+03  0.74390947546E+03  0.46999998093E+01 0. -1.
       -5    1    3    3    0  502  0.48652415643E+03 -0.10925784352E+03 -0.48342234982E+03  0.69452306619E+03  0.46999998093E+01 0.  1.
</event>
<event>
 5   0  0.1961098E-03  0.1525143E+04  0.7818609E-02  0.8867903E-01
        2   -1    0    0  501    0  0.00000000000E+00  0.00000000000E+00  0.20242265832E+04  0.20242265832E+04  0.25500000920E-02 0. -1.
       -2   -1    0    0    0  501  0.00000000000E+00  0.00000000000E+00 -0.28727786584E+03  0.28727786585E+03  0.25500000920E-02 0.  1.
    10030    2    1    2    0    0  0.00000000000E+00  0.00000000000E+00  0.17369487174E+04  0.23115044490E+04  0.15251432625E+04 0.  0.
        2    1    3    3  502    0  0.11433985150E+03  0.87657755207E+02  0.20034115706E+04  0.20085854238E+04  0.25500000920E-02 0. -1.
       -2    1    3    3    0  502 -0.11433985150E+03 -0.87657755207E+02 -0.26646285322E+03  0.30291902522E+03  0.25500000920E-02 0.  1.
</event>
<event>
 5   0  0.1077140E-03  0.1469181E+04  0.7818609E-02  0.8905210E-01
       -1   -1    0    0    0  501  0.00000000000E+00  0.00000000000E+00  0.23902594260E+03  0.23902594265E+03  0.50400001928E-02 0.  1.
        1   -1    0    0  501    0  0.00000000000E+00  0.00000000000E+00 -0.22575919962E+04  0.22575919962E+04  0.50400001928E-02 0. -1.
    10030    2    1    2    0    0  0.00000000000E+00  0.00000000000E+00 -0.20185660536E+04  0.24966179388E+04  0.14691807989E+04 0.  0.
        1    1    3    3  502    0 -0.16379111103E+03 -0.58888686441E+03 -0.31690851162E+03  0.68851018285E+03  0.50400001928E-02 0.  1.
       -1    1    3    3    0  502  0.16379111103E+03  0.58888686441E+03 -0.17016575419E+04  0.18081077560E+04  0.50400001928E-02 0. -1.
</event>
<event>
 5   0  0.1069697E-03  0.8924308E+03  0.7818609E-02  0.9435093E-01
       -1   -1    0    0    0  501  0.00000000000E+00  0.00000000000E+00  0.71891323463E+02  0.71891323640E+02  0.50400001928E-02 0.  1.
        1   -1    0    0  501    0  0.00000000000E+00  0.00000000000E+00 -0.27695717172E+04  0.27695717172E+04  0.50400001928E-02 0. -1.
    10030    2    1    2    0    0  0.00000000000E+00  0.00000000000E+00 -0.26976803937E+04  0.28414630409E+04  0.89243078484E+03 0.  0.
        2    1    3    3  502    0 -0.98923581844E+02  0.67226974809E+02 -0.27175827942E+04  0.27202135182E+04  0.25500000920E-02 0. -1.
       -2    1    3    3    0  502  0.98923581844E+02 -0.67226974809E+02  0.19902400489E+02  0.12124952263E+03  0.25500000920E-02 0.  1.
</event>
<event>
 5   0  0.2111533E-03  0.1531167E+04  0.7818609E-02  0.8863988E-01
        2   -1    0    0  501    0  0.00000000000E+00  0.00000000000E+00  0.84230069647E+03  0.84230069647E+03  0.25500000920E-02 0.  1.
       -2   -1    0    0    0  501  0.00000000000E+00  0.00000000000E+00 -0.69585382264E+03  0.69585382264E+03  0.25500000920E-02 0. -1.
    10030    2    1    2    0    0  0.00000000000E+00  0.00000000000E+00  0.14644687383E+03  0.15381545191E+04  0.15311670836E+04 0.  0.
        5    1    3    3  502    0 -0.37431571566E+02 -0.76436225089E+03  0.94421780943E+02  0.77109554262E+03  0.46999998093E+01 0. -1.
       -5    1    3    3    0  502  0.37431571566E+02  0.76436225089E+03  0.52025092889E+02  0.76705897649E+03  0.46999998093E+01 0.  1.
</event>
<event>
 5   0  0.1993623E-03  0.1522308E+04  0.7818609E-02  0.8869752E-01
        2   -1    0    0  501    0  0.00000000000E+00  0.00000000000E+00  0.17842755224E+04  0.17842755224E+04  0.25500000920E-02 0. -1.
       -2   -1    0    0    0  501  0.00000000000E+00  0.00000000000E+00 -0.32470074501E+03  0.32470074502E+03  0.25500000920E-02 0.  1.
    10030    2    1    2    0    0  0.00000000000E+00  0.00000000000E+00  0.14595747774E+04  0.21089762674E+04  0.15223082361E+04 0.  0.
        4    1    3    3  502    0 -0.56754737707E+03  0.16744437643E+03  0.13930452454E+04  0.15135138959E+04  0.12699999809E+01 0. -1.
       -4    1    3    3    0  502  0.56754737707E+03 -0.16744437643E+03  0.66529532014E+02  0.59546237156E+03  0.12699999809E+01 0.  1.
</event>
<event>
 5   0  0.1069697E-03  0.1494103E+04  0.7818609E-02  0.8888384E-01
       -1   -1    0    0    0  501  0.00000000000E+00  0.00000000000E+00  0.61685538625E+03  0.61685538627E+03  0.50400001928E-02 0.  1.
        1   -1    0    0  501    0  0.00000000000E+00  0.00000000000E+00 -0.90472775543E+03  0.90472775545E+03  0.50400001928E-02 0. -1.
    10030    2    1    2    0    0  0.00000000000E+00  0.00000000000E+00 -0.28787236918E+03  0.15215831417E+04  0.14941033285E+04 0.  0.
        2    1    3    3  502    0  0.38662297864E+03 -0.57278105251E+03 -0.43293486875E+03  0.81546800202E+03  0.25500000920E-02 0. -1.
       -2    1    3    3    0  502 -0.38662297864E+03  0.57278105251E+03  0.14506249957E+03  0.70611513970E+03  0.25500000920E-02 0.  1.
</event>
<event>
 5   0  0.1087761E-03  0.1471886E+04  0.7818609E-02  0.8903367E-01
       -1   -1    0    0    0  501  0.00000000000E+00  0.00000000000E+00  0.17005273234E+04  0.17005273234E+04  0.50400001928E-02 0.  1.
        1   -1    0    0  501    0  0.00000000000E+00  0.00000000000E+00 -0.31849642254E+03  0.31849642258E+03  0.50400001928E-02 0. -1.
    10030    2    1    2    0    0  0.00000000000E+00  0.00000000000E+00  0.13820309009E+04  0.20190237460E+04  0.14718856871E+04 0.  0.
        3    1    3    3  502    0  0.37528725047E+03 -0.54639477438E+03  0.25244035259E+03  0.70930523165E+03  0.10100000352E+00 0. -1.
       -3    1    3    3    0  502 -0.37528725047E+03  0.54639477438E+03  0.11295905483E+04  0.13097185143E+04  0.10100000352E+00 0.  1.
</event>
<event>
 5   0  0.1069697E-03  0.1477202E+04  0.7818609E-02  0.8899757E-01
        1   -1    0    0  501    0  0.00000000000E+00  0.00000000000E+00  0.11193351761E+04  0.11193351761E+04  0.50400001928E-02 0. -1.
       -1   -1    0    0    0  501  0.00000000000E+00  0.00000000000E+00 -0.48737067170E+03  0.48737067173E+03  0.50400001928E-02 0.  1.
    10030    2    1    2    0    0  0.00000000000E+00  0.00000000000E+00  0.63196450436E+03  0.16067058478E+04  0.14772015931E+04 0.  0.
        2    1    3    3  502    0  0.20756125629E+03  0.27990081750E+02  0.10863603877E+04  0.11063652253E+04  0.25500000920E-02 0. -1.
       -2    1    3    3    0  502 -0.20756125629E+03 -0.27990081750E+02 -0.45439588330E+03  0.50034062253E+03  0.25500000920E-02 0.  1.
</event>
<event>
 5   0  0.2150197E-03  0.1524186E+04  0.7818609E-02  0.8868527E-01
        2   -1    0    0  501    0  0.00000000000E+00  0.00000000000E+00  0.16470256603E+04  0.16470256603E+04  0.25500000920E-02 0.  1.
       -2   -1    0    0    0  501  0.00000000000E+00  0.00000000000E+00 -0.35262708418E+03  0.35262708419E+03  0.25500000920E-02 0. -1.
    10030    2    1    2    0    0  0.00000000000E+00  0.00000000000E+00  0.12943985761E+04  0.19996527444E+04  0.15241861516E+04 0.  0.
        3    1    3    3  502    0 -0.20118850260E+03  0.63177983420E+03  0.11401204148E+04  0.13188999745E+04  0.10100000352E+00 0.  1.
       -3    1    3    3    0  502  0.20118850260E+03 -0.63177983420E+03  0.15427816130E+03  0.68075276990E+03  0.10100000352E+00 0. -1.
</event>
<event>
 5   0  0.7468375E-04  0.1469495E+04  0.7818609E-02  0.8904996E-01
        3   -1    0    0  501    0  0.00000000000E+00  0.00000000000E+00  0.13526322927E+04  0.13526322965E+04  0.10100000352E+00 0.  1.
       -3   -1    0    0    0  501  0.00000000000E+00  0.00000000000E+00 -0.39911359907E+03  0.39911361185E+03  0.10100000352E+00 0. -1.
    10030    2    1    2    0    0  0.00000000000E+00  0.00000000000E+00  0.95351869363E+03  0.17517459083E+04  0.14694950929E+04 0.  0.
        4    1    3    3  502    0  0.14492218199E+03 -0.22020195782E+02  0.13350231831E+04  0.13430472219E+04  0.12699999809E+01 0.  1.
       -4    1    3    3    0  502 -0.14492218199E+03  0.22020195782E+02 -0.38150448951E+03  0.40869868641E+03  0.12699999809E+01 0. -1.
</event>
<event>
 5   0  0.1078018E-03  0.1486890E+04  0.7818609E-02  0.8893218E-01
       -1   -1    0    0    0  501  0.00000000000E+00  0.00000000000E+00  0.37850417877E+03  0.37850417881E+03  0.50400001928E-02 0.  1.
        1   -1    0    0  501    0  0.00000000000E+00  0.00000000000E+00 -0.14602484449E+04  0.14602484449E+04  0.50400001928E-02 0. -1.
    10030    2    1    2    0    0  0.00000000000E+00  0.00000000000E+00 -0.10817442661E+04  0.18387526237E+04  0.14868895567E+04 0.  0.
        4    1    3    3  502    0  0.60822291269E+03  0.18727661428E+03 -0.65606795348E+02  0.63977613762E+03  0.12699999809E+01 0.  1.
       -4    1    3    3    0  502 -0.60822291269E+03 -0.18727661428E+03 -0.10161374708E+04  0.11989764861E+04  0.12699999809E+01 0. -1.
</event>
<event>
 5   0  0.1087761E-03  0.1576474E+04  0.7818609E-02  0.8835133E-01
       -1   -1    0    0    0  501  0.00000000000E+00  0.00000000000E+00  0.53781582962E+03  0.53781582965E+03  0.50400001928E-02 0.  1.
        1   -1    0    0  501    0  0.00000000000E+00  0.00000000000E+00 -0.11552612491E+04  0.11552612491E+04  0.50400001928E-02 0. -1.
    10030    2    1    2    0    0  0.00000000000E+00  0.00000000000E+00 -0.61744541950E+03  0.16930770788E+04  0.15764742778E+04 0.  0.
        3    1    3    3  502    0 -0.28842138285E+03 -0.37266062295E+03  0.36987906625E+03  0.59906040416E+03  0.10100000352E+00 0.  1.
       -3    1    3    3    0  502  0.28842138285E+03  0.37266062295E+03 -0.98732448575E+03  0.10940166746E+04  0.10100000352E+00 0. -1.
</event>
<event>
 5   0  0.2094566E-03  0.1467734E+04  0.7818609E-02  0.8906198E-01
       -2   -1    0    0    0  501  0.00000000000E+00  0.00000000000E+00  0.29031529678E+03  0.29031529679E+03  0.25500000920E-02 0. -1.
        2   -1    0    0  501    0  0.00000000000E+00  0.00000000000E+00 -0.18550891654E+04  0.18550891654E+04  0.25500000920E-02 0.  1.
    10030    2    1    2    0    0  0.00000000000E+00  0.00000000000E+00 -0.15647738686E+04  0.21454044622E+04  0.14677339836E+04 0.  0.
        1    1    3    3  502    0  0.62805952203E+03  0.15074805590E+02 -0.22794749125E+03  0.66831584731E+03  0.50400001928E-02 0. -1.
       -1    1    3    3    0  502 -0.62805952203E+03 -0.15074805590E+02 -0.13368263774E+04  0.14770886149E+04  0.50400001928E-02 0.  1.
</event>
<event>
 5   0  0.1077140E-03  0.1126390E+04  0.7818609E-02  0.9179845E-01
        1   -1    0    0  501    0  0.00000000000E+00  0.00000000000E+00  0.85169565214E+03  0.85169565215E+03  0.50400001928E-02 0.  1.
       -1   -1    0    0    0  501  0.00000000000E+00  0.00000000000E+00 -0.37242018225E+03  0.37242018228E+03  0.50400001928E-02 0. -1.
    10030    2    1    2    0    0  0.00000000000E+00  0.00000000000E+00  0.47927546989E+03  0.12241158344E+04  0.11263900746E+04 0.  0.
        1    1    3    3  502    0  0.40821831880E+03 -0.32879043306E+03  0.46352959253E+03  0.69971782017E+03  0.50400001928E-02 0.  1.
       -1    1    3    3    0  502 -0.40821831880E+03  0.32879043306E+03  0.15745877355E+02  0.52439801426E+03  0.50400001928E-02 0. -1.
</event>
<event>
 5   0  0.2150197E-03  0.1518868E+04  0.7818609E-02  0.8872002E-01
       -2   -1    0    0    0  501  0.00000000000E+00  0.00000000000E+00  0.19383267647E+04  0.19383267647E+04  0.25500000920E-02 0. -1.
        2   -1    0    0  501    0  0.00000000000E+00  0.00000000000E+00 -0.29754534979E+03  0.29754534980E+03  0.25500000920E-02 0.  1.
    10030    2    1    2    0    0  0.00000000000E+00  0.00000000000E+00  0.16407814149E+04  0.22358721145E+04  0.15188681512E+04 0.  0.
        3    1    3    3  502    0  0.19527341059E+03 -0.93194468308E+02  0.18919922916E+04  0.19043244880E+04  0.10100000352E+00 0. -1.
       -3    1    3    3    0  502 -0.19527341059E+03  0.93194468308E+02 -0.25121087676E+03  0.33154762646E+03  0.10100000352E+00 0.  1.
</event>
<event>
 5   0  0.2150197E-03  0.1465195E+04  0.7818609E-02  0.8907933E-01
        2   -1    0    0  501    0  0.00000000000E+00  0.00000000000E+00  0.12647247340E+04  0.12647247340E+04  0.25500000920E-02 0.  1.
       -2   -1    0    0    0  501  0.00000000000E+00  0.00000000000E+00 -0.42436061987E+03  0.42436061988E+03  0.25500000920E-02 0. -1.
    10030    2    1    2    0    0  0.00000000000E+00  0.00000000000E+00  0.84036411414E+03  0.16890853539E+04  0.14651953755E+04 0.  0.
        3    1    3    3  502    0  0.50204770879E+03 -0.35474933679E+03 -0.39208230624E+02  0.61598400093E+03  0.10100000352E+00 0. -1.
       -3    1    3    3    0  502 -0.50204770879E+03  0.35474933679E+03  0.87957234477E+03  0.10731013530E+04  0.10100000352E+00 0.  1.
</event>
<event>
 5   0  0.1993623E-03  0.1489375E+04  0.7818609E-02  0.8891549E-01
        2   -1    0    0  501    0  0.00000000000E+00  0.00000000000E+00  0.14670765104E+04  0.14670765104E+04  0.25500000920E-02 0.  1.
       -2   -1    0    0    0  501  0.00000000000E+00  0.00000000000E+00 -0.37800309375E+03  0.37800309376E+03  0.25500000920E-02 0. -1.
    10030    2    1    2    0    0  0.00000000000E+00  0.00000000000E+00  0.10890734166E+04  0.18450796042E+04  0.14893749826E+04 0.  0.
        4    1    3    3  502    0  0.52229758868E+03  0.53075642408E+03  0.55418796403E+03  0.92823653516E+03  0.12699999809E+01 0. -1.
       -4    1    3    3    0  502 -0.52229758868E+03 -0.53075642408E+03  0.53488545262E+03  0.91684306899E+03  0.12699999809E+01 0.  1.
</event>
<event>
 5   0  0.1078787E-03  0.1477075E+04  0.7818609E-02  0.8899842E-01
       -1   -1    0    0    0  501  0.00000000000E+00  0.00000000000E+00  0.19027595056E+03  0.19027595062E+03  0.50400001928E-02 0.  1.
        1   -1    0    0  501    0  0.00000000000E+00  0.00000000000E+00 -0.28665616008E+04  0.28665616008E+04  0.50400001928E-02 0. -1.
    10030    2    1    2    0    0  0.00000000000E+00  0.00000000000E+00 -0.26762856502E+04  0.30568375514E+04  0.14770751281E+04 0.  0.
        5    1    3    3  502    0  0.55452168444E+03 -0.19762236867E+03 -0.41525087792E+03  0.72041951718E+03  0.46999998093E+01 0. -1.
       -5    1    3    3    0  502 -0.55452168444E+03  0.19762236867E+03 -0.22610347723E+04  0.23364180342E+04  0.46999998093E+01 0.  1.
</event>
<event>
 5   0  0.1993623E-03  0.1451574E+04  0.7818609E-02  0.8917310E-01
        2   -1    0    0  501    0  0.00000000000E+00  0.00000000000E+00  0.20056547951E+04  0.20056547951E+04  0.25500000920E-02 0.  1.
       -2   -1    0    0    0  501  0.00000000000E+00  0.00000000000E+00 -0.26264094197E+03  0.26264094198E+03  0.25500000920E-02 0. -1.
    10030    2    1    2    0    0  0.00000000000E+00  0.00000000000E+00  0.17430138532E+04  0.22682957371E+04  0.14515744069E+04 0.  0.
        4    1    3    3  502    0  0.20307999382E+03 -0.65539110799E+03  0.50176228261E+03  0.85002705220E+03  0.12699999809E+01 0. -1.
       -4    1    3    3    0  502 -0.20307999382E+03  0.65539110799E+03  0.12412515706E+04  0.14182686849E+04  0.12699999809E+01 0.  1.
</event>
<event>
 5   0  0.1078787E-03  0.1495270E+04  0.7818609E-02  0.8887605E-01
       -1   -1    0    0    0  501  0.00000000000E+00  0.00000000000E+00  0.47757939422E+03  0.47757939425E+03  0.50400001928E-02 0. -1.
        1   -1    0    0  501    0  0.00000000000E+00  0.00000000000E+00 -0.11703978212E+04  0.11703978212E+04  0.50400001928E-02 0.  1.
    10030    2    1    2    0    0  0.00000000000E+00  0.00000000000E+00 -0.69281842700E+03  0.16479772155E+04  0.14952697181E+04 0.  0.
        5    1    3    3  502    0  0.17449078828E+01 -0.26461906760E+03  0.42422076825E+03  0.50001164571E+03  0.46999998093E+01 0. -1.
       -5    1    3    3    0  502 -0.17449078828E+01  0.26461906760E+03 -0.11170391952E+04  0.11479655698E+04  0.46999998093E+01 0.  1.
</event>
<event>
 5   0  0.2094566E-03  0.1200957E+04  0.7818609E-02  0.9112019E-01
        2   -1    0    0  501    0  0.00000000000E+00  0.00000000000E+00  0.10719623926E+04  0.10719623926E+04  0.25500000920E-02 0.  1.
       -2   -1    0    0    0  501  0.00000000000E+00  0.00000000000E+00 -0.33636853977E+03  0.33636853978E+03  0.25500000920E-02 0. -1.
    10030    2    1    2    0    0  0.00000000000E+00  0.00000000000E+00  0.73559385285E+03  0.14083309324E+04  0.12009569929E+04 0.  0.
        1    1    3    3  502    0  0.42230978070E+03  0.31314593028E+03  0.27583023627E+02  0.52646628358E+03  0.50400001928E-02 0. -1.
       -1    1    3    3    0  502 -0.42230978070E+03 -0.31314593028E+03  0.70801082922E+03  0.88186464882E+03  0.50400001928E-02 0.  1.
</event>
<event>
 5   0  0.1069697E-03  0.1491012E+04  0.7818609E-02  0.8890452E-01
       -1   -1    0    0    0  501  0.00000000000E+00  0.00000000000E+00  0.97738973580E+03  0.97738973581E+03  0.50400001928E-02 0.  1.
        1   -1    0    0  501    0  0.00000000000E+00  0.00000000000E+00 -0.56863596462E+03  0.56863596464E+03  0.50400001928E-02 0. -1.
    10030    2    1    2    0    0  0.00000000000E+00  0.00000000000E+00  0.40875377118E+03  0.15460257005E+04  0.14910116770E+04 0.  0.
        2    1    3    3  502    0  0.31393832860E+02  0.73315308823E+03  0.34068028132E+03  0.80905010822E+03  0.25500000920E-02 0.  1.
       -2    1    3    3    0  502 -0.31393832860E+02 -0.73315308823E+03  0.68073489867E+02  0.73697559224E+03  0.25500000920E-02 0. -1.
</event>
<event>
 5   0  0.7468375E-04  0.1476972E+04  0.7818609E-02  0.8899912E-01
       -4   -1    0    0    0  501  0.00000000000E+00  0.00000000000E+00  0.66497901268E+03  0.66498022543E+03  0.12699999809E+01 0.  1.
        4   -1    0    0  501    0  0.00000000000E+00  0.00000000000E+00 -0.82011629803E+03  0.82011728136E+03  0.12699999809E+01 0. -1.
    10030    2    1    2    0    0  0.00000000000E+00  0.00000000000E+00 -0.15513728534E+03  0.14850975068E+04  0.14769722500E+04 0.  0.
        2    1    3    3  502    0 -0.64370565984E+03  0.18985341540E+03 -0.38742045481E+03  0.77491670821E+03  0.25500000920E-02 0. -1.
       -2    1    3    3    0  502  0.64370565984E+03 -0.18985341540E+03  0.23228316947E+03  0.71018079858E+03  0.25500000920E-02 0.  1.
</event>
<event>
 5   0  0.1087761E-03  0.1426289E+04  0.7818609E-02  0.8935006E-01
       -1   -1    0    0    0  501  0.00000000000E+00  0.00000000000E+00  0.29546049247E+03  0.29546049251E+03  0.50400001928E-02 0.  1.
        1   -1    0    0  501    0  0.00000000000E+00  0.00000000000E+00 -0.17212962371E+04  0.17212962372E+04  0.50400001928E-02 0. -1.
    10030    2    1    2    0    0  0.00000000000E+00  0.00000000000E+00 -0.14258357447E+04  0.20167567297E+04  0.14262889384E+04 0.  0.
        3    1    3    3  502    0 -0.22883411018E+03 -0.44056086333E+03 -0.14368416626E+04  0.15201884416E+04  0.10100000352E+00 0.  1.
       -3    1    3    3    0  502  0.22883411018E+03  0.44056086333E+03  0.11005917965E+02  0.49656828806E+03  0.10100000352E+00 0. -1.
</event>
<event>
 5   0  0.1087761E-03  0.1503630E+04  0.7818609E-02  0.8882043E-01
       -1   -1    0    0    0  501  0.00000000000E+00  0.00000000000E+00  0.61390759272E+03  0.61390759274E+03  0.50400001928E-02 0. -1.
        1   -1    0    0  501    0  0.00000000000E+00  0.00000000000E+00 -0.92070180546E+03  0.92070180548E+03  0.50400001928E-02 0.  1.
    10030    2    1    2    0    0  0.00000000000E+00  0.00000000000E+00 -0.30679421275E+03  0.15346093982E+04  0.15036300463E+04 0.  0.
        3    1    3    3  502    0 -0.74778979562E+03 -0.99394994121E+01 -0.74754713034E+02  0.75158276284E+03  0.10100000352E+00 0. -1.
       -3    1    3    3    0  502  0.74778979562E+03  0.99394994121E+01 -0.23203949971E+03  0.78302663537E+03  0.10100000352E+00 0.  1.
</event>
<event>
 5   0  0.7468375E-04  0.1455702E+04  0.7818609E-02  0.8914457E-01
        3   -1    0    0  501    0  0.00000000000E+00  0.00000000000E+00  0.72884075302E+03  0.72884076001E+03  0.10100000352E+00 0. -1.
       -3   -1    0    0    0  501  0.00000000000E+00  0.00000000000E+00 -0.72686258754E+03  0.72686259456E+03  0.10100000352E+00 0.  1.
    10030    2    1    2    0    0  0.00000000000E+00  0.00000000000E+00  0.19781654755E+01  0.14557033546E+04  0.14557020105E+04 0.  0.
        5    1    3    3  502    0  0.42994437390E+03  0.75867719335E+02 -0.58136608949E+03  0.72706031077E+03  0.46999998093E+01 0.  1.
       -5    1    3    3    0  502 -0.42994437390E+03 -0.75867719335E+02  0.58334425497E+03  0.72864304381E+03  0.46999998093E+01 0. -1.
</event>
<event>
 5   0  0.1087761E-03  0.1546326E+04  0.7818609E-02  0.8854218E-01
       -1   -1    0    0    0  501  0.00000000000E+00  0.00000000000E+00  0.13167867743E+04  0.13167867743E+04  0.50400001928E-02 0. -1.
        1   -1    0    0  501    0  0.00000000000E+00  0.00000000000E+00 -0.45396959004E+03  0.45396959007E+03  0.50400001928E-02 0.  1.
    10030    2    1    2    0    0  0.00000000000E+00  0.00000000000E+00  0.86281718425E+03  0.17707563644E+04  0.15463261650E+04 0.  0.
        3    1    3    3  502    0  0.65320286196E+03  0.64859962336E+02 -0.36419534106E+02  0.65742466203E+03  0.10100000352E+00 0.  1.
       -3    1    3    3    0  502 -0.65320286196E+03 -0.64859962336E+02  0.89923671836E+03  0.11133317023E+04  0.10100000352E+00 0. -1.
</event>
<event>
 5   0  0.1069697E-03  0.9204291E+03  0.7818609E-02  0.9400398E-01
        1   -1    0    0  501    0  0.00000000000E+00  0.00000000000E+00  0.28649511815E+04  0.28649511815E+04  0.50400001928E-02 0.  1.
       -1   -1    0    0    0  501  0.00000000000E+00  0.00000000000E+00 -0.73927068184E+02  0.73927068356E+02  0.50400001928E-02 0. -1.
    10030    2    1    2    0    0  0.00000000000E+00  0.00000000000E+00  0.27910241133E+04  0.29388782498E+04  0.92042912078E+03 0.  0.
        2    1    3    3  502    0  0.12590894760E+03  0.44143867159E+03  0.15002619093E+04  0.15689190420E+04  0.25500000920E-02 0. -1.
       -2    1    3    3    0  502 -0.12590894760E+03 -0.44143867159E+03  0.12907622040E+04  0.13699592078E+04  0.25500000920E-02 0.  1.
</event>
<event>
 5   0  0.1078787E-03  0.1504843E+04  0.7818609E-02  0.8881239E-01
        1   -1    0    0  501    0  0.00000000000E+00  0.00000000000E+00  0.43996112401E+03  0.43996112404E+03  0.50400001928E-02 0. -1.
       -1   -1    0    0    0  501  0.00000000000E+00  0.00000000000E+00 -0.12867908188E+04  0.12867908188E+04  0.50400001928E-02 0.  1.
    10030    2    1    2    0    0  0.00000000000E+00  0.00000000000E+00 -0.84682969477E+03  0.17267519428E+04  0.15048427626E+04 0.  0.
        5    1    3    3  502    0 -0.67393676096E+03  0.65479029381E+02 -0.79987654815E+03  0.10479994482E+04  0.46999998093E+01 0.  1.
       -5    1    3    3    0  502  0.67393676096E+03 -0.65479029381E+02 -0.46953146623E+02  0.67875249468E+03  0.46999998093E+01 0. -1.
</event>
<event>
 5   0  0.7468375E-04  0.1500519E+04  0.7818609E-02  0.8884108E-01
       -4   -1    0    0    0  501  0.00000000000E+00  0.00000000000E+00  0.11195058828E+04  0.11195066032E+04  0.12699999809E+01 0.  1.
        4   -1    0    0  501    0  0.00000000000E+00  0.00000000000E+00 -0.50280003458E+03  0.50280163850E+03  0.12699999809E+01 0. -1.
    10030    2    1    2    0    0  0.00000000000E+00  0.00000000000E+00  0.61670584823E+03  0.16223082417E+04  0.15005192194E+04 0.  0.
        4    1    3    3  502    0  0.55359702589E+02 -0.74683474848E+03  0.25926958996E+03  0.79249553399E+03  0.12699999809E+01 0.  1.
       -4    1    3    3    0  502 -0.55359702589E+02  0.74683474848E+03  0.35743625827E+03  0.82981270769E+03  0.12699999809E+01 0. -1.
</event>
<event>
 5   0  0.7468375E-04  0.1475915E+04  0.7818609E-02  0.8900629E-01
       -3   -1    0    0    0  501  0.00000000000E+00  0.00000000000E+00  0.51812223107E+03  0.51812224091E+03  0.10100000352E+00 0. -1.
        3   -1    0    0  501    0  0.00000000000E+00  0.00000000000E+00 -0.10510676415E+04  0.10510676464E+04  0.10100000352E+00 0.  1.
    10030    2    1    2    0    0  0.00000000000E+00  0.00000000000E+00 -0.53294541044E+03  0.15691898873E+04  0.14759153403E+04 0.  0.
        4    1    3    3  502    0 -0.28266821058E+03 -0.67693399925E+03 -0.35178697861E+03  0.81357030909E+03  0.12699999809E+01 0.  1.
       -4    1    3    3    0  502  0.28266821058E+03  0.67693399925E+03 -0.18115843183E+03  0.75561957818E+03  0.12699999809E+01 0. -1.
</event>
<event>
 5   0  0.2094566E-03  0.1479705E+04  0.7818609E-02  0.8898062E-01
       -2   -1    0    0    0  501  0.00000000000E+00  0.00000000000E+00  0.60806327524E+03  0.60806327525E+03  0.25500000920E-02 0. -1.
        2   -1    0    0  501    0  0.00000000000E+00  0.00000000000E+00 -0.90020564860E+03  0.90020564860E+03  0.25500000920E-02 0.  1.
    10030    2    1    2    0    0  0.00000000000E+00  0.00000000000E+00 -0.29214237336E+03  0.15082689239E+04  0.14797053694E+04 0.  0.
        1    1    3    3  502    0  0.72769438050E+03  0.11599675814E+03 -0.78553303659E+02  0.74105666507E+03  0.50400001928E-02 0. -1.
       -1    1    3    3    0  502 -0.72769438050E+03 -0.11599675814E+03 -0.21358906970E+03  0.76721225878E+03  0.50400001928E-02 0.  1.
</event>
<event>
 5   0  0.1077140E-03  0.1514784E+04  0.7818609E-02  0.8874681E-01
       -1   -1    0    0    0  501  0.00000000000E+00  0.00000000000E+00  0.38715250326E+03  0.38715250329E+03  0.50400001928E-02 0. -1.
        1   -1    0    0  501    0  0.00000000000E+00  0.00000000000E+00 -0.14816977721E+04  0.14816977722E+04  0.50400001928E-02 0.  1.
    10030    2    1    2    0    0  0.00000000000E+00  0.00000000000E+00 -0.10945452689E+04  0.18688502754E+04  0.15147844752E+04 0.  0.
        1    1    3    3  502    0  0.64199370514E+03 -0.39653380090E+03 -0.62768399182E+03  0.98152033413E+03  0.50400001928E-02 0. -1.
       -1    1    3    3    0  502 -0.64199370514E+03  0.39653380090E+03 -0.46686127706E+03  0.88732994131E+03  0.50400001928E-02 0.  1.
</event>
<event>
 5   0  0.1993623E-03  0.1642964E+04  0.7818609E-02  0.8794580E-01
        2   -1    0    0  501    0  0.00000000000E+00  0.00000000000E+00  0.12207984457E+04  0.12207984458E+04  0.25500000920E-02 0. -1.
       -2   -1    0    0    0  501  0.00000000000E+00  0.00000000000E+00 -0.55278005983E+03  0.55278005983E+03  0.25500000920E-02 0.  1.
    10030    2    1    2    0    0  0.00000000000E+00  0.00000000000E+00  0.66801838592E+03  0.17735785056E+04  0.16429644401E+04 0.  0.
        4    1    3    3  502    0 -0.16452129084E+02  0.43339149924E+03 -0.41911648132E+03  0.60312444982E+03  0.12699999809E+01 0.  1.
       -4    1    3    3    0  502  0.16452129084E+02 -0.43339149924E+03  0.10871348672E+04  0.11704540558E+04  0.12699999809E+01 0. -1.
</event>
<event>
 5   0  0.2150197E-03  0.1488946E+04  0.7818609E-02  0.8891837E-01
       -2   -1    0    0    0  501  0.00000000000E+00  0.00000000000E+00  0.79708155205E+03  0.79708155206E+03  0.25500000920E-02 0.  1.
        2   -1    0    0  501    0  0.00000000000E+00  0.00000000000E+00 -0.69533639223E+03  0.69533639223E+03  0.25500000920E-02 0. -1.
    10030    2    1    2    0    0  0.00000000000E+00  0.00000000000E+00  0.10174515983E+03  0.14924179443E+04  0.14889456816E+04 0.  0.
        3    1    3    3  502    0  0.12853601449E+03  0.35757776134E+03  0.69256585572E+03  0.78995622482E+03  0.10100000352E+00 0.  1.
       -3    1    3    3    0  502 -0.12853601449E+03 -0.35757776134E+03 -0.59082069589E+03  0.70246171947E+03  0.10100000352E+00 0. -1.
</event>
<event>
 5   0  0.1087761E-03  0.1518490E+04  0.7818609E-02  0.8872250E-01
       -1   -1    0    0    0  501  0.00000000000E+00  0.00000000000E+00  0.88231143245E+03  0.88231143246E+03  0.50400001928E-02 0. -1.
        1   -1    0    0  501    0  0.00000000000E+00  0.00000000000E+00 -0.65334396265E+03  0.65334396267E+03  0.50400001928E-02 0.  1.
    10030    2    1    2    0    0  0.00000000000E+00  0.00000000000E+00  0.22896746979E+03  0.15356553951E+04  0.15184898388E+04 0.  0.
        3    1    3    3  502    0  0.37969921589E+03  0.51313307408E+03  0.53019723093E+03  0.82981091832E+03  0.10100000352E+00 0. -1.
       -3    1    3    3    0  502 -0.37969921589E+03 -0.51313307408E+03 -0.30122976114E+03  0.70584447682E+03  0.10100000352E+00 0.  1.
</event>
<event>
 5   0  0.1078787E-03  0.1505223E+04  0.7818609E-02  0.8880987E-01
        1   -1    0    0  501    0  0.00000000000E+00  0.00000000000E+00  0.15934784358E+04  0.15934784358E+04  0.50400001928E-02 0.  1.
       -1   -1    0    0    0  501  0.00000000000E+00  0.00000000000E+00 -0.35546373256E+03  0.35546373260E+03  0.50400001928E-02 0. -1.
    10030    2    1    2    0    0  0.00000000000E+00  0.00000000000E+00  0.12380147033E+04  0.19489421684E+04  0.15052226315E+04 0.  0.
        5    1    3    3  502    0  0.33901270616E+03  0.59726130322E+03  0.10175641004E+04  0.12276438685E+04  0.46999998093E+01 0.  1.
       -5    1    3    3    0  502 -0.33901270616E+03 -0.59726130322E+03  0.22045060283E+03  0.72129829998E+03  0.46999998093E+01 0. -1.
</event>
<event>
 5   0  0.1078018E-03  0.1181133E+04  0.7818609E-02  0.9129533E-01
        1   -1    0    0  501    0  0.00000000000E+00  0.00000000000E+00  0.18390223707E+04  0.18390223707E+04  0.50400001928E-02 0.  1.
       -1   -1    0    0    0  501  0.00000000000E+00  0.00000000000E+00 -0.18964909819E+03  0.18964909826E+03  0.50400001928E-02 0. -1.
    10030    2    1    2    0    0  0.00000000000E+00  0.00000000000E+00  0.16493732725E+04  0.20286714690E+04  0.11811332427E+04 0.  0.
        4    1    3    3  502    0 -0.56910050448E+03 -0.10208004344E+03  0.61806721935E+03  0.84634769451E+03  0.12699999809E+01 0.  1.
       -4    1    3    3    0  502  0.56910050448E+03  0.10208004344E+03  0.10313060531E+04  0.11823237744E+04  0.12699999809E+01 0. -1.
</event>
<event>
 5   0  0.2111533E-03  0.1517577E+04  0.7818609E-02  0.8872848E-01
       -2   -1    0    0    0  501  0.00000000000E+00  0.00000000000E+00  0.34577354778E+03  0.34577354779E+03  0.25500000920E-02 0.  1.
        2   -1    0    0  501    0  0.00000000000E+00  0.00000000000E+00 -0.16651356969E+04  0.16651356969E+04  0.25500000920E-02 0. -1.
    10030    2    1    2    0    0  0.00000000000E+00  0.00000000000E+00 -0.13193621491E+04  0.20109092447E+04  0.15175768547E+04 0.  0.
        5    1    3    3  502    0  0.67668423269E+03 -0.23910036465E+03 -0.98605761853E+03  0.12195910184E+04  0.46999998093E+01 0. -1.
       -5    1    3    3    0  502 -0.67668423269E+03  0.23910036465E+03 -0.33330453062E+03  0.79131822630E+03  0.46999998093E+01 0.  1.
</event>
<event>
 5   0  0.1961098E-03  0.1482817E+04  0.7818609E-02  0.8895961E-01
        2   -1    0    0  501    0  0.00000000000E+00  0.00000000000E+00  0.14263287841E+04  0.14263287841E+04  0.25500000920E-02 0. -1.
       -2   -1    0    0    0  501  0.00000000000E+00  0.00000000000E+00 -0.38538541772E+03  0.38538541772E+03  0.25500000920E-02 0.  1.
    10030    2    1    2    0    0  0.00000000000E+00  0.00000000000E+00  0.10409433664E+04  0.18117142018E+04  0.14828166633E+04 0.  0.
        2    1    3    3  502    0  0.67282956059E+03  0.15232778611E+03  0.85235102163E+03  0.10965425829E+04  0.25500000920E-02 0. -1.
       -2    1    3    3    0  502 -0.67282956059E+03 -0.15232778611E+03  0.18859234476E+03  0.71517161894E+03  0.25500000920E-02 0.  1.
</event>
<event>
 5   0  0.2150197E-03  0.1486313E+04  0.7818609E-02  0.8893606E-01
        2   -1    0    0  501    0  0.00000000000E+00  0.00000000000E+00  0.11633882012E+04  0.11633882012E+04  0.25500000920E-02 0.  1.
       -2   -1    0    0    0  501  0.00000000000E+00  0.00000000000E+00 -0.47471822775E+03  0.47471822775E+03  0.25500000920E-02 0. -1.
    10030    2    1    2    0    0  0.00000000000E+00  0.00000000000E+00  0.68866997346E+03  0.16381064290E+04  0.14863130021E+04 0.  0.
        3    1    3    3  502    0  0.58293517214E+03  0.42950086752E+03  0.15992311995E+03  0.74152533647E+03  0.10100000352E+00 0. -1.
       -3    1    3    3    0  502 -0.58293517214E+03 -0.42950086752E+03  0.52874685351E+03  0.89658109250E+03  0.10100000352E+00 0.  1.
</event>
<event>
 5   0  0.1961098E-03  0.1497336E+04  0.7818609E-02  0.8886226E-01
        2   -1    0    0  501    0  0.00000000000E+00  0.00000000000E+00  0.82375309446E+03  0.82375309446E+03  0.25500000920E-02 0.  1.
       -2   -1    0    0    0  501  0.00000000000E+00  0.00000000000E+00 -0.68042697486E+03  0.68042697486E+03  0.25500000920E-02 0. -1.
    10030    2    1    2    0    0  0.00000000000E+00  0.00000000000E+00  0.14332611960E+03  0.15041800693E+04  0.14973360693E+04 0.  0.
        2    1    3    3  502    0  0.51149233207E+03  0.46240430256E+03 -0.22132338286E+03  0.72417275881E+03  0.25500000920E-02 0. -1.
       -2    1    3    3    0  502 -0.51149233207E+03 -0.46240430256E+03  0.36464950247E+03  0.78000731051E+03  0.25500000920E-02 0.  1.
</event>
<event>
 5   0  0.2150197E-03  0.1520261E+04  0.7818609E-02  0.8871090E-01
       -2   -1    0    0    0  501  0.00000000000E+00  0.00000000000E+00  0.38310149340E+03  0.38310149341E+03  0.25500000920E-02 0. -1.
        2   -1    0    0  501    0  0.00000000000E+00  0.00000000000E+00 -0.15082116446E+04  0.15082116446E+04  0.25500000920E-02 0.  1.
    10030    2    1    2    0    0  0.00000000000E+00  0.00000000000E+00 -0.11251101512E+04  0.18913131381E+04  0.15202606795E+04 0.  0.
        3    1    3    3  502    0  0.57715636465E+03  0.42880631315E+03 -0.25576136904E+03  0.76315018938E+03  0.10100000352E+00 0. -1.
       -3    1    3    3    0  502 -0.57715636465E+03 -0.42880631315E+03 -0.86934878220E+03  0.11281629487E+04  0.10100000352E+00 0.  1.
</event>
<event>
 5   0  0.2111533E-03  0.1134508E+04  0.7818609E-02  0.9172196E-01
        2   -1    0    0  501    0  0.00000000000E+00  0.00000000000E+00  0.56055511189E+03  0.56055511189E+03  0.25500000920E-02 0.  1.
       -2   -1    0    0    0  501  0.00000000000E+00  0.00000000000E+00 -0.57403305021E+03  0.57403305022E+03  0.25500000920E-02 0. -1.
    10030    2    1    2    0    0  0.00000000000E+00  0.00000000000E+00 -0.13477938323E+02  0.11345881621E+04  0.11345081061E+04 0.  0.
        5    1    3    3  502    0 -0.35687979195E+03  0.41812602876E+03  0.13313693941E+03  0.56563247473E+03  0.46999998093E+01 0.  1.
       -5    1    3    3    0  502  0.35687979195E+03 -0.41812602876E+03 -0.14661487774E+03  0.56895568738E+03  0.46999998093E+01 0. -1.
</event>
<event>
 5   0  0.1993623E-03  0.1535776E+04  0.7818609E-02  0.8861005E-01
       -2   -1    0    0    0  501  0.00000000000E+00  0.00000000000E+00  0.74974305680E+03  0.74974305681E+03  0.25500000920E-02 0. -1.
        2   -1    0    0  501    0  0.00000000000E+00  0.00000000000E+00 -0.78647216275E+03  0.78647216275E+03  0.25500000920E-02 0.  1.
    10030    2    1    2    0    0  0.00000000000E+00  0.00000000000E+00 -0.36729105946E+02  0.15362152196E+04  0.15357760818E+04 0.  0.
        4    1    3    3  502    0 -0.72199570118E+03 -0.43241846558E+02 -0.27631962182E+03  0.77427501323E+03  0.12699999809E+01 0.  1.
       -4    1    3    3    0  502  0.72199570118E+03  0.43241846558E+02  0.23959051588E+03  0.76194020632E+03  0.12699999809E+01 0. -1.
</event>
<event>
 5   0  0.1993623E-03  0.1415506E+04  0.7818609E-02  0.8942671E-01
       -2   -1    0    0    0  501  0.00000000000E+00  0.00000000000E+00  0.45228636168E+03  0.45228636169E+03  0.25500000920E-02 0.  1.
        2   -1    0    0  501    0  0.00000000000E+00  0.00000000000E+00 -0.11075153180E+04  0.11075153180E+04  0.25500000920E-02 0. -1.
    10030    2    1    2    0    0  0.00000000000E+00  0.00000000000E+00 -0.65522895636E+03  0.15598016797E+04  0.14155056675E+04 0.  0.
        4    1    3    3  502    0  0.31152376624E+03 -0.61839092422E+03 -0.48903289631E+03  0.84770819193E+03  0.12699999809E+01 0. -1.
       -4    1    3    3    0  502 -0.31152376624E+03  0.61839092422E+03 -0.16619606006E+03  0.71209348780E+03  0.12699999809E+01 0.  1.
</event>
<event>
 5   0  0.1077140E-03  0.1427834E+04  0.7818609E-02  0.8933914E-01
       -1   -1    0    0    0  501  0.00000000000E+00  0.00000000000E+00  0.37601708312E+03  0.37601708315E+03  0.50400001928E-02 0. -1.
        1   -1    0    0  501    0  0.00000000000E+00  0.00000000000E+00 -0.13554636615E+04  0.13554636615E+04  0.50400001928E-02 0.  1.
    10030    2    1    2    0    0  0.00000000000E+00  0.00000000000E+00 -0.97944657838E+03  0.17314807447E+04  0.14278340132E+04 0.  0.
        1    1    3    3  502    0 -0.66010863609E+03 -0.20537938640E+03 -0.27363313403E+03  0.74350467104E+03  0.50400001928E-02 0. -1.
       -1    1    3    3    0  502  0.66010863609E+03  0.20537938640E+03 -0.70581344436E+03  0.98797607363E+03  0.50400001928E-02 0.  1.
</event>
<event>
 5   0  0.1961098E-03  0.1453520E+04  0.7818609E-02  0.8915964E-01
       -2   -1    0    0    0  501  0.00000000000E+00  0.00000000000E+00  0.53244589008E+03  0.53244589009E+03  0.25500000920E-02 0. -1.
        2   -1    0    0  501    0  0.00000000000E+00  0.00000000000E+00 -0.99198813874E+03  0.99198813874E+03  0.25500000920E-02 0.  1.
    10030    2    1    2    0    0  0.00000000000E+00  0.00000000000E+00 -0.45954224866E+03  0.15244340288E+04  0.14535198760E+04 0.  0.
        2    1    3    3  502    0 -0.31825187087E+03 -0.40111770329E+03 -0.77068579125E+03  0.92527631227E+03  0.25500000920E-02 0.  1.
       -2    1    3    3    0  502  0.31825187087E+03  0.40111770329E+03  0.31114354259E+03  0.59915771656E+03  0.25500000920E-02 0. -1.
</event>
<event>
 5   0  0.1078787E-03  0.1580818E+04  0.7818609E-02  0.8832420E-01
        1   -1    0    0  501    0  0.00000000000E+00  0.00000000000E+00  0.13400428710E+04  0.13400428710E+04  0.50400001928E-02 0. -1.
       -1   -1    0    0    0  501  0.00000000000E+00  0.00000000000E+00 -0.46621366180E+03  0.46621366183E+03  0.50400001928E-02 0.  1.
    10030    2    1    2    0    0  0.00000000000E+00  0.00000000000E+00  0.87382920920E+03  0.18062565328E+04  0.15808178818E+04 0.  0.
        5    1    3    3  502    0 -0.46853071721E+03 -0.35433952312E+02  0.11631210685E+04  0.12544517958E+04  0.46999998093E+01 0. -1.
       -5    1    3    3    0  502  0.46853071721E+03  0.35433952312E+02 -0.28929185932E+03  0.55180473704E+03  0.46999998093E+01 0.  1.
</event>
<event>
 5   0  0.1077140E-03  0.1500823E+04  0.7818609E-02  0.8883906E-01
       -1   -1    0    0    0  501  0.00000000000E+00  0.00000000000E+00  0.41572926910E+03  0.41572926913E+03  0.50400001928E-02 0.  1.
        1   -1    0    0  501    0  0.00000000000E+00  0.00000000000E+00 -0.13545298472E+04  0.13545298472E+04  0.50400001928E-02 0. -1.
    10030    2    1    2    0    0  0.00000000000E+00  0.00000000000E+00 -0.93880057806E+03  0.17702591163E+04  0.15008233785E+04 0.  0.
        1    1    3    3  502    0  0.16181109763E+03  0.72376656354E+03 -0.33441376725E+03  0.81354375271E+03  0.50400001928E-02 0.  1.
       -1    1    3    3    0  502 -0.16181109763E+03 -0.72376656354E+03 -0.60438681081E+03  0.95671536359E+03  0.50400001928E-02 0. -1.
</event>
<event>
 5   0  0.1078787E-03  0.1497908E+04  0.7818609E-02  0.8885845E-01
       -1   -1    0    0    0  501  0.00000000000E+00  0.00000000000E+00  0.73768315737E+03  0.73768315739E+03  0.50400001928E-02 0. -1.
        1   -1    0    0  501    0  0.00000000000E+00  0.00000000000E+00 -0.76039689418E+03  0.76039689420E+03  0.50400001928E-02 0.  1.
    10030    2    1    2    0    0  0.00000000000E+00  0.00000000000E+00 -0.22713736808E+02  0.14980800516E+04  0.14979078500E+04 0.  0.
        5    1    3    3  502    0 -0.87683934157E+02  0.45705284637E+03 -0.59821569948E+03  0.75793791948E+03  0.46999998093E+01 0.  1.
       -5    1    3    3    0  502  0.87683934157E+02 -0.45705284637E+03  0.57550196267E+03  0.74014213211E+03  0.46999998093E+01 0. -1.
</event>
<event>
 5   0  0.2094566E-03  0.1501765E+04  0.7818609E-02  0.8883280E-01
       -2   -1    0    0    0  501  0.00000000000E+00  0.00000000000E+00  0.52759700139E+03  0.52759700139E+03  0.25500000920E-02 0. -1.
        2   -1    0    0  501    0  0.00000000000E+00  0.00000000000E+00 -0.10686655532E+04  0.10686655532E+04  0.25500000920E-02 0.  1.
    10030    2    1    2    0    0  0.00000000000E+00  0.00000000000E+00 -0.54106855181E+03  0.15962625546E+04  0.15017652831E+04 0.  0.
        1    1    3    3  502    0  0.54853453922E+03  0.35367650326E+03  0.12410632398E+03  0.66436404881E+03  0.50400001928E-02 0. -1.
       -1    1    3    3    0  502 -0.54853453922E+03 -0.35367650326E+03 -0.66517487580E+03  0.93189850579E+03  0.50400001928E-02 0.  1.
</event>
<event>
 5   0  0.2150197E-03  0.1498722E+04  0.7818609E-02  0.8885303E-01
       -2   -1    0    0    0  501  0.00000000000E+00  0.00000000000E+00  0.46285881792E+03  0.46285881792E+03  0.25500000920E-02 0.  1.
        2   -1    0    0  501    0  0.00000000000E+00  0.00000000000E+00 -0.12132037875E+04  0.12132037875E+04  0.25500000920E-02 0. -1.
    10030    2    1    2    0    0  0.00000000000E+00  0.00000000000E+00 -0.75034496957E+03  0.16760626054E+04  0.14987222171E+04 0.  0.
        3    1    3    3  502    0  0.70111202503E+03  0.25871518908E+03 -0.43693860760E+03  0.86568295450E+03  0.10100000352E+00 0. -1.
       -3    1    3    3    0  502 -0.70111202503E+03 -0.25871518908E+03 -0.31340636197E+03  0.81037965092E+03  0.10100000352E+00 0.  1.
</event>
<event>
 5   0  0.2111533E-03  0.1033171E+04  0.7818609E-02  0.9272894E-01
        2   -1    0    0  501    0  0.00000000000E+00  0.00000000000E+00  0.19417281766E+04  0.19417281766E+04  0.25500000920E-02 0. -1.
       -2   -1    0    0    0  501  0.00000000000E+00  0.00000000000E+00 -0.13743448310E+03  0.13743448313E+03  0.25500000920E-02 0.  1.
    10030    2    1    2    0    0  0.00000000000E+00  0.00000000000E+00  0.18042936935E+04  0.20791626597E+04  0.10331706699E+04 0.  0.
        5    1    3    3  502    0 -0.22636211052E+03  0.20300453129E+03  0.61769590816E+02  0.31030342756E+03  0.46999998093E+01 0.  1.
       -5    1    3    3    0  502  0.22636211052E+03 -0.20300453129E+03  0.17425241026E+04  0.17688592321E+04  0.46999998093E+01 0. -1.
</event>
<event>
 5   0  0.1078787E-03  0.1456843E+04  0.7818609E-02  0.8913670E-01
       -1   -1    0    0    0  501  0.00000000000E+00  0.00000000000E+00  0.50992247286E+03  0.50992247289E+03  0.50400001928E-02 0. -1.
        1   -1    0    0  501    0  0.00000000000E+00  0.00000000000E+00 -0.10405455160E+04  0.10405455160E+04  0.50400001928E-02 0.  1.
    10030    2    1    2    0    0  0.00000000000E+00  0.00000000000E+00 -0.53062304310E+03  0.15504679889E+04  0.14568425346E+04 0.  0.
        5    1    3    3  502    0 -0.70016034929E+02 -0.23047688280E+03 -0.99691495642E+03  0.10256136500E+04  0.46999998093E+01 0.  1.
       -5    1    3    3    0  502  0.70016034929E+02  0.23047688280E+03  0.46629191331E+03  0.52485433891E+03  0.46999998093E+01 0. -1.
</event>
<event>
 5   0  0.2150197E-03  0.1511928E+04  0.7818609E-02  0.8876560E-01
        2   -1    0    0  501    0  0.00000000000E+00  0.00000000000E+00  0.11234271309E+04  0.11234271309E+04  0.25500000920E-02 0.  1.
       -2   -1    0    0    0  501  0.00000000000E+00  0.00000000000E+00 -0.50869449566E+03  0.50869449567E+03  0.25500000920E-02 0. -1.
    10030    2    1    2    0    0  0.00000000000E+00  0.00000000000E+00  0.61473263522E+03  0.16321216266E+04  0.15119275085E+04 0.  0.
        3    1    3    3  502    0  0.44313801356E+03  0.57872365343E+03  0.90957881771E+02  0.73455136822E+03  0.10100000352E+00 0. -1.
       -3    1    3    3    0  502 -0.44313801356E+03 -0.57872365343E+03  0.52377475345E+03  0.89757025834E+03  0.10100000352E+00 0.  1.
</event>
<event>
 5   0  0.1993623E-03  0.1503047E+04  0.7818609E-02  0.8882429E-01
        2   -1    0    0  501    0  0.00000000000E+00  0.00000000000E+00  0.10356803564E+04  0.10356803564E+04  0.25500000920E-02 0. -1.
       -2   -1    0    0    0  501  0.00000000000E+00  0.00000000000E+00 -0.54533003831E+03  0.54533003832E+03  0.25500000920E-02 0.  1.
    10030    2    1    2    0    0  0.00000000000E+00  0.00000000000E+00  0.49035031809E+03  0.15810103947E+04  0.15030470498E+04 0.  0.
        4    1    3    3  502    0  0.52563603904E+03 -0.51693569227E+03  0.91767039811E+02  0.74292567460E+03  0.12699999809E+01 0. -1.
       -4    1    3    3    0  502 -0.52563603904E+03  0.51693569227E+03  0.39858327828E+03  0.83808472012E+03  0.12699999809E+01 0.  1.
</event>
<event>
 5   0  0.7468375E-04  0.1530789E+04  0.7818609E-02  0.8864233E-01
        4   -1    0    0  501    0  0.00000000000E+00  0.00000000000E+00  0.13778852630E+04  0.13778858482E+04  0.12699999809E+01 0. -1.
       -4   -1    0    0    0  501  0.00000000000E+00  0.00000000000E+00 -0.42516326089E+03  0.42516515769E+03  0.12699999809E+01 0.  1.
    10030    2    1    2    0    0  0.00000000000E+00  0.00000000000E+00  0.95272200207E+03  0.18030510059E+04  0.15307885931E+04 0.  0.
        4    1    3    3  502    0 -0.29223542124E+03  0.54527927153E+03  0.10071760863E+04  0.11820052060E+04  0.12699999809E+01 0. -1.
       -4    1    3    3    0  502  0.29223542124E+03 -0.54527927153E+03 -0.54454084225E+02  0.62104579990E+03  0.12699999809E+01 0.  1.
</event>
<event>
 5   0  0.1078787E-03  0.1544041E+04  0.7818609E-02  0.8855683E-01
       -1   -1    0    0    0  501  0.00000000000E+00  0.00000000000E+00  0.73910171644E+03  0.73910171646E+03  0.50400001928E-02 0. -1.
        1   -1    0    0  501    0  0.00000000000E+00  0.00000000000E+00 -0.80640536686E+03  0.80640536687E+03  0.50400001928E-02 0.  1.
    10030    2    1    2    0    0  0.00000000000E+00  0.00000000000E+00 -0.67303650415E+02  0.15455070833E+04  0.15440409202E+04 0.  0.
        5    1    3    3  502    0 -0.57736724841E+03 -0.26470552897E+03 -0.47289826540E+03  0.79188181948E+03  0.46999998093E+01 0.  1.
       -5    1    3    3    0  502  0.57736724841E+03  0.26470552897E+03  0.40559461499E+03  0.75362526385E+03  0.46999998093E+01 0. -1.
</event>
<event>
 5   0  0.2150197E-03  0.1367868E+04  0.7818609E-02  0.8977411E-01
        2   -1    0    0  501    0  0.00000000000E+00  0.00000000000E+00  0.17537240377E+04  0.17537240377E+04  0.25500000920E-02 0.  1.
       -2   -1    0    0    0  501  0.00000000000E+00  0.00000000000E+00 -0.26672709939E+03  0.26672709940E+03  0.25500000920E-02 0. -1.
    10030    2    1    2    0    0  0.00000000000E+00  0.00000000000E+00  0.14869969383E+04  0.20204511371E+04  0.13678680137E+04 0.  0.
        3    1    3    3  502    0  0.15504878202E+03 -0.34052569026E+03 -0.10214506120E+03  0.38785499128E+03  0.10100000352E+00 0. -1.
       -3    1    3    3    0  502 -0.15504878202E+03  0.34052569026E+03  0.15891419995E+04  0.16325961458E+04  0.10100000352E+00 0.  1.
</event>
<event>
 5   0  0.2094566E-03  0.1457392E+04  0.7818609E-02  0.8913292E-01
       -2   -1    0    0    0  501  0.00000000000E+00  0.00000000000E+00  0.51168801435E+03  0.51168801435E+03  0.25500000920E-02 0.  1.
        2   -1    0    0  501    0  0.00000000000E+00  0.00000000000E+00 -0.10377377723E+04  0.10377377723E+04  0.25500000920E-02 0. -1.
    10030    2    1    2    0    0  0.00000000000E+00  0.00000000000E+00 -0.52604975799E+03  0.15494257867E+04  0.14573921643E+04 0.  0.
        1    1    3    3  502    0 -0.63641802571E+03  0.11273993992E+03 -0.62081818514E+03  0.89618827069E+03  0.50400001928E-02 0.  1.
       -1    1    3    3    0  502  0.63641802571E+03 -0.11273993992E+03  0.94768427149E+02  0.65323751600E+03  0.50400001928E-02 0. -1.
</event>
<event>
 5   0  0.1993623E-03  0.1407634E+04  0.7818609E-02  0.8948311E-01
       -2   -1    0    0    0  501  0.00000000000E+00  0.00000000000E+00  0.23837085796E+03  0.23837085797E+03  0.25500000920E-02 0. -1.
        2   -1    0    0  501    0  0.00000000000E+00  0.00000000000E+00 -0.20780986214E+04  0.20780986214E+04  0.25500000920E-02 0.  1.
    10030    2    1    2    0    0  0.00000000000E+00  0.00000000000E+00 -0.18397277634E+04  0.23164694794E+04  0.14076336900E+04 0.  0.
        4    1    3    3  502    0 -0.35123553847E+02  0.49005299692E+03 -0.90530897462E+02  0.49958288613E+03  0.12699999809E+01 0. -1.
       -4    1    3    3    0  502  0.35123553847E+02 -0.49005299692E+03 -0.17491968660E+04  0.18168865932E+04  0.12699999809E+01 0.  1.
</event>
<event>
 5   0  0.2094566E-03  0.1637885E+04  0.7818609E-02  0.8797606E-01
       -2   -1    0    0    0  501  0.00000000000E+00  0.00000000000E+00  0.64280220141E+03  0.64280220141E+03  0.25500000920E-02 0. -1.
        2   -1    0    0  501    0  0.00000000000E+00  0.00000000000E+00 -0.10433485063E+04  0.10433485063E+04  0.25500000920E-02 0.  1.
    10030    2    1    2    0    0  0.00000000000E+00  0.00000000000E+00 -0.40054630488E+03  0.16861507077E+04  0.16378848759E+04 0.  0.
        1    1    3    3  502    0 -0.28082823178E+03  0.46138129086E+03  0.43343929751E+03  0.69253650877E+03  0.50400001928E-02 0. -1.
       -1    1    3    3    0  502  0.28082823178E+03 -0.46138129086E+03 -0.83398560239E+03  0.99361419894E+03  0.50400001928E-02 0.  1.
</event>
<event>
 5   0  0.2150197E-03  0.1489190E+04  0.7818609E-02  0.8891673E-01
       -2   -1    0    0    0  501  0.00000000000E+00  0.00000000000E+00  0.43571569498E+03  0.43571569499E+03  0.25500000920E-02 0.  1.
        2   -1    0    0  501    0  0.00000000000E+00  0.00000000000E+00 -0.12724391826E+04  0.12724391826E+04  0.25500000920E-02 0. -1.
    10030    2    1    2    0    0  0.00000000000E+00  0.00000000000E+00 -0.83672348766E+03  0.17081548776E+04  0.14891900118E+04 0.  0.
        3    1    3    3  502    0 -0.26373174418E+03  0.36640859252E+03 -0.10975505710E+04  0.11867716527E+04  0.10100000352E+00 0. -1.
       -3    1    3    3    0  502  0.26373174418E+03 -0.36640859252E+03  0.26082708338E+03  0.52138322488E+03  0.10100000352E+00 0.  1.
</event>
<event>
 5   0  0.1961098E-03  0.1492046E+04  0.7818609E-02  0.8889760E-01
        2   -1    0    0  501    0  0.00000000000E+00  0.00000000000E+00  0.83025829335E+03  0.83025829336E+03  0.25500000920E-02 0.  1.
       -2   -1    0    0    0  501  0.00000000000E+00  0.00000000000E+00 -0.67033364717E+03  0.67033364717E+03  0.25500000920E-02 0. -1.
    10030    2    1    2    0    0  0.00000000000E+00  0.00000000000E+00  0.15992464619E+03  0.15005919405E+04  0.14920456694E+04 0.  0.
        2    1    3    3  502    0 -0.10832829641E+03  0.16401348882E+03 -0.64382268094E+03  0.67315903679E+03  0.25500000920E-02 0. -1.
       -2    1    3    3    0  502  0.10832829641E+03 -0.16401348882E+03  0.80374732713E+03  0.82743290374E+03  0.25500000920E-02 0.  1.
</event>
<event>
 5   0  0.2094566E-03  0.1555256E+04  0.7818609E-02  0.8848518E-01
       -2   -1    0    0    0  501  0.00000000000E+00  0.00000000000E+00  0.97361345532E+03  0.97361345532E+03  0.25500000920E-02 0. -1.
        2   -1    0    0  501    0  0.00000000000E+00  0.00000000000E+00 -0.62109364980E+03  0.62109364981E+03  0.25500000920E-02 0.  1.
    10030    2    1    2    0    0  0.00000000000E+00  0.00000000000E+00  0.35251980552E+03  0.15947071051E+04  0.15552557789E+04 0.  0.
        1    1    3    3  502    0 -0.66782726713E+03 -0.30184886504E+03 -0.90333676643E+02  0.73842140355E+03  0.50400001928E-02 0.  1.
       -1    1    3    3    0  502  0.66782726713E+03  0.30184886504E+03  0.44285348216E+03  0.85628570159E+03  0.50400001928E-02 0. -1.
</event>
<event>
 5   0  0.1961098E-03  0.1560829E+04  0.7818609E-02  0.8844980E-01
       -2   -1    0    0    0  501  0.00000000000E+00  0.00000000000E+00  0.76670319583E+03  0.76670319584E+03  0.25500000920E-02 0.  1.
        2   -1    0    0  501    0  0.00000000000E+00  0.00000000000E+00 -0.79437123345E+03  0.79437123346E+03  0.25500000920E-02 0. -1.
    10030    2    1    2    0    0  0.00000000000E+00  0.00000000000E+00 -0.27668037620E+02  0.15610744293E+04  0.15608292198E+04 0.  0.
        2    1    3    3  502    0  0.24443077198E+02 -0.74452850746E+03 -0.24652224182E+03  0.78466131430E+03  0.25500000920E-02 0. -1.
       -2    1    3    3    0  502 -0.24443077198E+02  0.74452850746E+03  0.21885420420E+03  0.77641311500E+03  0.25500000920E-02 0.  1.
</event>
<event>
 5   0  0.1077140E-03  0.1489299E+04  0.7818609E-02  0.8891600E-01
       -1   -1    0    0    0  501  0.00000000000E+00  0.00000000000E+00  0.46646157096E+03  0.46646157099E+03  0.50400001928E-02 0. -1.
        1   -1    0    0  501    0  0.00000000000E+00  0.00000000000E+00 -0.11887426479E+04  0.11887426479E+04  0.50400001928E-02 0.  1.
    10030    2    1    2    0    0  0.00000000000E+00  0.00000000000E+00 -0.72228107690E+03  0.16552042189E+04  0.14892988458E+04 0.  0.
        1    1    3    3  502    0  0.43650197234E+03 -0.23539095602E+02 -0.10311346382E+04  0.11199672777E+04  0.50400001928E-02 0.  1.
       -1    1    3    3    0  502 -0.43650197234E+03  0.23539095602E+02  0.30885356130E+03  0.53523694121E+03  0.50400001928E-02 0. -1.
</event>
<event>
 5   0  0.1069697E-03  0.1486469E+04  0.7818609E-02  0.8893501E-01
        1   -1    0    0  501    0  0.00000000000E+00  0.00000000000E+00  0.12062792336E+04  0.12062792336E+04  0.50400001928E-02 0. -1.
       -1   -1    0    0    0  501  0.00000000000E+00  0.00000000000E+00 -0.45793528645E+03  0.45793528647E+03  0.50400001928E-02 0.  1.
    10030    2    1    2    0    0  0.00000000000E+00  0.00000000000E+00  0.74834394718E+03  0.16642145201E+04  0.14864694096E+04 0.  0.
        2    1    3    3  502    0  0.29391248821E+03 -0.67925648714E+03  0.45030227756E+03  0.86634061848E+03  0.25500000920E-02 0.  1.
       -2    1    3    3    0  502 -0.29391248821E+03  0.67925648714E+03  0.29804166962E+03  0.79787390162E+03  0.25500000920E-02 0. -1.
</event>
<event>
 5   0  0.1078018E-03  0.1477875E+04  0.7818609E-02  0.8899301E-01
        1   -1    0    0  501    0  0.00000000000E+00  0.00000000000E+00  0.11018917165E+04  0.11018917165E+04  0.50400001928E-02 0. -1.
       -1   -1    0    0    0  501  0.00000000000E+00  0.00000000000E+00 -0.49553722221E+03  0.49553722223E+03  0.50400001928E-02 0.  1.
    10030    2    1    2    0    0  0.00000000000E+00  0.00000000000E+00  0.60635449432E+03  0.15974289388E+04  0.14778746367E+04 0.  0.
        4    1    3    3  502    0 -0.11140771185E+03  0.57875246847E+03  0.78494738543E+03  0.98158550764E+03  0.12699999809E+01 0. -1.
       -4    1    3    3    0  502  0.11140771185E+03 -0.57875246847E+03 -0.17859289110E+03  0.61584343114E+03  0.12699999809E+01 0.  1.
</event>
<event>
 5   0  0.7468375E-04  0.1157574E+04  0.7818609E-02  0.9150825E-01
        3   -1    0    0  501    0  0.00000000000E+00  0.00000000000E+00  0.35784065882E+03  0.35784067307E+03  0.10100000352E+00 0.  1.
       -3   -1    0    0    0  501  0.00000000000E+00  0.00000000000E+00 -0.93615483003E+03  0.93615483548E+03  0.10100000352E+00 0. -1.
    10030    2    1    2    0    0  0.00000000000E+00  0.00000000000E+00 -0.57831417121E+03  0.12939955086E+04  0.11575737970E+04 0.  0.
        2    1    3    3  502    0  0.48064715549E+03 -0.10148043414E+03 -0.63128958221E+03  0.79990405875E+03  0.25500000920E-02 0. -1.
       -2    1    3    3    0  502 -0.48064715549E+03  0.10148043414E+03  0.52975410996E+02  0.49409144980E+03  0.25500000920E-02 0.  1.
</event>
<event>
 5   0  0.2150197E-03  0.1706904E+04  0.7818609E-02  0.8757437E-01
       -2   -1    0    0    0  501  0.00000000000E+00  0.00000000000E+00  0.65288094598E+03  0.65288094598E+03  0.25500000920E-02 0. -1.
        2   -1    0    0  501    0  0.00000000000E+00  0.00000000000E+00 -0.11156402697E+04  0.11156402697E+04  0.25500000920E-02 0.  1.
    10030    2    1    2    0    0  0.00000000000E+00  0.00000000000E+00 -0.46275932374E+03  0.17685212157E+04  0.17069039512E+04 0.  0.
        3    1    3    3  502    0  0.53432998635E+03  0.45825938761E+03  0.26860654257E+03  0.75343193823E+03  0.10100000352E+00 0. -1.
       -3    1    3    3    0  502 -0.53432998635E+03 -0.45825938761E+03 -0.73136586630E+03  0.10150892775E+04  0.10100000352E+00 0.  1.
</event>
<event>
 5   0  0.2150197E-03  0.1473041E+04  0.7818609E-02  0.8902581E-01
       -2   -1    0    0    0  501  0.00000000000E+00  0.00000000000E+00  0.43640305750E+03  0.43640305750E+03  0.25500000920E-02 0.  1.
        2   -1    0    0  501    0  0.00000000000E+00  0.00000000000E+00 -0.12430308635E+04  0.12430308635E+04  0.25500000920E-02 0. -1.
    10030    2    1    2    0    0  0.00000000000E+00  0.00000000000E+00 -0.80662780604E+03  0.16794339210E+04  0.14730410305E+04 0.  0.
        3    1    3    3  502    0  0.24906413749E+03 -0.65650702083E+03 -0.65678870879E+03  0.96146025980E+03  0.10100000352E+00 0. -1.
       -3    1    3    3    0  502 -0.24906413749E+03  0.65650702083E+03 -0.14983909726E+03  0.71797366125E+03  0.10100000352E+00 0.  1.
</event>
<event>
 5   0  0.1087761E-03  0.1531773E+04  0.7818609E-02  0.8863595E-01
        1   -1    0    0  501    0  0.00000000000E+00  0.00000000000E+00  0.10259506783E+04  0.10259506783E+04  0.50400001928E-02 0.  1.
       -1   -1    0    0    0  501  0.00000000000E+00  0.00000000000E+00 -0.57174470604E+03  0.57174470606E+03  0.50400001928E-02 0. -1.
    10030    2    1    2    0    0  0.00000000000E+00  0.00000000000E+00  0.45420597223E+03  0.15976953843E+04  0.15317726580E+04 0.  0.
        3    1    3    3  502    0  0.46789300164E+03 -0.51899734944E+03 -0.99918186887E+02  0.70587942596E+03  0.10100000352E+00 0. -1.
       -3    1    3    3    0  502 -0.46789300164E+03  0.51899734944E+03  0.55412415911E+03  0.89181595838E+03  0.10100000352E+00 0.  1.
</event>
<event>
 5   0  0.1078018E-03  0.1675652E+04  0.7818609E-02  0.8775374E-01
       -1   -1    0    0    0  501  0.00000000000E+00  0.00000000000E+00  0.47413099462E+03  0.47413099465E+03  0.50400001928E-02 0.  1.
        1   -1    0    0  501    0  0.00000000000E+00  0.00000000000E+00 -0.14805035515E+04  0.14805035515E+04  0.50400001928E-02 0. -1.
    10030    2    1    2    0    0  0.00000000000E+00  0.00000000000E+00 -0.10063725569E+04  0.19546345462E+04  0.16756522568E+04 0.  0.
        4    1    3    3  502    0 -0.61357490830E+03  0.26498403588E+03 -0.10925363127E+04  0.12807528703E+04  0.12699999809E+01 0. -1.
       -4    1    3    3    0  502  0.61357490830E+03 -0.26498403588E+03  0.86163755779E+02  0.67388167587E+03  0.12699999809E+01 0.  1.
</event>
<event>
 5   0  0.1078787E-03  0.1529529E+04  0.7818609E-02  0.8865051E-01
        1   -1    0    0  501    0  0.00000000000E+00  0.00000000000E+00  0.22860101561E+04  0.22860101561E+04  0.50400001928E-02 0.  1.
       -1   -1    0    0    0  501  0.00000000000E+00  0.00000000000E+00 -0.25584516506E+03  0.25584516511E+03  0.50400001928E-02 0. -1.
    10030    2    1    2    0    0  0.00000000000E+00  0.00000000000E+00  0.20301649910E+04  0.25418553212E+04  0.15295288762E+04 0.  0.
        5    1    3    3  502    0 -0.58374507902E+03 -0.24788890379E+03  0.17252904688E+04  0.18381666186E+04  0.46999998093E+01 0.  1.
       -5    1    3    3    0  502  0.58374507902E+03  0.24788890379E+03  0.30487452220E+03  0.70368870262E+03  0.46999998093E+01 0. -1.
</event>
<event>
 5   0  0.1993623E-03  0.1551277E+04  0.7818609E-02  0.8851053E-01
        2   -1    0    0  501    0  0.00000000000E+00  0.00000000000E+00  0.14424617432E+04  0.14424617432E+04  0.25500000920E-02 0. -1.
       -2   -1    0    0    0  501  0.00000000000E+00  0.00000000000E+00 -0.41707521822E+03  0.41707521823E+03  0.25500000920E-02 0.  1.
    10030    2    1    2    0    0  0.00000000000E+00  0.00000000000E+00  0.10253865249E+04  0.18595369614E+04  0.15512769531E+04 0.  0.
        4    1    3    3  502    0 -0.60995517015E+03 -0.18966939764E+03  0.10401186388E+04  0.12206015671E+04  0.12699999809E+01 0. -1.
       -4    1    3    3    0  502  0.60995517015E+03  0.18966939764E+03 -0.14732113830E+02  0.63893539429E+03  0.12699999809E+01 0.  1.
</event>
<event>
 5   0  0.1993623E-03  0.1476240E+04  0.7818609E-02  0.8900409E-01
        2   -1    0    0  501    0  0.00000000000E+00  0.00000000000E+00  0.92400633865E+03  0.92400633865E+03  0.25500000920E-02 0.  1.
       -2   -1    0    0    0  501  0.00000000000E+00  0.00000000000E+00 -0.58962890805E+03  0.58962890806E+03  0.25500000920E-02 0. -1.
    10030    2    1    2    0    0  0.00000000000E+00  0.00000000000E+00  0.33437743060E+03  0.15136352467E+04  0.14762396127E+04 0.  0.
        4    1    3    3  502    0 -0.63659250145E+03  0.31069055123E+03  0.37990637996E+03  0.80380912035E+03  0.12699999809E+01 0.  1.
       -4    1    3    3    0  502  0.63659250145E+03 -0.31069055123E+03 -0.45528949367E+02  0.70982612636E+03  0.12699999809E+01 0. -1.
</event>
<event>
 5   0  0.2150197E-03  0.1546488E+04  0.7818609E-02  0.8854114E-01
        2   -1    0    0  501    0  0.00000000000E+00  0.00000000000E+00  0.14656564997E+04  0.14656564997E+04  0.25500000920E-02 0. -1.
       -2   -1    0    0    0  501  0.00000000000E+00  0.00000000000E+00 -0.40794412656E+03  0.40794412656E+03  0.25500000920E-02 0.  1.
    10030    2    1    2    0    0  0.00000000000E+00  0.00000000000E+00  0.10577123731E+04  0.18736006262E+04  0.15464875824E+04 0.  0.
        3    1    3    3  502    0 -0.24860038077E+02  0.12404910378E+03 -0.39531978040E+03  0.41507100672E+03  0.10100000352E+00 0.  1.
       -3    1    3    3    0  502  0.24860038077E+02 -0.12404910378E+03  0.14530321535E+04  0.14585296195E+04  0.10100000352E+00 0. -1.
</event>
<event>
 5   0  0.1077140E-03  0.1531713E+04  0.7818609E-02  0.8863634E-01
       -1   -1    0    0    0  501  0.00000000000E+00  0.00000000000E+00  0.90305980137E+03  0.90305980139E+03  0.50400001928E-02 0.  1.
        1   -1    0    0  501    0  0.00000000000E+00  0.00000000000E+00 -0.64949839348E+03  0.64949839350E+03  0.50400001928E-02 0. -1.
    10030    2    1    2    0    0  0.00000000000E+00  0.00000000000E+00  0.25356140789E+03  0.15525581949E+04  0.15317126235E+04 0.  0.
        1    1    3    3  502    0 -0.17834307162E+03  0.25886291962E+03 -0.58109289199E+03  0.66067027442E+03  0.50400001928E-02 0. -1.
       -1    1    3    3    0  502  0.17834307162E+03 -0.25886291962E+03  0.83465429988E+03  0.89188792047E+03  0.50400001928E-02 0.  1.
</event>
<event>
 5   0  0.1993623E-03  0.1417368E+04  0.7818609E-02  0.8941342E-01
       -2   -1    0    0    0  501  0.00000000000E+00  0.00000000000E+00  0.51866522261E+03  0.51866522261E+03  0.25500000920E-02 0. -1.
        2   -1    0    0  501    0  0.00000000000E+00  0.00000000000E+00 -0.96831873807E+03  0.96831873807E+03  0.25500000920E-02 0.  1.
    10030    2    1    2    0    0  0.00000000000E+00  0.00000000000E+00 -0.44965351546E+03  0.14869839607E+04  0.14173683415E+04 0.  0.
        4    1    3    3  502    0  0.13238781005E+03 -0.15609242262E+03 -0.93663504063E+03  0.95873781029E+03  0.12699999809E+01 0.  1.
       -4    1    3    3    0  502 -0.13238781005E+03  0.15609242262E+03  0.48698152517E+03  0.52824615039E+03  0.12699999809E+01 0. -1.
</event>
<event>
 5   0  0.1078018E-03  0.1530202E+04  0.7818609E-02  0.8864614E-01
       -1   -1    0    0    0  501  0.00000000000E+00  0.00000000000E+00  0.51514385802E+03  0.51514385804E+03  0.50400001928E-02 0. -1.
        1   -1    0    0  501    0  0.00000000000E+00  0.00000000000E+00 -0.11363413618E+04  0.11363413618E+04  0.50400001928E-02 0.  1.
    10030    2    1    2    0    0  0.00000000000E+00  0.00000000000E+00 -0.62119750378E+03  0.16514852199E+04  0.15302016510E+04 0.  0.
        4    1    3    3  502    0  0.45542983316E+03 -0.60677522892E+03 -0.41735904186E+03  0.86589993307E+03  0.12699999809E+01 0.  1.
       -4    1    3    3    0  502 -0.45542983316E+03  0.60677522892E+03 -0.20383846192E+03  0.78558528679E+03  0.12699999809E+01 0. -1.
</event>
<event>
 5   0  0.2094566E-03  0.1576426E+04  0.7818609E-02  0.8835163E-01
       -2   -1    0    0    0  501  0.00000000000E+00  0.00000000000E+00  0.72672735572E+03  0.72672735572E+03  0.25500000920E-02 0. -1.
        2   -1    0    0  501    0  0.00000000000E+00  0.00000000000E+00 -0.85490089156E+03  0.85490089156E+03  0.25500000920E-02 0.  1.
    10030    2    1    2    0    0  0.00000000000E+00  0.00000000000E+00 -0.12817353584E+03  0.15816282473E+04  0.15764261661E+04 0.  0.
        1    1    3    3  502    0 -0.30610014120E+03 -0.58227917858E+03 -0.49972408313E+03  0.82611772620E+03  0.50400001928E-02 0. -1.
       -1    1    3    3    0  502  0.30610014120E+03  0.58227917858E+03  0.37155054729E+03  0.75551052109E+03  0.50400001928E-02 0.  1.
</event>
<event>
 5   0  0.2111533E-03  0.1583432E+04  0.7818609E-02  0.8830792E-01
       -2   -1    0    0    0  501  0.00000000000E+00  0.00000000000E+00  0.36129662725E+03  0.36129662726E+03  0.25500000920E-02 0. -1.
        2   -1    0    0  501    0  0.00000000000E+00  0.00000000000E+00 -0.17349012748E+04  0.17349012748E+04  0.25500000920E-02 0.  1.
    10030    2    1    2    0    0  0.00000000000E+00  0.00000000000E+00 -0.13736046476E+04  0.20961979021E+04  0.15834316900E+04 0.  0.
        5    1    3    3  502    0  0.18605589656E+03 -0.52626921313E+03  0.56451143801E+02  0.56105695163E+03  0.46999998093E+01 0. -1.
       -5    1    3    3    0  502 -0.18605589656E+03  0.52626921313E+03 -0.14300557914E+04  0.15351409505E+04  0.46999998093E+01 0.  1.
</event>
<event>
 5   0  0.1077140E-03  0.1400270E+04  0.7818609E-02  0.8953623E-01
       -1   -1    0    0    0  501  0.00000000000E+00  0.00000000000E+00  0.61167228877E+03  0.61167228879E+03  0.50400001928E-02 0.  1.
        1   -1    0    0  501    0  0.00000000000E+00  0.00000000000E+00 -0.80139119401E+03  0.80139119402E+03  0.50400001928E-02 0. -1.
    10030    2    1    2    0    0  0.00000000000E+00  0.00000000000E+00 -0.18971890523E+03  0.14130634828E+04  0.14002696681E+04 0.  0.
        1    1    3    3  502    0  0.31818945300E+03  0.61991690104E+03 -0.26065533867E+02  0.69729542109E+03  0.50400001928E-02 0. -1.
       -1    1    3    3    0  502 -0.31818945300E+03 -0.61991690104E+03 -0.16365337137E+03  0.71576806172E+03  0.50400001928E-02 0.  1.
</event>
<event>
 5   0  0.1077140E-03  0.1501522E+04  0.7818609E-02  0.8883441E-01
        1   -1    0    0  501    0  0.00000000000E+00  0.00000000000E+00  0.19920853829E+04  0.19920853829E+04  0.50400001928E-02 0.  1.
       -1   -1    0    0    0  501  0.00000000000E+00  0.00000000000E+00 -0.28294079258E+03  0.28294079262E+03  0.50400001928E-02 0. -1.
    10030    2    1    2    0    0  0.00000000000E+00  0.00000000000E+00  0.17091445904E+04  0.22750261756E+04  0.15015221839E+04 0.  0.
        1    1    3    3  502    0  0.15724190897E+03  0.63863417158E+03  0.14030963548E+04  0.15495993043E+04  0.50400001928E-02 0.  1.
       -1    1    3    3    0  502 -0.15724190897E+03 -0.63863417158E+03  0.30604823559E+03  0.72542687128E+03  0.50400001928E-02 0. -1.
</event>
<event>
 5   0  0.1078018E-03  0.1327410E+04  0.7818609E-02  0.9008106E-01
       -1   -1    0    0    0  501  0.00000000000E+00  0.00000000000E+00  0.55094634654E+03  0.55094634657E+03  0.50400001928E-02 0.  1.
        1   -1    0    0  501    0  0.00000000000E+00  0.00000000000E+00 -0.79954174093E+03  0.79954174095E+03  0.50400001928E-02 0. -1.
    10030    2    1    2    0    0  0.00000000000E+00  0.00000000000E+00 -0.24859539439E+03  0.13504880875E+04  0.13274104130E+04 0.  0.
        4    1    3    3  502    0  0.26633531548E+03  0.39592961427E+03  0.34503384832E+03  0.58885034526E+03  0.12699999809E+01 0.  1.
       -4    1    3    3    0  502 -0.26633531548E+03 -0.39592961427E+03 -0.59362924271E+03  0.76163774225E+03  0.12699999809E+01 0. -1.
</event>
<event>
 5   0  0.1993623E-03  0.1459719E+04  0.7818609E-02  0.8911690E-01
        2   -1    0    0  501    0  0.00000000000E+00  0.00000000000E+00  0.59498160060E+03  0.59498160060E+03  0.25500000920E-02 0. -1.
       -2   -1    0    0    0  501  0.00000000000E+00  0.00000000000E+00 -0.89531325187E+03  0.89531325187E+03  0.25500000920E-02 0.  1.
    10030    2    1    2    0    0  0.00000000000E+00  0.00000000000E+00 -0.30033165127E+03  0.14902948525E+04  0.14597190300E+04 0.  0.
        4    1    3    3  502    0  0.34116476262E+03  0.34855728147E+03 -0.70450090348E+03  0.85685979578E+03  0.12699999809E+01 0.  1.
       -4    1    3    3    0  502 -0.34116476262E+03 -0.34855728147E+03  0.40416925221E+03  0.63343505669E+03  0.12699999809E+01 0. -1.
</event>
<event>
 5   0  0.1077140E-03  0.1517998E+04  0.7818609E-02  0.8872572E-01
       -1   -1    0    0    0  501  0.00000000000E+00  0.00000000000E+00  0.26935333886E+03  0.26935333891E+03  0.50400001928E-02 0.  1.
        1   -1    0    0  501    0  0.00000000000E+00  0.00000000000E+00 -0.21387490734E+04  0.21387490734E+04  0.50400001928E-02 0. -1.
    10030    2    1    2    0    0  0.00000000000E+00  0.00000000000E+00 -0.18693957346E+04  0.24081024123E+04  0.15179976337E+04 0.  0.
        1    1    3    3  502    0  0.70527404400E+02 -0.22760166850E+03  0.20848075383E+03  0.31660836852E+03  0.50400001928E-02 0.  1.
       -1    1    3    3    0  502 -0.70527404400E+02  0.22760166850E+03 -0.20778764884E+04  0.20914940438E+04  0.50400001928E-02 0. -1.
</event>
<event>
 5   0  0.2094566E-03  0.1301530E+04  0.7818609E-02  0.9028352E-01
       -2   -1    0    0    0  501  0.00000000000E+00  0.00000000000E+00  0.33410001272E+03  0.33410001273E+03  0.25500000920E-02 0. -1.
        2   -1    0    0  501    0  0.00000000000E+00  0.00000000000E+00 -0.12675704323E+04  0.12675704323E+04  0.25500000920E-02 0.  1.
    10030    2    1    2    0    0  0.00000000000E+00  0.00000000000E+00 -0.93347041954E+03  0.16016704450E+04  0.13015303263E+04 0.  0.
        1    1    3    3  502    0 -0.16195557693E+03 -0.44102322070E+03 -0.10208688514E+04  0.11237901503E+04  0.50400001928E-02 0.  1.
       -1    1    3    3    0  502  0.16195557693E+03  0.44102322070E+03  0.87398431907E+02  0.47788029466E+03  0.50400001928E-02 0. -1.
</event>
<event>
 5   0  0.7468375E-04  0.1500335E+04  0.7818609E-02  0.8884230E-01
        3   -1    0    0  501    0  0.00000000000E+00  0.00000000000E+00  0.13027174288E+04  0.13027174327E+04  0.10100000352E+00 0. -1.
       -3   -1    0    0    0  501  0.00000000000E+00  0.00000000000E+00 -0.43198284242E+03  0.43198285423E+03  0.10100000352E+00 0.  1.
    10030    2    1    2    0    0  0.00000000000E+00  0.00000000000E+00  0.87073458637E+03  0.17347002869E+04  0.15003354177E+04 0.  0.
        5    1    3    3  502    0  0.60425428928E+02 -0.16571585642E+03 -0.40764774994E+03  0.44419787883E+03  0.46999998093E+01 0.  1.
       -5    1    3    3    0  502 -0.60425428928E+02  0.16571585642E+03  0.12783823363E+04  0.12905024081E+04  0.46999998093E+01 0. -1.
</event>
<event>
 5   0  0.7468375E-04  0.1518298E+04  0.7818609E-02  0.8872376E-01
        3   -1    0    0  501    0  0.00000000000E+00  0.00000000000E+00  0.85239381022E+03  0.85239381620E+03  0.10100000352E+00 0. -1.
       -3   -1    0    0    0  501  0.00000000000E+00  0.00000000000E+00 -0.67610401938E+03  0.67610402692E+03  0.10100000352E+00 0.  1.
    10030    2    1    2    0    0  0.00000000000E+00  0.00000000000E+00  0.17628979084E+03  0.15284978431E+04  0.15182975881E+04 0.  0.
        2    1    3    3  502    0 -0.17787515107E+03  0.51924965639E+03 -0.43982781586E+03  0.70335501892E+03  0.25500000920E-02 0.  1.
       -2    1    3    3    0  502  0.17787515107E+03 -0.51924965639E+03  0.61611760671E+03  0.82514282420E+03  0.25500000920E-02 0. -1.
</event>
<event>
 5   0  0.2150197E-03  0.1492987E+04  0.7818609E-02  0.8889130E-01
       -2   -1    0    0    0  501  0.00000000000E+00  0.00000000000E+00  0.36051328609E+03  0.36051328609E+03  0.25500000920E-02 0. -1.
        2   -1    0    0  501    0  0.00000000000E+00  0.00000000000E+00 -0.15457197361E+04  0.15457197361E+04  0.25500000920E-02 0.  1.
    10030    2    1    2    0    0  0.00000000000E+00  0.00000000000E+00 -0.11852064500E+04  0.19062330222E+04  0.14929869409E+04 0.  0.
        3    1    3    3  502    0 -0.39636718124E+03 -0.20246902881E+03 -0.13577751525E+04  0.14288645929E+04  0.10100000352E+00 0.  1.
       -3    1    3    3    0  502  0.39636718124E+03  0.20246902881E+03  0.17256870247E+03  0.47736842927E+03  0.10100000352E+00 0. -1.
</event>
<event>
 5   0  0.1077140E-03  0.1584584E+04  0.7818609E-02  0.8830075E-01
       -1   -1    0    0    0  501  0.00000000000E+00  0.00000000000E+00  0.43485228211E+03  0.43485228214E+03  0.50400001928E-02 0.  1.
        1   -1    0    0  501    0  0.00000000000E+00  0.00000000000E+00 -0.14435397128E+04  0.14435397128E+04  0.50400001928E-02 0. -1.
    10030    2    1    2    0    0  0.00000000000E+00  0.00000000000E+00 -0.10086874307E+04  0.18783919950E+04  0.15845839056E+04 0.  0.
        1    1    3    3  502    0  0.19831308198E+03 -0.46323343375E+02 -0.14119832031E+04  0.14265940195E+04  0.50400001928E-02 0. -1.
       -1    1    3    3    0  502 -0.19831308198E+03  0.46323343375E+02  0.40329577237E+03  0.45179797549E+03  0.50400001928E-02 0.  1.
</event>
<event>
 5   0  0.7468375E-04  0.1473191E+04  0.7818609E-02  0.8902479E-01
        3   -1    0    0  501    0  0.00000000000E+00  0.00000000000E+00  0.48761903749E+03  0.48761904795E+03  0.10100000352E+00 0.  1.
       -3   -1    0    0    0  501  0.00000000000E+00  0.00000000000E+00 -0.11126990586E+04  0.11126990631E+04  0.10100000352E+00 0. -1.
    10030    2    1    2    0    0  0.00000000000E+00  0.00000000000E+00 -0.62508002107E+03  0.16003181111E+04  0.14731914417E+04 0.  0.
        2    1    3    3  502    0 -0.24409429914E+03 -0.31938881486E+03 -0.98304091761E+03  0.10620549363E+04  0.25500000920E-02 0. -1.
       -2    1    3    3    0  502  0.24409429914E+03  0.31938881486E+03  0.35796089654E+03  0.53826317484E+03  0.25500000920E-02 0.  1.
</event>
<event>
 5   0  0.2111533E-03  0.1524966E+04  0.7818609E-02  0.8868019E-01
       -2   -1    0    0    0  501  0.00000000000E+00  0.00000000000E+00  0.91607578172E+03  0.91607578172E+03  0.25500000920E-02 0.  1.
        2   -1    0    0  501    0  0.00000000000E+00  0.00000000000E+00 -0.63464183453E+03  0.63464183454E+03  0.25500000920E-02 0. -1.
    10030    2    1    2    0    0  0.00000000000E+00  0.00000000000E+00  0.28143394719E+03  0.15507176163E+04  0.15249655926E+04 0.  0.
        5    1    3    3  502    0 -0.50701446961E+03  0.56789639602E+03  0.18371500984E+03  0.78316236110E+03  0.46999998093E+01 0. -1.
       -5    1    3    3    0  502  0.50701446961E+03 -0.56789639602E+03  0.97718937352E+02  0.76755525516E+03  0.46999998093E+01 0.  1.
</event>
<event>
 5   0  0.1077140E-03  0.1554178E+04  0.7818609E-02  0.8849204E-01
        1   -1    0    0  501    0  0.00000000000E+00  0.00000000000E+00  0.56915008365E+03  0.56915008367E+03  0.50400001928E-02 0. -1.
       -1   -1    0    0    0  501  0.00000000000E+00  0.00000000000E+00 -0.10609982505E+04  0.10609982505E+04  0.50400001928E-02 0.  1.
    10030    2    1    2    0    0  0.00000000000E+00  0.00000000000E+00 -0.49184816686E+03  0.16301483342E+04  0.15541779088E+04 0.  0.
        1    1    3    3  502    0  0.47553513447E+03  0.10879210963E+02  0.39861779310E+03  0.62060306666E+03  0.50400001928E-02 0. -1.
       -1    1    3    3    0  502 -0.47553513447E+03 -0.10879210963E+02 -0.89046595996E+03  0.10095452675E+04  0.50400001928E-02 0.  1.
</event>
<event>
 5   0  0.1078787E-03  0.1524516E+04  0.7818609E-02  0.8868312E-01
       -1   -1    0    0    0  501  0.00000000000E+00  0.00000000000E+00  0.86552333866E+03  0.86552333868E+03  0.50400001928E-02 0. -1.
        1   -1    0    0  501    0  0.00000000000E+00  0.00000000000E+00 -0.67131325237E+03  0.67131325238E+03  0.50400001928E-02 0.  1.
    10030    2    1    2    0    0  0.00000000000E+00  0.00000000000E+00  0.19421008630E+03  0.15368365911E+04  0.15245160380E+04 0.  0.
        5    1    3    3  502    0 -0.71393182201E+03 -0.14161310150E+03 -0.13113647959E+03  0.73957540743E+03  0.46999998093E+01 0.  1.
       -5    1    3    3    0  502  0.71393182201E+03  0.14161310150E+03  0.32534656589E+03  0.79726118363E+03  0.46999998093E+01 0. -1.
</event>
<event>
 5   0  0.1087761E-03  0.1490355E+04  0.7818609E-02  0.8890892E-01
        1   -1    0    0  501    0  0.00000000000E+00  0.00000000000E+00  0.14565987659E+04  0.14565987659E+04  0.50400001928E-02 0.  1.
       -1   -1    0    0    0  501  0.00000000000E+00  0.00000000000E+00 -0.38122342174E+03  0.38122342177E+03  0.50400001928E-02 0. -1.
    10030    2    1    2    0    0  0.00000000000E+00  0.00000000000E+00  0.10753753441E+04  0.18378221877E+04  0.14903550794E+04 0.  0.
        3    1    3    3  502    0 -0.59406064594E+03 -0.43338305690E+03  0.68648797917E+03  0.10059794634E+04  0.10100000352E+00 0. -1.
       -3    1    3    3    0  502  0.59406064594E+03  0.43338305690E+03  0.38888736498E+03  0.83184272426E+03  0.10100000352E+00 0.  1.
</event>
<event>
 5   0  0.1993623E-03  0.1516902E+04  0.7818609E-02  0.8873290E-01
        2   -1    0    0  501    0  0.00000000000E+00  0.00000000000E+00  0.10882508876E+04  0.10882508876E+04  0.25500000920E-02 0. -1.
       -2   -1    0    0    0  501  0.00000000000E+00  0.00000000000E+00 -0.52859875087E+03  0.52859875087E+03  0.25500000920E-02 0.  1.
    10030    2    1    2    0    0  0.00000000000E+00  0.00000000000E+00  0.55965213675E+03  0.16168496385E+04  0.15169021852E+04 0.  0.
        4    1    3    3  502    0 -0.31825900722E+03  0.67967543976E+03  0.16306887695E+03  0.76801078809E+03  0.12699999809E+01 0.  1.
       -4    1    3    3    0  502  0.31825900722E+03 -0.67967543976E+03  0.39658325979E+03  0.84883885040E+03  0.12699999809E+01 0. -1.
</event>
<event>
 5   0  0.1069697E-03  0.1384767E+04  0.7818609E-02  0.8964920E-01
       -1   -1    0    0    0  501  0.00000000000E+00  0.00000000000E+00  0.13212339423E+04  0.13212339423E+04  0.50400001928E-02 0. -1.
        1   -1    0    0  501    0  0.00000000000E+00  0.00000000000E+00 -0.36283860592E+03  0.36283860596E+03  0.50400001928E-02 0.  1.
    10030    2    1    2    0    0  0.00000000000E+00  0.00000000000E+00  0.95839533634E+03  0.16840725482E+04  0.13847666688E+04 0.  0.
        2    1    3    3  502    0  0.61956095818E+03 -0.12119967803E+03  0.82499605956E+03  0.10388280133E+04  0.25500000920E-02 0. -1.
       -2    1    3    3    0  502 -0.61956095818E+03  0.12119967803E+03  0.13339927678E+03  0.64524453497E+03  0.25500000920E-02 0.  1.
</event>
<event>
 5   0  0.7468375E-04  0.1549279E+04  0.7818609E-02  0.8852329E-01
       -3   -1    0    0    0  501  0.00000000000E+00  0.00000000000E+00  0.55022633918E+03  0.55022634845E+03  0.10100000352E+00 0.  1.
        3   -1    0    0  501    0  0.00000000000E+00  0.00000000000E+00 -0.10905802517E+04  0.10905802564E+04  0.10100000352E+00 0. -1.
    10030    2    1    2    0    0  0.00000000000E+00  0.00000000000E+00 -0.54035391253E+03  0.16408066048E+04  0.15492785301E+04 0.  0.
        3    1    3    3  502    0  0.75416050763E+03  0.54997395903E+02 -0.44828852710E+03  0.87905938284E+03  0.10100000352E+00 0. -1.
       -3    1    3    3    0  502 -0.75416050763E+03 -0.54997395903E+02 -0.92065385430E+02  0.76174722200E+03  0.10100000352E+00 0.  1.
</event>
<event>
 5   0  0.2094566E-03  0.1483383E+04  0.7818609E-02  0.8895579E-01
        2   -1    0    0  501    0  0.00000000000E+00  0.00000000000E+00  0.10126388536E+04  0.10126388536E+04  0.25500000920E-02 0. -1.
       -2   -1    0    0    0  501  0.00000000000E+00  0.00000000000E+00 -0.54324012956E+03  0.54324012957E+03  0.25500000920E-02 0.  1.
    10030    2    1    2    0    0  0.00000000000E+00  0.00000000000E+00  0.46939872407E+03  0.15558789832E+04  0.14833827046E+04 0.  0.
        1    1    3    3  502    0  0.36731590818E+03 -0.41906402788E+03 -0.27868094577E+03  0.62305594086E+03  0.50400001928E-02 0.  1.
       -1    1    3    3    0  502 -0.36731590818E+03  0.41906402788E+03  0.74807966985E+03  0.93282304235E+03  0.50400001928E-02 0. -1.
</event>
<event>
 5   0  0.1993623E-03  0.1525596E+04  0.7818609E-02  0.8867608E-01
       -2   -1    0    0    0  501  0.00000000000E+00  0.00000000000E+00  0.30059296139E+03  0.30059296140E+03  0.25500000920E-02 0. -1.
        2   -1    0    0  501    0  0.00000000000E+00  0.00000000000E+00 -0.19357105499E+04  0.19357105499E+04  0.25500000920E-02 0.  1.
    10030    2    1    2    0    0  0.00000000000E+00  0.00000000000E+00 -0.16351175885E+04  0.22363035113E+04  0.15255962331E+04 0.  0.
        4    1    3    3  502    0 -0.85812771874E+02 -0.63875555725E+03 -0.14156688708E+04  0.15554717800E+04  0.12699999809E+01 0.  1.
       -4    1    3    3    0  502  0.85812771874E+02  0.63875555725E+03 -0.21944871770E+03  0.68083173129E+03  0.12699999809E+01 0. -1.
</event>
<event>
 5   0  0.1993623E-03  0.1595129E+04  0.7818609E-02  0.8823546E-01
        2   -1    0    0  501    0  0.00000000000E+00  0.00000000000E+00  0.60186151625E+03  0.60186151626E+03  0.25500000920E-02 0.  1.
       -2   -1    0    0    0  501  0.00000000000E+00  0.00000000000E+00 -0.10569028119E+04  0.10569028119E+04  0.25500000920E-02 0. -1.
    10030    2    1    2    0    0  0.00000000000E+00  0.00000000000E+00 -0.45504129565E+03  0.16587643282E+04  0.15951289966E+04 0.  0.
        4    1    3    3  502    0 -0.32734679268E+03  0.66347453055E+02  0.52563053278E+03  0.62277361625E+03  0.12699999809E+01 0.  1.
       -4    1    3    3    0  502  0.32734679268E+03 -0.66347453055E+02 -0.98067182843E+03  0.10359907119E+04  0.12699999809E+01 0. -1.
</event>
<event>
 5   0  0.1961098E-03  0.1441219E+04  0.7818609E-02  0.8924511E-01
       -2   -1    0    0    0  501  0.00000000000E+00  0.00000000000E+00  0.76463026090E+03  0.76463026090E+03  0.25500000920E-02 0. -1.
        2   -1    0    0  501    0  0.00000000000E+00  0.00000000000E+00 -0.67912305859E+03  0.67912305860E+03  0.25500000920E-02 0.  1.
    10030    2    1    2    0    0  0.00000000000E+00  0.00000000000E+00  0.85507202308E+02  0.14437533195E+04  0.14412189861E+04 0.  0.
        2    1    3    3  502    0  0.62185697963E+03 -0.24166843702E+03 -0.23006388183E+03  0.70571887199E+03  0.25500000920E-02 0.  1.
       -2    1    3    3    0  502 -0.62185697963E+03  0.24166843702E+03  0.31557108413E+03  0.73803444751E+03  0.25500000920E-02 0. -1.
</event>
<event>
 5   0  0.2150197E-03  0.1528944E+04  0.7818609E-02  0.8865430E-01
        2   -1    0    0  501    0  0.00000000000E+00  0.00000000000E+00  0.72875904043E+03  0.72875904044E+03  0.25500000920E-02 0. -1.
       -2   -1    0    0    0  501  0.00000000000E+00  0.00000000000E+00 -0.80193501388E+03  0.80193501388E+03  0.25500000920E-02 0.  1.
    10030    2    1    2    0    0  0.00000000000E+00  0.00000000000E+00 -0.73175973445E+02  0.15306940543E+04  0.15289439378E+04 0.  0.
        3    1    3    3  502    0 -0.44623521446E+03  0.55277211053E+03 -0.31928420179E+03  0.77886153103E+03  0.10100000352E+00 0.  1.
       -3    1    3    3    0  502  0.44623521446E+03 -0.55277211053E+03  0.24610822835E+03  0.75183252329E+03  0.10100000352E+00 0. -1.
</event>
<event>
 5   0  0.1087761E-03  0.1558500E+04  0.7818609E-02  0.8846457E-01
       -1   -1    0    0    0  501  0.00000000000E+00  0.00000000000E+00  0.36694947910E+03  0.36694947913E+03  0.50400001928E-02 0.  1.
        1   -1    0    0  501    0  0.00000000000E+00  0.00000000000E+00 -0.16548062628E+04  0.16548062628E+04  0.50400001928E-02 0. -1.
    10030    2    1    2    0    0  0.00000000000E+00  0.00000000000E+00 -0.12878567837E+04  0.20217557419E+04  0.15584996582E+04 0.  0.
        3    1    3    3  502    0 -0.32284717350E+02  0.27307805905E+03  0.30191915375E+03  0.40837374415E+03  0.10100000352E+00 0.  1.
       -3    1    3    3    0  502  0.32284717350E+02 -0.27307805905E+03 -0.15897759374E+04  0.16133819977E+04  0.10100000352E+00 0. -1.
</event>
<event>
 5   0  0.1078018E-03  0.1463311E+04  0.7818609E-02  0.8909224E-01
        1   -1    0    0  501    0  0.00000000000E+00  0.00000000000E+00  0.14189230128E+04  0.14189230128E+04  0.50400001928E-02 0.  1.
       -1   -1    0    0    0  501  0.00000000000E+00  0.00000000000E+00 -0.37727177897E+03  0.37727177901E+03  0.50400001928E-02 0. -1.
    10030    2    1    2    0    0  0.00000000000E+00  0.00000000000E+00  0.10416512339E+04  0.17961947919E+04  0.14633107795E+04 0.  0.
        4    1    3    3  502    0  0.31521927180E+03  0.67274776047E+02 -0.28542764305E+03  0.43053413003E+03  0.12699999809E+01 0. -1.
       -4    1    3    3    0  502 -0.31521927180E+03 -0.67274776047E+02  0.13270788769E+04  0.13656606618E+04  0.12699999809E+01 0.  1.
</event>
<event>
 5   0  0.2150197E-03  0.1488371E+04  0.7818609E-02  0.8892223E-01
       -2   -1    0    0    0  501  0.00000000000E+00  0.00000000000E+00  0.58743099975E+03  0.58743099975E+03  0.25500000920E-02 0. -1.
        2   -1    0    0  501    0  0.00000000000E+00  0.00000000000E+00 -0.94276954312E+03  0.94276954313E+03  0.25500000920E-02 0.  1.
    10030    2    1    2    0    0  0.00000000000E+00  0.00000000000E+00 -0.35533854337E+03  0.15302005429E+04  0.14883709958E+04 0.  0.
        3    1    3    3  502    0 -0.41910349780E+03  0.58438832910E+03  0.19165264371E+02  0.71939195062E+03  0.10100000352E+00 0. -1.
       -3    1    3    3    0  502  0.41910349780E+03 -0.58438832910E+03 -0.37450380775E+03  0.81080859226E+03  0.10100000352E+00 0.  1.
</event>
<event>
 5   0  0.1961098E-03  0.1254131E+04  0.7818609E-02  0.9066752E-01
       -2   -1    0    0    0  501  0.00000000000E+00  0.00000000000E+00  0.34717177299E+03  0.34717177300E+03  0.25500000920E-02 0. -1.
        2   -1    0    0  501    0  0.00000000000E+00  0.00000000000E+00 -0.11326120813E+04  0.11326120813E+04  0.25500000920E-02 0.  1.
    10030    2    1    2    0    0  0.00000000000E+00  0.00000000000E+00 -0.78544030827E+03  0.14797838543E+04  0.12541306860E+04 0.  0.
        2    1    3    3  502    0  0.43969570287E+03  0.21916338975E+03 -0.85250772601E+03  0.98393817156E+03  0.25500000920E-02 0.  1.
       -2    1    3    3    0  502 -0.43969570287E+03 -0.21916338975E+03  0.67067417738E+02  0.49584568271E+03  0.25500000920E-02 0. -1.
</event>
<event>
 5   0  0.1077140E-03  0.1532010E+04  0.7818609E-02  0.8863441E-01
       -1   -1    0    0    0  501  0.00000000000E+00  0.00000000000E+00  0.11237723974E+04  0.11237723974E+04  0.50400001928E-02 0.  1.
        1   -1    0    0  501    0  0.00000000000E+00  0.00000000000E+00 -0.52213776772E+03  0.52213776774E+03  0.50400001928E-02 0. -1.
    10030    2    1    2    0    0  0.00000000000E+00  0.00000000000E+00  0.60163462971E+03  0.16459101652E+04  0.15320104582E+04 0.  0.
        1    1    3    3  502    0  0.33483846085E+03 -0.89255526588E+02  0.10347467441E+04  0.10912305752E+04  0.50400001928E-02 0.  1.
       -1    1    3    3    0  502 -0.33483846085E+03  0.89255526588E+02 -0.43311211436E+03  0.55467958997E+03  0.50400001928E-02 0. -1.
</event>
<event>
 5   0  0.2094566E-03  0.1499135E+04  0.7818609E-02  0.8885029E-01
        2   -1    0    0  501    0  0.00000000000E+00  0.00000000000E+00  0.10427394271E+04  0.10427394271E+04  0.25500000920E-02 0. -1.
       -2   -1    0    0    0  501  0.00000000000E+00  0.00000000000E+00 -0.53882223951E+03  0.53882223952E+03  0.25500000920E-02 0.  1.
    10030    2    1    2    0    0  0.00000000000E+00  0.00000000000E+00  0.50391718762E+03  0.15815616666E+04  0.14991346749E+04 0.  0.
        1    1    3    3  502    0 -0.23200746643E+03  0.71201003730E+03  0.21752287999E+03  0.77980892598E+03  0.50400001928E-02 0.  1.
       -1    1    3    3    0  502  0.23200746643E+03 -0.71201003730E+03  0.28639430762E+03  0.80175274066E+03  0.50400001928E-02 0. -1.
</event>
<event>
 5   0  0.1069697E-03  0.1429942E+04  0.7818609E-02  0.8932426E-01
       -1   -1    0    0    0  501  0.00000000000E+00  0.00000000000E+00  0.49514945242E+03  0.49514945245E+03  0.50400001928E-02 0. -1.
        1   -1    0    0  501    0  0.00000000000E+00  0.00000000000E+00 -0.10323825486E+04  0.10323825486E+04  0.50400001928E-02 0.  1.
    10030    2    1    2    0    0  0.00000000000E+00  0.00000000000E+00 -0.53723309617E+03  0.15275320010E+04  0.14299421718E+04 0.  0.
        2    1    3    3  502    0  0.25195718675E+03  0.57342931094E+03 -0.63693742970E+03  0.89330447663E+03  0.25500000920E-02 0.  1.
       -2    1    3    3    0  502 -0.25195718675E+03 -0.57342931094E+03  0.99704333532E+02  0.63422752442E+03  0.25500000920E-02 0. -1.
</event>
<event>
 5   0  0.2111533E-03  0.1501967E+04  0.7818609E-02  0.8883146E-01
        2   -1    0    0  501    0  0.00000000000E+00  0.00000000000E+00  0.44174548630E+03  0.44174548630E+03  0.25500000920E-02 0. -1.
       -2   -1    0    0    0  501  0.00000000000E+00  0.00000000000E+00 -0.12766995815E+04  0.12766995815E+04  0.25500000920E-02 0.  1.
    10030    2    1    2    0    0  0.00000000000E+00  0.00000000000E+00 -0.83495409521E+03  0.17184450678E+04  0.15019670802E+04 0.  0.
        5    1    3    3  502    0 -0.15760333128E+03 -0.22921249849E+03  0.38061141346E+03  0.47144916751E+03  0.46999998093E+01 0. -1.
       -5    1    3    3    0  502  0.15760333128E+03  0.22921249849E+03 -0.12155655087E+04  0.12469959003E+04  0.46999998093E+01 0.  1.
</event>
<event>
 5   0  0.1069697E-03  0.1482924E+04  0.7818609E-02  0.8895889E-01
       -1   -1    0    0    0  501  0.00000000000E+00  0.00000000000E+00  0.33112519969E+03  0.33112519973E+03  0.50400001928E-02 0. -1.
        1   -1    0    0  501    0  0.00000000000E+00  0.00000000000E+00 -0.16602951799E+04  0.16602951799E+04  0.50400001928E-02 0.  1.
    10030    2    1    2    0    0  0.00000000000E+00  0.00000000000E+00 -0.13291699802E+04  0.19914203796E+04  0.14829235625E+04 0.  0.
        2    1    3    3  502    0 -0.21613332700E+03 -0.20113630910E+03  0.24878173385E+03  0.38608519913E+03  0.25500000920E-02 0. -1.
       -2    1    3    3    0  502  0.21613332700E+03  0.20113630910E+03 -0.15779517141E+04  0.16053351805E+04  0.25500000920E-02 0.  1.
</event>
<event>
 5   0  0.1087761E-03  0.1547313E+04  0.7818609E-02  0.8853586E-01
        1   -1    0    0  501    0  0.00000000000E+00  0.00000000000E+00  0.10906685341E+04  0.10906685341E+04  0.50400001928E-02 0. -1.
       -1   -1    0    0    0  501  0.00000000000E+00  0.00000000000E+00 -0.54878684930E+03  0.54878684932E+03  0.50400001928E-02 0.  1.
    10030    2    1    2    0    0  0.00000000000E+00  0.00000000000E+00  0.54188168477E+03  0.16394553834E+04  0.15473132178E+04 0.  0.
        3    1    3    3  502    0 -0.69622270255E+03  0.12029225615E+03  0.60490626103E+03  0.93011175311E+03  0.10100000352E+00 0. -1.
       -3    1    3    3    0  502  0.69622270255E+03 -0.12029225615E+03 -0.63024576258E+02  0.70934363030E+03  0.10100000352E+00 0.  1.
</event>
<event>
 5   0  0.1078787E-03  0.1500151E+04  0.7818609E-02  0.8884353E-01
       -1   -1    0    0    0  501  0.00000000000E+00  0.00000000000E+00  0.13298948285E+04  0.13298948285E+04  0.50400001928E-02 0.  1.
        1   -1    0    0  501    0  0.00000000000E+00  0.00000000000E+00 -0.42305066155E+03  0.42305066158E+03  0.50400001928E-02 0. -1.
    10030    2    1    2    0    0  0.00000000000E+00  0.00000000000E+00  0.90684416691E+03  0.17529454900E+04  0.15001505085E+04 0.  0.
        5    1    3    3  502    0 -0.13617513015E+03 -0.67592198485E+03  0.10841060463E+03  0.69798935871E+03  0.46999998093E+01 0.  1.
       -5    1    3    3    0  502  0.13617513015E+03  0.67592198485E+03  0.79843356227E+03  0.10549561313E+04  0.46999998093E+01 0. -1.
</event>
<event>
 5   0  0.2094566E-03  0.1545809E+04  0.7818609E-02  0.8854549E-01
       -2   -1    0    0    0  501  0.00000000000E+00  0.00000000000E+00  0.32341350284E+03  0.32341350285E+03  0.25500000920E-02 0. -1.
        2   -1    0    0  501    0  0.00000000000E+00  0.00000000000E+00 -0.18471124262E+04  0.18471124262E+04  0.25500000920E-02 0.  1.
    10030    2    1    2    0    0  0.00000000000E+00  0.00000000000E+00 -0.15236989233E+04  0.21705259290E+04  0.15458086556E+04 0.  0.
        1    1    3    3  502    0  0.42372263452E+03  0.34834100598E+03  0.27265945331E+01  0.54853419382E+03  0.50400001928E-02 0. -1.
       -1    1    3    3    0  502 -0.42372263452E+03 -0.34834100598E+03 -0.15264255178E+04  0.16219917352E+04  0.50400001928E-02 0.  1.
</event>
<event>
 5   0  0.1087761E-03  0.1517458E+04  0.7818609E-02  0.8872926E-01
       -1   -1    0    0    0  501  0.00000000000E+00  0.00000000000E+00  0.71421606286E+03  0.71421606288E+03  0.50400001928E-02 0. -1.
        1   -1    0    0  501    0  0.00000000000E+00  0.00000000000E+00 -0.80601612855E+03  0.80601612857E+03  0.50400001928E-02 0.  1.
    10030    2    1    2    0    0  0.00000000000E+00  0.00000000000E+00 -0.91800065691E+02  0.15202321914E+04  0.15174579611E+04 0.  0.
        3    1    3    3  502    0 -0.36866854028E+03  0.19707553741E+02  0.61815775476E+03  0.72001659719E+03  0.10100000352E+00 0. -1.
       -3    1    3    3    0  502  0.36866854028E+03 -0.19707553741E+02 -0.70995782045E+03  0.80021559425E+03  0.10100000352E+00 0.  1.
</event>
<event>
 5   0  0.1961098E-03  0.1482811E+04  0.7818609E-02  0.8895964E-01
       -2   -1    0    0    0  501  0.00000000000E+00  0.00000000000E+00  0.44522284203E+03  0.44522284204E+03  0.25500000920E-02 0.  1.
        2   -1    0    0  501    0  0.00000000000E+00  0.00000000000E+00 -0.12346229967E+04  0.12346229967E+04  0.25500000920E-02 0. -1.
    10030    2    1    2    0    0  0.00000000000E+00  0.00000000000E+00 -0.78940015463E+03  0.16798458387E+04  0.14828113291E+04 0.  0.
        2    1    3    3  502    0 -0.18596565874E+03 -0.55399868754E+03 -0.91160160939E+03  0.10828274407E+04  0.25500000920E-02 0. -1.
       -2    1    3    3    0  502  0.18596565874E+03  0.55399868754E+03  0.12220145475E+03  0.59701839803E+03  0.25500000920E-02 0.  1.
</event>
<event>
 5   0  0.1078018E-03  0.1498683E+04  0.7818609E-02  0.8885329E-01
        1   -1    0    0  501    0  0.00000000000E+00  0.00000000000E+00  0.15657698305E+04  0.15657698305E+04  0.50400001928E-02 0. -1.
       -1   -1    0    0    0  501  0.00000000000E+00  0.00000000000E+00 -0.35861782822E+03  0.35861782826E+03  0.50400001928E-02 0.  1.
    10030    2    1    2    0    0  0.00000000000E+00  0.00000000000E+00  0.12071520023E+04  0.19243876588E+04  0.14986833904E+04 0.  0.
        4    1    3    3  502    0 -0.15140366920E+03  0.60879718747E+03  0.77342851702E+02  0.63209225286E+03  0.12699999809E+01 0.  1.
       -4    1    3    3    0  502  0.15140366920E+03 -0.60879718747E+03  0.11298091506E+04  0.12922954059E+04  0.12699999809E+01 0. -1.
</event>
<event>
 5   0  0.1078787E-03  0.1495160E+04  0.7818609E-02  0.8887678E-01
       -1   -1    0    0    0  501  0.00000000000E+00  0.00000000000E+00  0.48568120660E+03  0.48568120663E+03  0.50400001928E-02 0. -1.
        1   -1    0    0  501    0  0.00000000000E+00  0.00000000000E+00 -0.11507053443E+04  0.11507053444E+04  0.50400001928E-02 0.  1.
    10030    2    1    2    0    0  0.00000000000E+00  0.00000000000E+00 -0.66502413774E+03  0.16363865510E+04  0.14951601387E+04 0.  0.
        5    1    3    3  502    0  0.73686892406E+03 -0.12274937692E+03 -0.30135083056E+03  0.80552941216E+03  0.46999998093E+01 0. -1.
       -5    1    3    3    0  502 -0.73686892406E+03  0.12274937692E+03 -0.36367330718E+03  0.83085713882E+03  0.46999998093E+01 0.  1.
</event>
<event>
 5   0  0.2111533E-03  0.1497325E+04  0.7818609E-02  0.8886234E-01
        2   -1    0    0  501    0  0.00000000000E+00  0.00000000000E+00  0.40291186821E+03  0.40291186821E+03  0.25500000920E-02 0.  1.
       -2   -1    0    0    0  501  0.00000000000E+00  0.00000000000E+00 -0.13911123705E+04  0.13911123705E+04  0.25500000920E-02 0. -1.
    10030    2    1    2    0    0  0.00000000000E+00  0.00000000000E+00 -0.98820050234E+03  0.17940242388E+04  0.14973251940E+04 0.  0.
        5    1    3    3  502    0  0.11525755835E+03 -0.67711248923E+03 -0.85095664769E+03  0.10935789565E+04  0.46999998093E+01 0. -1.
       -5    1    3    3    0  502 -0.11525755835E+03  0.67711248923E+03 -0.13724385465E+03  0.70044528227E+03  0.46999998093E+01 0.  1.
</event>
<event>
 5   0  0.1078787E-03  0.1475147E+04  0.7818609E-02  0.8901150E-01
       -1   -1    0    0    0  501  0.00000000000E+00  0.00000000000E+00  0.24278666403E+03  0.24278666408E+03  0.50400001928E-02 0.  1.
        1   -1    0    0  501    0  0.00000000000E+00  0.00000000000E+00 -0.22407099278E+04  0.22407099278E+04  0.50400001928E-02 0. -1.
    10030    2    1    2    0    0  0.00000000000E+00  0.00000000000E+00 -0.19979232637E+04  0.24834965919E+04  0.14751467567E+04 0.  0.
        5    1    3    3  502    0  0.52811611184E+03 -0.18857986379E+03 -0.18055311951E+04  0.18906173540E+04  0.46999998093E+01 0. -1.
       -5    1    3    3    0  502 -0.52811611184E+03  0.18857986379E+03 -0.19239206860E+03  0.59287923785E+03  0.46999998093E+01 0.  1.
</event>
<event>
 5   0  0.1069697E-03  0.1500206E+04  0.7818609E-02  0.8884316E-01
       -1   -1    0    0    0  501  0.00000000000E+00  0.00000000000E+00  0.46040231173E+03  0.46040231176E+03  0.50400001928E-02 0.  1.
        1   -1    0    0  501    0  0.00000000000E+00  0.00000000000E+00 -0.12220923571E+04  0.12220923571E+04  0.50400001928E-02 0. -1.
    10030    2    1    2    0    0  0.00000000000E+00  0.00000000000E+00 -0.76169004538E+03  0.16824946689E+04  0.15002055144E+04 0.  0.
        2    1    3    3  502    0 -0.50720165694E+03 -0.51949282365E+03 -0.16945363435E+03  0.74554734849E+03  0.25500000920E-02 0.  1.
       -2    1    3    3    0  502  0.50720165694E+03  0.51949282365E+03 -0.59223641103E+03  0.93694732039E+03  0.25500000920E-02 0. -1.
</event>
<event>
 5   0  0.2094566E-03  0.1549976E+04  0.7818609E-02  0.8851883E-01
        2   -1    0    0  501    0  0.00000000000E+00  0.00000000000E+00  0.50581530540E+03  0.50581530540E+03  0.25500000920E-02 0.  1.
       -2   -1    0    0    0  501  0.00000000000E+00  0.00000000000E+00 -0.11874022753E+04  0.11874022753E+04  0.25500000920E-02 0. -1.
    10030    2    1    2    0    0  0.00000000000E+00  0.00000000000E+00 -0.68158696989E+03  0.16932175807E+04  0.15499757992E+04 0.  0.
        1    1    3    3  502    0  0.49244176261E+03  0.42673920400E+02 -0.99285325747E+03  0.11090886096E+04  0.50400001928E-02 0. -1.
       -1    1    3    3    0  502 -0.49244176261E+03 -0.42673920400E+02  0.31126628759E+03  0.58412897109E+03  0.50400001928E-02 0.  1.
</event>
<event>
 5   0  0.1078018E-03  0.1456181E+04  0.7818609E-02  0.8914126E-01
        1   -1    0    0  501    0  0.00000000000E+00  0.00000000000E+00  0.86394092364E+03  0.86394092365E+03  0.50400001928E-02 0.  1.
       -1   -1    0    0    0  501  0.00000000000E+00  0.00000000000E+00 -0.61360208479E+03  0.61360208481E+03  0.50400001928E-02 0. -1.
    10030    2    1    2    0    0  0.00000000000E+00  0.00000000000E+00  0.25033883885E+03  0.14775430085E+04  0.14561812413E+04 0.  0.
        4    1    3    3  502    0  0.31327339793E+03  0.58878349918E+03 -0.17119076390E+03  0.68855945372E+03  0.12699999809E+01 0. -1.
       -4    1    3    3    0  502 -0.31327339793E+03 -0.58878349918E+03  0.42152960275E+03  0.78898355474E+03  0.12699999809E+01 0.  1.
</event>
<event>
 5   0  0.2094566E-03  0.1268396E+04  0.7818609E-02  0.9055009E-01
        2   -1    0    0  501    0  0.00000000000E+00  0.00000000000E+00  0.21491790942E+04  0.21491790942E+04  0.25500000920E-02 0.  1.
       -2   -1    0    0    0  501  0.00000000000E+00  0.00000000000E+00 -0.18714466099E+03  0.18714466100E+03  0.25500000920E-02 0. -1.
    10030    2    1    2    0    0  0.00000000000E+00  0.00000000000E+00  0.19620344332E+04  0.23363237552E+04  0.12683964570E+04 0.  0.
        1    1    3    3  502    0 -0.11883925646E+03  0.18529554944E+03 -0.11451799670E+03  0.24813621484E+03  0.50400001928E-02 0. -1.
       -1    1    3    3    0  502  0.11883925646E+03 -0.18529554944E+03  0.20765524299E+04  0.20881875404E+04  0.50400001928E-02 0.  1.
</event>
<event>
 5   0  0.2094566E-03  0.1498458E+04  0.7818609E-02  0.8885479E-01
       -2   -1    0    0    0  501  0.00000000000E+00  0.00000000000E+00  0.58340474768E+03  0.58340474768E+03  0.25500000920E-02 0. -1.
        2   -1    0    0  501    0  0.00000000000E+00  0.00000000000E+00 -0.96218700354E+03  0.96218700354E+03  0.25500000920E-02 0.  1.
    10030    2    1    2    0    0  0.00000000000E+00  0.00000000000E+00 -0.37878225586E+03  0.15455917512E+04  0.14984584960E+04 0.  0.
        1    1    3    3  502    0  0.15875198629E+03 -0.55926624443E+03  0.29808821321E+03  0.65332802495E+03  0.50400001928E-02 0. -1.
       -1    1    3    3    0  502 -0.15875198629E+03  0.55926624443E+03 -0.67687046907E+03  0.89226372628E+03  0.50400001928E-02 0.  1.
</event>
<event>
 5   0  0.1078018E-03  0.1454090E+04  0.7818609E-02  0.8915570E-01
       -1   -1    0    0    0  501  0.00000000000E+00  0.00000000000E+00  0.42351504947E+03  0.42351504950E+03  0.50400001928E-02 0. -1.
        1   -1    0    0  501    0  0.00000000000E+00  0.00000000000E+00 -0.12481128788E+04  0.12481128788E+04  0.50400001928E-02 0.  1.
    10030    2    1    2    0    0  0.00000000000E+00  0.00000000000E+00 -0.82459782930E+03  0.16716279283E+04  0.14540902140E+04 0.  0.
        4    1    3    3  502    0 -0.18322933860E+03  0.29680455355E+03  0.32104305732E+03  0.47406348846E+03  0.12699999809E+01 0. -1.
       -4    1    3    3    0  502  0.18322933860E+03 -0.29680455355E+03 -0.11456408866E+04  0.11975644398E+04  0.12699999809E+01 0.  1.
</event>
<event>
 5   0  0.1078787E-03  0.1479191E+04  0.7818609E-02  0.8898410E-01
       -1   -1    0    0    0  501  0.00000000000E+00  0.00000000000E+00  0.85833073125E+03  0.85833073126E+03  0.50400001928E-02 0. -1.
        1   -1    0    0  501    0  0.00000000000E+00  0.00000000000E+00 -0.63728510896E+03  0.63728510898E+03  0.50400001928E-02 0.  1.
    10030    2    1    2    0    0  0.00000000000E+00  0.00000000000E+00  0.22104562229E+03  0.14956158402E+04  0.14791908513E+04 0.  0.
        5    1    3    3  502    0 -0.54650840734E+03  0.21172745083E+03  0.56661855112E+03  0.81521691911E+03  0.46999998093E+01 0. -1.
       -5    1    3    3    0  502  0.54650840734E+03 -0.21172745083E+03 -0.34557292884E+03  0.68039892113E+03  0.46999998093E+01 0.  1.
</event>
<event>
 5   0  0.1993623E-03  0.1445350E+04  0.7818609E-02  0.8921630E-01
       -2   -1    0    0    0  501  0.00000000000E+00  0.00000000000E+00  0.25353887368E+03  0.25353887369E+03  0.25500000920E-02 0. -1.
        2   -1    0    0  501    0  0.00000000000E+00  0.00000000000E+00 -0.20598786054E+04  0.20598786054E+04  0.25500000920E-02 0.  1.
    10030    2    1    2    0    0  0.00000000000E+00  0.00000000000E+00 -0.18063397317E+04  0.23134174791E+04  0.14453502019E+04 0.  0.
        4    1    3    3  502    0 -0.63906704459E+03  0.21027870000E+03 -0.48080168831E+03  0.82691940087E+03  0.12699999809E+01 0.  1.
       -4    1    3    3    0  502  0.63906704459E+03 -0.21027870000E+03 -0.13255380434E+04  0.14864980783E+04  0.12699999809E+01 0. -1.
</event>
<event>
 5   0  0.1078018E-03  0.1042914E+04  0.7818609E-02  0.9262690E-01
       -1   -1    0    0    0  501  0.00000000000E+00  0.00000000000E+00  0.24428334467E+03  0.24428334472E+03  0.50400001928E-02 0.  1.
        1   -1    0    0  501    0  0.00000000000E+00  0.00000000000E+00 -0.11131239532E+04  0.11131239532E+04  0.50400001928E-02 0. -1.
    10030    2    1    2    0    0  0.00000000000E+00  0.00000000000E+00 -0.86884060856E+03  0.13574072980E+04  0.10429144593E+04 0.  0.
        4    1    3    3  502    0 -0.88816948102E+02 -0.51382448826E+03 -0.42991639467E+03  0.67582081524E+03  0.12699999809E+01 0. -1.
       -4    1    3    3    0  502  0.88816948102E+02  0.51382448826E+03 -0.43892421389E+03  0.68158648273E+03  0.12699999809E+01 0.  1.
</event>
<event>
 5   0  0.1077140E-03  0.1482833E+04  0.7818609E-02  0.8895950E-01
       -1   -1    0    0    0  501  0.00000000000E+00  0.00000000000E+00  0.54127201899E+03  0.54127201901E+03  0.50400001928E-02 0. -1.
        1   -1    0    0  501    0  0.00000000000E+00  0.00000000000E+00 -0.10155676120E+04  0.10155676120E+04  0.50400001928E-02 0.  1.
    10030    2    1    2    0    0  0.00000000000E+00  0.00000000000E+00 -0.47429559300E+03  0.15568396310E+04  0.14828328723E+04 0.  0.
        1    1    3    3  502    0 -0.53562397978E+03 -0.17685055606E+03  0.26804194835E+03  0.62451233214E+03  0.50400001928E-02 0. -1.
       -1    1    3    3    0  502  0.53562397978E+03  0.17685055606E+03 -0.74233754135E+03  0.93232729887E+03  0.50400001928E-02 0.  1.
</event>
<event>
 5   0  0.1078787E-03  0.1495522E+04  0.7818609E-02  0.8887436E-01
       -1   -1    0    0    0  501  0.00000000000E+00  0.00000000000E+00  0.56458554907E+03  0.56458554909E+03  0.50400001928E-02 0. -1.
        1   -1    0    0  501    0  0.00000000000E+00  0.00000000000E+00 -0.99036596688E+03  0.99036596689E+03  0.50400001928E-02 0.  1.
    10030    2    1    2    0    0  0.00000000000E+00  0.00000000000E+00 -0.42578041781E+03  0.15549515160E+04  0.14955217327E+04 0.  0.
        5    1    3    3  502    0  0.48643265378E+03 -0.24437022413E+03 -0.74589254352E+03  0.92342368909E+03  0.46999998093E+01 0.  1.
       -5    1    3    3    0  502 -0.48643265378E+03  0.24437022413E+03  0.32011212571E+03  0.63152782688E+03  0.46999998093E+01 0. -1.
</event>
<event>
 5   0  0.1993623E-03  0.1052009E+04  0.7818609E-02  0.9253273E-01
       -2   -1    0    0    0  501  0.00000000000E+00  0.00000000000E+00  0.28973085762E+03  0.28973085764E+03  0.25500000920E-02 0. -1.
        2   -1    0    0  501    0  0.00000000000E+00  0.00000000000E+00 -0.95495740649E+03  0.95495740650E+03  0.25500000920E-02 0.  1.
    10030    2    1    2    0    0  0.00000000000E+00  0.00000000000E+00 -0.66522654887E+03  0.12446882641E+04  0.10520087992E+04 0.  0.
        4    1    3    3  502    0  0.46984592682E+03 -0.17587707500E+03 -0.14557361997E+03  0.52238035203E+03  0.12699999809E+01 0. -1.
       -4    1    3    3    0  502 -0.46984592682E+03  0.17587707500E+03 -0.51965292890E+03  0.72230791210E+03  0.12699999809E+01 0.  1.
</event>
<event>
 5   0  0.1961098E-03  0.1484547E+04  0.7818609E-02  0.8894794E-01
        2   -1    0    0  501    0  0.00000000000E+00  0.00000000000E+00  0.11436902246E+04  0.11436902246E+04  0.25500000920E-02 0. -1.
       -2   -1    0    0    0  501  0.00000000000E+00  0.00000000000E+00 -0.48174754151E+03  0.48174754152E+03  0.25500000920E-02 0.  1.
    10030    2    1    2    0    0  0.00000000000E+00  0.00000000000E+00  0.66194268310E+03  0.16254377661E+04  0.14845470069E+04 0.  0.
        2    1    3    3  502    0  0.40495975125E+03  0.55724821759E+03  0.28230680480E+02  0.68943088666E+03  0.25500000920E-02 0. -1.
       -2    1    3    3    0  502 -0.40495975125E+03 -0.55724821759E+03  0.63371200262E+03  0.93600687947E+03  0.25500000920E-02 0.  1.
</event>
<event>
 5   0  0.1078787E-03  0.1496027E+04  0.7818609E-02  0.8887099E-01
       -1   -1    0    0    0  501  0.00000000000E+00  0.00000000000E+00  0.40845632230E+03  0.40845632234E+03  0.50400001928E-02 0.  1.
        1   -1    0    0  501    0  0.00000000000E+00  0.00000000000E+00 -0.13698501523E+04  0.13698501523E+04  0.50400001928E-02 0. -1.
    10030    2    1    2    0    0  0.00000000000E+00  0.00000000000E+00 -0.96139382997E+03  0.17783064746E+04  0.14960266780E+04 0.  0.
        5    1    3    3  502    0 -0.47799747906E+03 -0.41169394755E+03 -0.95843699212E+03  0.11474306316E+04  0.46999998093E+01 0. -1.
       -5    1    3    3    0  502  0.47799747906E+03  0.41169394755E+03 -0.29568378484E+01  0.63087584303E+03  0.46999998093E+01 0.  1.
</event>
<event>
 5   0  0.1077140E-03  0.1549439E+04  0.7818609E-02  0.8852226E-01
        1   -1    0    0  501    0  0.00000000000E+00  0.00000000000E+00  0.13169146864E+04  0.13169146864E+04  0.50400001928E-02 0. -1.
       -1   -1    0    0    0  501  0.00000000000E+00  0.00000000000E+00 -0.45575469209E+03  0.45575469212E+03  0.50400001928E-02 0.  1.
    10030    2    1    2    0    0  0.00000000000E+00  0.00000000000E+00  0.86115999432E+03  0.17726693785E+04  0.15494386692E+04 0.  0.
        1    1    3    3  502    0 -0.18357080041E+03  0.86113980593E+02 -0.42485861861E+03  0.47076395599E+03  0.50400001928E-02 0.  1.
       -1    1    3    3    0  502  0.18357080041E+03 -0.86113980593E+02  0.12860186129E+04  0.13019054225E+04  0.50400001928E-02 0. -1.
</event>
<event>
 5   0  0.2150197E-03  0.1521271E+04  0.7818609E-02  0.8870430E-01
        2   -1    0    0  501    0  0.00000000000E+00  0.00000000000E+00  0.12631700684E+04  0.12631700684E+04  0.25500000920E-02 0.  1.
       -2   -1    0    0    0  501  0.00000000000E+00  0.00000000000E+00 -0.45802728360E+03  0.45802728361E+03  0.25500000920E-02 0. -1.
    10030    2    1    2    0    0  0.00000000000E+00  0.00000000000E+00  0.80514278478E+03  0.17211973520E+04  0.15212709886E+04 0.  0.
        3    1    3    3  502    0  0.28438000460E+03  0.31235080172E+02  0.11999771247E+04  0.12336096333E+04  0.10100000352E+00 0.  1.
       -3    1    3    3    0  502 -0.28438000460E+03 -0.31235080172E+02 -0.39483433994E+03  0.48758771872E+03  0.10100000352E+00 0. -1.
</event>
<event>
 5   0  0.1993623E-03  0.1530455E+04  0.7818609E-02  0.8864450E-01
        2   -1    0    0  501    0  0.00000000000E+00  0.00000000000E+00  0.13645022704E+04  0.13645022704E+04  0.25500000920E-02 0.  1.
       -2   -1    0    0    0  501  0.00000000000E+00  0.00000000000E+00 -0.42914750862E+03  0.42914750862E+03  0.25500000920E-02 0. -1.
    10030    2    1    2    0    0  0.00000000000E+00  0.00000000000E+00  0.93535476179E+03  0.17936497790E+04  0.15304545075E+04 0.  0.
        4    1    3    3  502    0 -0.60037076724E+03 -0.21406517925E+03  0.96393822039E+03  0.11556156215E+04  0.12699999809E+01 0.  1.
       -4    1    3    3    0  502  0.60037076724E+03  0.21406517925E+03 -0.28583458599E+02  0.63803415749E+03  0.12699999809E+01 0. -1.
</event>
<event>
 5   0  0.1993623E-03  0.1623653E+04  0.7818609E-02  0.8806147E-01
       -2   -1    0    0    0  501  0.00000000000E+00  0.00000000000E+00  0.15309999757E+04  0.15309999757E+04  0.25500000920E-02 0. -1.
        2   -1    0    0  501    0  0.00000000000E+00  0.00000000000E+00 -0.43047836476E+03  0.43047836477E+03  0.25500000920E-02 0.  1.
    10030    2    1    2    0    0  0.00000000000E+00  0.00000000000E+00  0.11005216110E+04  0.19614783405E+04  0.16236531231E+04 0.  0.
        4    1    3    3  502    0 -0.33413160639E+03 -0.25468339319E+03  0.13894557539E+04  0.14515841230E+04  0.12699999809E+01 0. -1.
       -4    1    3    3    0  502  0.33413160639E+03  0.25468339319E+03 -0.28893414296E+03  0.50989421748E+03  0.12699999809E+01 0.  1.
</event>
<event>
 5   0  0.1087761E-03  0.1524109E+04  0.7818609E-02  0.8868577E-01
        1   -1    0    0  501    0  0.00000000000E+00  0.00000000000E+00  0.74836909701E+03  0.74836909703E+03  0.50400001928E-02 0. -1.
       -1   -1    0    0    0  501  0.00000000000E+00  0.00000000000E+00 -0.77599033317E+03  0.77599033319E+03  0.50400001928E-02 0.  1.
    10030    2    1    2    0    0  0.00000000000E+00  0.00000000000E+00 -0.27621236165E+02  0.15243594302E+04  0.15241091627E+04 0.  0.
        3    1    3    3  502    0  0.68869009946E+03  0.26127316513E+03  0.18159150870E+03  0.75863904866E+03  0.10100000352E+00 0.  1.
       -3    1    3    3    0  502 -0.68869009946E+03 -0.26127316513E+03 -0.20921274487E+03  0.76572038156E+03  0.10100000352E+00 0. -1.
</event>
<event>
 5   0  0.1078787E-03  0.1648951E+04  0.7818609E-02  0.8791027E-01
        1   -1    0    0  501    0  0.00000000000E+00  0.00000000000E+00  0.67479567131E+03  0.67479567133E+03  0.50400001928E-02 0.  1.
       -1   -1    0    0    0  501  0.00000000000E+00  0.00000000000E+00 -0.10073569262E+04  0.10073569262E+04  0.50400001928E-02 0. -1.
    10030    2    1    2    0    0  0.00000000000E+00  0.00000000000E+00 -0.33256125492E+03  0.16821525976E+04  0.16489512950E+04 0.  0.
        5    1    3    3  502    0  0.69784743411E+03 -0.42857062393E+03 -0.26345714093E+03  0.86028807738E+03  0.46999998093E+01 0. -1.
       -5    1    3    3    0  502 -0.69784743411E+03  0.42857062393E+03 -0.69104113986E+02  0.82186452019E+03  0.46999998093E+01 0.  1.
</event>
<event>
 5   0  0.1087761E-03  0.1178309E+04  0.7818609E-02  0.9132058E-01
       -1   -1    0    0    0  501  0.00000000000E+00  0.00000000000E+00  0.35297716778E+03  0.35297716782E+03  0.50400001928E-02 0.  1.
        1   -1    0    0  501    0  0.00000000000E+00  0.00000000000E+00 -0.98335753546E+03  0.98335753548E+03  0.50400001928E-02 0. -1.
    10030    2    1    2    0    0  0.00000000000E+00  0.00000000000E+00 -0.63038036768E+03  0.13363347033E+04  0.11783085467E+04 0.  0.
        3    1    3    3  502    0 -0.43320120769E+03  0.17251434191E+03 -0.72359401875E+03  0.86082100270E+03  0.10100000352E+00 0. -1.
       -3    1    3    3    0  502  0.43320120769E+03 -0.17251434191E+03  0.93213651070E+02  0.47551370060E+03  0.10100000352E+00 0.  1.
</event>
<event>
 5   0  0.1069697E-03  0.1489405E+04  0.7818609E-02  0.8891529E-01
        1   -1    0    0  501    0  0.00000000000E+00  0.00000000000E+00  0.41972795411E+03  0.41972795414E+03  0.50400001928E-02 0.  1.
       -1   -1    0    0    0  501  0.00000000000E+00  0.00000000000E+00 -0.13212892032E+04  0.13212892032E+04  0.50400001928E-02 0. -1.
    10030    2    1    2    0    0  0.00000000000E+00  0.00000000000E+00 -0.90156124909E+03  0.17410171573E+04  0.14894052693E+04 0.  0.
        2    1    3    3  502    0 -0.21937148842E+03 -0.70656024018E+03 -0.35138138230E+03  0.81903607903E+03  0.25500000920E-02 0.  1.
       -2    1    3    3    0  502  0.21937148842E+03  0.70656024018E+03 -0.55017986679E+03  0.92198107831E+03  0.25500000920E-02 0. -1.
</event>
<event>
 5   0  0.2150197E-03  0.1490255E+04  0.7818609E-02  0.8890959E-01
        2   -1    0    0  501    0  0.00000000000E+00  0.00000000000E+00  0.92776043170E+03  0.92776043170E+03  0.25500000920E-02 0.  1.
       -2   -1    0    0    0  501  0.00000000000E+00  0.00000000000E+00 -0.59844647103E+03  0.59844647104E+03  0.25500000920E-02 0. -1.
    10030    2    1    2    0    0  0.00000000000E+00  0.00000000000E+00  0.32931396067E+03  0.15262069027E+04  0.14902549531E+04 0.  0.
        3    1    3    3  502    0  0.26310495150E+03  0.40639625924E+03 -0.41542881074E+03  0.63793670691E+03  0.10100000352E+00 0. -1.
       -3    1    3    3    0  502 -0.26310495150E+03 -0.40639625924E+03  0.74474277141E+03  0.88827019583E+03  0.10100000352E+00 0.  1.
</event>
<event>
 5   0  0.2150197E-03  0.1528746E+04  0.7818609E-02  0.8865559E-01
        2   -1    0    0  501    0  0.00000000000E+00  0.00000000000E+00  0.13462763283E+04  0.13462763283E+04  0.25500000920E-02 0. -1.
       -2   -1    0    0    0  501  0.00000000000E+00  0.00000000000E+00 -0.43398647069E+03  0.43398647070E+03  0.25500000920E-02 0.  1.
    10030    2    1    2    0    0  0.00000000000E+00  0.00000000000E+00  0.91228985764E+03  0.17802627990E+04  0.15287455149E+04 0.  0.
        3    1    3    3  502    0 -0.16909078534E+03 -0.17420474660E+03 -0.38789630615E+03  0.45760522501E+03  0.10100000352E+00 0.  1.
       -3    1    3    3    0  502  0.16909078534E+03  0.17420474660E+03  0.13001861638E+04  0.13226575740E+04  0.10100000352E+00 0. -1.
</event>
<event>
 5   0  0.1087761E-03  0.1647164E+04  0.7818609E-02  0.8792086E-01
       -1   -1    0    0    0  501  0.00000000000E+00  0.00000000000E+00  0.69124671477E+03  0.69124671479E+03  0.50400001928E-02 0. -1.
        1   -1    0    0  501    0  0.00000000000E+00  0.00000000000E+00 -0.98125210542E+03  0.98125210543E+03  0.50400001928E-02 0.  1.
    10030    2    1    2    0    0  0.00000000000E+00  0.00000000000E+00 -0.29000539065E+03  0.16724988202E+04  0.16471639800E+04 0.  0.
        3    1    3    3  502    0  0.14489096751E+03 -0.76663339273E+03  0.12280992300E+03  0.78981164761E+03  0.10100000352E+00 0. -1.
       -3    1    3    3    0  502 -0.14489096751E+03  0.76663339273E+03 -0.41281531365E+03  0.88268717261E+03  0.10100000352E+00 0.  1.
</event>
<event>
 5   0  0.1961098E-03  0.1535203E+04  0.7818609E-02  0.8861375E-01
        2   -1    0    0  501    0  0.00000000000E+00  0.00000000000E+00  0.19158603923E+04  0.19158603923E+04  0.25500000920E-02 0. -1.
       -2   -1    0    0    0  501  0.00000000000E+00  0.00000000000E+00 -0.30754442500E+03  0.30754442501E+03  0.25500000920E-02 0.  1.
    10030    2    1    2    0    0  0.00000000000E+00  0.00000000000E+00  0.16083159673E+04  0.22234048173E+04  0.15352031562E+04 0.  0.
        2    1    3    3  502    0 -0.61571651421E+03 -0.28092488754E+02  0.14667620188E+04  0.15910018333E+04  0.25500000920E-02 0. -1.
       -2    1    3    3    0  502  0.61571651421E+03  0.28092488754E+02  0.14155394847E+03  0.63240298397E+03  0.25500000920E-02 0.  1.
</event>
<event>
 5   0  0.2094566E-03  0.1515825E+04  0.7818609E-02  0.8873997E-01
        2   -1    0    0  501    0  0.00000000000E+00  0.00000000000E+00  0.61962124544E+03  0.61962124545E+03  0.25500000920E-02 0. -1.
       -2   -1    0    0    0  501  0.00000000000E+00  0.00000000000E+00 -0.92706886501E+03  0.92706886501E+03  0.25500000920E-02 0.  1.
    10030    2    1    2    0    0  0.00000000000E+00  0.00000000000E+00 -0.30744761957E+03  0.15466901105E+04  0.15158252732E+04 0.  0.
        1    1    3    3  502    0 -0.62251837989E+03 -0.37627058067E+03  0.63502748705E+02  0.73016524315E+03  0.50400001928E-02 0. -1.
       -1    1    3    3    0  502  0.62251837989E+03  0.37627058067E+03 -0.37095036827E+03  0.81652486731E+03  0.50400001928E-02 0.  1.
</event>
<event>
 5   0  0.1993623E-03  0.1573953E+04  0.7818609E-02  0.8836711E-01
       -2   -1    0    0    0  501  0.00000000000E+00  0.00000000000E+00  0.64805419644E+03  0.64805419644E+03  0.25500000920E-02 0.  1.
        2   -1    0    0  501    0  0.00000000000E+00  0.00000000000E+00 -0.95567954983E+03  0.95567954983E+03  0.25500000920E-02 0. -1.
    10030    2    1    2    0    0  0.00000000000E+00  0.00000000000E+00 -0.30762535339E+03  0.16037337463E+04  0.15739531667E+04 0.  0.
        4    1    3    3  502    0 -0.29730281469E+03 -0.70977239494E+03 -0.32174837609E+03  0.83408000015E+03  0.12699999809E+01 0. -1.
       -4    1    3    3    0  502  0.29730281469E+03  0.70977239494E+03  0.14123022695E+02  0.76965374612E+03  0.12699999809E+01 0.  1.
</event>
<event>
 5   0  0.1078787E-03  0.1491524E+04  0.7818609E-02  0.8890109E-01
       -1   -1    0    0    0  501  0.00000000000E+00  0.00000000000E+00  0.82924928832E+03  0.82924928833E+03  0.50400001928E-02 0. -1.
        1   -1    0    0  501    0  0.00000000000E+00  0.00000000000E+00 -0.67068004952E+03  0.67068004954E+03  0.50400001928E-02 0.  1.
    10030    2    1    2    0    0  0.00000000000E+00  0.00000000000E+00  0.15856923879E+03  0.14999293379E+04  0.14915239908E+04 0.  0.
        5    1    3    3  502    0  0.28028871006E+03 -0.60798031072E+02  0.77155391264E+03  0.82314985980E+03  0.46999998093E+01 0. -1.
       -5    1    3    3    0  502 -0.28028871006E+03  0.60798031072E+02 -0.61298467385E+03  0.67677947807E+03  0.46999998093E+01 0.  1.
</event>
<event>
 5   0  0.2094566E-03  0.1431327E+04  0.7818609E-02  0.8931449E-01
        2   -1    0    0  501    0  0.00000000000E+00  0.00000000000E+00  0.37670655427E+03  0.37670655428E+03  0.25500000920E-02 0. -1.
       -2   -1    0    0    0  501  0.00000000000E+00  0.00000000000E+00 -0.13596108276E+04  0.13596108276E+04  0.25500000920E-02 0.  1.
    10030    2    1    2    0    0  0.00000000000E+00  0.00000000000E+00 -0.98290427331E+03  0.17363173819E+04  0.14313270905E+04 0.  0.
        1    1    3    3  502    0 -0.38494589956E+03 -0.40474045577E+03 -0.10341978022E+04  0.11753991986E+04  0.50400001928E-02 0.  1.
       -1    1    3    3    0  502  0.38494589956E+03  0.40474045577E+03  0.51293528871E+02  0.56091818321E+03  0.50400001928E-02 0. -1.
</event>
<event>
 5   0  0.2111533E-03  0.1484623E+04  0.7818609E-02  0.8894744E-01
       -2   -1    0    0    0  501  0.00000000000E+00  0.00000000000E+00  0.53299298937E+03  0.53299298937E+03  0.25500000920E-02 0.  1.
        2   -1    0    0  501    0  0.00000000000E+00  0.00000000000E+00 -0.10338335984E+04  0.10338335984E+04  0.25500000920E-02 0. -1.
    10030    2    1    2    0    0  0.00000000000E+00  0.00000000000E+00 -0.50084060906E+03  0.15668265878E+04  0.14846225920E+04 0.  0.
        5    1    3    3  502    0 -0.42346184725E+03  0.59842079152E+03 -0.37339060227E+03  0.82272110199E+03  0.46999998093E+01 0. -1.
       -5    1    3    3    0  502  0.42346184725E+03 -0.59842079152E+03 -0.12745000679E+03  0.74410548582E+03  0.46999998093E+01 0.  1.
</event>
<event>
 5   0  0.1078018E-03  0.1401025E+04  0.7818609E-02  0.8953077E-01
        1   -1    0    0  501    0  0.00000000000E+00  0.00000000000E+00  0.66144487570E+03  0.66144487572E+03  0.50400001928E-02 0.  1.
       -1   -1    0    0    0  501  0.00000000000E+00  0.00000000000E+00 -0.74188801926E+03  0.74188801928E+03  0.50400001928E-02 0. -1.
    10030    2    1    2    0    0  0.00000000000E+00  0.00000000000E+00 -0.80443143557E+02  0.14033328950E+04  0.14010253798E+04 0.  0.
        4    1    3    3  502    0  0.58070419057E+03  0.17915776228E+03 -0.38922269742E+03  0.72167221217E+03  0.12699999809E+01 0. -1.
       -4    1    3    3    0  502 -0.58070419057E+03 -0.17915776228E+03  0.30877955386E+03  0.68166068283E+03  0.12699999809E+01 0.  1.
</event>
<event>
 5   0  0.2111533E-03  0.1465471E+04  0.7818609E-02  0.8907744E-01
        2   -1    0    0  501    0  0.00000000000E+00  0.00000000000E+00  0.17974188376E+04  0.17974188376E+04  0.25500000920E-02 0. -1.
       -2   -1    0    0    0  501  0.00000000000E+00  0.00000000000E+00 -0.29870695678E+03  0.29870695679E+03  0.25500000920E-02 0.  1.
    10030    2    1    2    0    0  0.00000000000E+00  0.00000000000E+00  0.14987118808E+04  0.20961257943E+04  0.14654712703E+04 0.  0.
        5    1    3    3  502    0 -0.56104507358E+03  0.38473515208E+03  0.36003282870E+03  0.76970022709E+03  0.46999998093E+01 0.  1.
       -5    1    3    3    0  502  0.56104507358E+03 -0.38473515208E+03  0.11386790521E+04  0.13264255673E+04  0.46999998093E+01 0. -1.
</event>
<event>
 5   0  0.1961098E-03  0.1537352E+04  0.7818609E-02  0.8859987E-01
        2   -1    0    0  501    0  0.00000000000E+00  0.00000000000E+00  0.13895447317E+04  0.13895447317E+04  0.25500000920E-02 0. -1.
       -2   -1    0    0    0  501  0.00000000000E+00  0.00000000000E+00 -0.42522025957E+03  0.42522025958E+03  0.25500000920E-02 0.  1.
    10030    2    1    2    0    0  0.00000000000E+00  0.00000000000E+00  0.96432447214E+03  0.18147649913E+04  0.15373517119E+04 0.  0.
        2    1    3    3  502    0  0.23612768716E+03  0.98520974000E+02  0.13378043493E+04  0.13620510798E+04  0.25500000920E-02 0. -1.
       -2    1    3    3    0  502 -0.23612768716E+03 -0.98520974000E+02 -0.37347987720E+03  0.45271391147E+03  0.25500000920E-02 0.  1.
</event>
<event>
 5   0  0.1961098E-03  0.1449170E+04  0.7818609E-02  0.8918976E-01
       -2   -1    0    0    0  501  0.00000000000E+00  0.00000000000E+00  0.70889204665E+03  0.70889204666E+03  0.25500000920E-02 0. -1.
        2   -1    0    0  501    0  0.00000000000E+00  0.00000000000E+00 -0.74062539290E+03  0.74062539291E+03  0.25500000920E-02 0.  1.
    10030    2    1    2    0    0  0.00000000000E+00  0.00000000000E+00 -0.31733346253E+02  0.14495174396E+04  0.14491700391E+04 0.  0.
        2    1    3    3  502    0 -0.58427537385E+03 -0.18055596439E+03  0.37287193927E+03  0.71624831718E+03  0.25500000920E-02 0. -1.
       -2    1    3    3    0  502  0.58427537385E+03  0.18055596439E+03 -0.40460528552E+03  0.73326912238E+03  0.25500000920E-02 0.  1.
</event>
<event>
 5   0  0.1087761E-03  0.1506414E+04  0.7818609E-02  0.8880199E-01
       -1   -1    0    0    0  501  0.00000000000E+00  0.00000000000E+00  0.41826020970E+03  0.41826020973E+03  0.50400001928E-02 0. -1.
        1   -1    0    0  501    0  0.00000000000E+00  0.00000000000E+00 -0.13563829587E+04  0.13563829587E+04  0.50400001928E-02 0.  1.
    10030    2    1    2    0    0  0.00000000000E+00  0.00000000000E+00 -0.93812274903E+03  0.17746431685E+04  0.15064143132E+04 0.  0.
        3    1    3    3  502    0 -0.54674971442E+03 -0.57986584631E+02  0.13740768644E+03  0.56672619201E+03  0.10100000352E+00 0. -1.
       -3    1    3    3    0  502  0.54674971442E+03  0.57986584631E+02 -0.10755304355E+04  0.12079169765E+04  0.10100000352E+00 0.  1.
</event>
<event>
 5   0  0.1069697E-03  0.1502941E+04  0.7818609E-02  0.8882499E-01
       -1   -1    0    0    0  501  0.00000000000E+00  0.00000000000E+00  0.61227481081E+03  0.61227481083E+03  0.50400001928E-02 0. -1.
        1   -1    0    0  501    0  0.00000000000E+00  0.00000000000E+00 -0.92231179573E+03  0.92231179574E+03  0.50400001928E-02 0.  1.
    10030    2    1    2    0    0  0.00000000000E+00  0.00000000000E+00 -0.31003698492E+03  0.15345866066E+04  0.15029414896E+04 0.  0.
        2    1    3    3  502    0  0.11824114769E+03 -0.29335180620E+03 -0.85103989671E+03  0.90791252718E+03  0.25500000920E-02 0.  1.
       -2    1    3    3    0  502 -0.11824114769E+03  0.29335180620E+03  0.54100291179E+03  0.62667407939E+03  0.25500000920E-02 0. -1.
</event>
<event>
 5   0  0.2094566E-03  0.1447207E+04  0.7818609E-02  0.8920339E-01
       -2   -1    0    0    0  501  0.00000000000E+00  0.00000000000E+00  0.13262891786E+04  0.13262891786E+04  0.25500000920E-02 0.  1.
        2   -1    0    0  501    0  0.00000000000E+00  0.00000000000E+00 -0.39478702928E+03  0.39478702928E+03  0.25500000920E-02 0. -1.
    10030    2    1    2    0    0  0.00000000000E+00  0.00000000000E+00  0.93150214929E+03  0.17210762079E+04  0.14472066401E+04 0.  0.
        1    1    3    3  502    0 -0.20859580449E+02  0.28358743311E+02 -0.39376799957E+03  0.39533856114E+03  0.50400001928E-02 0. -1.
       -1    1    3    3    0  502  0.20859580449E+02 -0.28358743311E+02  0.13252701489E+04  0.13257376467E+04  0.50400001928E-02 0.  1.
</event>
<event>
 5   0  0.1069697E-03  0.1510350E+04  0.7818609E-02  0.8877600E-01
        1   -1    0    0  501    0  0.00000000000E+00  0.00000000000E+00  0.78858175703E+03  0.78858175704E+03  0.50400001928E-02 0. -1.
       -1   -1    0    0    0  501  0.00000000000E+00  0.00000000000E+00 -0.72318304977E+03  0.72318304979E+03  0.50400001928E-02 0.  1.
    10030    2    1    2    0    0  0.00000000000E+00  0.00000000000E+00  0.65398707255E+02  0.15117648068E+04  0.15103495755E+04 0.  0.
        2    1    3    3  502    0 -0.13636358944E+03 -0.56932278334E+03  0.51018460746E+03  0.77653834023E+03  0.25500000920E-02 0. -1.
       -2    1    3    3    0  502  0.13636358944E+03  0.56932278334E+03 -0.44478590021E+03  0.73522646660E+03  0.25500000920E-02 0.  1.
</event>
<event>
 5   0  0.1078787E-03  0.1498242E+04  0.7818609E-02  0.8885623E-01
        1   -1    0    0  501    0  0.00000000000E+00  0.00000000000E+00  0.21638827774E+04  0.21638827774E+04  0.50400001928E-02 0. -1.
       -1   -1    0    0    0  501  0.00000000000E+00  0.00000000000E+00 -0.25934035463E+03  0.25934035468E+03  0.50400001928E-02 0.  1.
    10030    2    1    2    0    0  0.00000000000E+00  0.00000000000E+00  0.19045424227E+04  0.24232231321E+04  0.14982418055E+04 0.  0.
        5    1    3    3  502    0  0.30214953955E+03 -0.92936882822E+02 -0.14615156335E+03  0.34830156174E+03  0.46999998093E+01 0.  1.
       -5    1    3    3    0  502 -0.30214953955E+03  0.92936882822E+02  0.20506939861E+04  0.20749215703E+04  0.46999998093E+01 0. -1.
</event>
<event>
 5   0  0.2111533E-03  0.1488920E+04  0.7818609E-02  0.8891855E-01
       -2   -1    0    0    0  501  0.00000000000E+00  0.00000000000E+00  0.49228296413E+03  0.49228296414E+03  0.25500000920E-02 0.  1.
        2   -1    0    0  501    0  0.00000000000E+00  0.00000000000E+00 -0.11258169284E+04  0.11258169285E+04  0.25500000920E-02 0. -1.
    10030    2    1    2    0    0  0.00000000000E+00  0.00000000000E+00 -0.63353396432E+03  0.16180998926E+04  0.14889197354E+04 0.  0.
        5    1    3    3  502    0  0.53364745157E+02  0.51487079411E+03  0.26468435041E+03  0.58139455279E+03  0.46999998093E+01 0.  1.
       -5    1    3    3    0  502 -0.53364745157E+02 -0.51487079411E+03 -0.89821831473E+03  0.10367053398E+04  0.46999998093E+01 0. -1.
</event>
<event>
 5   0  0.1069697E-03  0.1478736E+04  0.7818609E-02  0.8898717E-01
       -1   -1    0    0    0  501  0.00000000000E+00  0.00000000000E+00  0.96183483196E+03  0.96183483197E+03  0.50400001928E-02 0. -1.
        1   -1    0    0  501    0  0.00000000000E+00  0.00000000000E+00 -0.56835671619E+03  0.56835671621E+03  0.50400001928E-02 0.  1.
    10030    2    1    2    0    0  0.00000000000E+00  0.00000000000E+00  0.39347811577E+03  0.15301915482E+04  0.14787363343E+04 0.  0.
        2    1    3    3  502    0  0.41387294120E+03  0.84249311303E+02 -0.43123553809E+03  0.60361647363E+03  0.25500000920E-02 0.  1.
       -2    1    3    3    0  502 -0.41387294120E+03 -0.84249311303E+02  0.82471365386E+03  0.92657507455E+03  0.25500000920E-02 0. -1.
</event>
<event>
 5   0  0.1087761E-03  0.1493621E+04  0.7818609E-02  0.8888706E-01
       -1   -1    0    0    0  501  0.00000000000E+00  0.00000000000E+00  0.33895399588E+03  0.33895399591E+03  0.50400001928E-02 0. -1.
        1   -1    0    0  501    0  0.00000000000E+00  0.00000000000E+00 -0.16454334586E+04  0.16454334586E+04  0.50400001928E-02 0.  1.
    10030    2    1    2    0    0  0.00000000000E+00  0.00000000000E+00 -0.13064794627E+04  0.19843874545E+04  0.14936214323E+04 0.  0.
        3    1    3    3  502    0  0.79247757770E+02  0.48950859678E+03 -0.13951357601E+04  0.14806426553E+04  0.10100000352E+00 0.  1.
       -3    1    3    3    0  502 -0.79247757770E+02 -0.48950859678E+03  0.88656297392E+02  0.50374479918E+03  0.10100000352E+00 0. -1.
</event>
<event>
 5   0  0.1078787E-03  0.1627620E+04  0.7818609E-02  0.8803758E-01
       -1   -1    0    0    0  501  0.00000000000E+00  0.00000000000E+00  0.84330372698E+03  0.84330372699E+03  0.50400001928E-02 0. -1.
        1   -1    0    0  501    0  0.00000000000E+00  0.00000000000E+00 -0.78534751969E+03  0.78534751970E+03  0.50400001928E-02 0.  1.
    10030    2    1    2    0    0  0.00000000000E+00  0.00000000000E+00  0.57956207288E+02  0.16286512467E+04  0.16276197226E+04 0.  0.
        5    1    3    3  502    0  0.11563189793E+02 -0.67263584185E+02 -0.78246511655E+03  0.78545009117E+03  0.46999998093E+01 0.  1.
       -5    1    3    3    0  502 -0.11563189793E+02  0.67263584185E+02  0.84042132383E+03  0.84320115552E+03  0.46999998093E+01 0. -1.
</event>
<event>
 5   0  0.1961098E-03  0.1504968E+04  0.7818609E-02  0.8881156E-01
        2   -1    0    0  501    0  0.00000000000E+00  0.00000000000E+00  0.40720994706E+03  0.40720994707E+03  0.25500000920E-02 0. -1.
       -2   -1    0    0    0  501  0.00000000000E+00  0.00000000000E+00 -0.13905161279E+04  0.13905161279E+04  0.25500000920E-02 0.  1.
    10030    2    1    2    0    0  0.00000000000E+00  0.00000000000E+00 -0.98330618082E+03  0.17977260749E+04  0.15049677722E+04 0.  0.
        2    1    3    3  502    0 -0.71688736681E+03 -0.25223857359E+02 -0.76317709628E+03  0.10473791195E+04  0.25500000920E-02 0.  1.
       -2    1    3    3    0  502  0.71688736681E+03  0.25223857359E+02 -0.22012908454E+03  0.75034695544E+03  0.25500000920E-02 0. -1.
</event>
<event>
 5   0  0.2150197E-03  0.1612697E+04  0.7818609E-02  0.8812785E-01
       -2   -1    0    0    0  501  0.00000000000E+00  0.00000000000E+00  0.81686486258E+03  0.81686486258E+03  0.25500000920E-02 0. -1.
        2   -1    0    0  501    0  0.00000000000E+00  0.00000000000E+00 -0.79596787728E+03  0.79596787728E+03  0.25500000920E-02 0.  1.
    10030    2    1    2    0    0  0.00000000000E+00  0.00000000000E+00  0.20896985302E+02  0.16128327399E+04  0.16126973562E+04 0.  0.
        3    1    3    3  502    0 -0.47276814796E+02 -0.39812947956E+02 -0.79359537557E+03  0.79599861707E+03  0.10100000352E+00 0.  1.
       -3    1    3    3    0  502  0.47276814796E+02  0.39812947956E+02  0.81449236088E+03  0.81683412280E+03  0.10100000352E+00 0. -1.
</event>
<event>
 5   0  0.1087761E-03  0.1510314E+04  0.7818609E-02  0.8877623E-01
        1   -1    0    0  501    0  0.00000000000E+00  0.00000000000E+00  0.72006841590E+03  0.72006841592E+03  0.50400001928E-02 0.  1.
       -1   -1    0    0    0  501  0.00000000000E+00  0.00000000000E+00 -0.79195522634E+03  0.79195522636E+03  0.50400001928E-02 0. -1.
    10030    2    1    2    0    0  0.00000000000E+00  0.00000000000E+00 -0.71886810441E+02  0.15120236423E+04  0.15103138023E+04 0.  0.
        3    1    3    3  502    0  0.53901225760E+03  0.48717272998E+03 -0.24206591249E+03  0.76581159490E+03  0.10100000352E+00 0. -1.
       -3    1    3    3    0  502 -0.53901225760E+03 -0.48717272998E+03  0.17017910205E+03  0.74621204738E+03  0.10100000352E+00 0.  1.
</event>
<event>
 5   0  0.2094566E-03  0.1450562E+04  0.7818609E-02  0.8918011E-01
        2   -1    0    0  501    0  0.00000000000E+00  0.00000000000E+00  0.58884830163E+03  0.58884830163E+03  0.25500000920E-02 0. -1.
       -2   -1    0    0    0  501  0.00000000000E+00  0.00000000000E+00 -0.89332435805E+03  0.89332435805E+03  0.25500000920E-02 0.  1.
    10030    2    1    2    0    0  0.00000000000E+00  0.00000000000E+00 -0.30447605642E+03  0.14821726597E+04  0.14505620029E+04 0.  0.
        1    1    3    3  502    0 -0.69321172867E+03 -0.37285113836E+02  0.62337929563E+02  0.69700695690E+03  0.50400001928E-02 0.  1.
       -1    1    3    3    0  502  0.69321172867E+03  0.37285113836E+02 -0.36681398598E+03  0.78516570278E+03  0.50400001928E-02 0. -1.
</event>
<event>
 5   0  0.2094566E-03  0.1491203E+04  0.7818609E-02  0.8890324E-01
       -2   -1    0    0    0  501  0.00000000000E+00  0.00000000000E+00  0.40646275436E+03  0.40646275437E+03  0.25500000920E-02 0. -1.
        2   -1    0    0  501    0  0.00000000000E+00  0.00000000000E+00 -0.13677065803E+04  0.13677065803E+04  0.25500000920E-02 0.  1.
    10030    2    1    2    0    0  0.00000000000E+00  0.00000000000E+00 -0.96124382598E+03  0.17741693347E+04  0.14912032508E+04 0.  0.
        1    1    3    3  502    0 -0.60618950855E+03 -0.40319497673E+03 -0.67205773048E+03  0.99080447247E+03  0.50400001928E-02 0.  1.
       -1    1    3    3    0  502  0.60618950855E+03  0.40319497673E+03 -0.28918609550E+03  0.78336486224E+03  0.50400001928E-02 0. -1.
</event>
<event>
 5   0  0.2111533E-03  0.1511213E+04  0.7818609E-02  0.8877031E-01
        2   -1    0    0  501    0  0.00000000000E+00  0.00000000000E+00  0.14879443428E+04  0.14879443428E+04  0.25500000920E-02 0.  1.
       -2   -1    0    0    0  501  0.00000000000E+00  0.00000000000E+00 -0.38371123060E+03  0.38371123061E+03  0.25500000920E-02 0. -1.
    10030    2    1    2    0    0  0.00000000000E+00  0.00000000000E+00  0.11042331122E+04  0.18716555734E+04  0.15112126983E+04 0.  0.
        5    1    3    3  502    0 -0.50619828191E+02  0.72685697187E+03  0.79992873268E+03  0.10820311881E+04  0.46999998093E+01 0.  1.
       -5    1    3    3    0  502  0.50619828191E+02 -0.72685697187E+03  0.30430437953E+03  0.78962438536E+03  0.46999998093E+01 0. -1.
</event>
<event>
 5   0  0.2150197E-03  0.1475231E+04  0.7818609E-02  0.8901093E-01
       -2   -1    0    0    0  501  0.00000000000E+00  0.00000000000E+00  0.97573316203E+03  0.97573316203E+03  0.25500000920E-02 0.  1.
        2   -1    0    0  501    0  0.00000000000E+00  0.00000000000E+00 -0.55760799244E+03  0.55760799245E+03  0.25500000920E-02 0. -1.
    10030    2    1    2    0    0  0.00000000000E+00  0.00000000000E+00  0.41812516959E+03  0.15333411545E+04  0.14752309780E+04 0.  0.
        3    1    3    3  502    0  0.57808250145E+03  0.17559157220E+03  0.64889162916E+03  0.88660709184E+03  0.10100000352E+00 0.  1.
       -3    1    3    3    0  502 -0.57808250145E+03 -0.17559157220E+03 -0.23076645957E+03  0.64673406264E+03  0.10100000352E+00 0. -1.
</event>
<event>
 5   0  0.1077140E-03  0.1608943E+04  0.7818609E-02  0.8815072E-01
        1   -1    0    0  501    0  0.00000000000E+00  0.00000000000E+00  0.10790228948E+04  0.10790228948E+04  0.50400001928E-02 0.  1.
       -1   -1    0    0    0  501  0.00000000000E+00  0.00000000000E+00 -0.59977852818E+03  0.59977852820E+03  0.50400001928E-02 0. -1.
    10030    2    1    2    0    0  0.00000000000E+00  0.00000000000E+00  0.47924436664E+03  0.16788014230E+04  0.16089434592E+04 0.  0.
        1    1    3    3  502    0  0.28048079262E+03  0.73544281237E+03  0.66184935042E+02  0.78988989799E+03  0.50400001928E-02 0. -1.
       -1    1    3    3    0  502 -0.28048079262E+03 -0.73544281237E+03  0.41305943159E+03  0.88891152504E+03  0.50400001928E-02 0.  1.
</event>
<event>
 5   0  0.1077140E-03  0.1556813E+04  0.7818609E-02  0.8847527E-01
       -1   -1    0    0    0  501  0.00000000000E+00  0.00000000000E+00  0.80630684033E+03  0.80630684034E+03  0.50400001928E-02 0.  1.
        1   -1    0    0  501    0  0.00000000000E+00  0.00000000000E+00 -0.75147205935E+03  0.75147205936E+03  0.50400001928E-02 0. -1.
    10030    2    1    2    0    0  0.00000000000E+00  0.00000000000E+00  0.54834780983E+02  0.15577788997E+04  0.15568134915E+04 0.  0.
        1    1    3    3  502    0 -0.35126048214E+03  0.53852621724E+03 -0.41162873055E+03  0.76343475478E+03  0.50400001928E-02 0.  1.
       -1    1    3    3    0  502  0.35126048214E+03 -0.53852621724E+03  0.46646351153E+03  0.79434414493E+03  0.50400001928E-02 0. -1.
</event>
<event>
 5   0  0.1087761E-03  0.1379678E+04  0.7818609E-02  0.8968661E-01
        1   -1    0    0  501    0  0.00000000000E+00  0.00000000000E+00  0.78547108286E+03  0.78547108287E+03  0.50400001928E-02 0.  1.
       -1   -1    0    0    0  501  0.00000000000E+00  0.00000000000E+00 -0.60585052590E+03  0.60585052592E+03  0.50400001928E-02 0. -1.
    10030    2    1    2    0    0  0.00000000000E+00  0.00000000000E+00  0.17962055695E+03  0.13913216088E+04  0.13796783229E+04 0.  0.
        3    1    3    3  502    0  0.35330172795E+03  0.37513926104E+03 -0.37267367470E+03  0.63595381449E+03  0.10100000352E+00 0. -1.
       -3    1    3    3    0  502 -0.35330172795E+03 -0.37513926104E+03  0.55229423166E+03  0.75536779430E+03  0.10100000352E+00 0.  1.
</event>
<event>
 5   0  0.2111533E-03  0.1591278E+04  0.7818609E-02  0.8825924E-01
        2   -1    0    0  501    0  0.00000000000E+00  0.00000000000E+00  0.16047475923E+04  0.16047475923E+04  0.25500000920E-02 0.  1.
       -2   -1    0    0    0  501  0.00000000000E+00  0.00000000000E+00 -0.39448025481E+03  0.39448025481E+03  0.25500000920E-02 0. -1.
    10030    2    1    2    0    0  0.00000000000E+00  0.00000000000E+00  0.12102673375E+04  0.19992278471E+04  0.15912777748E+04 0.  0.
        5    1    3    3  502    0  0.40226629614E+03  0.13299690668E+02  0.14673929087E+04  0.15215975464E+04  0.46999998093E+01 0.  1.
       -5    1    3    3    0  502 -0.40226629614E+03 -0.13299690668E+02 -0.25712557120E+03  0.47763030070E+03  0.46999998093E+01 0. -1.
</event>
<event>
 5   0  0.2094566E-03  0.1449457E+04  0.7818609E-02  0.8918777E-01
       -2   -1    0    0    0  501  0.00000000000E+00  0.00000000000E+00  0.63679956338E+03  0.63679956339E+03  0.25500000920E-02 0. -1.
        2   -1    0    0  501    0  0.00000000000E+00  0.00000000000E+00 -0.82479896576E+03  0.82479896577E+03  0.25500000920E-02 0.  1.
    10030    2    1    2    0    0  0.00000000000E+00  0.00000000000E+00 -0.18799940238E+03  0.14615985292E+04  0.14494573071E+04 0.  0.
        1    1    3    3  502    0 -0.14769129859E+03  0.53571692049E+02 -0.80742081412E+03  0.82256368566E+03  0.50400001928E-02 0.  1.
       -1    1    3    3    0  502  0.14769129859E+03 -0.53571692049E+02  0.61942141173E+03  0.63903484350E+03  0.50400001928E-02 0. -1.
</event>
<event>
 5   0  0.1078787E-03  0.1511355E+04  0.7818609E-02  0.8876937E-01
       -1   -1    0    0    0  501  0.00000000000E+00  0.00000000000E+00  0.29655719414E+03  0.29655719418E+03  0.50400001928E-02 0. -1.
        1   -1    0    0  501    0  0.00000000000E+00  0.00000000000E+00 -0.19255936611E+04  0.19255936611E+04  0.50400001928E-02 0.  1.
    10030    2    1    2    0    0  0.00000000000E+00  0.00000000000E+00 -0.16290364670E+04  0.22221508553E+04  0.15113552239E+04 0.  0.
        5    1    3    3  502    0  0.58624512061E+03  0.47194980227E+02 -0.15121239480E+04  0.16224831684E+04  0.46999998093E+01 0.  1.
       -5    1    3    3    0  502 -0.58624512061E+03 -0.47194980227E+02 -0.11691251894E+03  0.59966768687E+03  0.46999998093E+01 0. -1.
</event>
<event>
 5   0  0.1078787E-03  0.1481380E+04  0.7818609E-02  0.8896930E-01
        1   -1    0    0  501    0  0.00000000000E+00  0.00000000000E+00  0.86267212550E+03  0.86267212551E+03  0.50400001928E-02 0. -1.
       -1   -1    0    0    0  501  0.00000000000E+00  0.00000000000E+00 -0.63595617528E+03  0.63595617530E+03  0.50400001928E-02 0.  1.
    10030    2    1    2    0    0  0.00000000000E+00  0.00000000000E+00  0.22671595022E+03  0.14986283008E+04  0.14813799857E+04 0.  0.
        5    1    3    3  502    0  0.41877631595E+03  0.61088579799E+03  0.10660837317E+03  0.74829305504E+03  0.46999998093E+01 0.  1.
       -5    1    3    3    0  502 -0.41877631595E+03 -0.61088579799E+03  0.12010757704E+03  0.75033524577E+03  0.46999998093E+01 0. -1.
</event>
<event>
 5   0  0.2094566E-03  0.1512883E+04  0.7818609E-02  0.8875931E-01
       -2   -1    0    0    0  501  0.00000000000E+00  0.00000000000E+00  0.39891511706E+03  0.39891511707E+03  0.25500000920E-02 0.  1.
        2   -1    0    0  501    0  0.00000000000E+00  0.00000000000E+00 -0.14343991799E+04  0.14343991799E+04  0.25500000920E-02 0. -1.
    10030    2    1    2    0    0  0.00000000000E+00  0.00000000000E+00 -0.10354840629E+04  0.18333142970E+04  0.15128827011E+04 0.  0.
        1    1    3    3  502    0 -0.71401647536E+03  0.23888963125E+03 -0.60609339954E+03  0.96655935771E+03  0.50400001928E-02 0. -1.
       -1    1    3    3    0  502  0.71401647536E+03 -0.23888963125E+03 -0.42939066333E+03  0.86675493929E+03  0.50400001928E-02 0.  1.
</event>
<event>
 5   0  0.1087761E-03  0.1423707E+04  0.7818609E-02  0.8936834E-01
        1   -1    0    0  501    0  0.00000000000E+00  0.00000000000E+00  0.27688674125E+03  0.27688674130E+03  0.50400001928E-02 0. -1.
       -1   -1    0    0    0  501  0.00000000000E+00  0.00000000000E+00 -0.18301192133E+04  0.18301192133E+04  0.50400001928E-02 0.  1.
    10030    2    1    2    0    0  0.00000000000E+00  0.00000000000E+00 -0.15532324721E+04  0.21070059546E+04  0.14237074772E+04 0.  0.
        3    1    3    3  502    0 -0.10053450788E+03  0.21418927748E+03  0.21698835125E+03  0.32104234711E+03  0.10100000352E+00 0. -1.
       -3    1    3    3    0  502  0.10053450788E+03 -0.21418927748E+03 -0.17702208233E+04  0.17859636075E+04  0.10100000352E+00 0.  1.
</event>
<event>
 5   0  0.1069697E-03  0.1471659E+04  0.7818609E-02  0.8903521E-01
       -1   -1    0    0    0  501  0.00000000000E+00  0.00000000000E+00  0.89454863550E+03  0.89454863551E+03  0.50400001928E-02 0.  1.
        1   -1    0    0  501    0  0.00000000000E+00  0.00000000000E+00 -0.60527169302E+03  0.60527169304E+03  0.50400001928E-02 0. -1.
    10030    2    1    2    0    0  0.00000000000E+00  0.00000000000E+00  0.28927694248E+03  0.14998203285E+04  0.14716588832E+04 0.  0.
        2    1    3    3  502    0 -0.98756753520E+02  0.47247258954E+03 -0.42138275705E+03  0.64073916080E+03  0.25500000920E-02 0. -1.
       -2    1    3    3    0  502  0.98756753520E+02 -0.47247258954E+03  0.71065969953E+03  0.85908116775E+03  0.25500000920E-02 0.  1.
</event>
<event>
 5   0  0.1078018E-03  0.1491990E+04  0.7818609E-02  0.8889797E-01
       -1   -1    0    0    0  501  0.00000000000E+00  0.00000000000E+00  0.39133768395E+03  0.39133768398E+03  0.50400001928E-02 0.  1.
        1   -1    0    0  501    0  0.00000000000E+00  0.00000000000E+00 -0.14220674691E+04  0.14220674691E+04  0.50400001928E-02 0. -1.
    10030    2    1    2    0    0  0.00000000000E+00  0.00000000000E+00 -0.10307297852E+04  0.18134051531E+04  0.14919900667E+04 0.  0.
        4    1    3    3  502    0  0.27443907240E+03 -0.68998929019E+03 -0.60220587747E+03  0.95606252766E+03  0.12699999809E+01 0. -1.
       -4    1    3    3    0  502 -0.27443907240E+03  0.68998929019E+03 -0.42852390769E+03  0.85734262544E+03  0.12699999809E+01 0.  1.
</event>
<event>
 5   0  0.1078018E-03  0.1443817E+04  0.7818609E-02  0.8922699E-01
       -1   -1    0    0    0  501  0.00000000000E+00  0.00000000000E+00  0.27934011588E+03  0.27934011593E+03  0.50400001928E-02 0.  1.
        1   -1    0    0  501    0  0.00000000000E+00  0.00000000000E+00 -0.18656522917E+04  0.18656522917E+04  0.50400001928E-02 0. -1.
    10030    2    1    2    0    0  0.00000000000E+00  0.00000000000E+00 -0.15863121758E+04  0.21449924076E+04  0.14438165083E+04 0.  0.
        4    1    3    3  502    0  0.35705747933E+03  0.60129880697E+03 -0.52698328819E+03  0.87565021426E+03  0.12699999809E+01 0.  1.
       -4    1    3    3    0  502 -0.35705747933E+03 -0.60129880697E+03 -0.10593288876E+04  0.12693421934E+04  0.12699999809E+01 0. -1.
</event>
<event>
 5   0  0.1077140E-03  0.1449926E+04  0.7818609E-02  0.8918452E-01
        1   -1    0    0  501    0  0.00000000000E+00  0.00000000000E+00  0.90600156181E+03  0.90600156183E+03  0.50400001928E-02 0.  1.
       -1   -1    0    0    0  501  0.00000000000E+00  0.00000000000E+00 -0.58009976656E+03  0.58009976658E+03  0.50400001928E-02 0. -1.
    10030    2    1    2    0    0  0.00000000000E+00  0.00000000000E+00  0.32590179525E+03  0.14861013284E+04  0.14499259216E+04 0.  0.
        1    1    3    3  502    0 -0.53773680614E+03 -0.47573269683E+03  0.60001725273E+02  0.72047392637E+03  0.50400001928E-02 0. -1.
       -1    1    3    3    0  502  0.53773680614E+03  0.47573269683E+03  0.26590006998E+03  0.76562740204E+03  0.50400001928E-02 0.  1.
</event>
<event>
 5   0  0.1087761E-03  0.1538407E+04  0.7818609E-02  0.8859307E-01
       -1   -1    0    0    0  501  0.00000000000E+00  0.00000000000E+00  0.48812580070E+03  0.48812580072E+03  0.50400001928E-02 0. -1.
        1   -1    0    0  501    0  0.00000000000E+00  0.00000000000E+00 -0.12121345064E+04  0.12121345065E+04  0.50400001928E-02 0.  1.
    10030    2    1    2    0    0  0.00000000000E+00  0.00000000000E+00 -0.72400870575E+03  0.17002603072E+04  0.15384071328E+04 0.  0.
        3    1    3    3  502    0 -0.37136499860E+03 -0.30229516097E+03 -0.10273175158E+04  0.11334353157E+04  0.10100000352E+00 0.  1.
       -3    1    3    3    0  502  0.37136499860E+03  0.30229516097E+03  0.30330881000E+03  0.56682499147E+03  0.10100000352E+00 0. -1.
</event>
<event>
 5   0  0.1078018E-03  0.1097657E+04  0.7818609E-02  0.9207479E-01
        1   -1    0    0  501    0  0.00000000000E+00  0.00000000000E+00  0.41696407513E+03  0.41696407516E+03  0.50400001928E-02 0. -1.
       -1   -1    0    0    0  501  0.00000000000E+00  0.00000000000E+00 -0.72239478639E+03  0.72239478641E+03  0.50400001928E-02 0.  1.
    10030    2    1    2    0    0  0.00000000000E+00  0.00000000000E+00 -0.30543071126E+03  0.11393588616E+04  0.10976569118E+04 0.  0.
        4    1    3    3  502    0 -0.61209571736E+02 -0.19360732503E+03  0.37653899079E+03  0.42780092620E+03  0.12699999809E+01 0. -1.
       -4    1    3    3    0  502  0.61209571736E+02  0.19360732503E+03 -0.68196970205E+03  0.71155793537E+03  0.12699999809E+01 0.  1.
</event>
<event>
 5   0  0.2111533E-03  0.1500952E+04  0.7818609E-02  0.8883820E-01
       -2   -1    0    0    0  501  0.00000000000E+00  0.00000000000E+00  0.22216389194E+03  0.22216389195E+03  0.25500000920E-02 0.  1.
        2   -1    0    0  501    0  0.00000000000E+00  0.00000000000E+00 -0.25351301803E+04  0.25351301803E+04  0.25500000920E-02 0. -1.
    10030    2    1    2    0    0  0.00000000000E+00  0.00000000000E+00 -0.23129662883E+04  0.27572940722E+04  0.15009522143E+04 0.  0.
        5    1    3    3  502    0  0.42863960550E+03  0.46591072605E+03 -0.18967573687E+04  0.19996287960E+04  0.46999998093E+01 0. -1.
       -5    1    3    3    0  502 -0.42863960550E+03 -0.46591072605E+03 -0.41620891968E+03  0.75766527627E+03  0.46999998093E+01 0.  1.
</event>
<event>
 5   0  0.1069697E-03  0.1475355E+04  0.7818609E-02  0.8901009E-01
        1   -1    0    0  501    0  0.00000000000E+00  0.00000000000E+00  0.12883347325E+04  0.12883347325E+04  0.50400001928E-02 0.  1.
       -1   -1    0    0    0  501  0.00000000000E+00  0.00000000000E+00 -0.42238109397E+03  0.42238109400E+03  0.50400001928E-02 0. -1.
    10030    2    1    2    0    0  0.00000000000E+00  0.00000000000E+00  0.86595363850E+03  0.17107158265E+04  0.14753551894E+04 0.  0.
        2    1    3    3  502    0 -0.11936381764E+03 -0.23665429611E+03 -0.36525976787E+03  0.45129555156E+03  0.25500000920E-02 0. -1.
       -2    1    3    3    0  502  0.11936381764E+03  0.23665429611E+03  0.12312134064E+04  0.12594202749E+04  0.25500000920E-02 0.  1.
</event>
<event>
 5   0  0.1087761E-03  0.1124962E+04  0.7818609E-02  0.9181198E-01
        1   -1    0    0  501    0  0.00000000000E+00  0.00000000000E+00  0.12003444542E+04  0.12003444542E+04  0.50400001928E-02 0.  1.
       -1   -1    0    0    0  501  0.00000000000E+00  0.00000000000E+00 -0.26357859649E+03  0.26357859654E+03  0.50400001928E-02 0. -1.
    10030    2    1    2    0    0  0.00000000000E+00  0.00000000000E+00  0.93676585769E+03  0.14639230507E+04  0.11249624111E+04 0.  0.
        3    1    3    3  502    0 -0.44935239119E+03 -0.33826700871E+03  0.47691178508E+03  0.73741914919E+03  0.10100000352E+00 0.  1.
       -3    1    3    3    0  502  0.44935239119E+03  0.33826700871E+03  0.45985407261E+03  0.72650390154E+03  0.10100000352E+00 0. -1.
</event>
<event>
 5   0  0.1069697E-03  0.1516307E+04  0.7818609E-02  0.8873681E-01
        1   -1    0    0  501    0  0.00000000000E+00  0.00000000000E+00  0.10184755400E+04  0.10184755400E+04  0.50400001928E-02 0.  1.
       -1   -1    0    0    0  501  0.00000000000E+00  0.00000000000E+00 -0.56436933365E+03  0.56436933367E+03  0.50400001928E-02 0. -1.
    10030    2    1    2    0    0  0.00000000000E+00  0.00000000000E+00  0.45410620637E+03  0.15828448737E+04  0.15163065150E+04 0.  0.
        2    1    3    3  502    0  0.33191140242E+02  0.75259468694E+03  0.13788855847E+03  0.76584180427E+03  0.25500000920E-02 0. -1.
       -2    1    3    3    0  502 -0.33191140242E+02 -0.75259468694E+03  0.31621764790E+03  0.81700306943E+03  0.25500000920E-02 0.  1.
</event>
<event>
 5   0  0.2094566E-03  0.1458887E+04  0.7818609E-02  0.8912262E-01
        2   -1    0    0  501    0  0.00000000000E+00  0.00000000000E+00  0.80327551135E+03  0.80327551136E+03  0.25500000920E-02 0. -1.
       -2   -1    0    0    0  501  0.00000000000E+00  0.00000000000E+00 -0.66239771616E+03  0.66239771617E+03  0.25500000920E-02 0.  1.
    10030    2    1    2    0    0  0.00000000000E+00  0.00000000000E+00  0.14087779519E+03  0.14656732275E+04  0.14588870610E+04 0.  0.
        1    1    3    3  502    0 -0.14869242938E+03  0.40998262659E+03 -0.51699685939E+03  0.67637337714E+03  0.50400001928E-02 0.  1.
       -1    1    3    3    0  502  0.14869242938E+03 -0.40998262659E+03  0.65787465458E+03  0.78929985039E+03  0.50400001928E-02 0. -1.
</event>
<event>
 5   0  0.1077140E-03  0.1473663E+04  0.7818609E-02  0.8902158E-01
        1   -1    0    0  501    0  0.00000000000E+00  0.00000000000E+00  0.10530195615E+04  0.10530195615E+04  0.50400001928E-02 0. -1.
       -1   -1    0    0    0  501  0.00000000000E+00  0.00000000000E+00 -0.51558448858E+03  0.51558448860E+03  0.50400001928E-02 0.  1.
    10030    2    1    2    0    0  0.00000000000E+00  0.00000000000E+00  0.53743507292E+03  0.15686040501E+04  0.14736628544E+04 0.  0.
        1    1    3    3  502    0 -0.62809179972E+03 -0.34237603659E+03  0.80702862436E+02  0.71988444304E+03  0.50400001928E-02 0.  1.
       -1    1    3    3    0  502  0.62809179972E+03  0.34237603659E+03  0.45673221049E+03  0.84871960707E+03  0.50400001928E-02 0. -1.
</event>
<event>
 5   0  0.1961098E-03  0.1425924E+04  0.7818609E-02  0.8935264E-01
        2   -1    0    0  501    0  0.00000000000E+00  0.00000000000E+00  0.11332494025E+04  0.11332494025E+04  0.25500000920E-02 0.  1.
       -2   -1    0    0    0  501  0.00000000000E+00  0.00000000000E+00 -0.44854640042E+03  0.44854640043E+03  0.25500000920E-02 0. -1.
    10030    2    1    2    0    0  0.00000000000E+00  0.00000000000E+00  0.68470300210E+03  0.15817958030E+04  0.14259241779E+04 0.  0.
        2    1    3    3  502    0  0.10385442501E+03  0.28116352666E+03  0.10599630243E+04  0.11015263425E+04  0.25500000920E-02 0.  1.
       -2    1    3    3    0  502 -0.10385442501E+03 -0.28116352666E+03 -0.37526002224E+03  0.48026946042E+03  0.25500000920E-02 0. -1.
</event>
<event>
 5   0  0.7468375E-04  0.1385524E+04  0.7818609E-02  0.8964364E-01
        3   -1    0    0  501    0  0.00000000000E+00  0.00000000000E+00  0.73914941424E+03  0.73914942114E+03  0.10100000352E+00 0.  1.
       -3   -1    0    0    0  501  0.00000000000E+00  0.00000000000E+00 -0.64928599122E+03  0.64928599908E+03  0.10100000352E+00 0. -1.
    10030    2    1    2    0    0  0.00000000000E+00  0.00000000000E+00  0.89863423012E+02  0.13884354202E+04  0.13855242623E+04 0.  0.
        4    1    3    3  502    0 -0.49300375684E+03 -0.32681581966E+03 -0.31645945724E+03  0.67082746307E+03  0.12699999809E+01 0. -1.
       -4    1    3    3    0  502  0.49300375684E+03  0.32681581966E+03  0.40632288025E+03  0.71760795714E+03  0.12699999809E+01 0.  1.
</event>
<event>
 5   0  0.1077140E-03  0.1524983E+04  0.7818609E-02  0.8868007E-01
        1   -1    0    0  501    0  0.00000000000E+00  0.00000000000E+00  0.13946734669E+04  0.13946734669E+04  0.50400001928E-02 0. -1.
       -1   -1    0    0    0  501  0.00000000000E+00  0.00000000000E+00 -0.41686722667E+03  0.41686722670E+03  0.50400001928E-02 0.  1.
    10030    2    1    2    0    0  0.00000000000E+00  0.00000000000E+00  0.97780624025E+03  0.18115406936E+04  0.15249834888E+04 0.  0.
        1    1    3    3  502    0  0.73259466521E+03 -0.20649797911E+02  0.73885074141E+03  0.10406833216E+04  0.50400001928E-02 0. -1.
       -1    1    3    3    0  502 -0.73259466521E+03  0.20649797911E+02  0.23895549884E+03  0.77085737209E+03  0.50400001928E-02 0.  1.
</event>
<event>
 5   0  0.1087761E-03  0.1461026E+04  0.7818609E-02  0.8910792E-01
        1   -1    0    0  501    0  0.00000000000E+00  0.00000000000E+00  0.12669646230E+04  0.12669646230E+04  0.50400001928E-02 0. -1.
       -1   -1    0    0    0  501  0.00000000000E+00  0.00000000000E+00 -0.42120271110E+03  0.42120271113E+03  0.50400001928E-02 0.  1.
    10030    2    1    2    0    0  0.00000000000E+00  0.00000000000E+00  0.84576191193E+03  0.16881673342E+04  0.14610255769E+04 0.  0.
        3    1    3    3  502    0  0.12240654135E+03 -0.26929757420E+03 -0.34890236096E+03  0.45742476159E+03  0.10100000352E+00 0.  1.
       -3    1    3    3    0  502 -0.12240654135E+03  0.26929757420E+03  0.11946642729E+04  0.12307425726E+04  0.10100000352E+00 0. -1.
</event>
<event>
 5   0  0.2111533E-03  0.1415758E+04  0.7818609E-02  0.8942490E-01
        2   -1    0    0  501    0  0.00000000000E+00  0.00000000000E+00  0.10366649686E+04  0.10366649686E+04  0.25500000920E-02 0.  1.
       -2   -1    0    0    0  501  0.00000000000E+00  0.00000000000E+00 -0.48336994337E+03  0.48336994338E+03  0.25500000920E-02 0. -1.
    10030    2    1    2    0    0  0.00000000000E+00  0.00000000000E+00  0.55329502521E+03  0.15200349120E+04  0.14157580120E+04 0.  0.
        5    1    3    3  502    0 -0.31627474713E+03 -0.50936032973E+03  0.68065119944E+03  0.90707541389E+03  0.46999998093E+01 0.  1.
       -5    1    3    3    0  502  0.31627474713E+03  0.50936032973E+03 -0.12735617423E+03  0.61295949808E+03  0.46999998093E+01 0. -1.
</event>
<event>
 5   0  0.1993623E-03  0.1465436E+04  0.7818609E-02  0.8907769E-01
       -2   -1    0    0    0  501  0.00000000000E+00  0.00000000000E+00  0.74743988060E+03  0.74743988060E+03  0.25500000920E-02 0.  1.
        2   -1    0    0  501    0  0.00000000000E+00  0.00000000000E+00 -0.71828616364E+03  0.71828616364E+03  0.25500000920E-02 0. -1.
    10030    2    1    2    0    0  0.00000000000E+00  0.00000000000E+00  0.29153716957E+02  0.14657260442E+04  0.14654360776E+04 0.  0.
        4    1    3    3  502    0  0.34617858852E+03  0.11286816085E+03 -0.62139113340E+03  0.72021343395E+03  0.12699999809E+01 0. -1.
       -4    1    3    3    0  502 -0.34617858852E+03 -0.11286816085E+03  0.65054485036E+03  0.74551261029E+03  0.12699999809E+01 0.  1.
</event>
<event>
 5   0  0.1077140E-03  0.1531050E+04  0.7818609E-02  0.8864064E-01
        1   -1    0    0  501    0  0.00000000000E+00  0.00000000000E+00  0.14325044694E+04  0.14325044694E+04  0.50400001928E-02 0. -1.
       -1   -1    0    0    0  501  0.00000000000E+00  0.00000000000E+00 -0.40909351742E+03  0.40909351745E+03  0.50400001928E-02 0.  1.
    10030    2    1    2    0    0  0.00000000000E+00  0.00000000000E+00  0.10234109520E+04  0.18415979869E+04  0.15310496950E+04 0.  0.
        1    1    3    3  502    0  0.19404075224E+03  0.67685600117E+03  0.15036971918E+03  0.71999785578E+03  0.50400001928E-02 0.  1.
       -1    1    3    3    0  502 -0.19404075224E+03 -0.67685600117E+03  0.87304123281E+03  0.11216001311E+04  0.50400001928E-02 0. -1.
</event>
<event>
 5   0  0.1078787E-03  0.1472483E+04  0.7818609E-02  0.8902960E-01
        1   -1    0    0  501    0  0.00000000000E+00  0.00000000000E+00  0.65596724944E+03  0.65596724946E+03  0.50400001928E-02 0.  1.
       -1   -1    0    0    0  501  0.00000000000E+00  0.00000000000E+00 -0.82633980834E+03  0.82633980836E+03  0.50400001928E-02 0. -1.
    10030    2    1    2    0    0  0.00000000000E+00  0.00000000000E+00 -0.17037255891E+03  0.14823070578E+04  0.14724834141E+04 0.  0.
        5    1    3    3  502    0 -0.58683141391E+03  0.24008765665E+03  0.29149798812E+03  0.69785840849E+03  0.46999998093E+01 0.  1.
       -5    1    3    3    0  502  0.58683141391E+03 -0.24008765665E+03 -0.46187054702E+03  0.78444864933E+03  0.46999998093E+01 0. -1.
</event>
<event>
 5   0  0.2150197E-03  0.1531705E+04  0.7818609E-02  0.8863639E-01
        2   -1    0    0  501    0  0.00000000000E+00  0.00000000000E+00  0.90113410264E+03  0.90113410265E+03  0.25500000920E-02 0. -1.
       -2   -1    0    0    0  501  0.00000000000E+00  0.00000000000E+00 -0.65087979396E+03  0.65087979397E+03  0.25500000920E-02 0.  1.
    10030    2    1    2    0    0  0.00000000000E+00  0.00000000000E+00  0.25025430868E+03  0.15520138966E+04  0.15317049051E+04 0.  0.
        3    1    3    3  502    0  0.75504708307E+03 -0.14487169942E+02  0.25418944810E+03  0.79681758356E+03  0.10100000352E+00 0. -1.
       -3    1    3    3    0  502 -0.75504708307E+03  0.14487169942E+02 -0.39351394187E+01  0.75519631306E+03  0.10100000352E+00 0.  1.
</event>
<event>
 5   0  0.1078018E-03  0.1574583E+04  0.7818609E-02  0.8836317E-01
       -1   -1    0    0    0  501  0.00000000000E+00  0.00000000000E+00  0.96663590767E+03  0.96663590768E+03  0.50400001928E-02 0.  1.
        1   -1    0    0  501    0  0.00000000000E+00  0.00000000000E+00 -0.64122141997E+03  0.64122141999E+03  0.50400001928E-02 0. -1.
    10030    2    1    2    0    0  0.00000000000E+00  0.00000000000E+00  0.32541448770E+03  0.16078573277E+04  0.15745826740E+04 0.  0.
        4    1    3    3  502    0 -0.65202619598E+03 -0.70163027517E+02  0.60753320698E+03  0.89395705778E+03  0.12699999809E+01 0.  1.
       -4    1    3    3    0  502  0.65202619598E+03  0.70163027517E+02 -0.28211871928E+03  0.71390026988E+03  0.12699999809E+01 0. -1.
</event>
<event>
 5   0  0.2150197E-03  0.1502734E+04  0.7818609E-02  0.8882637E-01
        2   -1    0    0  501    0  0.00000000000E+00  0.00000000000E+00  0.64900303563E+03  0.64900303563E+03  0.25500000920E-02 0. -1.
       -2   -1    0    0    0  501  0.00000000000E+00  0.00000000000E+00 -0.86987616920E+03  0.86987616920E+03  0.25500000920E-02 0.  1.
    10030    2    1    2    0    0  0.00000000000E+00  0.00000000000E+00 -0.22087313357E+03  0.15188792048E+04  0.15027338746E+04 0.  0.
        3    1    3    3  502    0 -0.42710323022E+02  0.65962506263E+03  0.25064507797E+03  0.70693165175E+03  0.10100000352E+00 0. -1.
       -3    1    3    3    0  502  0.42710323022E+02 -0.65962506263E+03 -0.47151821154E+03  0.81194755308E+03  0.10100000352E+00 0.  1.
</event>
<event>
 5   0  0.7468375E-04  0.8825972E+03  0.7818609E-02  0.9447601E-01
       -3   -1    0    0    0  501  0.00000000000E+00  0.00000000000E+00  0.16293051986E+03  0.16293055116E+03  0.10100000352E+00 0. -1.
        3   -1    0    0  501    0  0.00000000000E+00  0.00000000000E+00 -0.11952606383E+04  0.11952606426E+04  0.10100000352E+00 0.  1.
    10030    2    1    2    0    0  0.00000000000E+00  0.00000000000E+00 -0.10323301185E+04  0.13581911938E+04  0.88259721579E+03 0.  0.
        4    1    3    3  502    0 -0.34284072814E+03  0.27769178569E+03 -0.50153735465E+03  0.66797741258E+03  0.12699999809E+01 0. -1.
       -4    1    3    3    0  502  0.34284072814E+03 -0.27769178569E+03 -0.53079276383E+03  0.69021378119E+03  0.12699999809E+01 0.  1.
</event>
<event>
 5   0  0.1069697E-03  0.1495280E+04  0.7818609E-02  0.8887598E-01
        1   -1    0    0  501    0  0.00000000000E+00  0.00000000000E+00  0.71245649745E+03  0.71245649746E+03  0.50400001928E-02 0.  1.
       -1   -1    0    0    0  501  0.00000000000E+00  0.00000000000E+00 -0.78456134102E+03  0.78456134104E+03  0.50400001928E-02 0. -1.
    10030    2    1    2    0    0  0.00000000000E+00  0.00000000000E+00 -0.72104843578E+02  0.14970178385E+04  0.14952803417E+04 0.  0.
        2    1    3    3  502    0  0.56988031179E+03  0.48112631762E+03 -0.88263972701E+02  0.75102372276E+03  0.25500000920E-02 0. -1.
       -2    1    3    3    0  502 -0.56988031179E+03 -0.48112631762E+03  0.16159129123E+02  0.74599411575E+03  0.25500000920E-02 0.  1.
</event>
<event>
 5   0  0.2111533E-03  0.9349136E+03  0.7818609E-02  0.9382960E-01
       -2   -1    0    0    0  501  0.00000000000E+00  0.00000000000E+00  0.39718571122E+03  0.39718571122E+03  0.25500000920E-02 0.  1.
        2   -1    0    0  501    0  0.00000000000E+00  0.00000000000E+00 -0.55016043401E+03  0.55016043402E+03  0.25500000920E-02 0. -1.
    10030    2    1    2    0    0  0.00000000000E+00  0.00000000000E+00 -0.15297472279E+03  0.94734614524E+03  0.93491360729E+03 0.  0.
        5    1    3    3  502    0 -0.17530109635E+03 -0.34745538467E+03 -0.33884753693E+03  0.51603823695E+03  0.46999998093E+01 0.  1.
       -5    1    3    3    0  502  0.17530109635E+03  0.34745538467E+03  0.18587281414E+03  0.43130790829E+03  0.46999998093E+01 0. -1.
</event>
<event>
 5   0  0.1077140E-03  0.1497886E+04  0.7818609E-02  0.8885860E-01
       -1   -1    0    0    0  501  0.00000000000E+00  0.00000000000E+00  0.57291399836E+03  0.57291399838E+03  0.50400001928E-02 0. -1.
        1   -1    0    0  501    0  0.00000000000E+00  0.00000000000E+00 -0.97905759951E+03  0.97905759952E+03  0.50400001928E-02 0.  1.
    10030    2    1    2    0    0  0.00000000000E+00  0.00000000000E+00 -0.40614360115E+03  0.15519715979E+04  0.14978862493E+04 0.  0.
        1    1    3    3  502    0 -0.42642562004E+03  0.60540617846E+03 -0.31919149074E+03  0.80637377074E+03  0.50400001928E-02 0.  1.
       -1    1    3    3    0  502  0.42642562004E+03 -0.60540617846E+03 -0.86952110410E+02  0.74559782717E+03  0.50400001928E-02 0. -1.
</event>
<event>
 5   0  0.1077140E-03  0.1483914E+04  0.7818609E-02  0.8895221E-01
        1   -1    0    0  501    0  0.00000000000E+00  0.00000000000E+00  0.89506242794E+03  0.89506242796E+03  0.50400001928E-02 0.  1.
       -1   -1    0    0    0  501  0.00000000000E+00  0.00000000000E+00 -0.61504106004E+03  0.61504106006E+03  0.50400001928E-02 0. -1.
    10030    2    1    2    0    0  0.00000000000E+00  0.00000000000E+00  0.28002136790E+03  0.15101034880E+04  0.14839139389E+04 0.  0.
        1    1    3    3  502    0 -0.45851028531E+03  0.68147122134E+02 -0.44954493203E+03  0.64572932250E+03  0.50400001928E-02 0. -1.
       -1    1    3    3    0  502  0.45851028531E+03 -0.68147122134E+02  0.72956629993E+03  0.86437416552E+03  0.50400001928E-02 0.  1.
</event>
<event>
 5   0  0.2111533E-03  0.1520111E+04  0.7818609E-02  0.8871188E-01
       -2   -1    0    0    0  501  0.00000000000E+00  0.00000000000E+00  0.73658335529E+03  0.73658335530E+03  0.25500000920E-02 0.  1.
        2   -1    0    0  501    0  0.00000000000E+00  0.00000000000E+00 -0.78427602829E+03  0.78427602829E+03  0.25500000920E-02 0. -1.
    10030    2    1    2    0    0  0.00000000000E+00  0.00000000000E+00 -0.47692672996E+02  0.15208593836E+04  0.15201114017E+04 0.  0.
        5    1    3    3  502    0 -0.67555088711E+03  0.16084497957E+03  0.28521093913E+03  0.75073795583E+03  0.46999998093E+01 0.  1.
       -5    1    3    3    0  502  0.67555088711E+03 -0.16084497957E+03 -0.33290361213E+03  0.77012142776E+03  0.46999998093E+01 0. -1.
</event>
<event>
 5   0  0.1078018E-03  0.1453844E+04  0.7818609E-02  0.8915740E-01
       -1   -1    0    0    0  501  0.00000000000E+00  0.00000000000E+00  0.87806677945E+03  0.87806677946E+03  0.50400001928E-02 0.  1.
        1   -1    0    0  501    0  0.00000000000E+00  0.00000000000E+00 -0.60179394586E+03  0.60179394588E+03  0.50400001928E-02 0. -1.
    10030    2    1    2    0    0  0.00000000000E+00  0.00000000000E+00  0.27627283359E+03  0.14798607253E+04  0.14538435569E+04 0.  0.
        4    1    3    3  502    0  0.61138101820E+03  0.28206620188E+01  0.53838935904E+03  0.81465294474E+03  0.12699999809E+01 0.  1.
       -4    1    3    3    0  502 -0.61138101820E+03 -0.28206620188E+01 -0.26211652545E+03  0.66520778060E+03  0.12699999809E+01 0. -1.
</event>
<event>
 5   0  0.1077140E-03  0.1398824E+04  0.7818609E-02  0.8954670E-01
       -1   -1    0    0    0  501  0.00000000000E+00  0.00000000000E+00  0.29784728780E+03  0.29784728784E+03  0.50400001928E-02 0. -1.
        1   -1    0    0  501    0  0.00000000000E+00  0.00000000000E+00 -0.16423752181E+04  0.16423752181E+04  0.50400001928E-02 0.  1.
    10030    2    1    2    0    0  0.00000000000E+00  0.00000000000E+00 -0.13445279303E+04  0.19402225059E+04  0.13988237978E+04 0.  0.
        1    1    3    3  502    0  0.42743459052E+03 -0.32776916254E+03 -0.12910822346E+04  0.13989375574E+04  0.50400001928E-02 0.  1.
       -1    1    3    3    0  502 -0.42743459052E+03  0.32776916254E+03 -0.53445695714E+02  0.54128494853E+03  0.50400001928E-02 0. -1.
</event>
<event>
 5   0  0.2111533E-03  0.1497392E+04  0.7818609E-02  0.8886189E-01
       -2   -1    0    0    0  501  0.00000000000E+00  0.00000000000E+00  0.74096010736E+03  0.74096010736E+03  0.25500000920E-02 0.  1.
        2   -1    0    0  501    0  0.00000000000E+00  0.00000000000E+00 -0.75651230638E+03  0.75651230638E+03  0.25500000920E-02 0. -1.
    10030    2    1    2    0    0  0.00000000000E+00  0.00000000000E+00 -0.15552199016E+02  0.14974724137E+04  0.14973916519E+04 0.  0.
        5    1    3    3  502    0  0.45709133331E+02  0.23088183254E+03 -0.71853772898E+03  0.75611791635E+03  0.46999998093E+01 0. -1.
       -5    1    3    3    0  502 -0.45709133331E+02 -0.23088183254E+03  0.70298552996E+03  0.74135449739E+03  0.46999998093E+01 0.  1.
</event>
<event>
 5   0  0.1078787E-03  0.1446243E+04  0.7818609E-02  0.8921009E-01
       -1   -1    0    0    0  501  0.00000000000E+00  0.00000000000E+00  0.51447616062E+03  0.51447616064E+03  0.50400001928E-02 0.  1.
        1   -1    0    0  501    0  0.00000000000E+00  0.00000000000E+00 -0.10163824618E+04  0.10163824618E+04  0.50400001928E-02 0. -1.
    10030    2    1    2    0    0  0.00000000000E+00  0.00000000000E+00 -0.50190630117E+03  0.15308586224E+04  0.14462427828E+04 0.  0.
        5    1    3    3  502    0  0.87370976715E+02  0.43020374826E+03  0.35727286105E+03  0.56601673105E+03  0.46999998093E+01 0.  1.
       -5    1    3    3    0  502 -0.87370976715E+02 -0.43020374826E+03 -0.85917916222E+03  0.96484189139E+03  0.46999998093E+01 0. -1.
</event>
<event>
 5   0  0.2150197E-03  0.1491208E+04  0.7818609E-02  0.8890321E-01
       -2   -1    0    0    0  501  0.00000000000E+00  0.00000000000E+00  0.51261407803E+03  0.51261407804E+03  0.25500000920E-02 0.  1.
        2   -1    0    0  501    0  0.00000000000E+00  0.00000000000E+00 -0.10844909011E+04  0.10844909011E+04  0.25500000920E-02 0. -1.
    10030    2    1    2    0    0  0.00000000000E+00  0.00000000000E+00 -0.57187682302E+03  0.15971049791E+04  0.14912079713E+04 0.  0.
        3    1    3    3  502    0 -0.34925348368E+03 -0.27864856277E+03  0.35336135415E+03  0.56963784478E+03  0.10100000352E+00 0.  1.
       -3    1    3    3    0  502  0.34925348368E+03  0.27864856277E+03 -0.92523817717E+03  0.10274671343E+04  0.10100000352E+00 0. -1.
</event>
<event>
 5   0  0.1069697E-03  0.1469109E+04  0.7818609E-02  0.8905259E-01
        1   -1    0    0  501    0  0.00000000000E+00  0.00000000000E+00  0.53916800794E+03  0.53916800797E+03  0.50400001928E-02 0. -1.
       -1   -1    0    0    0  501  0.00000000000E+00  0.00000000000E+00 -0.10007455459E+04  0.10007455459E+04  0.50400001928E-02 0.  1.
    10030    2    1    2    0    0  0.00000000000E+00  0.00000000000E+00 -0.46157753791E+03  0.15399135538E+04  0.14691085494E+04 0.  0.
        2    1    3    3  502    0 -0.71278712546E+03 -0.82203101120E+02 -0.39568283190E+03  0.81938253553E+03  0.25500000920E-02 0.  1.
       -2    1    3    3    0  502  0.71278712546E+03  0.82203101120E+02 -0.65894706010E+02  0.72053101831E+03  0.25500000920E-02 0. -1.
</event>
<event>
 5   0  0.1078018E-03  0.1591820E+04  0.7818609E-02  0.8825589E-01
       -1   -1    0    0    0  501  0.00000000000E+00  0.00000000000E+00  0.43620371089E+03  0.43620371092E+03  0.50400001928E-02 0.  1.
        1   -1    0    0  501    0  0.00000000000E+00  0.00000000000E+00 -0.14522414102E+04  0.14522414102E+04  0.50400001928E-02 0. -1.
    10030    2    1    2    0    0  0.00000000000E+00  0.00000000000E+00 -0.10160376993E+04  0.18884451211E+04  0.15918204576E+04 0.  0.
        4    1    3    3  502    0 -0.36329370201E+03  0.32833952651E+03 -0.12523792193E+04  0.13447098128E+04  0.12699999809E+01 0. -1.
       -4    1    3    3    0  502  0.36329370201E+03 -0.32833952651E+03  0.23634152002E+03  0.54373530838E+03  0.12699999809E+01 0.  1.
</event>
<event>
 5   0  0.1077140E-03  0.1452340E+04  0.7818609E-02  0.8916780E-01
        1   -1    0    0  501    0  0.00000000000E+00  0.00000000000E+00  0.92510182775E+03  0.92510182777E+03  0.50400001928E-02 0. -1.
       -1   -1    0    0    0  501  0.00000000000E+00  0.00000000000E+00 -0.57001601212E+03  0.57001601214E+03  0.50400001928E-02 0.  1.
    10030    2    1    2    0    0  0.00000000000E+00  0.00000000000E+00  0.35508581563E+03  0.14951178399E+04  0.14523399804E+04 0.  0.
        1    1    3    3  502    0  0.50255596115E+03 -0.45430126984E+03 -0.91636725502E+02  0.68362959807E+03  0.50400001928E-02 0.  1.
       -1    1    3    3    0  502 -0.50255596115E+03  0.45430126984E+03  0.44672254113E+03  0.81148824184E+03  0.50400001928E-02 0. -1.
</event>
<event>
 5   0  0.1078018E-03  0.1493472E+04  0.7818609E-02  0.8888805E-01
        1   -1    0    0  501    0  0.00000000000E+00  0.00000000000E+00  0.58058388454E+03  0.58058388456E+03  0.50400001928E-02 0.  1.
       -1   -1    0    0    0  501  0.00000000000E+00  0.00000000000E+00 -0.96043798846E+03  0.96043798848E+03  0.50400001928E-02 0. -1.
    10030    2    1    2    0    0  0.00000000000E+00  0.00000000000E+00 -0.37985410392E+03  0.15410218730E+04  0.14934722203E+04 0.  0.
        4    1    3    3  502    0 -0.21619831804E+03 -0.39759439650E+03 -0.80279922559E+03  0.92158083008E+03  0.12699999809E+01 0. -1.
       -4    1    3    3    0  502  0.21619831804E+03  0.39759439650E+03  0.42294512167E+03  0.61944104296E+03  0.12699999809E+01 0.  1.
</event>
<event>
 5   0  0.1961098E-03  0.1454320E+04  0.7818609E-02  0.8915411E-01
        2   -1    0    0  501    0  0.00000000000E+00  0.00000000000E+00  0.10849792383E+04  0.10849792383E+04  0.25500000920E-02 0.  1.
       -2   -1    0    0    0  501  0.00000000000E+00  0.00000000000E+00 -0.48734722286E+03  0.48734722286E+03  0.25500000920E-02 0. -1.
    10030    2    1    2    0    0  0.00000000000E+00  0.00000000000E+00  0.59763201540E+03  0.15723264611E+04  0.14543199354E+04 0.  0.
        2    1    3    3  502    0 -0.22307513706E+03 -0.69191594448E+03  0.28167291182E+03  0.77964724091E+03  0.25500000920E-02 0.  1.
       -2    1    3    3    0  502  0.22307513706E+03  0.69191594448E+03  0.31595910359E+03  0.79267922021E+03  0.25500000920E-02 0. -1.
</event>
<event>
 5   0  0.2094566E-03  0.1509758E+04  0.7818609E-02  0.8877990E-01
       -2   -1    0    0    0  501  0.00000000000E+00  0.00000000000E+00  0.11250895671E+04  0.11250895671E+04  0.25500000920E-02 0. -1.
        2   -1    0    0  501    0  0.00000000000E+00  0.00000000000E+00 -0.50648637001E+03  0.50648637002E+03  0.25500000920E-02 0.  1.
    10030    2    1    2    0    0  0.00000000000E+00  0.00000000000E+00  0.61860319704E+03  0.16315759371E+04  0.15097582995E+04 0.  0.
        1    1    3    3  502    0  0.28562735061E+03 -0.10958984806E+03 -0.43648947951E+03  0.53302531268E+03  0.50400001928E-02 0.  1.
       -1    1    3    3    0  502 -0.28562735061E+03  0.10958984806E+03  0.10550926766E+04  0.10985506244E+04  0.50400001928E-02 0. -1.
</event>
<event>
 5   0  0.2150197E-03  0.1511706E+04  0.7818609E-02  0.8876706E-01
        2   -1    0    0  501    0  0.00000000000E+00  0.00000000000E+00  0.11266260752E+04  0.11266260752E+04  0.25500000920E-02 0.  1.
       -2   -1    0    0    0  501  0.00000000000E+00  0.00000000000E+00 -0.50710158609E+03  0.50710158609E+03  0.25500000920E-02 0. -1.
    10030    2    1    2    0    0  0.00000000000E+00  0.00000000000E+00  0.61952448913E+03  0.16337276613E+04  0.15117061483E+04 0.  0.
        3    1    3    3  502    0 -0.64371260767E+03 -0.35666338130E+03  0.12339194240E+03  0.74619050549E+03  0.10100000352E+00 0. -1.
       -3    1    3    3    0  502  0.64371260767E+03  0.35666338130E+03  0.49613254673E+03  0.88753715582E+03  0.10100000352E+00 0.  1.
</event>
<event>
 5   0  0.2094566E-03  0.1510296E+04  0.7818609E-02  0.8877635E-01
       -2   -1    0    0    0  501  0.00000000000E+00  0.00000000000E+00  0.57360238353E+03  0.57360238354E+03  0.25500000920E-02 0.  1.
        2   -1    0    0  501    0  0.00000000000E+00  0.00000000000E+00 -0.99415304448E+03  0.99415304448E+03  0.25500000920E-02 0. -1.
    10030    2    1    2    0    0  0.00000000000E+00  0.00000000000E+00 -0.42055066094E+03  0.15677554280E+04  0.15102960715E+04 0.  0.
        1    1    3    3  502    0 -0.70663578534E+02 -0.74959982893E+03 -0.15014651999E+03  0.76774815034E+03  0.50400001928E-02 0. -1.
       -1    1    3    3    0  502  0.70663578534E+02  0.74959982893E+03 -0.27040414095E+03  0.80000727767E+03  0.50400001928E-02 0.  1.
</event>
<event>
 5   0  0.1993623E-03  0.1528876E+04  0.7818609E-02  0.8865475E-01
        2   -1    0    0  501    0  0.00000000000E+00  0.00000000000E+00  0.19231752541E+04  0.19231752541E+04  0.25500000920E-02 0. -1.
       -2   -1    0    0    0  501  0.00000000000E+00  0.00000000000E+00 -0.30385439134E+03  0.30385439135E+03  0.25500000920E-02 0.  1.
    10030    2    1    2    0    0  0.00000000000E+00  0.00000000000E+00  0.16193208628E+04  0.22270296455E+04  0.15288757259E+04 0.  0.
        4    1    3    3  502    0  0.44194364891E+03  0.93537755282E+02  0.17079514376E+04  0.17666814162E+04  0.12699999809E+01 0. -1.
       -4    1    3    3    0  502 -0.44194364891E+03 -0.93537755282E+02 -0.88630574781E+02  0.46034822924E+03  0.12699999809E+01 0.  1.
</event>
<event>
 5   0  0.1087761E-03  0.1393291E+04  0.7818609E-02  0.8958689E-01
        1   -1    0    0  501    0  0.00000000000E+00  0.00000000000E+00  0.44774832315E+03  0.44774832318E+03  0.50400001928E-02 0. -1.
       -1   -1    0    0    0  501  0.00000000000E+00  0.00000000000E+00 -0.10839009341E+04  0.10839009341E+04  0.50400001928E-02 0.  1.
    10030    2    1    2    0    0  0.00000000000E+00  0.00000000000E+00 -0.63615261090E+03  0.15316492572E+04  0.13932908178E+04 0.  0.
        3    1    3    3  502    0 -0.45461389992E+03 -0.52472828618E+03 -0.25491424206E+03  0.73959100408E+03  0.10100000352E+00 0.  1.
       -3    1    3    3    0  502  0.45461389992E+03  0.52472828618E+03 -0.38123836885E+03  0.79205825316E+03  0.10100000352E+00 0. -1.
</event>
<event>
 5   0  0.1077140E-03  0.1459907E+04  0.7818609E-02  0.8911561E-01
        1   -1    0    0  501    0  0.00000000000E+00  0.00000000000E+00  0.24444571541E+04  0.24444571541E+04  0.50400001928E-02 0. -1.
       -1   -1    0    0    0  501  0.00000000000E+00  0.00000000000E+00 -0.21797567823E+03  0.21797567829E+03  0.50400001928E-02 0.  1.
    10030    2    1    2    0    0  0.00000000000E+00  0.00000000000E+00  0.22264814759E+04  0.26624328324E+04  0.14599071288E+04 0.  0.
        1    1    3    3  502    0  0.37406843929E+03  0.50639106938E+02  0.22526384514E+04  0.22840471775E+04  0.50400001928E-02 0. -1.
       -1    1    3    3    0  502 -0.37406843929E+03 -0.50639106938E+02 -0.26156975524E+02  0.37838565488E+03  0.50400001928E-02 0.  1.
</event>
<event>
 5   0  0.7468375E-04  0.1523797E+04  0.7818609E-02  0.8868781E-01
       -3   -1    0    0    0  501  0.00000000000E+00  0.00000000000E+00  0.16778965400E+04  0.16778965430E+04  0.10100000352E+00 0. -1.
        3   -1    0    0  501    0  0.00000000000E+00  0.00000000000E+00 -0.34596240819E+03  0.34596242293E+03  0.10100000352E+00 0.  1.
    10030    2    1    2    0    0  0.00000000000E+00  0.00000000000E+00  0.13319341318E+04  0.20238589659E+04  0.15237967655E+04 0.  0.
        1    1    3    3  502    0  0.45328384224E+03  0.45889714738E+03  0.12738478432E+03  0.65747982236E+03  0.50400001928E-02 0.  1.
       -1    1    3    3    0  502 -0.45328384224E+03 -0.45889714738E+03  0.12045493474E+04  0.13663791436E+04  0.50400001928E-02 0. -1.
</event>
<event>
 5   0  0.1077140E-03  0.1491590E+04  0.7818609E-02  0.8890065E-01
        1   -1    0    0  501    0  0.00000000000E+00  0.00000000000E+00  0.13333798763E+04  0.13333798763E+04  0.50400001928E-02 0. -1.
       -1   -1    0    0    0  501  0.00000000000E+00  0.00000000000E+00 -0.41714300446E+03  0.41714300449E+03  0.50400001928E-02 0.  1.
    10030    2    1    2    0    0  0.00000000000E+00  0.00000000000E+00  0.91623687181E+03  0.17505228808E+04  0.14915898735E+04 0.  0.
        1    1    3    3  502    0 -0.24100562267E+03  0.23662440071E+02  0.12859536897E+04  0.13085566527E+04  0.50400001928E-02 0. -1.
       -1    1    3    3    0  502  0.24100562267E+03 -0.23662440071E+02 -0.36971681794E+03  0.44196622803E+03  0.50400001928E-02 0.  1.
</event>
<event>
 5   0  0.1078018E-03  0.1274806E+04  0.7818609E-02  0.9049786E-01
       -1   -1    0    0    0  501  0.00000000000E+00  0.00000000000E+00  0.39724717750E+03  0.39724717754E+03  0.50400001928E-02 0.  1.
        1   -1    0    0  501    0  0.00000000000E+00  0.00000000000E+00 -0.10227453290E+04  0.10227453290E+04  0.50400001928E-02 0. -1.
    10030    2    1    2    0    0  0.00000000000E+00  0.00000000000E+00 -0.62549815149E+03  0.14199925065E+04  0.12748061739E+04 0.  0.
        4    1    3    3  502    0  0.54322185778E+03 -0.33261446172E+03 -0.28641990138E+03  0.69839841045E+03  0.12699999809E+01 0.  1.
       -4    1    3    3    0  502 -0.54322185778E+03  0.33261446172E+03 -0.33907825011E+03  0.72159409609E+03  0.12699999809E+01 0. -1.
</event>
<event>
 5   0  0.1087761E-03  0.1436077E+04  0.7818609E-02  0.8928110E-01
        1   -1    0    0  501    0  0.00000000000E+00  0.00000000000E+00  0.12308689133E+04  0.12308689133E+04  0.50400001928E-02 0. -1.
       -1   -1    0    0    0  501  0.00000000000E+00  0.00000000000E+00 -0.41887430260E+03  0.41887430263E+03  0.50400001928E-02 0.  1.
    10030    2    1    2    0    0  0.00000000000E+00  0.00000000000E+00  0.81199461069E+03  0.16497432159E+04  0.14360770978E+04 0.  0.
        3    1    3    3  502    0 -0.45352432092E+03 -0.73480699938E+02  0.10399095244E+04  0.11368797439E+04  0.10100000352E+00 0. -1.
       -3    1    3    3    0  502  0.45352432092E+03  0.73480699938E+02 -0.22791491367E+03  0.51286347209E+03  0.10100000352E+00 0.  1.
</event>
<event>
 5   0  0.1993623E-03  0.1496315E+04  0.7818609E-02  0.8886907E-01
        2   -1    0    0  501    0  0.00000000000E+00  0.00000000000E+00  0.11077504131E+04  0.11077504131E+04  0.25500000920E-02 0.  1.
       -2   -1    0    0    0  501  0.00000000000E+00  0.00000000000E+00 -0.50529368291E+03  0.50529368292E+03  0.25500000920E-02 0. -1.
    10030    2    1    2    0    0  0.00000000000E+00  0.00000000000E+00  0.60245673017E+03  0.16130440960E+04  0.14963145204E+04 0.  0.
        4    1    3    3  502    0  0.52458572497E+03 -0.22020853899E+03  0.82498626411E+03  0.10021406749E+04  0.12699999809E+01 0.  1.
       -4    1    3    3    0  502 -0.52458572497E+03  0.22020853899E+03 -0.22252953395E+03  0.61090342106E+03  0.12699999809E+01 0. -1.
</event>
<event>
 5   0  0.1069697E-03  0.1566889E+04  0.7818609E-02  0.8841151E-01
        1   -1    0    0  501    0  0.00000000000E+00  0.00000000000E+00  0.78200883572E+03  0.78200883573E+03  0.50400001928E-02 0. -1.
       -1   -1    0    0    0  501  0.00000000000E+00  0.00000000000E+00 -0.78488298818E+03  0.78488298820E+03  0.50400001928E-02 0.  1.
    10030    2    1    2    0    0  0.00000000000E+00  0.00000000000E+00 -0.28741524668E+01  0.15668918239E+04  0.15668891879E+04 0.  0.
        2    1    3    3  502    0  0.91284297009E+02  0.77251220128E+03  0.91716222004E+02  0.78327504070E+03  0.25500000920E-02 0. -1.
       -2    1    3    3    0  502 -0.91284297009E+02 -0.77251220128E+03 -0.94590374471E+02  0.78361678323E+03  0.25500000920E-02 0.  1.
</event>
<event>
 5   0  0.1087761E-03  0.1480029E+04  0.7818609E-02  0.8897843E-01
        1   -1    0    0  501    0  0.00000000000E+00  0.00000000000E+00  0.10432253221E+04  0.10432253221E+04  0.50400001928E-02 0.  1.
       -1   -1    0    0    0  501  0.00000000000E+00  0.00000000000E+00 -0.52493106770E+03  0.52493106773E+03  0.50400001928E-02 0. -1.
    10030    2    1    2    0    0  0.00000000000E+00  0.00000000000E+00  0.51829425440E+03  0.15681563898E+04  0.14800288946E+04 0.  0.
        3    1    3    3  502    0 -0.28293328594E+03  0.77605180683E+02 -0.46067867389E+03  0.54616724466E+03  0.10100000352E+00 0. -1.
       -3    1    3    3    0  502  0.28293328594E+03 -0.77605180683E+02  0.97897292828E+03  0.10219891452E+04  0.10100000352E+00 0.  1.
</event>
<event>
 5   0  0.2111533E-03  0.1463510E+04  0.7818609E-02  0.8909088E-01
        2   -1    0    0  501    0  0.00000000000E+00  0.00000000000E+00  0.82782544970E+03  0.82782544970E+03  0.25500000920E-02 0. -1.
       -2   -1    0    0    0  501  0.00000000000E+00  0.00000000000E+00 -0.64683343586E+03  0.64683343587E+03  0.25500000920E-02 0.  1.
    10030    2    1    2    0    0  0.00000000000E+00  0.00000000000E+00  0.18099201383E+03  0.14746588856E+04  0.14635097266E+04 0.  0.
        5    1    3    3  502    0 -0.48561905513E+03  0.50137460757E+03 -0.13081493008E+03  0.71016688162E+03  0.46999998093E+01 0.  1.
       -5    1    3    3    0  502  0.48561905513E+03 -0.50137460757E+03  0.31180694392E+03  0.76449200395E+03  0.46999998093E+01 0. -1.
</event>
<event>
 5   0  0.1069697E-03  0.1513653E+04  0.7818609E-02  0.8875424E-01
       -1   -1    0    0    0  501  0.00000000000E+00  0.00000000000E+00  0.35805529476E+03  0.35805529479E+03  0.50400001928E-02 0. -1.
        1   -1    0    0  501    0  0.00000000000E+00  0.00000000000E+00 -0.15997144362E+04  0.15997144362E+04  0.50400001928E-02 0.  1.
    10030    2    1    2    0    0  0.00000000000E+00  0.00000000000E+00 -0.12416591414E+04  0.19577697310E+04  0.15136528321E+04 0.  0.
        2    1    3    3  502    0  0.57674668337E+03  0.18313976432E+03 -0.12087388022E+04  0.13517493858E+04  0.25500000920E-02 0.  1.
       -2    1    3    3    0  502 -0.57674668337E+03 -0.18313976432E+03 -0.32920339237E+02  0.60602034520E+03  0.25500000920E-02 0. -1.
</event>
<event>
 5   0  0.1078787E-03  0.1496177E+04  0.7818609E-02  0.8886999E-01
       -1   -1    0    0    0  501  0.00000000000E+00  0.00000000000E+00  0.48785143512E+03  0.48785143515E+03  0.50400001928E-02 0.  1.
        1   -1    0    0  501    0  0.00000000000E+00  0.00000000000E+00 -0.11471446606E+04  0.11471446606E+04  0.50400001928E-02 0. -1.
    10030    2    1    2    0    0  0.00000000000E+00  0.00000000000E+00 -0.65929322548E+03  0.16349960958E+04  0.14961766861E+04 0.  0.
        5    1    3    3  502    0 -0.36250023747E+03  0.54068989953E+03 -0.73244060225E+03  0.97992005563E+03  0.46999998093E+01 0. -1.
       -5    1    3    3    0  502  0.36250023747E+03 -0.54068989953E+03  0.73147376770E+02  0.65507604012E+03  0.46999998093E+01 0.  1.
</event>
<event>
 5   0  0.1078787E-03  0.1490188E+04  0.7818609E-02  0.8891004E-01
        1   -1    0    0  501    0  0.00000000000E+00  0.00000000000E+00  0.11206965406E+04  0.11206965406E+04  0.50400001928E-02 0. -1.
       -1   -1    0    0    0  501  0.00000000000E+00  0.00000000000E+00 -0.49537499588E+03  0.49537499591E+03  0.50400001928E-02 0.  1.
    10030    2    1    2    0    0  0.00000000000E+00  0.00000000000E+00  0.62532154474E+03  0.16160715365E+04  0.14901879670E+04 0.  0.
        5    1    3    3  502    0  0.63371566216E+03 -0.20018034489E+03  0.67797794709E+03  0.94939133011E+03  0.46999998093E+01 0.  1.
       -5    1    3    3    0  502 -0.63371566216E+03  0.20018034489E+03 -0.52656402350E+02  0.66668020644E+03  0.46999998093E+01 0. -1.
</event>
<event>
 5   0  0.1961098E-03  0.1490604E+04  0.7818609E-02  0.8890725E-01
        2   -1    0    0  501    0  0.00000000000E+00  0.00000000000E+00  0.25128175103E+04  0.25128175103E+04  0.25500000920E-02 0. -1.
       -2   -1    0    0    0  501  0.00000000000E+00  0.00000000000E+00 -0.22105668832E+03  0.22105668834E+03  0.25500000920E-02 0.  1.
    10030    2    1    2    0    0  0.00000000000E+00  0.00000000000E+00  0.22917608220E+04  0.27338741987E+04  0.14906040617E+04 0.  0.
        2    1    3    3  502    0 -0.50690874961E+02 -0.31715450505E+03  0.23793783727E+04  0.24009577225E+04  0.25500000920E-02 0. -1.
       -2    1    3    3    0  502  0.50690874961E+02  0.31715450505E+03 -0.87617550706E+02  0.33291647613E+03  0.25500000920E-02 0.  1.
</event>
<event>
 5   0  0.1961098E-03  0.1120339E+04  0.7818609E-02  0.9185592E-01
        2   -1    0    0  501    0  0.00000000000E+00  0.00000000000E+00  0.14887618806E+04  0.14887618806E+04  0.25500000920E-02 0. -1.
       -2   -1    0    0    0  501  0.00000000000E+00  0.00000000000E+00 -0.21077220290E+03  0.21077220292E+03  0.25500000920E-02 0.  1.
    10030    2    1    2    0    0  0.00000000000E+00  0.00000000000E+00  0.12779896777E+04  0.16995340835E+04  0.11203385581E+04 0.  0.
        2    1    3    3  502    0  0.12358658947E+03  0.24758102057E+03  0.13778441848E+04  0.14053556861E+04  0.25500000920E-02 0. -1.
       -2    1    3    3    0  502 -0.12358658947E+03 -0.24758102057E+03 -0.99854507198E+02  0.29417839734E+03  0.25500000920E-02 0.  1.
</event>
<event>
 5   0  0.2111533E-03  0.1484502E+04  0.7818609E-02  0.8894824E-01
       -2   -1    0    0    0  501  0.00000000000E+00  0.00000000000E+00  0.27411556500E+03  0.27411556502E+03  0.25500000920E-02 0. -1.
        2   -1    0    0  501    0  0.00000000000E+00  0.00000000000E+00 -0.20098708719E+04  0.20098708719E+04  0.25500000920E-02 0.  1.
    10030    2    1    2    0    0  0.00000000000E+00  0.00000000000E+00 -0.17357553069E+04  0.22839864369E+04  0.14845024616E+04 0.  0.
        5    1    3    3  502    0  0.73394713584E+03 -0.42890144511E+02 -0.10247560765E+04  0.12612157107E+04  0.46999998093E+01 0.  1.
       -5    1    3    3    0  502 -0.73394713584E+03  0.42890144511E+02 -0.71099923043E+03  0.10227707262E+04  0.46999998093E+01 0. -1.
</event>
<event>
 5   0  0.1993623E-03  0.1530763E+04  0.7818609E-02  0.8864250E-01
       -2   -1    0    0    0  501  0.00000000000E+00  0.00000000000E+00  0.27265813818E+03  0.27265813819E+03  0.25500000920E-02 0. -1.
        2   -1    0    0  501    0  0.00000000000E+00  0.00000000000E+00 -0.21485104016E+04  0.21485104016E+04  0.25500000920E-02 0.  1.
    10030    2    1    2    0    0  0.00000000000E+00  0.00000000000E+00 -0.18758522634E+04  0.24211685397E+04  0.15307630071E+04 0.  0.
        4    1    3    3  502    0  0.38539422382E+03  0.10947159487E+03 -0.19694088224E+04  0.20097476112E+04  0.12699999809E+01 0.  1.
       -4    1    3    3    0  502 -0.38539422382E+03 -0.10947159487E+03  0.93556559053E+02  0.41142092858E+03  0.12699999809E+01 0. -1.
</event>
<event>
 5   0  0.1077140E-03  0.1463074E+04  0.7818609E-02  0.8909386E-01
        1   -1    0    0  501    0  0.00000000000E+00  0.00000000000E+00  0.71752657714E+03  0.71752657715E+03  0.50400001928E-02 0.  1.
       -1   -1    0    0    0  501  0.00000000000E+00  0.00000000000E+00 -0.74582105413E+03  0.74582105415E+03  0.50400001928E-02 0. -1.
    10030    2    1    2    0    0  0.00000000000E+00  0.00000000000E+00 -0.28294476994E+02  0.14633476313E+04  0.14630740626E+04 0.  0.
        1    1    3    3  502    0 -0.24789577619E+03 -0.61664614450E+03 -0.31988665671E+03  0.73758542322E+03  0.50400001928E-02 0. -1.
       -1    1    3    3    0  502  0.24789577619E+03  0.61664614450E+03  0.29159217971E+03  0.72576220808E+03  0.50400001928E-02 0.  1.
</event>
<event>
 5   0  0.1993623E-03  0.1424004E+04  0.7818609E-02  0.8936624E-01
        2   -1    0    0  501    0  0.00000000000E+00  0.00000000000E+00  0.16024609863E+04  0.16024609863E+04  0.25500000920E-02 0.  1.
       -2   -1    0    0    0  501  0.00000000000E+00  0.00000000000E+00 -0.31635501742E+03  0.31635501743E+03  0.25500000920E-02 0. -1.
    10030    2    1    2    0    0  0.00000000000E+00  0.00000000000E+00  0.12861059688E+04  0.19188160037E+04  0.14240036141E+04 0.  0.
        4    1    3    3  502    0 -0.23072915687E+03  0.52393230573E+03  0.12134746813E+04  0.13417389537E+04  0.12699999809E+01 0.  1.
       -4    1    3    3    0  502  0.23072915687E+03 -0.52393230573E+03  0.72631287554E+02  0.57707705001E+03  0.12699999809E+01 0. -1.
</event>
<event>
 5   0  0.1078018E-03  0.1505949E+04  0.7818609E-02  0.8880507E-01
       -1   -1    0    0    0  501  0.00000000000E+00  0.00000000000E+00  0.84229180744E+03  0.84229180745E+03  0.50400001928E-02 0.  1.
        1   -1    0    0  501    0  0.00000000000E+00  0.00000000000E+00 -0.67312836030E+03  0.67312836032E+03  0.50400001928E-02 0. -1.
    10030    2    1    2    0    0  0.00000000000E+00  0.00000000000E+00  0.16916344714E+03  0.15154201678E+04  0.15059488746E+04 0.  0.
        4    1    3    3  502    0 -0.34061212742E+03 -0.26339530600E+03  0.70618442660E+03  0.82709840155E+03  0.12699999809E+01 0.  1.
       -4    1    3    3    0  502  0.34061212742E+03  0.26339530600E+03 -0.53702097946E+03  0.68832176622E+03  0.12699999809E+01 0. -1.
</event>
<event>
 5   0  0.2094566E-03  0.1510067E+04  0.7818609E-02  0.8877786E-01
        2   -1    0    0  501    0  0.00000000000E+00  0.00000000000E+00  0.90708828063E+03  0.90708828063E+03  0.25500000920E-02 0.  1.
       -2   -1    0    0    0  501  0.00000000000E+00  0.00000000000E+00 -0.62846775620E+03  0.62846775620E+03  0.25500000920E-02 0. -1.
    10030    2    1    2    0    0  0.00000000000E+00  0.00000000000E+00  0.27862052443E+03  0.15355560368E+04  0.15100671990E+04 0.  0.
        1    1    3    3  502    0 -0.13774662611E+02  0.65235423526E+03  0.52561726030E+03  0.83787188397E+03  0.50400001928E-02 0.  1.
       -1    1    3    3    0  502  0.13774662611E+02 -0.65235423526E+03 -0.24699673587E+03  0.69768415286E+03  0.50400001928E-02 0. -1.
</event>
<event>
 5   0  0.1087761E-03  0.1496472E+04  0.7818609E-02  0.8886802E-01
        1   -1    0    0  501    0  0.00000000000E+00  0.00000000000E+00  0.12442026077E+04  0.12442026077E+04  0.50400001928E-02 0.  1.
       -1   -1    0    0    0  501  0.00000000000E+00  0.00000000000E+00 -0.44997261934E+03  0.44997261937E+03  0.50400001928E-02 0. -1.
    10030    2    1    2    0    0  0.00000000000E+00  0.00000000000E+00  0.79422998834E+03  0.16941752271E+04  0.14964719929E+04 0.  0.
        3    1    3    3  502    0  0.14983505886E+03  0.70392570496E+03  0.16539066938E+03  0.73845516227E+03  0.10100000352E+00 0. -1.
       -3    1    3    3    0  502 -0.14983505886E+03 -0.70392570496E+03  0.62883931896E+03  0.95572006479E+03  0.10100000352E+00 0.  1.
</event>
<event>
 5   0  0.2150197E-03  0.1543768E+04  0.7818609E-02  0.8855858E-01
       -2   -1    0    0    0  501  0.00000000000E+00  0.00000000000E+00  0.11751077905E+04  0.11751077905E+04  0.25500000920E-02 0.  1.
        2   -1    0    0  501    0  0.00000000000E+00  0.00000000000E+00 -0.50702157297E+03  0.50702157298E+03  0.25500000920E-02 0. -1.
    10030    2    1    2    0    0  0.00000000000E+00  0.00000000000E+00  0.66808621751E+03  0.16821293635E+04  0.15437681178E+04 0.  0.
        3    1    3    3  502    0  0.38967615236E+03  0.62730306764E+03  0.89305451750E+02  0.74386296877E+03  0.10100000352E+00 0. -1.
       -3    1    3    3    0  502 -0.38967615236E+03 -0.62730306764E+03  0.57878076576E+03  0.93826639469E+03  0.10100000352E+00 0.  1.
</event>
<event>
 5   0  0.1078787E-03  0.1506594E+04  0.7818609E-02  0.8880080E-01
       -1   -1    0    0    0  501  0.00000000000E+00  0.00000000000E+00  0.44796549096E+03  0.44796549098E+03  0.50400001928E-02 0.  1.
        1   -1    0    0  501    0  0.00000000000E+00  0.00000000000E+00 -0.12667419309E+04  0.12667419309E+04  0.50400001928E-02 0. -1.
    10030    2    1    2    0    0  0.00000000000E+00  0.00000000000E+00 -0.81877643995E+03  0.17147074219E+04  0.15065943993E+04 0.  0.
        5    1    3    3  502    0  0.85631231326E+02  0.57444084903E+03  0.13658390412E+03  0.59665086079E+03  0.46999998093E+01 0.  1.
       -5    1    3    3    0  502 -0.85631231326E+02 -0.57444084903E+03 -0.95536034407E+03  0.11180565611E+04  0.46999998093E+01 0. -1.
</event>
<event>
 5   0  0.2094566E-03  0.1561791E+04  0.7818609E-02  0.8844371E-01
       -2   -1    0    0    0  501  0.00000000000E+00  0.00000000000E+00  0.36538572682E+03  0.36538572683E+03  0.25500000920E-02 0.  1.
        2   -1    0    0  501    0  0.00000000000E+00  0.00000000000E+00 -0.16689147236E+04  0.16689147236E+04  0.25500000920E-02 0. -1.
    10030    2    1    2    0    0  0.00000000000E+00  0.00000000000E+00 -0.13035289968E+04  0.20343004505E+04  0.15617907918E+04 0.  0.
        1    1    3    3  502    0 -0.42436376807E+03  0.44728835895E+03 -0.12759616868E+04  0.14171202172E+04  0.50400001928E-02 0. -1.
       -1    1    3    3    0  502  0.42436376807E+03 -0.44728835895E+03 -0.27567309961E+02  0.61718023324E+03  0.50400001928E-02 0.  1.
</event>
<event>
 5   0  0.2150197E-03  0.1480410E+04  0.7818609E-02  0.8897586E-01
        2   -1    0    0  501    0  0.00000000000E+00  0.00000000000E+00  0.22792932670E+04  0.22792932670E+04  0.25500000920E-02 0.  1.
       -2   -1    0    0    0  501  0.00000000000E+00  0.00000000000E+00 -0.24038296941E+03  0.24038296943E+03  0.25500000920E-02 0. -1.
    10030    2    1    2    0    0  0.00000000000E+00  0.00000000000E+00  0.20389102976E+04  0.25196762365E+04  0.14804097861E+04 0.  0.
        3    1    3    3  502    0 -0.60597688710E+03  0.27931962300E+03  0.15648322666E+04  0.17011547467E+04  0.10100000352E+00 0.  1.
       -3    1    3    3    0  502  0.60597688710E+03 -0.27931962300E+03  0.47407803105E+03  0.81852148977E+03  0.10100000352E+00 0. -1.
</event>
<event>
 5   0  0.7468375E-04  0.1490964E+04  0.7818609E-02  0.8890484E-01
        3   -1    0    0  501    0  0.00000000000E+00  0.00000000000E+00  0.12741827913E+04  0.12741827953E+04  0.10100000352E+00 0.  1.
       -3   -1    0    0    0  501  0.00000000000E+00  0.00000000000E+00 -0.43615664800E+03  0.43615665969E+03  0.10100000352E+00 0. -1.
    10030    2    1    2    0    0  0.00000000000E+00  0.00000000000E+00  0.83802614327E+03  0.17103394550E+04  0.14909638609E+04 0.  0.
        1    1    3    3  502    0 -0.20704714356E+01  0.27674088702E+03  0.12130716308E+04  0.12442397627E+04  0.50400001928E-02 0.  1.
       -1    1    3    3    0  502  0.20704714356E+01 -0.27674088702E+03 -0.37504548757E+03  0.46609969231E+03  0.50400001928E-02 0. -1.
</event>
<event>
 5   0  0.1078018E-03  0.1478697E+04  0.7818609E-02  0.8898744E-01
        1   -1    0    0  501    0  0.00000000000E+00  0.00000000000E+00  0.19131554272E+04  0.19131554272E+04  0.50400001928E-02 0. -1.
       -1   -1    0    0    0  501  0.00000000000E+00  0.00000000000E+00 -0.28572506223E+03  0.28572506227E+03  0.50400001928E-02 0.  1.
    10030    2    1    2    0    0  0.00000000000E+00  0.00000000000E+00  0.16274303649E+04  0.21988804894E+04  0.14786973369E+04 0.  0.
        4    1    3    3  502    0 -0.65031143550E+02  0.67667576793E+03  0.12460209419E+04  0.14193973880E+04  0.12699999809E+01 0. -1.
       -4    1    3    3    0  502  0.65031143550E+02 -0.67667576793E+03  0.38140942304E+03  0.77948310143E+03  0.12699999809E+01 0.  1.
</event>
<event>
 5   0  0.1069697E-03  0.1471564E+04  0.7818609E-02  0.8903586E-01
        1   -1    0    0  501    0  0.00000000000E+00  0.00000000000E+00  0.55350927475E+03  0.55350927477E+03  0.50400001928E-02 0. -1.
       -1   -1    0    0    0  501  0.00000000000E+00  0.00000000000E+00 -0.97807842149E+03  0.97807842150E+03  0.50400001928E-02 0.  1.
    10030    2    1    2    0    0  0.00000000000E+00  0.00000000000E+00 -0.42456914673E+03  0.15315876963E+04  0.14715644434E+04 0.  0.
        2    1    3    3  502    0 -0.51352986707E+03 -0.45323853631E+03  0.67448350000E+02  0.68824950061E+03  0.25500000920E-02 0.  1.
       -2    1    3    3    0  502  0.51352986707E+03  0.45323853631E+03 -0.49201749673E+03  0.84333819566E+03  0.25500000920E-02 0. -1.
</event>
<event>
 5   0  0.1993623E-03  0.1529235E+04  0.7818609E-02  0.8865241E-01
        2   -1    0    0  501    0  0.00000000000E+00  0.00000000000E+00  0.44092795797E+03  0.44092795798E+03  0.25500000920E-02 0.  1.
       -2   -1    0    0    0  501  0.00000000000E+00  0.00000000000E+00 -0.13259314547E+04  0.13259314547E+04  0.25500000920E-02 0. -1.
    10030    2    1    2    0    0  0.00000000000E+00  0.00000000000E+00 -0.88500349677E+03  0.17668594127E+04  0.15292354283E+04 0.  0.
        4    1    3    3  502    0  0.49446580828E+03 -0.43046006868E+03 -0.89715269674E+03  0.11111601507E+04  0.12699999809E+01 0. -1.
       -4    1    3    3    0  502 -0.49446580828E+03  0.43046006868E+03  0.12149199970E+02  0.65569926204E+03  0.12699999809E+01 0.  1.
</event>
<event>
 5   0  0.2094566E-03  0.1402789E+04  0.7818609E-02  0.8951802E-01
       -2   -1    0    0    0  501  0.00000000000E+00  0.00000000000E+00  0.64932243731E+03  0.64932243731E+03  0.25500000920E-02 0. -1.
        2   -1    0    0  501    0  0.00000000000E+00  0.00000000000E+00 -0.75764273583E+03  0.75764273583E+03  0.25500000920E-02 0.  1.
    10030    2    1    2    0    0  0.00000000000E+00  0.00000000000E+00 -0.10832029852E+03  0.14069651731E+04  0.14027892612E+04 0.  0.
        1    1    3    3  502    0 -0.67953638172E+03 -0.35821692362E+02  0.11635046063E+03  0.69035521106E+03  0.50400001928E-02 0. -1.
       -1    1    3    3    0  502  0.67953638172E+03  0.35821692362E+02 -0.22467075915E+03  0.71660996209E+03  0.50400001928E-02 0.  1.
</event>
<event>
 5   0  0.1077140E-03  0.1603167E+04  0.7818609E-02  0.8818605E-01
       -1   -1    0    0    0  501  0.00000000000E+00  0.00000000000E+00  0.51651344666E+03  0.51651344668E+03  0.50400001928E-02 0.  1.
        1   -1    0    0  501    0  0.00000000000E+00  0.00000000000E+00 -0.12439866149E+04  0.12439866149E+04  0.50400001928E-02 0. -1.
    10030    2    1    2    0    0  0.00000000000E+00  0.00000000000E+00 -0.72747316826E+03  0.17605000616E+04  0.16031666340E+04 0.  0.
        1    1    3    3  502    0  0.32133727615E+03 -0.44978841129E+03  0.27372213580E+03  0.61683958014E+03  0.50400001928E-02 0.  1.
       -1    1    3    3    0  502 -0.32133727615E+03  0.44978841129E+03 -0.10011953041E+04  0.11436604815E+04  0.50400001928E-02 0. -1.
</event>
<event>
 5   0  0.2111533E-03  0.1472607E+04  0.7818609E-02  0.8902876E-01
        2   -1    0    0  501    0  0.00000000000E+00  0.00000000000E+00  0.30453582658E+03  0.30453582659E+03  0.25500000920E-02 0. -1.
       -2   -1    0    0    0  501  0.00000000000E+00  0.00000000000E+00 -0.17802280086E+04  0.17802280086E+04  0.25500000920E-02 0.  1.
    10030    2    1    2    0    0  0.00000000000E+00  0.00000000000E+00 -0.14756921820E+04  0.20847638352E+04  0.14726074943E+04 0.  0.
        5    1    3    3  502    0  0.10366817807E+03  0.52654875779E+03 -0.24188891638E+02  0.53722237291E+03  0.46999998093E+01 0. -1.
       -5    1    3    3    0  502 -0.10366817807E+03 -0.52654875779E+03 -0.14515032904E+04  0.15475414622E+04  0.46999998093E+01 0.  1.
</event>
<event>
 5   0  0.1078018E-03  0.1471317E+04  0.7818609E-02  0.8903754E-01
        1   -1    0    0  501    0  0.00000000000E+00  0.00000000000E+00  0.15969285825E+04  0.15969285825E+04  0.50400001928E-02 0. -1.
       -1   -1    0    0    0  501  0.00000000000E+00  0.00000000000E+00 -0.33889648831E+03  0.33889648835E+03  0.50400001928E-02 0.  1.
    10030    2    1    2    0    0  0.00000000000E+00  0.00000000000E+00  0.12580320942E+04  0.19358250709E+04  0.14713170817E+04 0.  0.
        4    1    3    3  502    0  0.17546199457E+03 -0.62551894159E+03  0.17489434233E+03  0.67279306009E+03  0.12699999809E+01 0.  1.
       -4    1    3    3    0  502 -0.17546199457E+03  0.62551894159E+03  0.10831377519E+04  0.12630320108E+04  0.12699999809E+01 0. -1.
</event>
<event>
 5   0  0.1078787E-03  0.1474322E+04  0.7818609E-02  0.8901710E-01
       -1   -1    0    0    0  501  0.00000000000E+00  0.00000000000E+00  0.52252881815E+03  0.52252881818E+03  0.50400001928E-02 0. -1.
        1   -1    0    0  501    0  0.00000000000E+00  0.00000000000E+00 -0.10399548944E+04  0.10399548944E+04  0.50400001928E-02 0.  1.
    10030    2    1    2    0    0  0.00000000000E+00  0.00000000000E+00 -0.51742607624E+03  0.15624837126E+04  0.14743220841E+04 0.  0.
        5    1    3    3  502    0  0.41929208286E+03  0.56163133643E+03 -0.50072948698E+03  0.86138708949E+03  0.46999998093E+01 0. -1.
       -5    1    3    3    0  502 -0.41929208286E+03 -0.56163133643E+03 -0.16696589260E+02  0.70109662309E+03  0.46999998093E+01 0.  1.
</event>
<event>
 5   0  0.1069697E-03  0.1464333E+04  0.7818609E-02  0.8908524E-01
       -1   -1    0    0    0  501  0.00000000000E+00  0.00000000000E+00  0.60080339553E+03  0.60080339555E+03  0.50400001928E-02 0. -1.
        1   -1    0    0  501    0  0.00000000000E+00  0.00000000000E+00 -0.89225177742E+03  0.89225177743E+03  0.50400001928E-02 0.  1.
    10030    2    1    2    0    0  0.00000000000E+00  0.00000000000E+00 -0.29144838189E+03  0.14930551730E+04  0.14643331555E+04 0.  0.
        2    1    3    3  502    0  0.15497337074E+03  0.70011081113E+03 -0.29659957658E+03  0.77597886720E+03  0.25500000920E-02 0. -1.
       -2    1    3    3    0  502 -0.15497337074E+03 -0.70011081113E+03  0.51511946966E+01  0.71707630578E+03  0.25500000920E-02 0.  1.
</event>
<event>
 5   0  0.1993623E-03  0.1481041E+04  0.7818609E-02  0.8897159E-01
        2   -1    0    0  501    0  0.00000000000E+00  0.00000000000E+00  0.18474182882E+04  0.18474182882E+04  0.25500000920E-02 0.  1.
       -2   -1    0    0    0  501  0.00000000000E+00  0.00000000000E+00 -0.29683077629E+03  0.29683077630E+03  0.25500000920E-02 0. -1.
    10030    2    1    2    0    0  0.00000000000E+00  0.00000000000E+00  0.15505875120E+04  0.21442490645E+04  0.14810409915E+04 0.  0.
        4    1    3    3  502    0 -0.27899979454E+03 -0.57001069352E+03  0.22281882903E+03  0.67260903915E+03  0.12699999809E+01 0.  1.
       -4    1    3    3    0  502  0.27899979454E+03  0.57001069352E+03  0.13277686829E+04  0.14716400254E+04  0.12699999809E+01 0. -1.
</event>
<event>
 5   0  0.1077140E-03  0.1525889E+04  0.7818609E-02  0.8867417E-01
       -1   -1    0    0    0  501  0.00000000000E+00  0.00000000000E+00  0.38604720612E+03  0.38604720615E+03  0.50400001928E-02 0. -1.
        1   -1    0    0  501    0  0.00000000000E+00  0.00000000000E+00 -0.15078068394E+04  0.15078068395E+04  0.50400001928E-02 0.  1.
    10030    2    1    2    0    0  0.00000000000E+00  0.00000000000E+00 -0.11217596333E+04  0.18938540456E+04  0.15258894033E+04 0.  0.
        1    1    3    3  502    0  0.30973814864E+03  0.68115001603E+03 -0.37602983134E+03  0.83743745984E+03  0.50400001928E-02 0. -1.
       -1    1    3    3    0  502 -0.30973814864E+03 -0.68115001603E+03 -0.74572980199E+03  0.10564165858E+04  0.50400001928E-02 0.  1.
</event>
<event>
 5   0  0.1087761E-03  0.1426574E+04  0.7818609E-02  0.8934804E-01
        1   -1    0    0  501    0  0.00000000000E+00  0.00000000000E+00  0.38452256245E+03  0.38452256249E+03  0.50400001928E-02 0.  1.
       -1   -1    0    0    0  501  0.00000000000E+00  0.00000000000E+00 -0.13231428479E+04  0.13231428479E+04  0.50400001928E-02 0. -1.
    10030    2    1    2    0    0  0.00000000000E+00  0.00000000000E+00 -0.93862028544E+03  0.17076654104E+04  0.14265739075E+04 0.  0.
        3    1    3    3  502    0  0.43386044037E+03  0.41615263543E+03 -0.97960261976E+01  0.60126023486E+03  0.10100000352E+00 0.  1.
       -3    1    3    3    0  502 -0.43386044037E+03 -0.41615263543E+03 -0.92882425924E+03  0.11064051755E+04  0.10100000352E+00 0. -1.
</event>
<event>
 5   0  0.1961098E-03  0.1524442E+04  0.7818609E-02  0.8868360E-01
        2   -1    0    0  501    0  0.00000000000E+00  0.00000000000E+00  0.13185217017E+04  0.13185217017E+04  0.25500000920E-02 0.  1.
       -2   -1    0    0    0  501  0.00000000000E+00  0.00000000000E+00 -0.44063045495E+03  0.44063045496E+03  0.25500000920E-02 0. -1.
    10030    2    1    2    0    0  0.00000000000E+00  0.00000000000E+00  0.87789124676E+03  0.17591521567E+04  0.15244419534E+04 0.  0.
        2    1    3    3  502    0 -0.53886561121E+03 -0.12091865841E+03  0.10451707774E+04  0.11821080420E+04  0.25500000920E-02 0.  1.
       -2    1    3    3    0  502  0.53886561121E+03  0.12091865841E+03 -0.16727953068E+03  0.57704411469E+03  0.25500000920E-02 0. -1.
</event>
<event>
 5   0  0.1993623E-03  0.1470581E+04  0.7818609E-02  0.8904256E-01
       -2   -1    0    0    0  501  0.00000000000E+00  0.00000000000E+00  0.59640601003E+03  0.59640601003E+03  0.25500000920E-02 0.  1.
        2   -1    0    0  501    0  0.00000000000E+00  0.00000000000E+00 -0.90651653489E+03  0.90651653490E+03  0.25500000920E-02 0. -1.
    10030    2    1    2    0    0  0.00000000000E+00  0.00000000000E+00 -0.31011052487E+03  0.15029225449E+04  0.14705807147E+04 0.  0.
        4    1    3    3  502    0 -0.53400561098E+03  0.49279975235E+03 -0.40169896448E+02  0.72775601815E+03  0.12699999809E+01 0.  1.
       -4    1    3    3    0  502  0.53400561098E+03 -0.49279975235E+03 -0.26994062842E+03  0.77516652678E+03  0.12699999809E+01 0. -1.
</event>
<event>
 5   0  0.1078787E-03  0.1488695E+04  0.7818609E-02  0.8892005E-01
        1   -1    0    0  501    0  0.00000000000E+00  0.00000000000E+00  0.10937516916E+04  0.10937516916E+04  0.50400001928E-02 0.  1.
       -1   -1    0    0    0  501  0.00000000000E+00  0.00000000000E+00 -0.50656239630E+03  0.50656239632E+03  0.50400001928E-02 0. -1.
    10030    2    1    2    0    0  0.00000000000E+00  0.00000000000E+00  0.58718929531E+03  0.16003140879E+04  0.14886953723E+04 0.  0.
        5    1    3    3  502    0  0.42474195286E+03  0.10762614972E+03 -0.35321878676E+03  0.56282742998E+03  0.46999998093E+01 0. -1.
       -5    1    3    3    0  502 -0.42474195286E+03 -0.10762614972E+03  0.94040808207E+03  0.10374866580E+04  0.46999998093E+01 0.  1.
</event>
<event>
 5   0  0.1993623E-03  0.1498461E+04  0.7818609E-02  0.8885477E-01
        2   -1    0    0  501    0  0.00000000000E+00  0.00000000000E+00  0.17172873550E+04  0.17172873550E+04  0.25500000920E-02 0.  1.
       -2   -1    0    0    0  501  0.00000000000E+00  0.00000000000E+00 -0.32687958093E+03  0.32687958094E+03  0.25500000920E-02 0. -1.
    10030    2    1    2    0    0  0.00000000000E+00  0.00000000000E+00  0.13904077741E+04  0.20441669360E+04  0.14984607716E+04 0.  0.
        4    1    3    3  502    0 -0.63982308729E+03 -0.36875114304E+03  0.52268220535E+03  0.90473713819E+03  0.12699999809E+01 0. -1.
       -4    1    3    3    0  502  0.63982308729E+03  0.36875114304E+03  0.86772556876E+03  0.11394297978E+04  0.12699999809E+01 0.  1.
</event>
<event>
 5   0  0.1069697E-03  0.1402911E+04  0.7818609E-02  0.8951714E-01
        1   -1    0    0  501    0  0.00000000000E+00  0.00000000000E+00  0.13265601404E+04  0.13265601405E+04  0.50400001928E-02 0. -1.
       -1   -1    0    0    0  501  0.00000000000E+00  0.00000000000E+00 -0.37091407122E+03  0.37091407126E+03  0.50400001928E-02 0.  1.
    10030    2    1    2    0    0  0.00000000000E+00  0.00000000000E+00  0.95564606922E+03  0.16974742117E+04  0.14029110057E+04 0.  0.
        2    1    3    3  502    0  0.41815181297E+03 -0.43522625556E+03  0.45326735946E+02  0.60524982050E+03  0.25500000920E-02 0.  1.
       -2    1    3    3    0  502 -0.41815181297E+03  0.43522625556E+03  0.91031933327E+03  0.10922243912E+04  0.25500000920E-02 0. -1.
</event>
<event>
 5   0  0.2111533E-03  0.1356005E+04  0.7818609E-02  0.8986295E-01
        2   -1    0    0  501    0  0.00000000000E+00  0.00000000000E+00  0.90058650853E+03  0.90058650853E+03  0.25500000920E-02 0. -1.
       -2   -1    0    0    0  501  0.00000000000E+00  0.00000000000E+00 -0.51043113855E+03  0.51043113856E+03  0.25500000920E-02 0.  1.
    10030    2    1    2    0    0  0.00000000000E+00  0.00000000000E+00  0.39015536998E+03  0.14110176471E+04  0.13560050102E+04 0.  0.
        5    1    3    3  502    0  0.64534171490E+01 -0.59965796150E+03  0.52419061578E+03  0.79651064591E+03  0.46999998093E+01 0. -1.
       -5    1    3    3    0  502 -0.64534171490E+01  0.59965796150E+03 -0.13403524580E+03  0.61450700118E+03  0.46999998093E+01 0.  1.
</event>
<event>
 5   0  0.1078018E-03  0.1527687E+04  0.7818609E-02  0.8866247E-01
        1   -1    0    0  501    0  0.00000000000E+00  0.00000000000E+00  0.18038391377E+04  0.18038391377E+04  0.50400001928E-02 0.  1.
       -1   -1    0    0    0  501  0.00000000000E+00  0.00000000000E+00 -0.32345275443E+03  0.32345275447E+03  0.50400001928E-02 0. -1.
    10030    2    1    2    0    0  0.00000000000E+00  0.00000000000E+00  0.14803863833E+04  0.21272918922E+04  0.15276867973E+04 0.  0.
        4    1    3    3  502    0  0.61631504766E+03 -0.40419283571E+03  0.46086385102E+03  0.86926013856E+03  0.12699999809E+01 0.  1.
       -4    1    3    3    0  502 -0.61631504766E+03  0.40419283571E+03  0.10195225322E+04  0.12580317536E+04  0.12699999809E+01 0. -1.
</event>
<event>
 5   0  0.2150197E-03  0.1425518E+04  0.7818609E-02  0.8935552E-01
        2   -1    0    0  501    0  0.00000000000E+00  0.00000000000E+00  0.14987462815E+04  0.14987462815E+04  0.25500000920E-02 0.  1.
       -2   -1    0    0    0  501  0.00000000000E+00  0.00000000000E+00 -0.33896687940E+03  0.33896687941E+03  0.25500000920E-02 0. -1.
    10030    2    1    2    0    0  0.00000000000E+00  0.00000000000E+00  0.11597794021E+04  0.18377131609E+04  0.14255179410E+04 0.  0.
        3    1    3    3  502    0 -0.19402861271E+03 -0.23971801249E+03  0.14082792007E+04  0.14416525744E+04  0.10100000352E+00 0.  1.
       -3    1    3    3    0  502  0.19402861271E+03  0.23971801249E+03 -0.24849979859E+03  0.39606058648E+03  0.10100000352E+00 0. -1.
</event>
<event>
 5   0  0.1069697E-03  0.1590533E+04  0.7818609E-02  0.8826385E-01
       -1   -1    0    0    0  501  0.00000000000E+00  0.00000000000E+00  0.58827226968E+03  0.58827226970E+03  0.50400001928E-02 0.  1.
        1   -1    0    0  501    0  0.00000000000E+00  0.00000000000E+00 -0.10750960399E+04  0.10750960399E+04  0.50400001928E-02 0. -1.
    10030    2    1    2    0    0  0.00000000000E+00  0.00000000000E+00 -0.48682377022E+03  0.16633683096E+04  0.15905334797E+04 0.  0.
        2    1    3    3  502    0 -0.17977084320E+03  0.68154496271E+03  0.14172972286E+03  0.71896342509E+03  0.25500000920E-02 0.  1.
       -2    1    3    3    0  502  0.17977084320E+03 -0.68154496271E+03 -0.62855349308E+03  0.94440488453E+03  0.25500000920E-02 0. -1.
</event>
<event>
 5   0  0.1961098E-03  0.1332731E+04  0.7818609E-02  0.9004005E-01
       -2   -1    0    0    0  501  0.00000000000E+00  0.00000000000E+00  0.45784115113E+03  0.45784115114E+03  0.25500000920E-02 0.  1.
        2   -1    0    0  501    0  0.00000000000E+00  0.00000000000E+00 -0.96986193454E+03  0.96986193455E+03  0.25500000920E-02 0. -1.
    10030    2    1    2    0    0  0.00000000000E+00  0.00000000000E+00 -0.51202078341E+03  0.14277030857E+04  0.13327305873E+04 0.  0.
        2    1    3    3  502    0  0.34286970985E+03 -0.31822992857E+03 -0.76439459540E+03  0.89617466091E+03  0.25500000920E-02 0. -1.
       -2    1    3    3    0  502 -0.34286970985E+03  0.31822992857E+03  0.25237381199E+03  0.53152842478E+03  0.25500000920E-02 0.  1.
</event>
<event>
 5   0  0.7468375E-04  0.1418480E+04  0.7818609E-02  0.8940549E-01
       -3   -1    0    0    0  501  0.00000000000E+00  0.00000000000E+00  0.53612816721E+03  0.53612817673E+03  0.10100000352E+00 0. -1.
        3   -1    0    0  501    0  0.00000000000E+00  0.00000000000E+00 -0.93824884033E+03  0.93824884577E+03  0.10100000352E+00 0.  1.
    10030    2    1    2    0    0  0.00000000000E+00  0.00000000000E+00 -0.40212067312E+03  0.14743770225E+04  0.14184803730E+04 0.  0.
        3    1    3    3  502    0  0.25487053680E+03  0.10987702351E+03  0.47733798160E+03  0.55216257543E+03  0.10100000352E+00 0. -1.
       -3    1    3    3    0  502 -0.25487053680E+03 -0.10987702351E+03 -0.87945865472E+03  0.92221444707E+03  0.10100000352E+00 0.  1.
</event>
<event>
 5   0  0.1993623E-03  0.1449417E+04  0.7818609E-02  0.8918805E-01
       -2   -1    0    0    0  501  0.00000000000E+00  0.00000000000E+00  0.35173089679E+03  0.35173089680E+03  0.25500000920E-02 0. -1.
        2   -1    0    0  501    0  0.00000000000E+00  0.00000000000E+00 -0.14931938183E+04  0.14931938183E+04  0.25500000920E-02 0.  1.
    10030    2    1    2    0    0  0.00000000000E+00  0.00000000000E+00 -0.11414629215E+04  0.18449247151E+04  0.14494169873E+04 0.  0.
        4    1    3    3  502    0  0.79089258272E+02 -0.59934046125E+03 -0.62001119258E+02  0.60770868922E+03  0.12699999809E+01 0. -1.
       -4    1    3    3    0  502 -0.79089258272E+02  0.59934046125E+03 -0.10794618023E+04  0.12372160259E+04  0.12699999809E+01 0.  1.
</event>
<event>
 5   0  0.2111533E-03  0.1487577E+04  0.7818609E-02  0.8892756E-01
       -2   -1    0    0    0  501  0.00000000000E+00  0.00000000000E+00  0.65016374246E+03  0.65016374246E+03  0.25500000920E-02 0.  1.
        2   -1    0    0  501    0  0.00000000000E+00  0.00000000000E+00 -0.85089576076E+03  0.85089576076E+03  0.25500000920E-02 0. -1.
    10030    2    1    2    0    0  0.00000000000E+00  0.00000000000E+00 -0.20073201830E+03  0.15010595032E+04  0.14875773220E+04 0.  0.
        5    1    3    3  502    0  0.23555175139E+03  0.19308537185E+03  0.58433588720E+03  0.65896669679E+03  0.46999998093E+01 0.  1.
       -5    1    3    3    0  502 -0.23555175139E+03 -0.19308537185E+03 -0.78506790550E+03  0.84209280644E+03  0.46999998093E+01 0. -1.
</event>
<event>
 5   0  0.1077140E-03  0.1499898E+04  0.7818609E-02  0.8884520E-01
        1   -1    0    0  501    0  0.00000000000E+00  0.00000000000E+00  0.85780601605E+03  0.85780601606E+03  0.50400001928E-02 0. -1.
       -1   -1    0    0    0  501  0.00000000000E+00  0.00000000000E+00 -0.65565386020E+03  0.65565386022E+03  0.50400001928E-02 0.  1.
    10030    2    1    2    0    0  0.00000000000E+00  0.00000000000E+00  0.20215215585E+03  0.15134598763E+04  0.14998984309E+04 0.  0.
        1    1    3    3  502    0  0.32904384744E+03 -0.65854068766E+03 -0.43319622087E+02  0.73744306935E+03  0.50400001928E-02 0.  1.
       -1    1    3    3    0  502 -0.32904384744E+03  0.65854068766E+03  0.24547177794E+03  0.77601680693E+03  0.50400001928E-02 0. -1.
</event>
<event>
 5   0  0.1069697E-03  0.1310385E+04  0.7818609E-02  0.9021370E-01
       -1   -1    0    0    0  501  0.00000000000E+00  0.00000000000E+00  0.22922083191E+03  0.22922083197E+03  0.50400001928E-02 0. -1.
        1   -1    0    0  501    0  0.00000000000E+00  0.00000000000E+00 -0.18727662671E+04  0.18727662671E+04  0.50400001928E-02 0.  1.
    10030    2    1    2    0    0  0.00000000000E+00  0.00000000000E+00 -0.16435454352E+04  0.21019870991E+04  0.13103847401E+04 0.  0.
        2    1    3    3  502    0  0.22581874883E+03 -0.29756665506E+02 -0.18072139152E+04  0.18215108294E+04  0.25500000920E-02 0.  1.
       -2    1    3    3    0  502 -0.22581874883E+03  0.29756665506E+02  0.16366848002E+03  0.28047626963E+03  0.25500000920E-02 0. -1.
</event>
<event>
 5   0  0.2111533E-03  0.1258463E+04  0.7818609E-02  0.9063169E-01
        2   -1    0    0  501    0  0.00000000000E+00  0.00000000000E+00  0.92833052880E+03  0.92833052880E+03  0.25500000920E-02 0.  1.
       -2   -1    0    0    0  501  0.00000000000E+00  0.00000000000E+00 -0.42649925892E+03  0.42649925892E+03  0.25500000920E-02 0. -1.
    10030    2    1    2    0    0  0.00000000000E+00  0.00000000000E+00  0.50183126988E+03  0.13548297877E+04  0.12584630031E+04 0.  0.
        5    1    3    3  502    0  0.36608170989E+03 -0.39291459649E+03  0.60391486049E+03  0.80816641057E+03  0.46999998093E+01 0.  1.
       -5    1    3    3    0  502 -0.36608170989E+03  0.39291459649E+03 -0.10208359061E+03  0.54666337716E+03  0.46999998093E+01 0. -1.
</event>
<event>
 5   0  0.1087761E-03  0.1653493E+04  0.7818609E-02  0.8788343E-01
       -1   -1    0    0    0  501  0.00000000000E+00  0.00000000000E+00  0.82852850699E+03  0.82852850700E+03  0.50400001928E-02 0. -1.
        1   -1    0    0  501    0  0.00000000000E+00  0.00000000000E+00 -0.82496870522E+03  0.82496870523E+03  0.50400001928E-02 0.  1.
    10030    2    1    2    0    0  0.00000000000E+00  0.00000000000E+00  0.35598017683E+01  0.16534972122E+04  0.16534933803E+04 0.  0.
        3    1    3    3  502    0 -0.56808397188E+03  0.55867796591E+03 -0.21883251115E+03  0.82627365131E+03  0.10100000352E+00 0.  1.
       -3    1    3    3    0  502  0.56808397188E+03 -0.55867796591E+03  0.22239231292E+03  0.82722356093E+03  0.10100000352E+00 0. -1.
</event>
<event>
 5   0  0.2094566E-03  0.1464968E+04  0.7818609E-02  0.8908089E-01
        2   -1    0    0  501    0  0.00000000000E+00  0.00000000000E+00  0.11562604008E+04  0.11562604008E+04  0.25500000920E-02 0. -1.
       -2   -1    0    0    0  501  0.00000000000E+00  0.00000000000E+00 -0.46402446347E+03  0.46402446348E+03  0.25500000920E-02 0.  1.
    10030    2    1    2    0    0  0.00000000000E+00  0.00000000000E+00  0.69223593733E+03  0.16202848643E+04  0.14649684121E+04 0.  0.
        1    1    3    3  502    0 -0.11230011186E+03  0.18323826548E+03 -0.42836920037E+03  0.47925749751E+03  0.50400001928E-02 0.  1.
       -1    1    3    3    0  502  0.11230011186E+03 -0.18323826548E+03  0.11206051377E+04  0.11410273668E+04  0.50400001928E-02 0. -1.
</event>
<event>
 5   0  0.1077140E-03  0.1504872E+04  0.7818609E-02  0.8881220E-01
        1   -1    0    0  501    0  0.00000000000E+00  0.00000000000E+00  0.13024077513E+04  0.13024077513E+04  0.50400001928E-02 0. -1.
       -1   -1    0    0    0  501  0.00000000000E+00  0.00000000000E+00 -0.43470256340E+03  0.43470256343E+03  0.50400001928E-02 0.  1.
    10030    2    1    2    0    0  0.00000000000E+00  0.00000000000E+00  0.86770518793E+03  0.17371103148E+04  0.15048720718E+04 0.  0.
        1    1    3    3  502    0  0.64449010327E+03 -0.23246364686E+03  0.74798098728E+02  0.68920359541E+03  0.50400001928E-02 0.  1.
       -1    1    3    3    0  502 -0.64449010327E+03  0.23246364686E+03  0.79290708920E+03  0.10479067194E+04  0.50400001928E-02 0. -1.
</event>
<event>
 5   0  0.2094566E-03  0.1514408E+04  0.7818609E-02  0.8874928E-01
       -2   -1    0    0    0  501  0.00000000000E+00  0.00000000000E+00  0.11891138949E+04  0.11891138949E+04  0.25500000920E-02 0. -1.
        2   -1    0    0  501    0  0.00000000000E+00  0.00000000000E+00 -0.48217208124E+03  0.48217208125E+03  0.25500000920E-02 0.  1.
    10030    2    1    2    0    0  0.00000000000E+00  0.00000000000E+00  0.70694181367E+03  0.16712859762E+04  0.15144075033E+04 0.  0.
        1    1    3    3  502    0 -0.14017397674E+03  0.42119436015E+03  0.10304534732E+04  0.11220016904E+04  0.50400001928E-02 0. -1.
       -1    1    3    3    0  502  0.14017397674E+03 -0.42119436015E+03 -0.32351165950E+03  0.54928428580E+03  0.50400001928E-02 0.  1.
</event>
<event>
 5   0  0.2094566E-03  0.1575050E+04  0.7818609E-02  0.8836024E-01
       -2   -1    0    0    0  501  0.00000000000E+00  0.00000000000E+00  0.12022704516E+04  0.12022704516E+04  0.25500000920E-02 0.  1.
        2   -1    0    0  501    0  0.00000000000E+00  0.00000000000E+00 -0.51585393668E+03  0.51585393668E+03  0.25500000920E-02 0. -1.
    10030    2    1    2    0    0  0.00000000000E+00  0.00000000000E+00  0.68641651497E+03  0.17181243883E+04  0.15750504061E+04 0.  0.
        1    1    3    3  502    0 -0.60534694998E+03 -0.41613837009E+03  0.65285993244E+03  0.98277269209E+03  0.50400001928E-02 0.  1.
       -1    1    3    3    0  502  0.60534694998E+03  0.41613837009E+03  0.33556582523E+02  0.73535169624E+03  0.50400001928E-02 0. -1.
</event>
<event>
 5   0  0.2111533E-03  0.1478556E+04  0.7818609E-02  0.8898840E-01
        2   -1    0    0  501    0  0.00000000000E+00  0.00000000000E+00  0.83254109133E+03  0.83254109134E+03  0.25500000920E-02 0.  1.
       -2   -1    0    0    0  501  0.00000000000E+00  0.00000000000E+00 -0.65646204297E+03  0.65646204297E+03  0.25500000920E-02 0. -1.
    10030    2    1    2    0    0  0.00000000000E+00  0.00000000000E+00  0.17607904837E+03  0.14890031343E+04  0.14785555460E+04 0.  0.
        5    1    3    3  502    0 -0.26691245412E+03 -0.68529385798E+03  0.12411572358E+02  0.73555833696E+03  0.46999998093E+01 0.  1.
       -5    1    3    3    0  502  0.26691245412E+03  0.68529385798E+03  0.16366747601E+03  0.75344479735E+03  0.46999998093E+01 0. -1.
</event>
<event>
 5   0  0.2150197E-03  0.1493481E+04  0.7818609E-02  0.8888799E-01
        2   -1    0    0  501    0  0.00000000000E+00  0.00000000000E+00  0.16697337819E+04  0.16697337819E+04  0.25500000920E-02 0. -1.
       -2   -1    0    0    0  501  0.00000000000E+00  0.00000000000E+00 -0.33395831890E+03  0.33395831891E+03  0.25500000920E-02 0.  1.
    10030    2    1    2    0    0  0.00000000000E+00  0.00000000000E+00  0.13357754630E+04  0.20036921008E+04  0.14934811506E+04 0.  0.
        3    1    3    3  502    0  0.67356396001E+03  0.30092669811E+03  0.51272140910E+03  0.89840332781E+03  0.10100000352E+00 0.  1.
       -3    1    3    3    0  502 -0.67356396001E+03 -0.30092669811E+03  0.82305405385E+03  0.11052887730E+04  0.10100000352E+00 0. -1.
</event>
<event>
 5   0  0.1078018E-03  0.1547052E+04  0.7818609E-02  0.8853753E-01
        1   -1    0    0  501    0  0.00000000000E+00  0.00000000000E+00  0.10208818606E+04  0.10208818606E+04  0.50400001928E-02 0. -1.
       -1   -1    0    0    0  501  0.00000000000E+00  0.00000000000E+00 -0.58610385487E+03  0.58610385489E+03  0.50400001928E-02 0.  1.
    10030    2    1    2    0    0  0.00000000000E+00  0.00000000000E+00  0.43477800577E+03  0.16069857155E+04  0.15470524153E+04 0.  0.
        4    1    3    3  502    0  0.62720427864E+03  0.27204460004E+03 -0.15849681594E+03  0.70179507345E+03  0.12699999809E+01 0.  1.
       -4    1    3    3    0  502 -0.62720427864E+03 -0.27204460004E+03  0.59327482171E+03  0.90519064209E+03  0.12699999809E+01 0. -1.
</event>
<event>
 5   0  0.1087761E-03  0.1411451E+04  0.7818609E-02  0.8945571E-01
       -1   -1    0    0    0  501  0.00000000000E+00  0.00000000000E+00  0.82679273545E+03  0.82679273547E+03  0.50400001928E-02 0.  1.
        1   -1    0    0  501    0  0.00000000000E+00  0.00000000000E+00 -0.60238655178E+03  0.60238655180E+03  0.50400001928E-02 0. -1.
    10030    2    1    2    0    0  0.00000000000E+00  0.00000000000E+00  0.22440618367E+03  0.14291792873E+04  0.14114514869E+04 0.  0.
        3    1    3    3  502    0  0.33064172846E+03 -0.22084802514E+03 -0.47817322468E+03  0.62189022006E+03  0.10100000352E+00 0. -1.
       -3    1    3    3    0  502 -0.33064172846E+03  0.22084802514E+03  0.70257940835E+03  0.80728906721E+03  0.10100000352E+00 0.  1.
</event>
<event>
 5   0  0.7468375E-04  0.1118673E+04  0.7818609E-02  0.9187180E-01
       -3   -1    0    0    0  501  0.00000000000E+00  0.00000000000E+00  0.62150773251E+03  0.62150774072E+03  0.10100000352E+00 0.  1.
        3   -1    0    0  501    0  0.00000000000E+00  0.00000000000E+00 -0.50338477941E+03  0.50338478954E+03  0.10100000352E+00 0. -1.
    10030    2    1    2    0    0  0.00000000000E+00  0.00000000000E+00  0.11812295310E+03  0.11248925303E+04  0.11186733985E+04 0.  0.
        5    1    3    3  502    0 -0.40498390390E+02 -0.18457013976E+03 -0.47029577126E+03  0.50685940712E+03  0.46999998093E+01 0. -1.
       -5    1    3    3    0  502  0.40498390390E+02  0.18457013976E+03  0.58841872437E+03  0.61803312314E+03  0.46999998093E+01 0.  1.
</event>
<event>
 5   0  0.1069697E-03  0.1088140E+04  0.7818609E-02  0.9216829E-01
        1   -1    0    0  501    0  0.00000000000E+00  0.00000000000E+00  0.10066098770E+04  0.10066098770E+04  0.50400001928E-02 0.  1.
       -1   -1    0    0    0  501  0.00000000000E+00  0.00000000000E+00 -0.29406837626E+03  0.29406837631E+03  0.50400001928E-02 0. -1.
    10030    2    1    2    0    0  0.00000000000E+00  0.00000000000E+00  0.71254150075E+03  0.13006782533E+04  0.10881399397E+04 0.  0.
        2    1    3    3  502    0  0.31295800589E+03  0.29669419013E+02  0.88706551304E+03  0.94112072143E+03  0.25500000920E-02 0.  1.
       -2    1    3    3    0  502 -0.31295800589E+03 -0.29669419013E+02 -0.17452401229E+03  0.35955753190E+03  0.25500000920E-02 0. -1.
</event>
<event>
 5   0  0.1077140E-03  0.1505998E+04  0.7818609E-02  0.8880474E-01
       -1   -1    0    0    0  501  0.00000000000E+00  0.00000000000E+00  0.30367359224E+03  0.30367359229E+03  0.50400001928E-02 0.  1.
        1   -1    0    0  501    0  0.00000000000E+00  0.00000000000E+00 -0.18671620128E+04  0.18671620128E+04  0.50400001928E-02 0. -1.
    10030    2    1    2    0    0  0.00000000000E+00  0.00000000000E+00 -0.15634884205E+04  0.21708356051E+04  0.15059984008E+04 0.  0.
        1    1    3    3  502    0  0.11252461253E+03  0.45127176881E+03 -0.16353752200E+04  0.17002235465E+04  0.50400001928E-02 0. -1.
       -1    1    3    3    0  502 -0.11252461253E+03 -0.45127176881E+03  0.71886799452E+02  0.47061205862E+03  0.50400001928E-02 0.  1.
</event>
<event>
 5   0  0.2094566E-03  0.1446724E+04  0.7818609E-02  0.8920675E-01
       -2   -1    0    0    0  501  0.00000000000E+00  0.00000000000E+00  0.26557754549E+03  0.26557754551E+03  0.25500000920E-02 0. -1.
        2   -1    0    0  501    0  0.00000000000E+00  0.00000000000E+00 -0.19702446450E+04  0.19702446450E+04  0.25500000920E-02 0.  1.
    10030    2    1    2    0    0  0.00000000000E+00  0.00000000000E+00 -0.17046670995E+04  0.22358221905E+04  0.14467242126E+04 0.  0.
        1    1    3    3  502    0  0.39502533984E+03 -0.45803047206E+03 -0.23917091924E+03  0.65041499144E+03  0.50400001928E-02 0. -1.
       -1    1    3    3    0  502 -0.39502533984E+03  0.45803047206E+03 -0.14654961802E+04  0.15854071990E+04  0.50400001928E-02 0.  1.
</event>
<event>
 5   0  0.1087761E-03  0.1405325E+04  0.7818609E-02  0.8949973E-01
       -1   -1    0    0    0  501  0.00000000000E+00  0.00000000000E+00  0.87418291298E+03  0.87418291299E+03  0.50400001928E-02 0.  1.
        1   -1    0    0  501    0  0.00000000000E+00  0.00000000000E+00 -0.56479563804E+03  0.56479563807E+03  0.50400001928E-02 0. -1.
    10030    2    1    2    0    0  0.00000000000E+00  0.00000000000E+00  0.30938727493E+03  0.14389785511E+04  0.14053251526E+04 0.  0.
        3    1    3    3  502    0 -0.15688628368E+03 -0.19443189884E+03 -0.51778129431E+03  0.57490394696E+03  0.10100000352E+00 0. -1.
       -3    1    3    3    0  502  0.15688628368E+03  0.19443189884E+03  0.82716856924E+03  0.86407460409E+03  0.10100000352E+00 0.  1.
</event>
<event>
 5   0  0.1961098E-03  0.1509560E+04  0.7818609E-02  0.8878121E-01
        2   -1    0    0  501    0  0.00000000000E+00  0.00000000000E+00  0.74947113390E+03  0.74947113391E+03  0.25500000920E-02 0. -1.
       -2   -1    0    0    0  501  0.00000000000E+00  0.00000000000E+00 -0.76012615628E+03  0.76012615628E+03  0.25500000920E-02 0.  1.
    10030    2    1    2    0    0  0.00000000000E+00  0.00000000000E+00 -0.10655022374E+02  0.15095972902E+04  0.15095596871E+04 0.  0.
        2    1    3    3  502    0 -0.47014915738E+02  0.56000358535E+03  0.49854830952E+03  0.75124219453E+03  0.25500000920E-02 0. -1.
       -2    1    3    3    0  502  0.47014915738E+02 -0.56000358535E+03 -0.50920333189E+03  0.75835509567E+03  0.25500000920E-02 0.  1.
</event>
<event>
 5   0  0.1078787E-03  0.1563791E+04  0.7818609E-02  0.8843107E-01
       -1   -1    0    0    0  501  0.00000000000E+00  0.00000000000E+00  0.88612614075E+03  0.88612614077E+03  0.50400001928E-02 0. -1.
        1   -1    0    0  501    0  0.00000000000E+00  0.00000000000E+00 -0.68992482293E+03  0.68992482295E+03  0.50400001928E-02 0.  1.
    10030    2    1    2    0    0  0.00000000000E+00  0.00000000000E+00  0.19620131782E+03  0.15760509637E+04  0.15637908054E+04 0.  0.
        5    1    3    3  502    0 -0.67199898047E+03 -0.32950306612E+03  0.32611192000E+03  0.81641042050E+03  0.46999998093E+01 0. -1.
       -5    1    3    3    0  502  0.67199898047E+03  0.32950306612E+03 -0.12991060218E+03  0.75964054322E+03  0.46999998093E+01 0.  1.
</event>
<event>
 5   0  0.1993623E-03  0.1518815E+04  0.7818609E-02  0.8872036E-01
        2   -1    0    0  501    0  0.00000000000E+00  0.00000000000E+00  0.58540222690E+03  0.58540222691E+03  0.25500000920E-02 0. -1.
       -2   -1    0    0    0  501  0.00000000000E+00  0.00000000000E+00 -0.98513468011E+03  0.98513468011E+03  0.25500000920E-02 0.  1.
    10030    2    1    2    0    0  0.00000000000E+00  0.00000000000E+00 -0.39973245320E+03  0.15705369070E+04  0.15188153746E+04 0.  0.
        4    1    3    3  502    0 -0.37713617204E+03  0.44012958247E+03  0.30750838038E+03  0.65613166250E+03  0.12699999809E+01 0. -1.
       -4    1    3    3    0  502  0.37713617204E+03 -0.44012958247E+03 -0.70724083358E+03  0.91440524452E+03  0.12699999809E+01 0.  1.
</event>
<event>
 5   0  0.2094566E-03  0.1490112E+04  0.7818609E-02  0.8891055E-01
       -2   -1    0    0    0  501  0.00000000000E+00  0.00000000000E+00  0.68196370836E+03  0.68196370837E+03  0.25500000920E-02 0. -1.
        2   -1    0    0  501    0  0.00000000000E+00  0.00000000000E+00 -0.81398564364E+03  0.81398564364E+03  0.25500000920E-02 0.  1.
    10030    2    1    2    0    0  0.00000000000E+00  0.00000000000E+00 -0.13202193528E+03  0.14959493520E+04  0.14901123019E+04 0.  0.
        1    1    3    3  502    0  0.39540492234E+03  0.14152057924E+03  0.55181466248E+03  0.69344974490E+03  0.50400001928E-02 0. -1.
       -1    1    3    3    0  502 -0.39540492234E+03 -0.14152057924E+03 -0.68383659775E+03  0.80249960711E+03  0.50400001928E-02 0.  1.
</event>
<event>
 5   0  0.2094566E-03  0.1510839E+04  0.7818609E-02  0.8877277E-01
        2   -1    0    0  501    0  0.00000000000E+00  0.00000000000E+00  0.12641742876E+04  0.12641742877E+04  0.25500000920E-02 0.  1.
       -2   -1    0    0    0  501  0.00000000000E+00  0.00000000000E+00 -0.45140823912E+03  0.45140823913E+03  0.25500000920E-02 0. -1.
    10030    2    1    2    0    0  0.00000000000E+00  0.00000000000E+00  0.81276604853E+03  0.17155825268E+04  0.15108390902E+04 0.  0.
        1    1    3    3  502    0  0.14624056167E+03 -0.74112833968E+03  0.40761198760E+03  0.85837349109E+03  0.50400001928E-02 0.  1.
       -1    1    3    3    0  502 -0.14624056167E+03  0.74112833968E+03  0.40515406093E+03  0.85720903569E+03  0.50400001928E-02 0. -1.
</event>
<event>
 5   0  0.1078018E-03  0.9146633E+03  0.7818609E-02  0.9407435E-01
       -1   -1    0    0    0  501  0.00000000000E+00  0.00000000000E+00  0.68717311636E+03  0.68717311637E+03  0.50400001928E-02 0.  1.
        1   -1    0    0  501    0  0.00000000000E+00  0.00000000000E+00 -0.30436612566E+03  0.30436612570E+03  0.50400001928E-02 0. -1.
    10030    2    1    2    0    0  0.00000000000E+00  0.00000000000E+00  0.38280699070E+03  0.99153924208E+03  0.91466325850E+03 0.  0.
        4    1    3    3  502    0 -0.24771084336E+03  0.15202566159E+02  0.60782319721E+03  0.65653821816E+03  0.12699999809E+01 0.  1.
       -4    1    3    3    0  502  0.24771084336E+03 -0.15202566159E+02 -0.22501620651E+03  0.33500102392E+03  0.12699999809E+01 0. -1.
</event>
<event>
 5   0  0.1993623E-03  0.1369119E+04  0.7818609E-02  0.8976481E-01
       -2   -1    0    0    0  501  0.00000000000E+00  0.00000000000E+00  0.25490118353E+03  0.25490118355E+03  0.25500000920E-02 0.  1.
        2   -1    0    0  501    0  0.00000000000E+00  0.00000000000E+00 -0.18384433152E+04  0.18384433152E+04  0.25500000920E-02 0. -1.
    10030    2    1    2    0    0  0.00000000000E+00  0.00000000000E+00 -0.15835421317E+04  0.20933444988E+04  0.13691185148E+04 0.  0.
        4    1    3    3  502    0  0.49109287826E+02  0.52185479587E+03 -0.14649976469E+04  0.15559446868E+04  0.12699999809E+01 0. -1.
       -4    1    3    3    0  502 -0.49109287826E+02 -0.52185479587E+03 -0.11854448480E+03  0.53739981196E+03  0.12699999809E+01 0.  1.
</event>
<event>
 5   0  0.1993623E-03  0.1500235E+04  0.7818609E-02  0.8884297E-01
       -2   -1    0    0    0  501  0.00000000000E+00  0.00000000000E+00  0.31918499440E+03  0.31918499441E+03  0.25500000920E-02 0. -1.
        2   -1    0    0  501    0  0.00000000000E+00  0.00000000000E+00 -0.17628525891E+04  0.17628525891E+04  0.25500000920E-02 0.  1.
    10030    2    1    2    0    0  0.00000000000E+00  0.00000000000E+00 -0.14436675947E+04  0.20820375836E+04  0.15002347734E+04 0.  0.
        4    1    3    3  502    0  0.31101257076E+02  0.73706676555E+03 -0.53337901809E+03  0.91034581062E+03  0.12699999809E+01 0.  1.
       -4    1    3    3    0  502 -0.31101257076E+02 -0.73706676555E+03 -0.91028857665E+03  0.11716917729E+04  0.12699999809E+01 0. -1.
</event>
<event>
 5   0  0.1069697E-03  0.1444384E+04  0.7818609E-02  0.8922303E-01
       -1   -1    0    0    0  501  0.00000000000E+00  0.00000000000E+00  0.33832448829E+03  0.33832448833E+03  0.50400001928E-02 0.  1.
        1   -1    0    0  501    0  0.00000000000E+00  0.00000000000E+00 -0.15416013490E+04  0.15416013490E+04  0.50400001928E-02 0. -1.
    10030    2    1    2    0    0  0.00000000000E+00  0.00000000000E+00 -0.12032768607E+04  0.18799258373E+04  0.14443842807E+04 0.  0.
        2    1    3    3  502    0  0.28578760747E+03  0.36354381060E+03  0.12036260689E+03  0.47783450686E+03  0.25500000920E-02 0.  1.
       -2    1    3    3    0  502 -0.28578760747E+03 -0.36354381060E+03 -0.13236394676E+04  0.14020913305E+04  0.25500000920E-02 0. -1.
</event>
<event>
 5   0  0.2094566E-03  0.1488739E+04  0.7818609E-02  0.8891976E-01
        2   -1    0    0  501    0  0.00000000000E+00  0.00000000000E+00  0.56528904333E+03  0.56528904334E+03  0.25500000920E-02 0.  1.
       -2   -1    0    0    0  501  0.00000000000E+00  0.00000000000E+00 -0.98018107464E+03  0.98018107465E+03  0.25500000920E-02 0. -1.
    10030    2    1    2    0    0  0.00000000000E+00  0.00000000000E+00 -0.41489203131E+03  0.15454701180E+04  0.14887385559E+04 0.  0.
        1    1    3    3  502    0 -0.41192765428E+03  0.38663049577E+03 -0.71059940928E+03  0.90781003140E+03  0.50400001928E-02 0.  1.
       -1    1    3    3    0  502  0.41192765428E+03 -0.38663049577E+03  0.29570737797E+03  0.63766008659E+03  0.50400001928E-02 0. -1.
</event>
<event>
 5   0  0.1078787E-03  0.1290549E+04  0.7818609E-02  0.9037094E-01
       -1   -1    0    0    0  501  0.00000000000E+00  0.00000000000E+00  0.45046953533E+03  0.45046953535E+03  0.50400001928E-02 0. -1.
        1   -1    0    0  501    0  0.00000000000E+00  0.00000000000E+00 -0.92432207939E+03  0.92432207941E+03  0.50400001928E-02 0.  1.
    10030    2    1    2    0    0  0.00000000000E+00  0.00000000000E+00 -0.47385254407E+03  0.13747916148E+04  0.12905486238E+04 0.  0.
        5    1    3    3  502    0 -0.51446327698E+03  0.29180593146E+03  0.37852566614E+02  0.59268716183E+03  0.46999998093E+01 0. -1.
       -5    1    3    3    0  502  0.51446327698E+03 -0.29180593146E+03 -0.51170511068E+03  0.78210445293E+03  0.46999998093E+01 0.  1.
</event>
<event>
 5   0  0.1078787E-03  0.1501748E+04  0.7818609E-02  0.8883291E-01
        1   -1    0    0  501    0  0.00000000000E+00  0.00000000000E+00  0.10591923604E+04  0.10591923604E+04  0.50400001928E-02 0.  1.
       -1   -1    0    0    0  501  0.00000000000E+00  0.00000000000E+00 -0.53230336572E+03  0.53230336574E+03  0.50400001928E-02 0. -1.
    10030    2    1    2    0    0  0.00000000000E+00  0.00000000000E+00  0.52688899464E+03  0.15914957261E+04  0.15017478595E+04 0.  0.
        5    1    3    3  502    0  0.85077763295E+02  0.45872132287E+03 -0.36003994862E+03  0.58933380394E+03  0.46999998093E+01 0. -1.
       -5    1    3    3    0  502 -0.85077763295E+02 -0.45872132287E+03  0.88692894326E+03  0.10021619222E+04  0.46999998093E+01 0.  1.
</event>
<event>
 5   0  0.1078787E-03  0.8998546E+03  0.7818609E-02  0.9425763E-01
        1   -1    0    0  501    0  0.00000000000E+00  0.00000000000E+00  0.88004098183E+03  0.88004098184E+03  0.50400001928E-02 0.  1.
       -1   -1    0    0    0  501  0.00000000000E+00  0.00000000000E+00 -0.23002856873E+03  0.23002856879E+03  0.50400001928E-02 0. -1.
    10030    2    1    2    0    0  0.00000000000E+00  0.00000000000E+00  0.65001241310E+03  0.11100695506E+04  0.89985458272E+03 0.  0.
        5    1    3    3  502    0 -0.18965432207E+03  0.39083689811E+03  0.46934507765E+03  0.63955385599E+03  0.46999998093E+01 0.  1.
       -5    1    3    3    0  502  0.18965432207E+03 -0.39083689811E+03  0.18066733545E+03  0.47051569464E+03  0.46999998093E+01 0. -1.
</event>
<event>
 5   0  0.1069697E-03  0.1474230E+04  0.7818609E-02  0.8901773E-01
       -1   -1    0    0    0  501  0.00000000000E+00  0.00000000000E+00  0.59186421808E+03  0.59186421811E+03  0.50400001928E-02 0. -1.
        1   -1    0    0  501    0  0.00000000000E+00  0.00000000000E+00 -0.91801224412E+03  0.91801224413E+03  0.50400001928E-02 0.  1.
    10030    2    1    2    0    0  0.00000000000E+00  0.00000000000E+00 -0.32614802603E+03  0.15098764622E+04  0.14742301029E+04 0.  0.
        2    1    3    3  502    0  0.21938393502E+03 -0.51888670704E+03  0.32377866936E+03  0.64977330849E+03  0.25500000920E-02 0. -1.
       -2    1    3    3    0  502 -0.21938393502E+03  0.51888670704E+03 -0.64992669539E+03  0.86010315374E+03  0.25500000920E-02 0.  1.
</event>
<event>
 5   0  0.2150197E-03  0.1514701E+04  0.7818609E-02  0.8874735E-01
       -2   -1    0    0    0  501  0.00000000000E+00  0.00000000000E+00  0.31341788526E+03  0.31341788527E+03  0.25500000920E-02 0.  1.
        2   -1    0    0  501    0  0.00000000000E+00  0.00000000000E+00 -0.18300802864E+04  0.18300802864E+04  0.25500000920E-02 0. -1.
    10030    2    1    2    0    0  0.00000000000E+00  0.00000000000E+00 -0.15166624011E+04  0.21434981716E+04  0.15147011497E+04 0.  0.
        3    1    3    3  502    0  0.54926029653E+03 -0.34457386654E+03 -0.13121548263E+04  0.14636148131E+04  0.10100000352E+00 0. -1.
       -3    1    3    3    0  502 -0.54926029653E+03  0.34457386654E+03 -0.20450757486E+03  0.67988335854E+03  0.10100000352E+00 0.  1.
</event>
<event>
 5   0  0.2111533E-03  0.1651060E+04  0.7818609E-02  0.8789779E-01
        2   -1    0    0  501    0  0.00000000000E+00  0.00000000000E+00  0.16519723871E+04  0.16519723871E+04  0.25500000920E-02 0.  1.
       -2   -1    0    0    0  501  0.00000000000E+00  0.00000000000E+00 -0.41253721784E+03  0.41253721785E+03  0.25500000920E-02 0. -1.
    10030    2    1    2    0    0  0.00000000000E+00  0.00000000000E+00  0.12394351692E+04  0.20645096049E+04  0.16510603775E+04 0.  0.
        5    1    3    3  502    0 -0.28122853198E+03 -0.17710056703E+02  0.15899576454E+04  0.16147416318E+04  0.46999998093E+01 0.  1.
       -5    1    3    3    0  502  0.28122853198E+03  0.17710056703E+02 -0.35052247620E+03  0.44976797310E+03  0.46999998093E+01 0. -1.
</event>
<event>
 5   0  0.1961098E-03  0.1072721E+04  0.7818609E-02  0.9232195E-01
       -2   -1    0    0    0  501  0.00000000000E+00  0.00000000000E+00  0.18482846486E+03  0.18482846488E+03  0.25500000920E-02 0. -1.
        2   -1    0    0  501    0  0.00000000000E+00  0.00000000000E+00 -0.15564842000E+04  0.15564842000E+04  0.25500000920E-02 0.  1.
    10030    2    1    2    0    0  0.00000000000E+00  0.00000000000E+00 -0.13716557351E+04  0.17413126649E+04  0.10727209987E+04 0.  0.
        2    1    3    3  502    0  0.29432022412E+03  0.71048310954E+02 -0.14044977661E+04  0.14367624132E+04  0.25500000920E-02 0.  1.
       -2    1    3    3    0  502 -0.29432022412E+03 -0.71048310954E+02  0.32842030989E+02  0.30455025172E+03  0.25500000920E-02 0. -1.
</event>
<event>
 5   0  0.1078018E-03  0.1423194E+04  0.7818609E-02  0.8937199E-01
       -1   -1    0    0    0  501  0.00000000000E+00  0.00000000000E+00  0.63560277042E+03  0.63560277044E+03  0.50400001928E-02 0. -1.
        1   -1    0    0  501    0  0.00000000000E+00  0.00000000000E+00 -0.79667675185E+03  0.79667675186E+03  0.50400001928E-02 0.  1.
    10030    2    1    2    0    0  0.00000000000E+00  0.00000000000E+00 -0.16107398142E+03  0.14322795223E+04  0.14231935225E+04 0.  0.
        4    1    3    3  502    0  0.64472542981E+03 -0.25625306428E+03 -0.23976155923E+03  0.73404613682E+03  0.12699999809E+01 0. -1.
       -4    1    3    3    0  502 -0.64472542981E+03  0.25625306428E+03  0.78687577808E+02  0.69823338548E+03  0.12699999809E+01 0.  1.
</event>
<event>
 5   0  0.2094566E-03  0.1482718E+04  0.7818609E-02  0.8896027E-01
       -2   -1    0    0    0  501  0.00000000000E+00  0.00000000000E+00  0.62449880619E+03  0.62449880620E+03  0.25500000920E-02 0.  1.
        2   -1    0    0  501    0  0.00000000000E+00  0.00000000000E+00 -0.88008682212E+03  0.88008682212E+03  0.25500000920E-02 0. -1.
    10030    2    1    2    0    0  0.00000000000E+00  0.00000000000E+00 -0.25558801593E+03  0.15045856283E+04  0.14827180039E+04 0.  0.
        1    1    3    3  502    0 -0.59406927763E+03  0.22936832368E+03  0.25738959096E+03  0.68686063804E+03  0.50400001928E-02 0.  1.
       -1    1    3    3    0  502  0.59406927763E+03 -0.22936832368E+03 -0.51297760688E+03  0.81772499028E+03  0.50400001928E-02 0. -1.
</event>
<event>
 5   0  0.1069697E-03  0.1432501E+04  0.7818609E-02  0.8930623E-01
       -1   -1    0    0    0  501  0.00000000000E+00  0.00000000000E+00  0.34047018812E+03  0.34047018816E+03  0.50400001928E-02 0. -1.
        1   -1    0    0  501    0  0.00000000000E+00  0.00000000000E+00 -0.15067824126E+04  0.15067824126E+04  0.50400001928E-02 0.  1.
    10030    2    1    2    0    0  0.00000000000E+00  0.00000000000E+00 -0.11663122245E+04  0.18472526008E+04  0.14325005990E+04 0.  0.
        2    1    3    3  502    0  0.11198106840E+03  0.65428375990E+03 -0.23620902680E+03  0.70457199951E+03  0.25500000920E-02 0. -1.
       -2    1    3    3    0  502 -0.11198106840E+03 -0.65428375990E+03 -0.93010319770E+03  0.11426806013E+04  0.25500000920E-02 0.  1.
</event>
<event>
 5   0  0.1077140E-03  0.1458645E+04  0.7818609E-02  0.8912429E-01
       -1   -1    0    0    0  501  0.00000000000E+00  0.00000000000E+00  0.25299602260E+03  0.25299602265E+03  0.50400001928E-02 0. -1.
        1   -1    0    0  501    0  0.00000000000E+00  0.00000000000E+00 -0.21024487979E+04  0.21024487979E+04  0.50400001928E-02 0.  1.
    10030    2    1    2    0    0  0.00000000000E+00  0.00000000000E+00 -0.18494527753E+04  0.23554448205E+04  0.14586448281E+04 0.  0.
        1    1    3    3  502    0 -0.34115512681E+03 -0.46188629789E+03 -0.16508294790E+04  0.17478454570E+04  0.50400001928E-02 0. -1.
       -1    1    3    3    0  502  0.34115512681E+03  0.46188629789E+03 -0.19862329625E+03  0.60759936353E+03  0.50400001928E-02 0.  1.
</event>
<event>
 5   0  0.1087761E-03  0.1497324E+04  0.7818609E-02  0.8886234E-01
        1   -1    0    0  501    0  0.00000000000E+00  0.00000000000E+00  0.89564664936E+03  0.89564664938E+03  0.50400001928E-02 0.  1.
       -1   -1    0    0    0  501  0.00000000000E+00  0.00000000000E+00 -0.62579913422E+03  0.62579913424E+03  0.50400001928E-02 0. -1.
    10030    2    1    2    0    0  0.00000000000E+00  0.00000000000E+00  0.26984751514E+03  0.15214457836E+04  0.14973241436E+04 0.  0.
        3    1    3    3  502    0  0.17667845473E+03  0.48144700905E+02 -0.60269198805E+03  0.62989747678E+03  0.10100000352E+00 0. -1.
       -3    1    3    3    0  502 -0.17667845473E+03 -0.48144700905E+02  0.87253950319E+03  0.89154830684E+03  0.10100000352E+00 0.  1.
</event>
<event>
 5   0  0.1069697E-03  0.1487902E+04  0.7818609E-02  0.8892538E-01
        1   -1    0    0  501    0  0.00000000000E+00  0.00000000000E+00  0.24735698718E+04  0.24735698718E+04  0.50400001928E-02 0. -1.
       -1   -1    0    0    0  501  0.00000000000E+00  0.00000000000E+00 -0.22375080658E+03  0.22375080663E+03  0.50400001928E-02 0.  1.
    10030    2    1    2    0    0  0.00000000000E+00  0.00000000000E+00  0.22498190652E+04  0.26973206784E+04  0.14879022199E+04 0.  0.
        2    1    3    3  502    0  0.55351631571E+02 -0.62416031920E+03  0.18519067323E+04  0.19550443607E+04  0.25500000920E-02 0. -1.
       -2    1    3    3    0  502 -0.55351631571E+02  0.62416031920E+03  0.39791233295E+03  0.74227631776E+03  0.25500000920E-02 0.  1.
</event>
<event>
 5   0  0.1087761E-03  0.1455852E+04  0.7818609E-02  0.8914354E-01
        1   -1    0    0  501    0  0.00000000000E+00  0.00000000000E+00  0.15861966128E+04  0.15861966128E+04  0.50400001928E-02 0.  1.
       -1   -1    0    0    0  501  0.00000000000E+00  0.00000000000E+00 -0.33405443373E+03  0.33405443377E+03  0.50400001928E-02 0. -1.
    10030    2    1    2    0    0  0.00000000000E+00  0.00000000000E+00  0.12521421791E+04  0.19202510466E+04  0.14558516563E+04 0.  0.
        3    1    3    3  502    0  0.60315453364E+03 -0.35377541543E+03  0.89289676406E+03  0.11341151077E+04  0.10100000352E+00 0.  1.
       -3    1    3    3    0  502 -0.60315453364E+03  0.35377541543E+03  0.35924541501E+03  0.78613593889E+03  0.10100000352E+00 0. -1.
</event>
<event>
 5   0  0.1077140E-03  0.1459628E+04  0.7818609E-02  0.8911752E-01
        1   -1    0    0  501    0  0.00000000000E+00  0.00000000000E+00  0.12280253342E+04  0.12280253342E+04  0.50400001928E-02 0. -1.
       -1   -1    0    0    0  501  0.00000000000E+00  0.00000000000E+00 -0.43372783822E+03  0.43372783825E+03  0.50400001928E-02 0.  1.
    10030    2    1    2    0    0  0.00000000000E+00  0.00000000000E+00  0.79429749597E+03  0.16617531724E+04  0.14596284096E+04 0.  0.
        1    1    3    3  502    0  0.70518967862E+03 -0.17533012919E+03  0.47432737378E+03  0.86776701630E+03  0.50400001928E-02 0. -1.
       -1    1    3    3    0  502 -0.70518967862E+03  0.17533012919E+03  0.31997012218E+03  0.79398615615E+03  0.50400001928E-02 0.  1.
</event>
<event>
 5   0  0.1069697E-03  0.1585605E+04  0.7818609E-02  0.8829440E-01
       -1   -1    0    0    0  501  0.00000000000E+00  0.00000000000E+00  0.43269622708E+03  0.43269622711E+03  0.50400001928E-02 0. -1.
        1   -1    0    0  501    0  0.00000000000E+00  0.00000000000E+00 -0.14526032487E+04  0.14526032488E+04  0.50400001928E-02 0.  1.
    10030    2    1    2    0    0  0.00000000000E+00  0.00000000000E+00 -0.10199070217E+04  0.18852994759E+04  0.15856051781E+04 0.  0.
        2    1    3    3  502    0  0.27580677739E+03  0.39932634735E+03 -0.12553448608E+04  0.13458906455E+04  0.25500000920E-02 0.  1.
       -2    1    3    3    0  502 -0.27580677739E+03 -0.39932634735E+03  0.23543783914E+03  0.53940883034E+03  0.25500000920E-02 0. -1.
</event>
<event>
 5   0  0.1961098E-03  0.1464435E+04  0.7818609E-02  0.8908454E-01
       -2   -1    0    0    0  501  0.00000000000E+00  0.00000000000E+00  0.48877658465E+03  0.48877658466E+03  0.25500000920E-02 0. -1.
        2   -1    0    0  501    0  0.00000000000E+00  0.00000000000E+00 -0.10969076434E+04  0.10969076434E+04  0.25500000920E-02 0.  1.
    10030    2    1    2    0    0  0.00000000000E+00  0.00000000000E+00 -0.60813105875E+03  0.15856842281E+04  0.14644354156E+04 0.  0.
        2    1    3    3  502    0 -0.55123217181E+03 -0.47123210330E+03 -0.19456834029E+03  0.75084848103E+03  0.25500000920E-02 0.  1.
       -2    1    3    3    0  502  0.55123217181E+03  0.47123210330E+03 -0.41356271846E+03  0.83483574703E+03  0.25500000920E-02 0. -1.
</event>
<event>
 5   0  0.1069697E-03  0.1683660E+04  0.7818609E-02  0.8770739E-01
        1   -1    0    0  501    0  0.00000000000E+00  0.00000000000E+00  0.16932824874E+04  0.16932824874E+04  0.50400001928E-02 0. -1.
       -1   -1    0    0    0  501  0.00000000000E+00  0.00000000000E+00 -0.41852286301E+03  0.41852286304E+03  0.50400001928E-02 0.  1.
    10030    2    1    2    0    0  0.00000000000E+00  0.00000000000E+00  0.12747596244E+04  0.21118053504E+04  0.16836596266E+04 0.  0.
        2    1    3    3  502    0  0.77895353799E+03  0.74006108198E+02  0.10268820761E+04  0.12910198746E+04  0.25500000920E-02 0. -1.
       -2    1    3    3    0  502 -0.77895353799E+03 -0.74006108198E+02  0.24787754830E+03  0.82078547585E+03  0.25500000920E-02 0.  1.
</event>
<event>
 5   0  0.1078787E-03  0.1497124E+04  0.7818609E-02  0.8886367E-01
        1   -1    0    0  501    0  0.00000000000E+00  0.00000000000E+00  0.99683982535E+03  0.99683982537E+03  0.50400001928E-02 0. -1.
       -1   -1    0    0    0  501  0.00000000000E+00  0.00000000000E+00 -0.56212172459E+03  0.56212172462E+03  0.50400001928E-02 0.  1.
    10030    2    1    2    0    0  0.00000000000E+00  0.00000000000E+00  0.43471810076E+03  0.15589615500E+04  0.14971243393E+04 0.  0.
        5    1    3    3  502    0  0.10188229563E+03  0.59733840271E+03  0.67497639141E+03  0.90708786150E+03  0.46999998093E+01 0. -1.
       -5    1    3    3    0  502 -0.10188229563E+03 -0.59733840271E+03 -0.24025829065E+03  0.65187368848E+03  0.46999998093E+01 0.  1.
</event>
<event>
 5   0  0.7468375E-04  0.1240580E+04  0.7818609E-02  0.9078060E-01
       -3   -1    0    0    0  501  0.00000000000E+00  0.00000000000E+00  0.39375432494E+03  0.39375433789E+03  0.10100000352E+00 0.  1.
        3   -1    0    0  501    0  0.00000000000E+00  0.00000000000E+00 -0.97715621804E+03  0.97715622326E+03  0.10100000352E+00 0. -1.
    10030    2    1    2    0    0  0.00000000000E+00  0.00000000000E+00 -0.58340189310E+03  0.13709105611E+04  0.12405797023E+04 0.  0.
        5    1    3    3  502    0  0.96521180277E+02 -0.49923058807E+03 -0.68425253023E+03  0.85250872925E+03  0.46999998093E+01 0. -1.
       -5    1    3    3    0  502 -0.96521180277E+02  0.49923058807E+03  0.10085063713E+03  0.51840183190E+03  0.46999998093E+01 0.  1.
</event>
<event>
 5   0  0.2150197E-03  0.1389178E+04  0.7818609E-02  0.8961690E-01
       -2   -1    0    0    0  501  0.00000000000E+00  0.00000000000E+00  0.49074302575E+03  0.49074302576E+03  0.25500000920E-02 0.  1.
        2   -1    0    0  501    0  0.00000000000E+00  0.00000000000E+00 -0.98310876663E+03  0.98310876663E+03  0.25500000920E-02 0. -1.
    10030    2    1    2    0    0  0.00000000000E+00  0.00000000000E+00 -0.49236574088E+03  0.14738517924E+04  0.13891778443E+04 0.  0.
        3    1    3    3  502    0  0.18437113106E+03  0.54551638065E+03  0.16591618668E+03  0.59925706231E+03  0.10100000352E+00 0.  1.
       -3    1    3    3    0  502 -0.18437113106E+03 -0.54551638065E+03 -0.65828192756E+03  0.87459473008E+03  0.10100000352E+00 0. -1.
</event>
<event>
 5   0  0.2150197E-03  0.1479358E+04  0.7818609E-02  0.8898297E-01
        2   -1    0    0  501    0  0.00000000000E+00  0.00000000000E+00  0.10705855737E+04  0.10705855737E+04  0.25500000920E-02 0.  1.
       -2   -1    0    0    0  501  0.00000000000E+00  0.00000000000E+00 -0.51105198128E+03  0.51105198129E+03  0.25500000920E-02 0. -1.
    10030    2    1    2    0    0  0.00000000000E+00  0.00000000000E+00  0.55953359243E+03  0.15816375550E+04  0.14793578047E+04 0.  0.
        3    1    3    3  502    0 -0.49339607173E+03 -0.32921673205E+03 -0.19271661148E+03  0.62366901703E+03  0.10100000352E+00 0. -1.
       -3    1    3    3    0  502  0.49339607173E+03  0.32921673205E+03  0.75225020391E+03  0.95796853797E+03  0.10100000352E+00 0.  1.
</event>
<event>
 5   0  0.1993623E-03  0.1524791E+04  0.7818609E-02  0.8868133E-01
       -2   -1    0    0    0  501  0.00000000000E+00  0.00000000000E+00  0.20773170093E+03  0.20773170095E+03  0.25500000920E-02 0. -1.
        2   -1    0    0  501    0  0.00000000000E+00  0.00000000000E+00 -0.27980638462E+04  0.27980638462E+04  0.25500000920E-02 0.  1.
    10030    2    1    2    0    0  0.00000000000E+00  0.00000000000E+00 -0.25903321453E+04  0.30057955472E+04  0.15247905589E+04 0.  0.
        4    1    3    3  502    0 -0.94499111652E+02  0.37925913152E+03 -0.47992400059E+01  0.39088644968E+03  0.12699999809E+01 0. -1.
       -4    1    3    3    0  502  0.94499111652E+02 -0.37925913152E+03 -0.25855329053E+04  0.26149090975E+04  0.12699999809E+01 0.  1.
</event>
<event>
 5   0  0.2150197E-03  0.1493420E+04  0.7818609E-02  0.8888841E-01
       -2   -1    0    0    0  501  0.00000000000E+00  0.00000000000E+00  0.87824799131E+03  0.87824799132E+03  0.25500000920E-02 0. -1.
        2   -1    0    0  501    0  0.00000000000E+00  0.00000000000E+00 -0.63487257625E+03  0.63487257626E+03  0.25500000920E-02 0.  1.
    10030    2    1    2    0    0  0.00000000000E+00  0.00000000000E+00  0.24337541506E+03  0.15131205676E+04  0.14934196528E+04 0.  0.
        3    1    3    3  502    0  0.38044769675E+02 -0.54835883398E+03 -0.39038101851E+03  0.67419742295E+03  0.10100000352E+00 0.  1.
       -3    1    3    3    0  502 -0.38044769675E+02  0.54835883398E+03  0.63375643357E+03  0.83892314463E+03  0.10100000352E+00 0. -1.
</event>
<event>
 5   0  0.2094566E-03  0.1535797E+04  0.7818609E-02  0.8860991E-01
        2   -1    0    0  501    0  0.00000000000E+00  0.00000000000E+00  0.23901050501E+04  0.23901050501E+04  0.25500000920E-02 0.  1.
       -2   -1    0    0    0  501  0.00000000000E+00  0.00000000000E+00 -0.24671224046E+03  0.24671224047E+03  0.25500000920E-02 0. -1.
    10030    2    1    2    0    0  0.00000000000E+00  0.00000000000E+00  0.21433928097E+04  0.26368172906E+04  0.15357970854E+04 0.  0.
        1    1    3    3  502    0 -0.21464975774E+03  0.64861706477E+03  0.16735677780E+04  0.18076525449E+04  0.50400001928E-02 0.  1.
       -1    1    3    3    0  502  0.21464975774E+03 -0.64861706477E+03  0.46982503164E+03  0.82916474575E+03  0.50400001928E-02 0. -1.
</event>
<event>
 5   0  0.2111533E-03  0.1509795E+04  0.7818609E-02  0.8877965E-01
       -2   -1    0    0    0  501  0.00000000000E+00  0.00000000000E+00  0.37296492666E+03  0.37296492667E+03  0.25500000920E-02 0.  1.
        2   -1    0    0  501    0  0.00000000000E+00  0.00000000000E+00 -0.15279468216E+04  0.15279468216E+04  0.25500000920E-02 0. -1.
    10030    2    1    2    0    0  0.00000000000E+00  0.00000000000E+00 -0.11549818950E+04  0.19009117483E+04  0.15097954488E+04 0.  0.
        5    1    3    3  502    0  0.11931298816E+02 -0.29839504813E+03  0.29541164058E+03  0.42008581032E+03  0.46999998093E+01 0.  1.
       -5    1    3    3    0  502 -0.11931298816E+02  0.29839504813E+03 -0.14503935355E+04  0.14808259380E+04  0.46999998093E+01 0. -1.
</event>
<event>
 5   0  0.2111533E-03  0.1520382E+04  0.7818609E-02  0.8871011E-01
       -2   -1    0    0    0  501  0.00000000000E+00  0.00000000000E+00  0.98915795550E+03  0.98915795551E+03  0.25500000920E-02 0.  1.
        2   -1    0    0  501    0  0.00000000000E+00  0.00000000000E+00 -0.58422432065E+03  0.58422432065E+03  0.25500000920E-02 0. -1.
    10030    2    1    2    0    0  0.00000000000E+00  0.00000000000E+00  0.40493363486E+03  0.15733822762E+04  0.15203817081E+04 0.  0.
        5    1    3    3  502    0  0.61613483540E+03 -0.10252993504E+03 -0.24591968545E+03  0.67129211574E+03  0.46999998093E+01 0. -1.
       -5    1    3    3    0  502 -0.61613483540E+03  0.10252993504E+03  0.65085332031E+03  0.90209016042E+03  0.46999998093E+01 0.  1.
</event>
<event>
 5   0  0.1087761E-03  0.1728950E+04  0.7818609E-02  0.8745023E-01
       -1   -1    0    0    0  501  0.00000000000E+00  0.00000000000E+00  0.36159201875E+03  0.36159201879E+03  0.50400001928E-02 0. -1.
        1   -1    0    0  501    0  0.00000000000E+00  0.00000000000E+00 -0.20667413968E+04  0.20667413968E+04  0.50400001928E-02 0.  1.
    10030    2    1    2    0    0  0.00000000000E+00  0.00000000000E+00 -0.17051493780E+04  0.24283334155E+04  0.17289501947E+04 0.  0.
        3    1    3    3  502    0 -0.66692755750E+03  0.51173242642E+03 -0.11357669821E+04  0.14130212635E+04  0.10100000352E+00 0. -1.
       -3    1    3    3    0  502  0.66692755750E+03 -0.51173242642E+03 -0.56938239592E+03  0.10153121521E+04  0.10100000352E+00 0.  1.
</event>
<event>
 5   0  0.1077140E-03  0.1495152E+04  0.7818609E-02  0.8887683E-01
       -1   -1    0    0    0  501  0.00000000000E+00  0.00000000000E+00  0.26621007914E+04  0.26621007914E+04  0.50400001928E-02 0.  1.
        1   -1    0    0  501    0  0.00000000000E+00  0.00000000000E+00 -0.20993569846E+03  0.20993569852E+03  0.50400001928E-02 0. -1.
    10030    2    1    2    0    0  0.00000000000E+00  0.00000000000E+00  0.24521650930E+04  0.28720364900E+04  0.14951521516E+04 0.  0.
        1    1    3    3  502    0 -0.62834782078E+03 -0.23876901547E+02  0.20027505522E+04  0.20991428881E+04  0.50400001928E-02 0.  1.
       -1    1    3    3    0  502  0.62834782078E+03  0.23876901547E+02  0.44941454077E+03  0.77289360185E+03  0.50400001928E-02 0. -1.
</event>
<event>
 5   0  0.1087761E-03  0.1523341E+04  0.7818609E-02  0.8869078E-01
        1   -1    0    0  501    0  0.00000000000E+00  0.00000000000E+00  0.72092272908E+03  0.72092272909E+03  0.50400001928E-02 0.  1.
       -1   -1    0    0    0  501  0.00000000000E+00  0.00000000000E+00 -0.80472090074E+03  0.80472090076E+03  0.50400001928E-02 0. -1.
    10030    2    1    2    0    0  0.00000000000E+00  0.00000000000E+00 -0.83798171665E+02  0.15256436299E+04  0.15233405239E+04 0.  0.
        3    1    3    3  502    0  0.37288381026E+02 -0.75865005388E+03  0.14766046672E+02  0.75970940099E+03  0.10100000352E+00 0.  1.
       -3    1    3    3    0  502 -0.37288381026E+02  0.75865005388E+03 -0.98564218338E+02  0.76593422887E+03  0.10100000352E+00 0. -1.
</event>
<event>
 5   0  0.1077140E-03  0.1499412E+04  0.7818609E-02  0.8884844E-01
        1   -1    0    0  501    0  0.00000000000E+00  0.00000000000E+00  0.13392982645E+04  0.13392982645E+04  0.50400001928E-02 0. -1.
       -1   -1    0    0    0  501  0.00000000000E+00  0.00000000000E+00 -0.41966710152E+03  0.41966710155E+03  0.50400001928E-02 0.  1.
    10030    2    1    2    0    0  0.00000000000E+00  0.00000000000E+00  0.91963116295E+03  0.17589653660E+04  0.14994124459E+04 0.  0.
        1    1    3    3  502    0  0.19475308507E+03  0.17476183773E+03  0.12839895516E+04  0.13103814837E+04  0.50400001928E-02 0. -1.
       -1    1    3    3    0  502 -0.19475308507E+03 -0.17476183773E+03 -0.36435838869E+03  0.44858388235E+03  0.50400001928E-02 0.  1.
</event>
<event>
 5   0  0.1078018E-03  0.1559203E+04  0.7818609E-02  0.8846011E-01
        1   -1    0    0  501    0  0.00000000000E+00  0.00000000000E+00  0.19249394613E+04  0.19249394613E+04  0.50400001928E-02 0.  1.
       -1   -1    0    0    0  501  0.00000000000E+00  0.00000000000E+00 -0.31573893439E+03  0.31573893443E+03  0.50400001928E-02 0. -1.
    10030    2    1    2    0    0  0.00000000000E+00  0.00000000000E+00  0.16092005269E+04  0.22406783958E+04  0.15592027890E+04 0.  0.
        4    1    3    3  502    0  0.26604675136E+03 -0.72961779497E+03  0.70656618164E+03  0.10499335134E+04  0.12699999809E+01 0. -1.
       -4    1    3    3    0  502 -0.26604675136E+03  0.72961779497E+03  0.90263434531E+03  0.11907448824E+04  0.12699999809E+01 0.  1.
</event>
<event>
 5   0  0.1993623E-03  0.1506801E+04  0.7818609E-02  0.8879943E-01
       -2   -1    0    0    0  501  0.00000000000E+00  0.00000000000E+00  0.69981795309E+03  0.69981795309E+03  0.25500000920E-02 0. -1.
        2   -1    0    0  501    0  0.00000000000E+00  0.00000000000E+00 -0.81108525237E+03  0.81108525237E+03  0.25500000920E-02 0.  1.
    10030    2    1    2    0    0  0.00000000000E+00  0.00000000000E+00 -0.11126729928E+03  0.15109032055E+04  0.15068006120E+04 0.  0.
        4    1    3    3  502    0  0.22386487382E+03 -0.63025136690E+03  0.29212201113E+03  0.72984186609E+03  0.12699999809E+01 0. -1.
       -4    1    3    3    0  502 -0.22386487382E+03  0.63025136690E+03 -0.40338931042E+03  0.78106133938E+03  0.12699999809E+01 0.  1.
</event>
<event>
 5   0  0.2111533E-03  0.1415164E+04  0.7818609E-02  0.8942915E-01
        2   -1    0    0  501    0  0.00000000000E+00  0.00000000000E+00  0.12384822176E+04  0.12384822176E+04  0.25500000920E-02 0.  1.
       -2   -1    0    0    0  501  0.00000000000E+00  0.00000000000E+00 -0.40426273836E+03  0.40426273837E+03  0.25500000920E-02 0. -1.
    10030    2    1    2    0    0  0.00000000000E+00  0.00000000000E+00  0.83421947924E+03  0.16427449560E+04  0.14151638954E+04 0.  0.
        5    1    3    3  502    0  0.35252945886E+03  0.23619237894E+03  0.10743677037E+04  0.11551415116E+04  0.46999998093E+01 0.  1.
       -5    1    3    3    0  502 -0.35252945886E+03 -0.23619237894E+03 -0.24014822442E+03  0.48760344433E+03  0.46999998093E+01 0. -1.
</event>
<event>
 5   0  0.1077140E-03  0.1367783E+04  0.7818609E-02  0.8977475E-01
       -1   -1    0    0    0  501  0.00000000000E+00  0.00000000000E+00  0.37210737911E+03  0.37210737915E+03  0.50400001928E-02 0.  1.
        1   -1    0    0  501    0  0.00000000000E+00  0.00000000000E+00 -0.12569152082E+04  0.12569152082E+04  0.50400001928E-02 0. -1.
    10030    2    1    2    0    0  0.00000000000E+00  0.00000000000E+00 -0.88480782904E+03  0.16290225873E+04  0.13677827662E+04 0.  0.
        1    1    3    3  502    0 -0.20216630561E+03  0.61548020553E+03 -0.70339310951E+03  0.95626824952E+03  0.50400001928E-02 0. -1.
       -1    1    3    3    0  502  0.20216630561E+03 -0.61548020553E+03 -0.18141471953E+03  0.67275433779E+03  0.50400001928E-02 0.  1.
</event>
<event>
 5   0  0.2150197E-03  0.1273101E+04  0.7818609E-02  0.9051172E-01
        2   -1    0    0  501    0  0.00000000000E+00  0.00000000000E+00  0.81521248872E+03  0.81521248873E+03  0.25500000920E-02 0. -1.
       -2   -1    0    0    0  501  0.00000000000E+00  0.00000000000E+00 -0.49704427254E+03  0.49704427255E+03  0.25500000920E-02 0.  1.
    10030    2    1    2    0    0  0.00000000000E+00  0.00000000000E+00  0.31816821618E+03  0.13122567613E+04  0.12731012504E+04 0.  0.
        3    1    3    3  502    0  0.49755731701E+03  0.35712216124E+03  0.33790517413E+03  0.69948512398E+03  0.10100000352E+00 0. -1.
       -3    1    3    3    0  502 -0.49755731701E+03 -0.35712216124E+03 -0.19736957953E+02  0.61277163730E+03  0.10100000352E+00 0.  1.
</event>
<event>
 5   0  0.2094566E-03  0.1502047E+04  0.7818609E-02  0.8883093E-01
        2   -1    0    0  501    0  0.00000000000E+00  0.00000000000E+00  0.92527243998E+03  0.92527243998E+03  0.25500000920E-02 0.  1.
       -2   -1    0    0    0  501  0.00000000000E+00  0.00000000000E+00 -0.60958961370E+03  0.60958961371E+03  0.25500000920E-02 0. -1.
    10030    2    1    2    0    0  0.00000000000E+00  0.00000000000E+00  0.31568282628E+03  0.15348620537E+04  0.15020472286E+04 0.  0.
        1    1    3    3  502    0 -0.34437754338E+03  0.38199414594E+03 -0.40140014251E+03  0.65240899315E+03  0.50400001928E-02 0. -1.
       -1    1    3    3    0  502  0.34437754338E+03 -0.38199414594E+03  0.71708296878E+03  0.88245306054E+03  0.50400001928E-02 0.  1.
</event>
<event>
 5   0  0.1961098E-03  0.1484639E+04  0.7818609E-02  0.8894732E-01
       -2   -1    0    0    0  501  0.00000000000E+00  0.00000000000E+00  0.57131881675E+03  0.57131881676E+03  0.25500000920E-02 0.  1.
        2   -1    0    0  501    0  0.00000000000E+00  0.00000000000E+00 -0.96450276414E+03  0.96450276415E+03  0.25500000920E-02 0. -1.
    10030    2    1    2    0    0  0.00000000000E+00  0.00000000000E+00 -0.39318394739E+03  0.15358215809E+04  0.14846394552E+04 0.  0.
        2    1    3    3  502    0 -0.23715516197E+03 -0.58075224354E+03  0.21398211036E+03  0.66280018316E+03  0.25500000920E-02 0.  1.
       -2    1    3    3    0  502  0.23715516197E+03  0.58075224354E+03 -0.60716605776E+03  0.87302139775E+03  0.25500000920E-02 0. -1.
</event>
<event>
 5   0  0.1069697E-03  0.1480802E+04  0.7818609E-02  0.8897321E-01
       -1   -1    0    0    0  501  0.00000000000E+00  0.00000000000E+00  0.27122426915E+03  0.27122426920E+03  0.50400001928E-02 0. -1.
        1   -1    0    0  501    0  0.00000000000E+00  0.00000000000E+00 -0.20211822109E+04  0.20211822109E+04  0.50400001928E-02 0.  1.
    10030    2    1    2    0    0  0.00000000000E+00  0.00000000000E+00 -0.17499579418E+04  0.22924064801E+04  0.14808020368E+04 0.  0.
        2    1    3    3  502    0 -0.39330007988E+03  0.44768052535E+03 -0.15552398335E+04  0.16654950452E+04  0.25500000920E-02 0.  1.
       -2    1    3    3    0  502  0.39330007988E+03 -0.44768052535E+03 -0.19471810822E+03  0.62691143496E+03  0.25500000920E-02 0. -1.
</event>
<event>
 5   0  0.1078018E-03  0.1162099E+04  0.7818609E-02  0.9146694E-01
        1   -1    0    0  501    0  0.00000000000E+00  0.00000000000E+00  0.14334628850E+04  0.14334628850E+04  0.50400001928E-02 0. -1.
       -1   -1    0    0    0  501  0.00000000000E+00  0.00000000000E+00 -0.23552645489E+03  0.23552645495E+03  0.50400001928E-02 0.  1.
    10030    2    1    2    0    0  0.00000000000E+00  0.00000000000E+00  0.11979364301E+04  0.16689893400E+04  0.11620988453E+04 0.  0.
        4    1    3    3  502    0  0.29622893132E+03  0.36501723462E+02 -0.11701428026E+03  0.32058994097E+03  0.12699999809E+01 0.  1.
       -4    1    3    3    0  502 -0.29622893132E+03 -0.36501723462E+02  0.13149507104E+04  0.13483993990E+04  0.12699999809E+01 0. -1.
</event>
<event>
 5   0  0.2111533E-03  0.1314376E+04  0.7818609E-02  0.9018242E-01
        2   -1    0    0  501    0  0.00000000000E+00  0.00000000000E+00  0.60243211400E+03  0.60243211400E+03  0.25500000920E-02 0.  1.
       -2   -1    0    0    0  501  0.00000000000E+00  0.00000000000E+00 -0.71692108774E+03  0.71692108775E+03  0.25500000920E-02 0. -1.
    10030    2    1    2    0    0  0.00000000000E+00  0.00000000000E+00 -0.11448897374E+03  0.13193532017E+04  0.13143763334E+04 0.  0.
        5    1    3    3  502    0  0.21948755865E+03  0.15269337613E+03 -0.65983762272E+03  0.71196757922E+03  0.46999998093E+01 0. -1.
       -5    1    3    3    0  502 -0.21948755865E+03 -0.15269337613E+03  0.54534864897E+03  0.60738562253E+03  0.46999998093E+01 0.  1.
</event>
<event>
 5   0  0.1069697E-03  0.8829506E+03  0.7818609E-02  0.9447149E-01
        1   -1    0    0  501    0  0.00000000000E+00  0.00000000000E+00  0.25051440474E+03  0.25051440479E+03  0.50400001928E-02 0. -1.
       -1   -1    0    0    0  501  0.00000000000E+00  0.00000000000E+00 -0.77800084691E+03  0.77800084693E+03  0.50400001928E-02 0.  1.
    10030    2    1    2    0    0  0.00000000000E+00  0.00000000000E+00 -0.52748644217E+03  0.10285152517E+04  0.88295055147E+03 0.  0.
        2    1    3    3  502    0  0.15822490446E+03  0.35174099988E+03 -0.51396778382E+03  0.64258830848E+03  0.25500000920E-02 0.  1.
       -2    1    3    3    0  502 -0.15822490446E+03 -0.35174099988E+03 -0.13518658355E+02  0.38592694324E+03  0.25500000920E-02 0. -1.
</event>
<event>
 5   0  0.1078787E-03  0.1421867E+04  0.7818609E-02  0.8938140E-01
       -1   -1    0    0    0  501  0.00000000000E+00  0.00000000000E+00  0.73377464559E+03  0.73377464561E+03  0.50400001928E-02 0. -1.
        1   -1    0    0  501    0  0.00000000000E+00  0.00000000000E+00 -0.68880353596E+03  0.68880353598E+03  0.50400001928E-02 0.  1.
    10030    2    1    2    0    0  0.00000000000E+00  0.00000000000E+00  0.44971109634E+02  0.14225781816E+04  0.14218671816E+04 0.  0.
        5    1    3    3  502    0 -0.44051326510E+03 -0.46763059696E+03  0.32706210442E+03  0.72091748632E+03  0.46999998093E+01 0. -1.
       -5    1    3    3    0  502  0.44051326510E+03  0.46763059696E+03 -0.28209099478E+03  0.70166069526E+03  0.46999998093E+01 0.  1.
</event>
<event>
 5   0  0.1078018E-03  0.1216208E+04  0.7818609E-02  0.9098787E-01
       -1   -1    0    0    0  501  0.00000000000E+00  0.00000000000E+00  0.45225890140E+03  0.45225890143E+03  0.50400001928E-02 0. -1.
        1   -1    0    0  501    0  0.00000000000E+00  0.00000000000E+00 -0.81765184763E+03  0.81765184765E+03  0.50400001928E-02 0.  1.
    10030    2    1    2    0    0  0.00000000000E+00  0.00000000000E+00 -0.36539294623E+03  0.12699107491E+04  0.12162077559E+04 0.  0.
        4    1    3    3  502    0  0.48829065558E+03  0.23101576656E+03 -0.47429968961E+03  0.71885871852E+03  0.12699999809E+01 0.  1.
       -4    1    3    3    0  502 -0.48829065558E+03 -0.23101576656E+03  0.10890674338E+03  0.55105203056E+03  0.12699999809E+01 0. -1.
</event>
<event>
 5   0  0.1087761E-03  0.1172390E+04  0.7818609E-02  0.9137373E-01
        1   -1    0    0  501    0  0.00000000000E+00  0.00000000000E+00  0.27007960809E+03  0.27007960814E+03  0.50400001928E-02 0. -1.
       -1   -1    0    0    0  501  0.00000000000E+00  0.00000000000E+00 -0.12723077768E+04  0.12723077768E+04  0.50400001928E-02 0.  1.
    10030    2    1    2    0    0  0.00000000000E+00  0.00000000000E+00 -0.10022281687E+04  0.15423873850E+04  0.11723896720E+04 0.  0.
        3    1    3    3  502    0 -0.28074792731E+03 -0.40373267873E+03 -0.92087869702E+03  0.10439526136E+04  0.10100000352E+00 0.  1.
       -3    1    3    3    0  502  0.28074792731E+03  0.40373267873E+03 -0.81349471695E+02  0.49843477137E+03  0.10100000352E+00 0. -1.
</event>
<event>
 5   0  0.1078787E-03  0.1539882E+04  0.7818609E-02  0.8858357E-01
        1   -1    0    0  501    0  0.00000000000E+00  0.00000000000E+00  0.75829190125E+03  0.75829190127E+03  0.50400001928E-02 0.  1.
       -1   -1    0    0    0  501  0.00000000000E+00  0.00000000000E+00 -0.78176912730E+03  0.78176912732E+03  0.50400001928E-02 0. -1.
    10030    2    1    2    0    0  0.00000000000E+00  0.00000000000E+00 -0.23477226047E+02  0.15400610286E+04  0.15398820707E+04 0.  0.
        5    1    3    3  502    0 -0.35095214476E+03 -0.67109366554E+03  0.12703266395E+03  0.76791503667E+03  0.46999998093E+01 0.  1.
       -5    1    3    3    0  502  0.35095214476E+03  0.67109366554E+03 -0.15050989000E+03  0.77214599191E+03  0.46999998093E+01 0. -1.
</event>
<event>
 5   0  0.1077140E-03  0.1598598E+04  0.7818609E-02  0.8821410E-01
       -1   -1    0    0    0  501  0.00000000000E+00  0.00000000000E+00  0.32585496055E+03  0.32585496059E+03  0.50400001928E-02 0. -1.
        1   -1    0    0  501    0  0.00000000000E+00  0.00000000000E+00 -0.19606232580E+04  0.19606232580E+04  0.50400001928E-02 0.  1.
    10030    2    1    2    0    0  0.00000000000E+00  0.00000000000E+00 -0.16347682974E+04  0.22864782186E+04  0.15985979037E+04 0.  0.
        1    1    3    3  502    0  0.25149596651E+03 -0.73856297009E+03 -0.56901623611E+03  0.96566296343E+03  0.50400001928E-02 0. -1.
       -1    1    3    3    0  502 -0.25149596651E+03  0.73856297009E+03 -0.10657520613E+04  0.13208152551E+04  0.50400001928E-02 0.  1.
</event>
<event>
 5   0  0.7468375E-04  0.1430776E+04  0.7818609E-02  0.8931837E-01
        3   -1    0    0  501    0  0.00000000000E+00  0.00000000000E+00  0.40667478247E+03  0.40667479501E+03  0.10100000352E+00 0. -1.
       -3   -1    0    0    0  501  0.00000000000E+00  0.00000000000E+00 -0.12584511139E+04  0.12584511180E+04  0.10100000352E+00 0.  1.
    10030    2    1    2    0    0  0.00000000000E+00  0.00000000000E+00 -0.85177633145E+03  0.16651259130E+04  0.14307764980E+04 0.  0.
        5    1    3    3  502    0 -0.56642659603E+03  0.24380719418E+03 -0.38997410322E+01  0.61669954971E+03  0.46999998093E+01 0. -1.
       -5    1    3    3    0  502  0.56642659603E+03 -0.24380719418E+03 -0.84787659042E+03  0.10484263633E+04  0.46999998093E+01 0.  1.
</event>
<event>
 5   0  0.2094566E-03  0.1557703E+04  0.7818609E-02  0.8846962E-01
       -2   -1    0    0    0  501  0.00000000000E+00  0.00000000000E+00  0.64722643614E+03  0.64722643615E+03  0.25500000920E-02 0.  1.
        2   -1    0    0  501    0  0.00000000000E+00  0.00000000000E+00 -0.93724502796E+03  0.93724502796E+03  0.25500000920E-02 0. -1.
    10030    2    1    2    0    0  0.00000000000E+00  0.00000000000E+00 -0.29001859181E+03  0.15844714641E+04  0.15577031286E+04 0.  0.
        1    1    3    3  502    0 -0.67581639613E+03  0.85791563103E+02 -0.52901734438E+03  0.86252382243E+03  0.50400001928E-02 0. -1.
       -1    1    3    3    0  502  0.67581639613E+03 -0.85791563103E+02  0.23899875257E+03  0.72194764168E+03  0.50400001928E-02 0.  1.
</event>
<event>
 5   0  0.1077140E-03  0.1490958E+04  0.7818609E-02  0.8890488E-01
       -1   -1    0    0    0  501  0.00000000000E+00  0.00000000000E+00  0.59722226442E+03  0.59722226444E+03  0.50400001928E-02 0.  1.
        1   -1    0    0  501    0  0.00000000000E+00  0.00000000000E+00 -0.93053977473E+03  0.93053977474E+03  0.50400001928E-02 0. -1.
    10030    2    1    2    0    0  0.00000000000E+00  0.00000000000E+00 -0.33331751031E+03  0.15277620392E+04  0.14909581770E+04 0.  0.
        1    1    3    3  502    0  0.30550906237E+03  0.62653071289E+03 -0.43749854636E+03  0.82297114134E+03  0.50400001928E-02 0. -1.
       -1    1    3    3    0  502 -0.30550906237E+03 -0.62653071289E+03  0.10418103605E+03  0.70479089785E+03  0.50400001928E-02 0.  1.
</event>
<event>
 5   0  0.1993623E-03  0.1470550E+04  0.7818609E-02  0.8904277E-01
       -2   -1    0    0    0  501  0.00000000000E+00  0.00000000000E+00  0.23224038887E+03  0.23224038888E+03  0.25500000920E-02 0. -1.
        2   -1    0    0  501    0  0.00000000000E+00  0.00000000000E+00 -0.23278864810E+04  0.23278864810E+04  0.25500000920E-02 0.  1.
    10030    2    1    2    0    0  0.00000000000E+00  0.00000000000E+00 -0.20956460921E+04  0.25601268698E+04  0.14705499129E+04 0.  0.
        4    1    3    3  502    0 -0.69073535318E+03  0.21034328186E+03 -0.12894805643E+04  0.14778773166E+04  0.12699999809E+01 0. -1.
       -4    1    3    3    0  502  0.69073535318E+03 -0.21034328186E+03 -0.80616552778E+03  0.10822495532E+04  0.12699999809E+01 0.  1.
</event>
<event>
 5   0  0.2111533E-03  0.1086543E+04  0.7818609E-02  0.9218408E-01
        2   -1    0    0  501    0  0.00000000000E+00  0.00000000000E+00  0.87705650881E+03  0.87705650882E+03  0.25500000920E-02 0. -1.
       -2   -1    0    0    0  501  0.00000000000E+00  0.00000000000E+00 -0.33651657548E+03  0.33651657549E+03  0.25500000920E-02 0.  1.
    10030    2    1    2    0    0  0.00000000000E+00  0.00000000000E+00  0.54053993333E+03  0.12135730843E+04  0.10865432396E+04 0.  0.
        5    1    3    3  502    0 -0.29931129597E+02 -0.20787485595E+03  0.82985747398E+03  0.85603349548E+03  0.46999998093E+01 0. -1.
       -5    1    3    3    0  502  0.29931129597E+02  0.20787485595E+03 -0.28931754065E+03  0.35753958883E+03  0.46999998093E+01 0.  1.
</event>
<event>
 5   0  0.1069697E-03  0.1603327E+04  0.7818609E-02  0.8818506E-01
        1   -1    0    0  501    0  0.00000000000E+00  0.00000000000E+00  0.69051599029E+03  0.69051599031E+03  0.50400001928E-02 0.  1.
       -1   -1    0    0    0  501  0.00000000000E+00  0.00000000000E+00 -0.93070207868E+03  0.93070207869E+03  0.50400001928E-02 0. -1.
    10030    2    1    2    0    0  0.00000000000E+00  0.00000000000E+00 -0.24018608838E+03  0.16212180690E+04  0.16033273746E+04 0.  0.
        2    1    3    3  502    0  0.56643538615E+03 -0.82849713843E+02 -0.68756068305E+03  0.89468028628E+03  0.25500000920E-02 0. -1.
       -2    1    3    3    0  502 -0.56643538615E+03  0.82849713843E+02  0.44737459467E+03  0.72653778273E+03  0.25500000920E-02 0.  1.
</event>
<event>
 5   0  0.1077140E-03  0.1111205E+04  0.7818609E-02  0.9194339E-01
       -1   -1    0    0    0  501  0.00000000000E+00  0.00000000000E+00  0.15858923784E+03  0.15858923792E+03  0.50400001928E-02 0.  1.
        1   -1    0    0  501    0  0.00000000000E+00  0.00000000000E+00 -0.19465017001E+04  0.19465017001E+04  0.50400001928E-02 0. -1.
    10030    2    1    2    0    0  0.00000000000E+00  0.00000000000E+00 -0.17879124622E+04  0.21050909380E+04  0.11112051497E+04 0.  0.
        1    1    3    3  502    0  0.48048520620E+03 -0.12782943457E+03 -0.42420148540E+03  0.65356965808E+03  0.50400001928E-02 0.  1.
       -1    1    3    3    0  502 -0.48048520620E+03  0.12782943457E+03 -0.13637109768E+04  0.14515212799E+04  0.50400001928E-02 0. -1.
</event>
<event>
 5   0  0.1961098E-03  0.1485128E+04  0.7818609E-02  0.8894403E-01
        2   -1    0    0  501    0  0.00000000000E+00  0.00000000000E+00  0.10482411906E+04  0.10482411906E+04  0.25500000920E-02 0.  1.
       -2   -1    0    0    0  501  0.00000000000E+00  0.00000000000E+00 -0.52602502822E+03  0.52602502822E+03  0.25500000920E-02 0. -1.
    10030    2    1    2    0    0  0.00000000000E+00  0.00000000000E+00  0.52221616234E+03  0.15742662188E+04  0.14851277411E+04 0.  0.
        2    1    3    3  502    0 -0.27009247354E+03 -0.69119401922E+03  0.28919333798E+03  0.79644956099E+03  0.25500000920E-02 0.  1.
       -2    1    3    3    0  502  0.27009247354E+03  0.69119401922E+03  0.23302282437E+03  0.77781665780E+03  0.25500000920E-02 0. -1.
</event>
<event>
 5   0  0.1087761E-03  0.1536420E+04  0.7818609E-02  0.8860589E-01
       -1   -1    0    0    0  501  0.00000000000E+00  0.00000000000E+00  0.80866453648E+03  0.80866453650E+03  0.50400001928E-02 0.  1.
        1   -1    0    0  501    0  0.00000000000E+00  0.00000000000E+00 -0.72977917087E+03  0.72977917089E+03  0.50400001928E-02 0. -1.
    10030    2    1    2    0    0  0.00000000000E+00  0.00000000000E+00  0.78885365615E+02  0.15384437074E+04  0.15364199100E+04 0.  0.
        3    1    3    3  502    0  0.52705424344E+03 -0.10634478645E+03  0.58884668435E+03  0.79739313830E+03  0.10100000352E+00 0.  1.
       -3    1    3    3    0  502 -0.52705424344E+03  0.10634478645E+03 -0.50996131874E+03  0.74105056909E+03  0.10100000352E+00 0. -1.
</event>
<event>
 5   0  0.1087761E-03  0.1548988E+04  0.7818609E-02  0.8852515E-01
       -1   -1    0    0    0  501  0.00000000000E+00  0.00000000000E+00  0.48095936892E+03  0.48095936895E+03  0.50400001928E-02 0.  1.
        1   -1    0    0  501    0  0.00000000000E+00  0.00000000000E+00 -0.12471755672E+04  0.12471755672E+04  0.50400001928E-02 0. -1.
    10030    2    1    2    0    0  0.00000000000E+00  0.00000000000E+00 -0.76621619828E+03  0.17281349362E+04  0.15489877647E+04 0.  0.
        3    1    3    3  502    0 -0.33751510295E+03  0.50108408313E+03 -0.92375638432E+03  0.11037787690E+04  0.10100000352E+00 0. -1.
       -3    1    3    3    0  502  0.33751510295E+03 -0.50108408313E+03  0.15754018603E+03  0.62435616718E+03  0.10100000352E+00 0.  1.
</event>
<event>
 5   0  0.1961098E-03  0.1493574E+04  0.7818609E-02  0.8888737E-01
       -2   -1    0    0    0  501  0.00000000000E+00  0.00000000000E+00  0.77342341709E+03  0.77342341709E+03  0.25500000920E-02 0.  1.
        2   -1    0    0  501    0  0.00000000000E+00  0.00000000000E+00 -0.72106811813E+03  0.72106811813E+03  0.25500000920E-02 0. -1.
    10030    2    1    2    0    0  0.00000000000E+00  0.00000000000E+00  0.52355298961E+02  0.14944915352E+04  0.14935741935E+04 0.  0.
        2    1    3    3  502    0  0.65971244088E+03 -0.34993758158E+03  0.29941903639E+02  0.74737763765E+03  0.25500000920E-02 0.  1.
       -2    1    3    3    0  502 -0.65971244088E+03  0.34993758158E+03  0.22413395322E+02  0.74711389758E+03  0.25500000920E-02 0. -1.
</event>
<event>
 5   0  0.1078787E-03  0.1490184E+04  0.7818609E-02  0.8891007E-01
       -1   -1    0    0    0  501  0.00000000000E+00  0.00000000000E+00  0.46963819049E+03  0.46963819052E+03  0.50400001928E-02 0.  1.
        1   -1    0    0  501    0  0.00000000000E+00  0.00000000000E+00 -0.11821052634E+04  0.11821052634E+04  0.50400001928E-02 0. -1.
    10030    2    1    2    0    0  0.00000000000E+00  0.00000000000E+00 -0.71246707292E+03  0.16517434539E+04  0.14901835819E+04 0.  0.
        5    1    3    3  502    0 -0.44871125954E+02 -0.42469649976E+03  0.32049887586E+03  0.53396830831E+03  0.46999998093E+01 0.  1.
       -5    1    3    3    0  502  0.44871125954E+02  0.42469649976E+03 -0.10329659488E+04  0.11177751456E+04  0.46999998093E+01 0. -1.
</event>
<event>
 5   0  0.2150197E-03  0.1506871E+04  0.7818609E-02  0.8879897E-01
       -2   -1    0    0    0  501  0.00000000000E+00  0.00000000000E+00  0.52439564374E+03  0.52439564374E+03  0.25500000920E-02 0.  1.
        2   -1    0    0  501    0  0.00000000000E+00  0.00000000000E+00 -0.10825124700E+04  0.10825124700E+04  0.25500000920E-02 0. -1.
    10030    2    1    2    0    0  0.00000000000E+00  0.00000000000E+00 -0.55811682622E+03  0.16069081137E+04  0.15068706959E+04 0.  0.
        3    1    3    3  502    0  0.29859495472E+03 -0.40341369683E+03  0.32017476598E+03  0.59532633802E+03  0.10100000352E+00 0.  1.
       -3    1    3    3    0  502 -0.29859495472E+03  0.40341369683E+03 -0.87829159220E+03  0.10115817757E+04  0.10100000352E+00 0. -1.
</event>
<event>
 5   0  0.2150197E-03  0.1487850E+04  0.7818609E-02  0.8892573E-01
        2   -1    0    0  501    0  0.00000000000E+00  0.00000000000E+00  0.97574727910E+03  0.97574727910E+03  0.25500000920E-02 0.  1.
       -2   -1    0    0    0  501  0.00000000000E+00  0.00000000000E+00 -0.56718028197E+03  0.56718028197E+03  0.25500000920E-02 0. -1.
    10030    2    1    2    0    0  0.00000000000E+00  0.00000000000E+00  0.40856699713E+03  0.15429275611E+04  0.14878502840E+04 0.  0.
        3    1    3    3  502    0  0.17176006891E+03 -0.47864979373E+03 -0.35878717042E+03  0.62236274806E+03  0.10100000352E+00 0. -1.
       -3    1    3    3    0  502 -0.17176006891E+03  0.47864979373E+03  0.76735416755E+03  0.92056481302E+03  0.10100000352E+00 0.  1.
</event>
<event>
 5   0  0.1961098E-03  0.1519449E+04  0.7818609E-02  0.8871622E-01
        2   -1    0    0  501    0  0.00000000000E+00  0.00000000000E+00  0.13748679252E+04  0.13748679252E+04  0.25500000920E-02 0.  1.
       -2   -1    0    0    0  501  0.00000000000E+00  0.00000000000E+00 -0.41980837947E+03  0.41980837948E+03  0.25500000920E-02 0. -1.
    10030    2    1    2    0    0  0.00000000000E+00  0.00000000000E+00  0.95505954574E+03  0.17946763047E+04  0.15194486838E+04 0.  0.
        2    1    3    3  502    0  0.28555391845E+03  0.61696314218E+03  0.87806658226E+03  0.11104888482E+04  0.25500000920E-02 0.  1.
       -2    1    3    3    0  502 -0.28555391845E+03 -0.61696314218E+03  0.76992963475E+02  0.68418745646E+03  0.25500000920E-02 0. -1.
</event>
<event>
 5   0  0.1078018E-03  0.1424987E+04  0.7818609E-02  0.8935928E-01
       -1   -1    0    0    0  501  0.00000000000E+00  0.00000000000E+00  0.13779521864E+04  0.13779521864E+04  0.50400001928E-02 0.  1.
        1   -1    0    0  501    0  0.00000000000E+00  0.00000000000E+00 -0.36840690132E+03  0.36840690136E+03  0.50400001928E-02 0. -1.
    10030    2    1    2    0    0  0.00000000000E+00  0.00000000000E+00  0.10095452851E+04  0.17463590878E+04  0.14249871511E+04 0.  0.
        4    1    3    3  502    0  0.14485832872E+03 -0.46107143440E+03 -0.13681657616E+03  0.50228596579E+03  0.12699999809E+01 0. -1.
       -4    1    3    3    0  502 -0.14485832872E+03  0.46107143440E+03  0.11463618612E+04  0.12440731220E+04  0.12699999809E+01 0.  1.
</event>
<event>
 5   0  0.2094566E-03  0.1450588E+04  0.7818609E-02  0.8917993E-01
       -2   -1    0    0    0  501  0.00000000000E+00  0.00000000000E+00  0.66281287937E+03  0.66281287938E+03  0.25500000920E-02 0.  1.
        2   -1    0    0  501    0  0.00000000000E+00  0.00000000000E+00 -0.79366540823E+03  0.79366540824E+03  0.25500000920E-02 0. -1.
    10030    2    1    2    0    0  0.00000000000E+00  0.00000000000E+00 -0.13085252886E+03  0.14564782876E+04  0.14505883696E+04 0.  0.
        1    1    3    3  502    0  0.75138693444E+02 -0.72132560256E+03 -0.55629273832E+02  0.72735896522E+03  0.50400001928E-02 0. -1.
       -1    1    3    3    0  502 -0.75138693444E+02  0.72132560256E+03 -0.75223255032E+02  0.72911932239E+03  0.50400001928E-02 0.  1.
</event>
<event>
 5   0  0.1961098E-03  0.1552284E+04  0.7818609E-02  0.8850410E-01
       -2   -1    0    0    0  501  0.00000000000E+00  0.00000000000E+00  0.34674975986E+03  0.34674975987E+03  0.25500000920E-02 0.  1.
        2   -1    0    0  501    0  0.00000000000E+00  0.00000000000E+00 -0.17372665335E+04  0.17372665335E+04  0.25500000920E-02 0. -1.
    10030    2    1    2    0    0  0.00000000000E+00  0.00000000000E+00 -0.13905167736E+04  0.20840162934E+04  0.15522844499E+04 0.  0.
        2    1    3    3  502    0 -0.44952070125E+03  0.21744016149E+03  0.10245425958E+03  0.50975088032E+03  0.25500000920E-02 0.  1.
       -2    1    3    3    0  502  0.44952070125E+03 -0.21744016149E+03 -0.14929710332E+04  0.15742654130E+04  0.25500000920E-02 0. -1.
</event>
<event>
 5   0  0.2094566E-03  0.1274128E+04  0.7818609E-02  0.9050337E-01
        2   -1    0    0  501    0  0.00000000000E+00  0.00000000000E+00  0.10507857240E+04  0.10507857240E+04  0.25500000920E-02 0.  1.
       -2   -1    0    0    0  501  0.00000000000E+00  0.00000000000E+00 -0.38623555942E+03  0.38623555943E+03  0.25500000920E-02 0. -1.
    10030    2    1    2    0    0  0.00000000000E+00  0.00000000000E+00  0.66455016453E+03  0.14370212834E+04  0.12741284267E+04 0.  0.
        1    1    3    3  502    0  0.37564188170E+03  0.20519109164E+03 -0.19989711485E+03  0.47240773059E+03  0.50400001928E-02 0. -1.
       -1    1    3    3    0  502 -0.37564188170E+03 -0.20519109164E+03  0.86444727938E+03  0.96461355279E+03  0.50400001928E-02 0.  1.
</event>
<event>
 5   0  0.2150197E-03  0.1486692E+04  0.7818609E-02  0.8893351E-01
       -2   -1    0    0    0  501  0.00000000000E+00  0.00000000000E+00  0.30174525491E+03  0.30174525492E+03  0.25500000920E-02 0.  1.
        2   -1    0    0  501    0  0.00000000000E+00  0.00000000000E+00 -0.18312235157E+04  0.18312235157E+04  0.25500000920E-02 0. -1.
    10030    2    1    2    0    0  0.00000000000E+00  0.00000000000E+00 -0.15294782608E+04  0.21329687706E+04  0.14866916379E+04 0.  0.
        3    1    3    3  502    0 -0.14537736496E+02  0.20304029781E+03 -0.17904564934E+04  0.18019908915E+04  0.10100000352E+00 0. -1.
       -3    1    3    3    0  502  0.14537736496E+02 -0.20304029781E+03  0.26097823262E+03  0.33097787905E+03  0.10100000352E+00 0.  1.
</event>
<event>
 5   0  0.1069697E-03  0.1638089E+04  0.7818609E-02  0.8797484E-01
        1   -1    0    0  501    0  0.00000000000E+00  0.00000000000E+00  0.43755319013E+03  0.43755319016E+03  0.50400001928E-02 0. -1.
       -1   -1    0    0    0  501  0.00000000000E+00  0.00000000000E+00 -0.15331476465E+04  0.15331476465E+04  0.50400001928E-02 0.  1.
    10030    2    1    2    0    0  0.00000000000E+00  0.00000000000E+00 -0.10955944564E+04  0.19707008367E+04  0.16380886956E+04 0.  0.
        2    1    3    3  502    0  0.78906204191E+03 -0.16931951312E+03 -0.71599035233E+03  0.10788559626E+04  0.25500000920E-02 0.  1.
       -2    1    3    3    0  502 -0.78906204191E+03  0.16931951312E+03 -0.37960410406E+03  0.89184487403E+03  0.25500000920E-02 0. -1.
</event>
<event>
 5   0  0.2150197E-03  0.1507178E+04  0.7818609E-02  0.8879694E-01
        2   -1    0    0  501    0  0.00000000000E+00  0.00000000000E+00  0.11543952744E+04  0.11543952744E+04  0.25500000920E-02 0. -1.
       -2   -1    0    0    0  501  0.00000000000E+00  0.00000000000E+00 -0.49194259277E+03  0.49194259278E+03  0.25500000920E-02 0.  1.
    10030    2    1    2    0    0  0.00000000000E+00  0.00000000000E+00  0.66245268161E+03  0.16463378672E+04  0.15071777657E+04 0.  0.
        3    1    3    3  502    0 -0.62372020819E+02 -0.16449510029E+03 -0.46919805166E+03  0.50109453088E+03  0.10100000352E+00 0.  1.
       -3    1    3    3    0  502  0.62372020819E+02  0.16449510029E+03  0.11316507333E+04  0.11452433363E+04  0.10100000352E+00 0. -1.
</event>
<event>
 5   0  0.1993623E-03  0.1486242E+04  0.7818609E-02  0.8893653E-01
        2   -1    0    0  501    0  0.00000000000E+00  0.00000000000E+00  0.97044889076E+03  0.97044889076E+03  0.25500000920E-02 0. -1.
       -2   -1    0    0    0  501  0.00000000000E+00  0.00000000000E+00 -0.56904503725E+03  0.56904503726E+03  0.25500000920E-02 0.  1.
    10030    2    1    2    0    0  0.00000000000E+00  0.00000000000E+00  0.40140385351E+03  0.15394939280E+04  0.14862424098E+04 0.  0.
        4    1    3    3  502    0 -0.42586258014E+03 -0.30208646032E+03  0.74843189325E+03  0.91256072588E+03  0.12699999809E+01 0. -1.
       -4    1    3    3    0  502  0.42586258014E+03  0.30208646032E+03 -0.34702803975E+03  0.62693320214E+03  0.12699999809E+01 0.  1.
</event>
<event>
 5   0  0.1077140E-03  0.7606357E+03  0.7818609E-02  0.9618811E-01
        1   -1    0    0  501    0  0.00000000000E+00  0.00000000000E+00  0.15945618598E+04  0.15945618598E+04  0.50400001928E-02 0. -1.
       -1   -1    0    0    0  501  0.00000000000E+00  0.00000000000E+00 -0.90709349254E+02  0.90709349394E+02  0.50400001928E-02 0.  1.
    10030    2    1    2    0    0  0.00000000000E+00  0.00000000000E+00  0.15038525106E+04  0.16852712092E+04  0.76063570459E+03 0.  0.
        1    1    3    3  502    0  0.27620325697E+02  0.17242187682E+03  0.33603063377E+01  0.17465244826E+03  0.50400001928E-02 0.  1.
       -1    1    3    3    0  502 -0.27620325697E+02 -0.17242187682E+03  0.15004922042E+04  0.15106187610E+04  0.50400001928E-02 0. -1.
</event>
<event>
 5   0  0.1069697E-03  0.1531087E+04  0.7818609E-02  0.8864040E-01
       -1   -1    0    0    0  501  0.00000000000E+00  0.00000000000E+00  0.45788622713E+03  0.45788622716E+03  0.50400001928E-02 0.  1.
        1   -1    0    0  501    0  0.00000000000E+00  0.00000000000E+00 -0.12799173683E+04  0.12799173683E+04  0.50400001928E-02 0. -1.
    10030    2    1    2    0    0  0.00000000000E+00  0.00000000000E+00 -0.82203114116E+03  0.17378035955E+04  0.15310865878E+04 0.  0.
        2    1    3    3  502    0 -0.13539662955E+03 -0.61965094726E+03 -0.89756041475E+03  0.10990515192E+04  0.25500000920E-02 0. -1.
       -2    1    3    3    0  502  0.13539662955E+03  0.61965094726E+03  0.75529273591E+02  0.63875207625E+03  0.25500000920E-02 0.  1.
</event>
<event>
 5   0  0.1078787E-03  0.1502167E+04  0.7818609E-02  0.8883013E-01
       -1   -1    0    0    0  501  0.00000000000E+00  0.00000000000E+00  0.41605453718E+03  0.41605453721E+03  0.50400001928E-02 0.  1.
        1   -1    0    0  501    0  0.00000000000E+00  0.00000000000E+00 -0.13558945578E+04  0.13558945578E+04  0.50400001928E-02 0. -1.
    10030    2    1    2    0    0  0.00000000000E+00  0.00000000000E+00 -0.93984002065E+03  0.17719490951E+04  0.15021665457E+04 0.  0.
        5    1    3    3  502    0 -0.73784207560E+03  0.90664554130E+01 -0.30473086155E+03  0.79835838890E+03  0.46999998093E+01 0.  1.
       -5    1    3    3    0  502  0.73784207560E+03 -0.90664554130E+01 -0.63510915910E+03  0.97359070616E+03  0.46999998093E+01 0. -1.
</event>
<event>
 5   0  0.7468375E-04  0.1369466E+04  0.7818609E-02  0.8976222E-01
        3   -1    0    0  501    0  0.00000000000E+00  0.00000000000E+00  0.51828415431E+03  0.51828416415E+03  0.10100000352E+00 0. -1.
       -3   -1    0    0    0  501  0.00000000000E+00  0.00000000000E+00 -0.90463750302E+03  0.90463750866E+03  0.10100000352E+00 0.  1.
    10030    2    1    2    0    0  0.00000000000E+00  0.00000000000E+00 -0.38635334871E+03  0.14229216728E+04  0.13694660189E+04 0.  0.
        3    1    3    3  502    0 -0.46418527658E+03 -0.49784980569E+03 -0.11586190829E+03  0.69046824113E+03  0.10100000352E+00 0. -1.
       -3    1    3    3    0  502  0.46418527658E+03  0.49784980569E+03 -0.27049144042E+03  0.73245343167E+03  0.10100000352E+00 0.  1.
</event>
<event>
 5   0  0.1087761E-03  0.1452985E+04  0.7818609E-02  0.8916334E-01
        1   -1    0    0  501    0  0.00000000000E+00  0.00000000000E+00  0.11509711698E+04  0.11509711698E+04  0.50400001928E-02 0. -1.
       -1   -1    0    0    0  501  0.00000000000E+00  0.00000000000E+00 -0.45856164290E+03  0.45856164293E+03  0.50400001928E-02 0.  1.
    10030    2    1    2    0    0  0.00000000000E+00  0.00000000000E+00  0.69240952686E+03  0.16095328127E+04  0.14529848321E+04 0.  0.
        3    1    3    3  502    0  0.21894454701E+03  0.49042848608E+03  0.88813242837E+03  0.10378998194E+04  0.10100000352E+00 0. -1.
       -3    1    3    3    0  502 -0.21894454701E+03 -0.49042848608E+03 -0.19572290151E+03  0.57163299328E+03  0.10100000352E+00 0.  1.
</event>
<event>
 5   0  0.1993623E-03  0.1503194E+04  0.7818609E-02  0.8882332E-01
       -2   -1    0    0    0  501  0.00000000000E+00  0.00000000000E+00  0.59531665231E+03  0.59531665232E+03  0.25500000920E-02 0.  1.
        2   -1    0    0  501    0  0.00000000000E+00  0.00000000000E+00 -0.94890385091E+03  0.94890385092E+03  0.25500000920E-02 0. -1.
    10030    2    1    2    0    0  0.00000000000E+00  0.00000000000E+00 -0.35358719860E+03  0.15442205032E+04  0.15031942840E+04 0.  0.
        4    1    3    3  502    0 -0.49386929705E+03  0.61695781887E+02  0.40176775776E+03  0.63963442383E+03  0.12699999809E+01 0.  1.
       -4    1    3    3    0  502  0.49386929705E+03 -0.61695781887E+02 -0.75535495636E+03  0.90458607941E+03  0.12699999809E+01 0. -1.
</event>
<event>
 5   0  0.1077140E-03  0.1515797E+04  0.7818609E-02  0.8874015E-01
       -1   -1    0    0    0  501  0.00000000000E+00  0.00000000000E+00  0.56805201218E+03  0.56805201220E+03  0.50400001928E-02 0.  1.
        1   -1    0    0  501    0  0.00000000000E+00  0.00000000000E+00 -0.10111930278E+04  0.10111930279E+04  0.50400001928E-02 0. -1.
    10030    2    1    2    0    0  0.00000000000E+00  0.00000000000E+00 -0.44314101566E+03  0.15792450401E+04  0.15157971292E+04 0.  0.
        1    1    3    3  502    0  0.29821238841E+03 -0.24743670742E+03 -0.90018286394E+03  0.98004323442E+03  0.50400001928E-02 0. -1.
       -1    1    3    3    0  502 -0.29821238841E+03  0.24743670742E+03  0.45704184827E+03  0.59920180564E+03  0.50400001928E-02 0.  1.
</event>
<event>
 5   0  0.2111533E-03  0.1184923E+04  0.7818609E-02  0.9126157E-01
       -2   -1    0    0    0  501  0.00000000000E+00  0.00000000000E+00  0.51242603691E+03  0.51242603692E+03  0.25500000920E-02 0. -1.
        2   -1    0    0  501    0  0.00000000000E+00  0.00000000000E+00 -0.68499741359E+03  0.68499741360E+03  0.25500000920E-02 0.  1.
    10030    2    1    2    0    0  0.00000000000E+00  0.00000000000E+00 -0.17257137668E+03  0.11974234505E+04  0.11849227991E+04 0.  0.
        5    1    3    3  502    0  0.57246996497E+03  0.14066455376E+03 -0.26671453315E+02  0.59012018598E+03  0.46999998093E+01 0. -1.
       -5    1    3    3    0  502 -0.57246996497E+03 -0.14066455376E+03 -0.14589992337E+03  0.60730326454E+03  0.46999998093E+01 0.  1.
</event>
<event>
 5   0  0.2111533E-03  0.1530749E+04  0.7818609E-02  0.8864259E-01
       -2   -1    0    0    0  501  0.00000000000E+00  0.00000000000E+00  0.11641851367E+04  0.11641851367E+04  0.25500000920E-02 0.  1.
        2   -1    0    0  501    0  0.00000000000E+00  0.00000000000E+00 -0.50318285506E+03  0.50318285507E+03  0.25500000920E-02 0. -1.
    10030    2    1    2    0    0  0.00000000000E+00  0.00000000000E+00  0.66100228163E+03  0.16673679918E+04  0.15307488375E+04 0.  0.
        5    1    3    3  502    0  0.42521164551E+03  0.46958886003E+03 -0.13731522427E+03  0.64822542511E+03  0.46999998093E+01 0.  1.
       -5    1    3    3    0  502 -0.42521164551E+03 -0.46958886003E+03  0.79831750590E+03  0.10191425667E+04  0.46999998093E+01 0. -1.
</event>
<event>
 5   0  0.2111533E-03  0.1486222E+04  0.7818609E-02  0.8893667E-01
       -2   -1    0    0    0  501  0.00000000000E+00  0.00000000000E+00  0.85941883844E+03  0.85941883845E+03  0.25500000920E-02 0.  1.
        2   -1    0    0  501    0  0.00000000000E+00  0.00000000000E+00 -0.64254385960E+03  0.64254385960E+03  0.25500000920E-02 0. -1.
    10030    2    1    2    0    0  0.00000000000E+00  0.00000000000E+00  0.21687497884E+03  0.15019626980E+04  0.14862224564E+04 0.  0.
        5    1    3    3  502    0 -0.43458666907E+03 -0.31440282412E+03 -0.41128282472E+03  0.67593665432E+03  0.46999998093E+01 0. -1.
       -5    1    3    3    0  502  0.43458666907E+03  0.31440282412E+03  0.62815780356E+03  0.82602604373E+03  0.46999998093E+01 0.  1.
</event>
<event>
 5   0  0.1961098E-03  0.1498798E+04  0.7818609E-02  0.8885253E-01
       -2   -1    0    0    0  501  0.00000000000E+00  0.00000000000E+00  0.28643647966E+03  0.28643647967E+03  0.25500000920E-02 0.  1.
        2   -1    0    0  501    0  0.00000000000E+00  0.00000000000E+00 -0.19606396545E+04  0.19606396545E+04  0.25500000920E-02 0. -1.
    10030    2    1    2    0    0  0.00000000000E+00  0.00000000000E+00 -0.16742031749E+04  0.22470761342E+04  0.14987978123E+04 0.  0.
        2    1    3    3  502    0 -0.36572952109E+03 -0.23112772419E+03  0.80289700890E+02  0.44002788953E+03  0.25500000920E-02 0.  1.
       -2    1    3    3    0  502  0.36572952109E+03  0.23112772419E+03 -0.17544928758E+04  0.18070482447E+04  0.25500000920E-02 0. -1.
</event>
<event>
 5   0  0.1078018E-03  0.9370909E+03  0.7818609E-02  0.9380368E-01
       -1   -1    0    0    0  501  0.00000000000E+00  0.00000000000E+00  0.28681572589E+03  0.28681572593E+03  0.50400001928E-02 0.  1.
        1   -1    0    0  501    0  0.00000000000E+00  0.00000000000E+00 -0.76542116276E+03  0.76542116277E+03  0.50400001928E-02 0. -1.
    10030    2    1    2    0    0  0.00000000000E+00  0.00000000000E+00 -0.47860543687E+03  0.10522368887E+04  0.93709087380E+03 0.  0.
        4    1    3    3  502    0  0.25745762077E+03  0.24378503480E+03  0.10463046182E+03  0.36968191209E+03  0.12699999809E+01 0.  1.
       -4    1    3    3    0  502 -0.25745762077E+03 -0.24378503480E+03 -0.58323589869E+03  0.68255497662E+03  0.12699999809E+01 0. -1.
</event>
<event>
 5   0  0.2094566E-03  0.1448577E+04  0.7818609E-02  0.8919388E-01
       -2   -1    0    0    0  501  0.00000000000E+00  0.00000000000E+00  0.44732953641E+03  0.44732953642E+03  0.25500000920E-02 0. -1.
        2   -1    0    0  501    0  0.00000000000E+00  0.00000000000E+00 -0.11727227707E+04  0.11727227707E+04  0.25500000920E-02 0.  1.
    10030    2    1    2    0    0  0.00000000000E+00  0.00000000000E+00 -0.72539323427E+03  0.16200523071E+04  0.14485765887E+04 0.  0.
        1    1    3    3  502    0  0.42321697805E+03  0.46551287920E+03 -0.76403395266E+03  0.98972861536E+03  0.50400001928E-02 0.  1.
       -1    1    3    3    0  502 -0.42321697805E+03 -0.46551287920E+03  0.38640718397E+02  0.63032369173E+03  0.50400001928E-02 0. -1.
</event>
<event>
 5   0  0.2111533E-03  0.1485797E+04  0.7818609E-02  0.8893953E-01
        2   -1    0    0  501    0  0.00000000000E+00  0.00000000000E+00  0.53592375162E+03  0.53592375163E+03  0.25500000920E-02 0. -1.
       -2   -1    0    0    0  501  0.00000000000E+00  0.00000000000E+00 -0.10298079067E+04  0.10298079067E+04  0.25500000920E-02 0.  1.
    10030    2    1    2    0    0  0.00000000000E+00  0.00000000000E+00 -0.49388415508E+03  0.15657316583E+04  0.14857974516E+04 0.  0.
        5    1    3    3  502    0 -0.16878959516E+03  0.60769246259E+03  0.16672782912E+03  0.65238049904E+03  0.46999998093E+01 0. -1.
       -5    1    3    3    0  502  0.16878959516E+03 -0.60769246259E+03 -0.66061198420E+03  0.91335115930E+03  0.46999998093E+01 0.  1.
</event>
<event>
 5   0  0.1993623E-03  0.1459855E+04  0.7818609E-02  0.8911597E-01
        2   -1    0    0  501    0  0.00000000000E+00  0.00000000000E+00  0.19996718872E+04  0.19996718872E+04  0.25500000920E-02 0.  1.
       -2   -1    0    0    0  501  0.00000000000E+00  0.00000000000E+00 -0.26644082484E+03  0.26644082485E+03  0.25500000920E-02 0. -1.
    10030    2    1    2    0    0  0.00000000000E+00  0.00000000000E+00  0.17332310623E+04  0.22661127120E+04  0.14598550983E+04 0.  0.
        4    1    3    3  502    0 -0.39947038055E+03  0.20574470301E+03  0.17595310932E+04  0.18160007567E+04  0.12699999809E+01 0. -1.
       -4    1    3    3    0  502  0.39947038055E+03 -0.20574470301E+03 -0.26300030851E+02  0.45011195527E+03  0.12699999809E+01 0.  1.
</event>
<event>
 5   0  0.2111533E-03  0.1494826E+04  0.7818609E-02  0.8887901E-01
       -2   -1    0    0    0  501  0.00000000000E+00  0.00000000000E+00  0.45410541403E+03  0.45410541403E+03  0.25500000920E-02 0.  1.
        2   -1    0    0  501    0  0.00000000000E+00  0.00000000000E+00 -0.12301678503E+04  0.12301678503E+04  0.25500000920E-02 0. -1.
    10030    2    1    2    0    0  0.00000000000E+00  0.00000000000E+00 -0.77606243628E+03  0.16842732643E+04  0.14948255831E+04 0.  0.
        5    1    3    3  502    0 -0.47619263008E+03  0.28363993383E+02  0.26024811056E+03  0.54342902583E+03  0.46999998093E+01 0.  1.
       -5    1    3    3    0  502  0.47619263008E+03 -0.28363993383E+02 -0.10363105468E+04  0.11408442385E+04  0.46999998093E+01 0. -1.
</event>
<event>
 5   0  0.2111533E-03  0.1463839E+04  0.7818609E-02  0.8908862E-01
        2   -1    0    0  501    0  0.00000000000E+00  0.00000000000E+00  0.15125381094E+04  0.15125381094E+04  0.25500000920E-02 0.  1.
       -2   -1    0    0    0  501  0.00000000000E+00  0.00000000000E+00 -0.35417677845E+03  0.35417677846E+03  0.25500000920E-02 0. -1.
    10030    2    1    2    0    0  0.00000000000E+00  0.00000000000E+00  0.11583613309E+04  0.18667148878E+04  0.14638386180E+04 0.  0.
        5    1    3    3  502    0 -0.19762121520E+03  0.56404864469E+03  0.11179192352E+04  0.12676634114E+04  0.46999998093E+01 0.  1.
       -5    1    3    3    0  502  0.19762121520E+03 -0.56404864469E+03  0.40442095721E+02  0.59905147640E+03  0.46999998093E+01 0. -1.
</event>
<event>
 5   0  0.1078018E-03  0.1559963E+04  0.7818609E-02  0.8845529E-01
       -1   -1    0    0    0  501  0.00000000000E+00  0.00000000000E+00  0.35825397791E+03  0.35825397795E+03  0.50400001928E-02 0.  1.
        1   -1    0    0  501    0  0.00000000000E+00  0.00000000000E+00 -0.16981551777E+04  0.16981551777E+04  0.50400001928E-02 0. -1.
    10030    2    1    2    0    0  0.00000000000E+00  0.00000000000E+00 -0.13399011997E+04  0.20564091556E+04  0.15599626246E+04 0.  0.
        4    1    3    3  502    0 -0.20321234262E+03  0.56752525914E+03 -0.17468382257E+02  0.60306461779E+03  0.12699999809E+01 0.  1.
       -4    1    3    3    0  502  0.20321234262E+03 -0.56752525914E+03 -0.13224328175E+04  0.14533445378E+04  0.12699999809E+01 0. -1.
</event>
<event>
 5   0  0.1087761E-03  0.1379758E+04  0.7818609E-02  0.8968602E-01
        1   -1    0    0  501    0  0.00000000000E+00  0.00000000000E+00  0.75188589229E+03  0.75188589231E+03  0.50400001928E-02 0. -1.
       -1   -1    0    0    0  501  0.00000000000E+00  0.00000000000E+00 -0.63298601682E+03  0.63298601684E+03  0.50400001928E-02 0.  1.
    10030    2    1    2    0    0  0.00000000000E+00  0.00000000000E+00  0.11889987547E+03  0.13848719092E+04  0.13797583210E+04 0.  0.
        3    1    3    3  502    0  0.63186765073E+03 -0.25952433231E+03 -0.37466915414E+02  0.68411503934E+03  0.10100000352E+00 0.  1.
       -3    1    3    3    0  502 -0.63186765073E+03  0.25952433231E+03  0.15636679088E+03  0.70075686981E+03  0.10100000352E+00 0. -1.
</event>
<event>
 5   0  0.1078787E-03  0.1481524E+04  0.7818609E-02  0.8896833E-01
       -1   -1    0    0    0  501  0.00000000000E+00  0.00000000000E+00  0.60515991395E+03  0.60515991397E+03  0.50400001928E-02 0. -1.
        1   -1    0    0  501    0  0.00000000000E+00  0.00000000000E+00 -0.90674992853E+03  0.90674992855E+03  0.50400001928E-02 0.  1.
    10030    2    1    2    0    0  0.00000000000E+00  0.00000000000E+00 -0.30159001458E+03  0.15119098425E+04  0.14815244969E+04 0.  0.
        5    1    3    3  502    0  0.63061928505E+03 -0.28264693494E+03  0.12138971875E+03  0.70166054921E+03  0.46999998093E+01 0. -1.
       -5    1    3    3    0  502 -0.63061928505E+03  0.28264693494E+03 -0.42297973333E+03  0.81024929331E+03  0.46999998093E+01 0.  1.
</event>
<event>
 5   0  0.2094566E-03  0.1473652E+04  0.7818609E-02  0.8902165E-01
       -2   -1    0    0    0  501  0.00000000000E+00  0.00000000000E+00  0.86352576894E+03  0.86352576894E+03  0.25500000920E-02 0.  1.
        2   -1    0    0  501    0  0.00000000000E+00  0.00000000000E+00 -0.62871642351E+03  0.62871642352E+03  0.25500000920E-02 0. -1.
    10030    2    1    2    0    0  0.00000000000E+00  0.00000000000E+00  0.23480934542E+03  0.14922421925E+04  0.14736523784E+04 0.  0.
        1    1    3    3  502    0  0.18762723862E+03 -0.48879115142E+03  0.64239643144E+03  0.82873032135E+03  0.50400001928E-02 0.  1.
       -1    1    3    3    0  502 -0.18762723862E+03  0.48879115142E+03 -0.40758708601E+03  0.66351187110E+03  0.50400001928E-02 0. -1.
</event>
<event>
 5   0  0.2111533E-03  0.1483718E+04  0.7818609E-02  0.8895353E-01
       -2   -1    0    0    0  501  0.00000000000E+00  0.00000000000E+00  0.33958023822E+03  0.33958023823E+03  0.25500000920E-02 0. -1.
        2   -1    0    0  501    0  0.00000000000E+00  0.00000000000E+00 -0.16206917449E+04  0.16206917449E+04  0.25500000920E-02 0.  1.
    10030    2    1    2    0    0  0.00000000000E+00  0.00000000000E+00 -0.12811115067E+04  0.19602719832E+04  0.14837181523E+04 0.  0.
        5    1    3    3  502    0 -0.38858210758E+03 -0.33965231993E+02 -0.14742491059E+04  0.15249859697E+04  0.46999998093E+01 0. -1.
       -5    1    3    3    0  502  0.38858210758E+03  0.33965231993E+02  0.19313759923E+03  0.43528601350E+03  0.46999998093E+01 0.  1.
</event>
<event>
 5   0  0.1078787E-03  0.1459136E+04  0.7818609E-02  0.8912091E-01
       -1   -1    0    0    0  501  0.00000000000E+00  0.00000000000E+00  0.39159588297E+03  0.39159588301E+03  0.50400001928E-02 0. -1.
        1   -1    0    0  501    0  0.00000000000E+00  0.00000000000E+00 -0.13592317211E+04  0.13592317211E+04  0.50400001928E-02 0.  1.
    10030    2    1    2    0    0  0.00000000000E+00  0.00000000000E+00 -0.96763583809E+03  0.17508276041E+04  0.14591361088E+04 0.  0.
        5    1    3    3  502    0  0.11625747953E+03 -0.67274452280E+03 -0.79242144839E+03  0.10459707627E+04  0.46999998093E+01 0. -1.
       -5    1    3    3    0  502 -0.11625747953E+03  0.67274452280E+03 -0.17521438969E+03  0.70485684140E+03  0.46999998093E+01 0.  1.
</event>
<event>
 5   0  0.1077140E-03  0.1488944E+04  0.7818609E-02  0.8891838E-01
        1   -1    0    0  501    0  0.00000000000E+00  0.00000000000E+00  0.11379982002E+04  0.11379982002E+04  0.50400001928E-02 0. -1.
       -1   -1    0    0    0  501  0.00000000000E+00  0.00000000000E+00 -0.48702952988E+03  0.48702952990E+03  0.50400001928E-02 0.  1.
    10030    2    1    2    0    0  0.00000000000E+00  0.00000000000E+00  0.65096867031E+03  0.16250277301E+04  0.14889442279E+04 0.  0.
        1    1    3    3  502    0 -0.36456847962E+01  0.62227967862E+02  0.11351450382E+04  0.11368552541E+04  0.50400001928E-02 0. -1.
       -1    1    3    3    0  502  0.36456847962E+01 -0.62227967862E+02 -0.48417636793E+03  0.48817247596E+03  0.50400001928E-02 0.  1.
</event>
<event>
 5   0  0.1961098E-03  0.1535796E+04  0.7818609E-02  0.8860992E-01
       -2   -1    0    0    0  501  0.00000000000E+00  0.00000000000E+00  0.46697207511E+03  0.46697207512E+03  0.25500000920E-02 0.  1.
        2   -1    0    0  501    0  0.00000000000E+00  0.00000000000E+00 -0.12627471441E+04  0.12627471441E+04  0.25500000920E-02 0. -1.
    10030    2    1    2    0    0  0.00000000000E+00  0.00000000000E+00 -0.79577506898E+03  0.17297192192E+04  0.15357964113E+04 0.  0.
        2    1    3    3  502    0  0.31363506541E+03 -0.60177734801E+02 -0.11844063951E+04  0.12267056790E+04  0.25500000920E-02 0. -1.
       -2    1    3    3    0  502 -0.31363506541E+03  0.60177734801E+02  0.38863132613E+03  0.50301354025E+03  0.25500000920E-02 0.  1.
</event>
<event>
 5   0  0.1077140E-03  0.1574668E+04  0.7818609E-02  0.8836263E-01
       -1   -1    0    0    0  501  0.00000000000E+00  0.00000000000E+00  0.42570196632E+03  0.42570196635E+03  0.50400001928E-02 0. -1.
        1   -1    0    0  501    0  0.00000000000E+00  0.00000000000E+00 -0.14561704815E+04  0.14561704815E+04  0.50400001928E-02 0.  1.
    10030    2    1    2    0    0  0.00000000000E+00  0.00000000000E+00 -0.10304685152E+04  0.18818724478E+04  0.15746677583E+04 0.  0.
        1    1    3    3  502    0 -0.26730254479E+03  0.56740398336E+03 -0.10839983811E+04  0.12523779067E+04  0.50400001928E-02 0. -1.
       -1    1    3    3    0  502  0.26730254479E+03 -0.56740398336E+03  0.53529865970E+02  0.62949454117E+03  0.50400001928E-02 0.  1.
</event>
<event>
 5   0  0.1993623E-03  0.1513189E+04  0.7818609E-02  0.8875730E-01
        2   -1    0    0  501    0  0.00000000000E+00  0.00000000000E+00  0.10803146069E+04  0.10803146069E+04  0.25500000920E-02 0.  1.
       -2   -1    0    0    0  501  0.00000000000E+00  0.00000000000E+00 -0.52987802388E+03  0.52987802388E+03  0.25500000920E-02 0. -1.
    10030    2    1    2    0    0  0.00000000000E+00  0.00000000000E+00  0.55043658299E+03  0.16101926308E+04  0.15131886453E+04 0.  0.
        4    1    3    3  502    0 -0.30946798997E+03 -0.37485278931E+03  0.89216865471E+03  0.10159978208E+04  0.12699999809E+01 0.  1.
       -4    1    3    3    0  502  0.30946798997E+03  0.37485278931E+03 -0.34173207171E+03  0.59419480998E+03  0.12699999809E+01 0. -1.
</event>
<event>
 5   0  0.2094566E-03  0.1516147E+04  0.7818609E-02  0.8873786E-01
        2   -1    0    0  501    0  0.00000000000E+00  0.00000000000E+00  0.14025826997E+04  0.14025826997E+04  0.25500000920E-02 0.  1.
       -2   -1    0    0    0  501  0.00000000000E+00  0.00000000000E+00 -0.40972639242E+03  0.40972639243E+03  0.25500000920E-02 0. -1.
    10030    2    1    2    0    0  0.00000000000E+00  0.00000000000E+00  0.99285630731E+03  0.18123090922E+04  0.15161466283E+04 0.  0.
        1    1    3    3  502    0 -0.30319454014E+03  0.68214947999E+03  0.65419617250E+03  0.99258625537E+03  0.50400001928E-02 0. -1.
       -1    1    3    3    0  502  0.30319454014E+03 -0.68214947999E+03  0.33866013482E+03  0.81972283679E+03  0.50400001928E-02 0.  1.
</event>
<event>
 5   0  0.1069697E-03  0.1462490E+04  0.7818609E-02  0.8909787E-01
       -1   -1    0    0    0  501  0.00000000000E+00  0.00000000000E+00  0.69671380902E+03  0.69671380904E+03  0.50400001928E-02 0. -1.
        1   -1    0    0  501    0  0.00000000000E+00  0.00000000000E+00 -0.76748781765E+03  0.76748781767E+03  0.50400001928E-02 0.  1.
    10030    2    1    2    0    0  0.00000000000E+00  0.00000000000E+00 -0.70774008627E+02  0.14642016267E+04  0.14624901515E+04 0.  0.
        2    1    3    3  502    0 -0.20020095425E+02 -0.31558905375E+02  0.69575700417E+03  0.69676005740E+03  0.25500000920E-02 0. -1.
       -2    1    3    3    0  502  0.20020095425E+02  0.31558905375E+02 -0.76653101279E+03  0.76744156931E+03  0.25500000920E-02 0.  1.
</event>
<event>
 5   0  0.1077140E-03  0.1496594E+04  0.7818609E-02  0.8886721E-01
        1   -1    0    0  501    0  0.00000000000E+00  0.00000000000E+00  0.11053521212E+04  0.11053521213E+04  0.50400001928E-02 0. -1.
       -1   -1    0    0    0  501  0.00000000000E+00  0.00000000000E+00 -0.50657911115E+03  0.50657911117E+03  0.50400001928E-02 0.  1.
    10030    2    1    2    0    0  0.00000000000E+00  0.00000000000E+00  0.59877301009E+03  0.16119312324E+04  0.14965938596E+04 0.  0.
        1    1    3    3  502    0 -0.37750056358E+03 -0.22902406679E+03 -0.35131647240E+03  0.56425345589E+03  0.50400001928E-02 0.  1.
       -1    1    3    3    0  502  0.37750056358E+03  0.22902406679E+03  0.95008948250E+03  0.10476777765E+04  0.50400001928E-02 0. -1.
</event>
<event>
 5   0  0.7468375E-04  0.1468876E+04  0.7818609E-02  0.8905418E-01
       -3   -1    0    0    0  501  0.00000000000E+00  0.00000000000E+00  0.12506283013E+04  0.12506283053E+04  0.10100000352E+00 0.  1.
        3   -1    0    0  501    0  0.00000000000E+00  0.00000000000E+00 -0.43130253227E+03  0.43130254409E+03  0.10100000352E+00 0. -1.
    10030    2    1    2    0    0  0.00000000000E+00  0.00000000000E+00  0.81932576899E+03  0.16819308494E+04  0.14688759875E+04 0.  0.
        1    1    3    3  502    0 -0.72063304864E+03  0.84351300118E+02  0.27924803517E+03  0.77743591234E+03  0.50400001928E-02 0.  1.
       -1    1    3    3    0  502  0.72063304864E+03 -0.84351300118E+02  0.54007773382E+03  0.90449493709E+03  0.50400001928E-02 0. -1.
</event>
<event>
 5   0  0.1993623E-03  0.1501811E+04  0.7818609E-02  0.8883250E-01
        2   -1    0    0  501    0  0.00000000000E+00  0.00000000000E+00  0.88951913683E+03  0.88951913684E+03  0.25500000920E-02 0. -1.
       -2   -1    0    0    0  501  0.00000000000E+00  0.00000000000E+00 -0.63389190415E+03  0.63389190415E+03  0.25500000920E-02 0.  1.
    10030    2    1    2    0    0  0.00000000000E+00  0.00000000000E+00  0.25562723269E+03  0.15234110410E+04  0.15018108795E+04 0.  0.
        4    1    3    3  502    0 -0.28174713027E+03  0.78017268118E+02  0.82941841094E+03  0.87943428001E+03  0.12699999809E+01 0. -1.
       -4    1    3    3    0  502  0.28174713027E+03 -0.78017268118E+02 -0.57379117826E+03  0.64397676098E+03  0.12699999809E+01 0.  1.
</event>
<event>
 5   0  0.1078018E-03  0.1497445E+04  0.7818609E-02  0.8886154E-01
       -1   -1    0    0    0  501  0.00000000000E+00  0.00000000000E+00  0.63936084867E+03  0.63936084869E+03  0.50400001928E-02 0. -1.
        1   -1    0    0  501    0  0.00000000000E+00  0.00000000000E+00 -0.87679006626E+03  0.87679006627E+03  0.50400001928E-02 0.  1.
    10030    2    1    2    0    0  0.00000000000E+00  0.00000000000E+00 -0.23742921759E+03  0.15161509150E+04  0.14974448115E+04 0.  0.
        4    1    3    3  502    0 -0.70955260311E+03  0.22081773285E+03 -0.21128019427E+03  0.77257122721E+03  0.12699999809E+01 0.  1.
       -4    1    3    3    0  502  0.70955260311E+03 -0.22081773285E+03 -0.26149023319E+02  0.74357968775E+03  0.12699999809E+01 0. -1.
</event>
<event>
 5   0  0.1993623E-03  0.1491773E+04  0.7818609E-02  0.8889943E-01
        2   -1    0    0  501    0  0.00000000000E+00  0.00000000000E+00  0.23313986604E+04  0.23313986604E+04  0.25500000920E-02 0.  1.
       -2   -1    0    0    0  501  0.00000000000E+00  0.00000000000E+00 -0.23863203998E+03  0.23863204000E+03  0.25500000920E-02 0. -1.
    10030    2    1    2    0    0  0.00000000000E+00  0.00000000000E+00  0.20927666204E+04  0.25700307004E+04  0.14917726615E+04 0.  0.
        4    1    3    3  502    0 -0.51122033963E+03 -0.42646413394E+03  0.16258368685E+04  0.17568622681E+04  0.12699999809E+01 0.  1.
       -4    1    3    3    0  502  0.51122033963E+03  0.42646413394E+03  0.46692975196E+03  0.81316843234E+03  0.12699999809E+01 0. -1.
</event>
<event>
 5   0  0.1069697E-03  0.1565747E+04  0.7818609E-02  0.8841871E-01
       -1   -1    0    0    0  501  0.00000000000E+00  0.00000000000E+00  0.78354156615E+03  0.78354156617E+03  0.50400001928E-02 0. -1.
        1   -1    0    0  501    0  0.00000000000E+00  0.00000000000E+00 -0.78220633926E+03  0.78220633928E+03  0.50400001928E-02 0.  1.
    10030    2    1    2    0    0  0.00000000000E+00  0.00000000000E+00  0.13352268899E+01  0.15657479054E+04  0.15657473361E+04 0.  0.
        2    1    3    3  502    0  0.73408565852E+02  0.71893917194E+02  0.77676945296E+03  0.78353579109E+03  0.25500000920E-02 0. -1.
       -2    1    3    3    0  502 -0.73408565852E+02 -0.71893917194E+02 -0.77543422607E+03  0.78221211435E+03  0.25500000920E-02 0.  1.
</event>
<event>
 5   0  0.2094566E-03  0.1301789E+04  0.7818609E-02  0.9028148E-01
       -2   -1    0    0    0  501  0.00000000000E+00  0.00000000000E+00  0.75067013028E+03  0.75067013028E+03  0.25500000920E-02 0. -1.
        2   -1    0    0  501    0  0.00000000000E+00  0.00000000000E+00 -0.56438073631E+03  0.56438073632E+03  0.25500000920E-02 0.  1.
    10030    2    1    2    0    0  0.00000000000E+00  0.00000000000E+00  0.18628939396E+03  0.13150508666E+04  0.13017891701E+04 0.  0.
        1    1    3    3  502    0  0.48189308226E+03  0.43623672769E+03  0.12725756411E+03  0.66235784359E+03  0.50400001928E-02 0.  1.
       -1    1    3    3    0  502 -0.48189308226E+03 -0.43623672769E+03  0.59031829851E+02  0.65269302301E+03  0.50400001928E-02 0. -1.
</event>
<event>
 5   0  0.1087761E-03  0.1453414E+04  0.7818609E-02  0.8916037E-01
       -1   -1    0    0    0  501  0.00000000000E+00  0.00000000000E+00  0.43457745740E+03  0.43457745743E+03  0.50400001928E-02 0.  1.
        1   -1    0    0  501    0  0.00000000000E+00  0.00000000000E+00 -0.12152103050E+04  0.12152103050E+04  0.50400001928E-02 0. -1.
    10030    2    1    2    0    0  0.00000000000E+00  0.00000000000E+00 -0.78063284757E+03  0.16497877624E+04  0.14534139184E+04 0.  0.
        3    1    3    3  502    0  0.85506537065E+02  0.46851232606E+03  0.23274312382E+03  0.53007974819E+03  0.10100000352E+00 0.  1.
       -3    1    3    3    0  502 -0.85506537065E+02 -0.46851232606E+03 -0.10133759714E+04  0.11197080142E+04  0.10100000352E+00 0. -1.
</event>
<event>
 5   0  0.1077140E-03  0.1338285E+04  0.7818609E-02  0.8999744E-01
        1   -1    0    0  501    0  0.00000000000E+00  0.00000000000E+00  0.76853633794E+03  0.76853633796E+03  0.50400001928E-02 0. -1.
       -1   -1    0    0    0  501  0.00000000000E+00  0.00000000000E+00 -0.58260317948E+03  0.58260317950E+03  0.50400001928E-02 0.  1.
    10030    2    1    2    0    0  0.00000000000E+00  0.00000000000E+00  0.18593315846E+03  0.13511395175E+04  0.13382850430E+04 0.  0.
        1    1    3    3  502    0 -0.35790847508E+03  0.19546840709E+02  0.66343474748E+03  0.75407308644E+03  0.50400001928E-02 0. -1.
       -1    1    3    3    0  502  0.35790847508E+03 -0.19546840709E+02 -0.47750158901E+03  0.59706643102E+03  0.50400001928E-02 0.  1.
</event>
<event>
 5   0  0.1087761E-03  0.1451996E+04  0.7818609E-02  0.8917018E-01
       -1   -1    0    0    0  501  0.00000000000E+00  0.00000000000E+00  0.99778612271E+03  0.99778612273E+03  0.50400001928E-02 0. -1.
        1   -1    0    0  501    0  0.00000000000E+00  0.00000000000E+00 -0.52824280177E+03  0.52824280179E+03  0.50400001928E-02 0.  1.
    10030    2    1    2    0    0  0.00000000000E+00  0.00000000000E+00  0.46954332094E+03  0.15260289245E+04  0.14519963320E+04 0.  0.
        3    1    3    3  502    0  0.27602068856E+03  0.60619374648E+03 -0.68770798715E+02  0.66961758620E+03  0.10100000352E+00 0. -1.
       -3    1    3    3    0  502 -0.27602068856E+03 -0.60619374648E+03  0.53831411966E+03  0.85641133832E+03  0.10100000352E+00 0.  1.
</event>
<event>
 5   0  0.2150197E-03  0.1344838E+04  0.7818609E-02  0.8994745E-01
        2   -1    0    0  501    0  0.00000000000E+00  0.00000000000E+00  0.21921977194E+04  0.21921977194E+04  0.25500000920E-02 0.  1.
       -2   -1    0    0    0  501  0.00000000000E+00  0.00000000000E+00 -0.20625307158E+03  0.20625307160E+03  0.25500000920E-02 0. -1.
    10030    2    1    2    0    0  0.00000000000E+00  0.00000000000E+00  0.19859446478E+04  0.23984507910E+04  0.13448382998E+04 0.  0.
        3    1    3    3  502    0  0.37525305990E+03 -0.21941471816E+03  0.19079179631E+04  0.19568108344E+04  0.10100000352E+00 0.  1.
       -3    1    3    3    0  502 -0.37525305990E+03  0.21941471816E+03  0.78026684673E+02  0.44163995656E+03  0.10100000352E+00 0. -1.
</event>
<event>
 5   0  0.1961098E-03  0.1467398E+04  0.7818609E-02  0.8906427E-01
       -2   -1    0    0    0  501  0.00000000000E+00  0.00000000000E+00  0.70207946131E+03  0.70207946132E+03  0.25500000920E-02 0. -1.
        2   -1    0    0  501    0  0.00000000000E+00  0.00000000000E+00 -0.76674307558E+03  0.76674307558E+03  0.25500000920E-02 0.  1.
    10030    2    1    2    0    0  0.00000000000E+00  0.00000000000E+00 -0.64663614266E+02  0.14688225369E+04  0.14673984673E+04 0.  0.
        2    1    3    3  502    0 -0.64697384583E+03  0.13569680295E+03  0.28629422619E+03  0.72038403888E+03  0.25500000920E-02 0. -1.
       -2    1    3    3    0  502  0.64697384583E+03 -0.13569680295E+03 -0.35095784046E+03  0.74843849801E+03  0.25500000920E-02 0.  1.
</event>
<event>
 5   0  0.1078018E-03  0.1022240E+04  0.7818609E-02  0.9284483E-01
       -1   -1    0    0    0  501  0.00000000000E+00  0.00000000000E+00  0.76467785267E+03  0.76467785268E+03  0.50400001928E-02 0. -1.
        1   -1    0    0  501    0  0.00000000000E+00  0.00000000000E+00 -0.34163864563E+03  0.34163864567E+03  0.50400001928E-02 0.  1.
    10030    2    1    2    0    0  0.00000000000E+00  0.00000000000E+00  0.42303920704E+03  0.11063164984E+04  0.10222397096E+04 0.  0.
        4    1    3    3  502    0  0.21583775417E+03  0.45490783600E+03  0.30657777917E+03  0.58950710171E+03  0.12699999809E+01 0.  1.
       -4    1    3    3    0  502 -0.21583775417E+03 -0.45490783600E+03  0.11646142787E+03  0.51680939665E+03  0.12699999809E+01 0. -1.
</event>
<event>
 5   0  0.2094566E-03  0.1494161E+04  0.7818609E-02  0.8888345E-01
        2   -1    0    0  501    0  0.00000000000E+00  0.00000000000E+00  0.78045474068E+03  0.78045474069E+03  0.25500000920E-02 0. -1.
       -2   -1    0    0    0  501  0.00000000000E+00  0.00000000000E+00 -0.71513304300E+03  0.71513304300E+03  0.25500000920E-02 0.  1.
    10030    2    1    2    0    0  0.00000000000E+00  0.00000000000E+00  0.65321697684E+02  0.14955877837E+04  0.14941605986E+04 0.  0.
        1    1    3    3  502    0  0.72320225227E+03 -0.87565252547E+02  0.19846871095E+03  0.75503576100E+03  0.50400001928E-02 0.  1.
       -1    1    3    3    0  502 -0.72320225227E+03  0.87565252547E+02 -0.13314701327E+03  0.74055202269E+03  0.50400001928E-02 0. -1.
</event>
<event>
 5   0  0.7468375E-04  0.1487901E+04  0.7818609E-02  0.8892539E-01
        4   -1    0    0  501    0  0.00000000000E+00  0.00000000000E+00  0.45281525207E+03  0.45281703303E+03  0.12699999809E+01 0. -1.
       -4   -1    0    0    0  501  0.00000000000E+00  0.00000000000E+00 -0.12222649650E+04  0.12222656248E+04  0.12699999809E+01 0.  1.
    10030    2    1    2    0    0  0.00000000000E+00  0.00000000000E+00 -0.76944971295E+03  0.16750826578E+04  0.14879008871E+04 0.  0.
        1    1    3    3  502    0 -0.19451181979E+03  0.16803986844E+03 -0.11706850564E+04  0.11985723786E+04  0.50400001928E-02 0.  1.
       -1    1    3    3    0  502  0.19451181979E+03 -0.16803986844E+03  0.40123534342E+03  0.47651027928E+03  0.50400001928E-02 0. -1.
</event>
<event>
 5   0  0.1078018E-03  0.1550015E+04  0.7818609E-02  0.8851858E-01
        1   -1    0    0  501    0  0.00000000000E+00  0.00000000000E+00  0.69465881236E+03  0.69465881238E+03  0.50400001928E-02 0.  1.
       -1   -1    0    0    0  501  0.00000000000E+00  0.00000000000E+00 -0.86465000385E+03  0.86465000387E+03  0.50400001928E-02 0. -1.
    10030    2    1    2    0    0  0.00000000000E+00  0.00000000000E+00 -0.16999119149E+03  0.15593088162E+04  0.15500151545E+04 0.  0.
        4    1    3    3  502    0  0.40748230714E+03 -0.63338632228E+02 -0.74511710329E+03  0.85161888394E+03  0.12699999809E+01 0. -1.
       -4    1    3    3    0  502 -0.40748230714E+03  0.63338632228E+02  0.57512591179E+03  0.70768993230E+03  0.12699999809E+01 0.  1.
</event>
<event>
 5   0  0.2094566E-03  0.1529332E+04  0.7818609E-02  0.8865178E-01
       -2   -1    0    0    0  501  0.00000000000E+00  0.00000000000E+00  0.49195763336E+03  0.49195763337E+03  0.25500000920E-02 0. -1.
        2   -1    0    0  501    0  0.00000000000E+00  0.00000000000E+00 -0.11885459310E+04  0.11885459310E+04  0.25500000920E-02 0.  1.
    10030    2    1    2    0    0  0.00000000000E+00  0.00000000000E+00 -0.69658829764E+03  0.16805035644E+04  0.15293321985E+04 0.  0.
        1    1    3    3  502    0  0.69484046882E+03  0.31896584143E+03 -0.36269527231E+03  0.84622121558E+03  0.50400001928E-02 0.  1.
       -1    1    3    3    0  502 -0.69484046882E+03 -0.31896584143E+03 -0.33389302533E+03  0.83428234879E+03  0.50400001928E-02 0. -1.
</event>
<event>
 5   0  0.1077140E-03  0.1459583E+04  0.7818609E-02  0.8911783E-01
       -1   -1    0    0    0  501  0.00000000000E+00  0.00000000000E+00  0.62034355997E+03  0.62034355999E+03  0.50400001928E-02 0. -1.
        1   -1    0    0  501    0  0.00000000000E+00  0.00000000000E+00 -0.85855001031E+03  0.85855001033E+03  0.50400001928E-02 0.  1.
    10030    2    1    2    0    0  0.00000000000E+00  0.00000000000E+00 -0.23820645034E+03  0.14788935703E+04  0.14595834609E+04 0.  0.
        1    1    3    3  502    0  0.48992963820E+02 -0.21606657804E+03  0.58544563831E+03  0.62596459332E+03  0.50400001928E-02 0. -1.
       -1    1    3    3    0  502 -0.48992963820E+02  0.21606657804E+03 -0.82365208865E+03  0.85292897700E+03  0.50400001928E-02 0.  1.
</event>
<event>
 5   0  0.2094566E-03  0.1512787E+04  0.7818609E-02  0.8875994E-01
       -2   -1    0    0    0  501  0.00000000000E+00  0.00000000000E+00  0.60543194591E+03  0.60543194592E+03  0.25500000920E-02 0.  1.
        2   -1    0    0  501    0  0.00000000000E+00  0.00000000000E+00 -0.94499706854E+03  0.94499706854E+03  0.25500000920E-02 0. -1.
    10030    2    1    2    0    0  0.00000000000E+00  0.00000000000E+00 -0.33956512263E+03  0.15504290145E+04  0.15127873798E+04 0.  0.
        1    1    3    3  502    0 -0.72659052818E+03 -0.16122870161E+03 -0.31507272343E+02  0.74493033103E+03  0.50400001928E-02 0.  1.
       -1    1    3    3    0  502  0.72659052818E+03  0.16122870161E+03 -0.30805785029E+03  0.80549868343E+03  0.50400001928E-02 0. -1.
</event>
<event>
 5   0  0.1078018E-03  0.1452519E+04  0.7818609E-02  0.8916656E-01
       -1   -1    0    0    0  501  0.00000000000E+00  0.00000000000E+00  0.12301745409E+04  0.12301745409E+04  0.50400001928E-02 0. -1.
        1   -1    0    0  501    0  0.00000000000E+00  0.00000000000E+00 -0.42876265706E+03  0.42876265709E+03  0.50400001928E-02 0.  1.
    10030    2    1    2    0    0  0.00000000000E+00  0.00000000000E+00  0.80141188387E+03  0.16589371980E+04  0.14525190599E+04 0.  0.
        4    1    3    3  502    0  0.19145910873E+03 -0.46029585814E+03 -0.20247806972E+03  0.53807792089E+03  0.12699999809E+01 0.  1.
       -4    1    3    3    0  502 -0.19145910873E+03  0.46029585814E+03  0.10038899536E+04  0.11208592771E+04  0.12699999809E+01 0. -1.
</event>
<event>
 5   0  0.1961098E-03  0.1498316E+04  0.7818609E-02  0.8885573E-01
       -2   -1    0    0    0  501  0.00000000000E+00  0.00000000000E+00  0.12829436248E+04  0.12829436248E+04  0.25500000920E-02 0. -1.
        2   -1    0    0  501    0  0.00000000000E+00  0.00000000000E+00 -0.43746108060E+03  0.43746108061E+03  0.25500000920E-02 0.  1.
    10030    2    1    2    0    0  0.00000000000E+00  0.00000000000E+00  0.84548254422E+03  0.17204047054E+04  0.14983162610E+04 0.  0.
        2    1    3    3  502    0 -0.73538643564E+02 -0.12394060853E+03 -0.42139468872E+03  0.44535681226E+03  0.25500000920E-02 0.  1.
       -2    1    3    3    0  502  0.73538643564E+02  0.12394060853E+03  0.12668772329E+04  0.12750478932E+04  0.25500000920E-02 0. -1.
</event>
<event>
 5   0  0.1961098E-03  0.1527491E+04  0.7818609E-02  0.8866375E-01
        2   -1    0    0  501    0  0.00000000000E+00  0.00000000000E+00  0.13072028447E+04  0.13072028447E+04  0.25500000920E-02 0.  1.
       -2   -1    0    0    0  501  0.00000000000E+00  0.00000000000E+00 -0.44622561572E+03  0.44622561573E+03  0.25500000920E-02 0. -1.
    10030    2    1    2    0    0  0.00000000000E+00  0.00000000000E+00  0.86097722898E+03  0.17534284604E+04  0.15274912690E+04 0.  0.
        2    1    3    3  502    0 -0.32349507896E+03  0.26255654779E+03 -0.30428603147E+03  0.51592150164E+03  0.25500000920E-02 0. -1.
       -2    1    3    3    0  502  0.32349507896E+03 -0.26255654779E+03  0.11652632605E+04  0.12375069588E+04  0.25500000920E-02 0.  1.
</event>
<event>
 5   0  0.1078018E-03  0.1416498E+04  0.7818609E-02  0.8941962E-01
        1   -1    0    0  501    0  0.00000000000E+00  0.00000000000E+00  0.78835927880E+03  0.78835927881E+03  0.50400001928E-02 0. -1.
       -1   -1    0    0    0  501  0.00000000000E+00  0.00000000000E+00 -0.63627945844E+03  0.63627945846E+03  0.50400001928E-02 0.  1.
    10030    2    1    2    0    0  0.00000000000E+00  0.00000000000E+00  0.15207982036E+03  0.14246387373E+04  0.14164982386E+04 0.  0.
        4    1    3    3  502    0  0.31605281801E+03  0.54685032005E+03  0.39831949423E+03  0.74672263170E+03  0.12699999809E+01 0. -1.
       -4    1    3    3    0  502 -0.31605281801E+03 -0.54685032005E+03 -0.24623967387E+03  0.67791610557E+03  0.12699999809E+01 0.  1.
</event>
<event>
 5   0  0.1078787E-03  0.1501891E+04  0.7818609E-02  0.8883196E-01
        1   -1    0    0  501    0  0.00000000000E+00  0.00000000000E+00  0.11025715238E+04  0.11025715238E+04  0.50400001928E-02 0. -1.
       -1   -1    0    0    0  501  0.00000000000E+00  0.00000000000E+00 -0.51145835470E+03  0.51145835473E+03  0.50400001928E-02 0.  1.
    10030    2    1    2    0    0  0.00000000000E+00  0.00000000000E+00  0.59111316905E+03  0.16140298785E+04  0.15018913643E+04 0.  0.
        5    1    3    3  502    0  0.19385768328E+03 -0.24781239319E+03  0.10283058848E+04  0.10753728964E+04  0.46999998093E+01 0. -1.
       -5    1    3    3    0  502 -0.19385768328E+03  0.24781239319E+03 -0.43719271579E+03  0.53865698206E+03  0.46999998093E+01 0.  1.
</event>
<event>
 5   0  0.1069697E-03  0.1123023E+04  0.7818609E-02  0.9183038E-01
        1   -1    0    0  501    0  0.00000000000E+00  0.00000000000E+00  0.13551535021E+04  0.13551535021E+04  0.50400001928E-02 0. -1.
       -1   -1    0    0    0  501  0.00000000000E+00  0.00000000000E+00 -0.23266395002E+03  0.23266395008E+03  0.50400001928E-02 0.  1.
    10030    2    1    2    0    0  0.00000000000E+00  0.00000000000E+00  0.11224895521E+04  0.15878174522E+04  0.11230233599E+04 0.  0.
        2    1    3    3  502    0 -0.10665571546E+03 -0.54966626110E+03  0.50147727123E+03  0.75165676595E+03  0.25500000920E-02 0.  1.
       -2    1    3    3    0  502  0.10665571546E+03  0.54966626110E+03  0.62101228084E+03  0.83616068623E+03  0.25500000920E-02 0. -1.
</event>
<event>
 5   0  0.2150197E-03  0.1485730E+04  0.7818609E-02  0.8893998E-01
        2   -1    0    0  501    0  0.00000000000E+00  0.00000000000E+00  0.16410833241E+04  0.16410833241E+04  0.25500000920E-02 0.  1.
       -2   -1    0    0    0  501  0.00000000000E+00  0.00000000000E+00 -0.33627075671E+03  0.33627075672E+03  0.25500000920E-02 0. -1.
    10030    2    1    2    0    0  0.00000000000E+00  0.00000000000E+00  0.13048125674E+04  0.19773540808E+04  0.14857298964E+04 0.  0.
        3    1    3    3  502    0 -0.51285608508E+03  0.29518299892E+03  0.12501169723E+04  0.13830932078E+04  0.10100000352E+00 0.  1.
       -3    1    3    3    0  502  0.51285608508E+03 -0.29518299892E+03  0.54695595067E+02  0.59426087300E+03  0.10100000352E+00 0. -1.
</event>
<event>
 5   0  0.1069697E-03  0.1496188E+04  0.7818609E-02  0.8886992E-01
       -1   -1    0    0    0  501  0.00000000000E+00  0.00000000000E+00  0.25541932882E+03  0.25541932887E+03  0.50400001928E-02 0. -1.
        1   -1    0    0  501    0  0.00000000000E+00  0.00000000000E+00 -0.21910803021E+04  0.21910803021E+04  0.50400001928E-02 0.  1.
    10030    2    1    2    0    0  0.00000000000E+00  0.00000000000E+00 -0.19356609732E+04  0.24464996309E+04  0.14961875019E+04 0.  0.
        2    1    3    3  502    0  0.56861292286E+03 -0.47989106435E+03 -0.10947860966E+04  0.13236965993E+04  0.25500000920E-02 0.  1.
       -2    1    3    3    0  502 -0.56861292286E+03  0.47989106435E+03 -0.84087487659E+03  0.11228030316E+04  0.25500000920E-02 0. -1.
</event>
<event>
 5   0  0.1077140E-03  0.1508613E+04  0.7818609E-02  0.8878745E-01
       -1   -1    0    0    0  501  0.00000000000E+00  0.00000000000E+00  0.79154779747E+03  0.79154779749E+03  0.50400001928E-02 0.  1.
        1   -1    0    0  501    0  0.00000000000E+00  0.00000000000E+00 -0.71881759848E+03  0.71881759849E+03  0.50400001928E-02 0. -1.
    10030    2    1    2    0    0  0.00000000000E+00  0.00000000000E+00  0.72730198993E+02  0.15103653960E+04  0.15086132531E+04 0.  0.
        1    1    3    3  502    0  0.60959790732E+03  0.16811186175E+03  0.44806926455E+03  0.77500791772E+03  0.50400001928E-02 0. -1.
       -1    1    3    3    0  502 -0.60959790732E+03 -0.16811186175E+03 -0.37533906556E+03  0.73535747826E+03  0.50400001928E-02 0.  1.
</event>
<event>
 5   0  0.2094566E-03  0.1436895E+04  0.7818609E-02  0.8927536E-01
        2   -1    0    0  501    0  0.00000000000E+00  0.00000000000E+00  0.19223327679E+04  0.19223327679E+04  0.25500000920E-02 0.  1.
       -2   -1    0    0    0  501  0.00000000000E+00  0.00000000000E+00 -0.26851081236E+03  0.26851081237E+03  0.25500000920E-02 0. -1.
    10030    2    1    2    0    0  0.00000000000E+00  0.00000000000E+00  0.16538219555E+04  0.21908435802E+04  0.14368954494E+04 0.  0.
        1    1    3    3  502    0 -0.30148015188E+03 -0.19716479151E+03  0.17746884644E+04  0.18108791740E+04  0.50400001928E-02 0.  1.
       -1    1    3    3    0  502  0.30148015188E+03  0.19716479151E+03 -0.12086650894E+03  0.37996440623E+03  0.50400001928E-02 0. -1.
</event>
<event>
 5   0  0.7468375E-04  0.1455435E+04  0.7818609E-02  0.8914641E-01
        3   -1    0    0  501    0  0.00000000000E+00  0.00000000000E+00  0.78707399953E+03  0.78707400601E+03  0.10100000352E+00 0. -1.
       -3   -1    0    0    0  501  0.00000000000E+00  0.00000000000E+00 -0.67283712458E+03  0.67283713217E+03  0.10100000352E+00 0.  1.
    10030    2    1    2    0    0  0.00000000000E+00  0.00000000000E+00  0.11423687495E+03  0.14599111382E+04  0.14554348037E+04 0.  0.
        4    1    3    3  502    0  0.20105450537E+03 -0.36603160140E+03  0.65491190619E+03  0.77673242827E+03  0.12699999809E+01 0. -1.
       -4    1    3    3    0  502 -0.20105450537E+03  0.36603160140E+03 -0.54067503125E+03  0.68317870991E+03  0.12699999809E+01 0.  1.
</event>
<event>
 5   0  0.1078787E-03  0.1485459E+04  0.7818609E-02  0.8894180E-01
       -1   -1    0    0    0  501  0.00000000000E+00  0.00000000000E+00  0.66822360668E+03  0.66822360670E+03  0.50400001928E-02 0.  1.
        1   -1    0    0  501    0  0.00000000000E+00  0.00000000000E+00 -0.82554312440E+03  0.82554312441E+03  0.50400001928E-02 0. -1.
    10030    2    1    2    0    0  0.00000000000E+00  0.00000000000E+00 -0.15731951772E+03  0.14937667311E+04  0.14854593957E+04 0.  0.
        5    1    3    3  502    0 -0.45675471642E+02 -0.20374464364E+03 -0.79540608253E+03  0.82236917175E+03  0.46999998093E+01 0. -1.
       -5    1    3    3    0  502  0.45675471642E+02  0.20374464364E+03  0.63808656481E+03  0.67139755936E+03  0.46999998093E+01 0.  1.
</event>
<event>
 5   0  0.1961098E-03  0.1522476E+04  0.7818609E-02  0.8869643E-01
        2   -1    0    0  501    0  0.00000000000E+00  0.00000000000E+00  0.20746621107E+04  0.20746621107E+04  0.25500000920E-02 0.  1.
       -2   -1    0    0    0  501  0.00000000000E+00  0.00000000000E+00 -0.27931438739E+03  0.27931438740E+03  0.25500000920E-02 0. -1.
    10030    2    1    2    0    0  0.00000000000E+00  0.00000000000E+00  0.17953477233E+04  0.23539764981E+04  0.15224755847E+04 0.  0.
        2    1    3    3  502    0  0.63927301171E+01  0.27640153641E+03  0.19942906796E+04  0.20133638497E+04  0.25500000920E-02 0.  1.
       -2    1    3    3    0  502 -0.63927301171E+01 -0.27640153641E+03 -0.19894295637E+03  0.34061264836E+03  0.25500000920E-02 0. -1.
</event>
<event>
 5   0  0.1961098E-03  0.1338530E+04  0.7818609E-02  0.8999557E-01
       -2   -1    0    0    0  501  0.00000000000E+00  0.00000000000E+00  0.22052653123E+03  0.22052653124E+03  0.25500000920E-02 0.  1.
        2   -1    0    0  501    0  0.00000000000E+00  0.00000000000E+00 -0.20311178943E+04  0.20311178944E+04  0.25500000920E-02 0. -1.
    10030    2    1    2    0    0  0.00000000000E+00  0.00000000000E+00 -0.18105913631E+04  0.22516444256E+04  0.13385296168E+04 0.  0.
        2    1    3    3  502    0 -0.43363708791E+03 -0.15262603497E+03 -0.17234974757E+04  0.17837542934E+04  0.25500000920E-02 0. -1.
       -2    1    3    3    0  502  0.43363708791E+03  0.15262603497E+03 -0.87093887442E+02  0.46789013219E+03  0.25500000920E-02 0.  1.
</event>
<event>
 5   0  0.1087761E-03  0.1474710E+04  0.7818609E-02  0.8901447E-01
        1   -1    0    0  501    0  0.00000000000E+00  0.00000000000E+00  0.88244021568E+03  0.88244021569E+03  0.50400001928E-02 0.  1.
       -1   -1    0    0    0  501  0.00000000000E+00  0.00000000000E+00 -0.61612381583E+03  0.61612381585E+03  0.50400001928E-02 0. -1.
    10030    2    1    2    0    0  0.00000000000E+00  0.00000000000E+00  0.26631639985E+03  0.14985640315E+04  0.14747100501E+04 0.  0.
        3    1    3    3  502    0 -0.23702032010E+03  0.70097008723E+02 -0.57277305937E+03  0.62382786929E+03  0.10100000352E+00 0. -1.
       -3    1    3    3    0  502  0.23702032010E+03 -0.70097008723E+02  0.83908945922E+03  0.87473616225E+03  0.10100000352E+00 0.  1.
</event>
<event>
 5   0  0.2111533E-03  0.1489701E+04  0.7818609E-02  0.8891331E-01
        2   -1    0    0  501    0  0.00000000000E+00  0.00000000000E+00  0.26569367885E+04  0.26569367885E+04  0.25500000920E-02 0. -1.
       -2   -1    0    0    0  501  0.00000000000E+00  0.00000000000E+00 -0.20881279420E+03  0.20881279421E+03  0.25500000920E-02 0.  1.
    10030    2    1    2    0    0  0.00000000000E+00  0.00000000000E+00  0.24481239943E+04  0.28657495828E+04  0.14897011712E+04 0.  0.
        5    1    3    3  502    0 -0.61234517979E+03  0.27218416820E+03  0.18495760836E+04  0.19672327314E+04  0.46999998093E+01 0. -1.
       -5    1    3    3    0  502  0.61234517979E+03 -0.27218416820E+03  0.59854791074E+03  0.89851685131E+03  0.46999998093E+01 0.  1.
</event>
<event>
 5   0  0.1078018E-03  0.1482383E+04  0.7818609E-02  0.8896253E-01
       -1   -1    0    0    0  501  0.00000000000E+00  0.00000000000E+00  0.87316206274E+03  0.87316206275E+03  0.50400001928E-02 0. -1.
        1   -1    0    0  501    0  0.00000000000E+00  0.00000000000E+00 -0.62916714676E+03  0.62916714678E+03  0.50400001928E-02 0.  1.
    10030    2    1    2    0    0  0.00000000000E+00  0.00000000000E+00  0.24399491599E+03  0.15023292095E+04  0.14823830594E+04 0.  0.
        4    1    3    3  502    0  0.31644197903E+03 -0.55974091478E+03 -0.25163355800E+03  0.69048278631E+03  0.12699999809E+01 0.  1.
       -4    1    3    3    0  502 -0.31644197903E+03  0.55974091478E+03  0.49562847399E+03  0.81184642322E+03  0.12699999809E+01 0. -1.
</event>
<event>
 5   0  0.1961098E-03  0.1532283E+04  0.7818609E-02  0.8863265E-01
       -2   -1    0    0    0  501  0.00000000000E+00  0.00000000000E+00  0.58060004973E+03  0.58060004973E+03  0.25500000920E-02 0. -1.
        2   -1    0    0  501    0  0.00000000000E+00  0.00000000000E+00 -0.10109758418E+04  0.10109758418E+04  0.25500000920E-02 0.  1.
    10030    2    1    2    0    0  0.00000000000E+00  0.00000000000E+00 -0.43037579209E+03  0.15915758916E+04  0.15322827729E+04 0.  0.
        2    1    3    3  502    0 -0.22471093810E+03  0.59422340136E+03  0.22960708605E+03  0.67551156200E+03  0.25500000920E-02 0. -1.
       -2    1    3    3    0  502  0.22471093810E+03 -0.59422340136E+03 -0.65998287815E+03  0.91606432955E+03  0.25500000920E-02 0.  1.
</event>
<event>
 5   0  0.1078787E-03  0.1446975E+04  0.7818609E-02  0.8920501E-01
       -1   -1    0    0    0  501  0.00000000000E+00  0.00000000000E+00  0.94540595839E+03  0.94540595840E+03  0.50400001928E-02 0.  1.
        1   -1    0    0  501    0  0.00000000000E+00  0.00000000000E+00 -0.55366051366E+03  0.55366051369E+03  0.50400001928E-02 0. -1.
    10030    2    1    2    0    0  0.00000000000E+00  0.00000000000E+00  0.39174544472E+03  0.14990664721E+04  0.14469747041E+04 0.  0.
        5    1    3    3  502    0  0.57151667417E+03 -0.34026563650E+03  0.49072334521E+03  0.82658544855E+03  0.46999998093E+01 0.  1.
       -5    1    3    3    0  502 -0.57151667417E+03  0.34026563650E+03 -0.98977900483E+02  0.67248102354E+03  0.46999998093E+01 0. -1.
</event>
<event>
 5   0  0.7468375E-04  0.1383012E+04  0.7818609E-02  0.8966208E-01
       -3   -1    0    0    0  501  0.00000000000E+00  0.00000000000E+00  0.53269599022E+03  0.53269599980E+03  0.10100000352E+00 0. -1.
        3   -1    0    0  501    0  0.00000000000E+00  0.00000000000E+00 -0.89766119083E+03  0.89766119651E+03  0.10100000352E+00 0.  1.
    10030    2    1    2    0    0  0.00000000000E+00  0.00000000000E+00 -0.36496520061E+03  0.14303571963E+04  0.13830119708E+04 0.  0.
        4    1    3    3  502    0 -0.45406313305E+03 -0.37600199381E+03  0.19131529281E+03  0.61980156688E+03  0.12699999809E+01 0. -1.
       -4    1    3    3    0  502  0.45406313305E+03  0.37600199381E+03 -0.55628049342E+03  0.81055562943E+03  0.12699999809E+01 0.  1.
</event>
<event>
 5   0  0.1069697E-03  0.1760462E+04  0.7818609E-02  0.8727613E-01
        1   -1    0    0  501    0  0.00000000000E+00  0.00000000000E+00  0.16450122390E+04  0.16450122390E+04  0.50400001928E-02 0. -1.
       -1   -1    0    0    0  501  0.00000000000E+00  0.00000000000E+00 -0.47100356808E+03  0.47100356810E+03  0.50400001928E-02 0.  1.
    10030    2    1    2    0    0  0.00000000000E+00  0.00000000000E+00  0.11740086709E+04  0.21160158071E+04  0.17604620236E+04 0.  0.
        2    1    3    3  502    0 -0.37506332691E+02  0.12169750256E+03 -0.45987275658E+03  0.47717916904E+03  0.25500000920E-02 0.  1.
       -2    1    3    3    0  502  0.37506332691E+02 -0.12169750256E+03  0.16338814275E+04  0.16388366381E+04  0.25500000920E-02 0. -1.
</event>
<event>
 5   0  0.1078787E-03  0.7461534E+03  0.7818609E-02  0.9641405E-01
       -1   -1    0    0    0  501  0.00000000000E+00  0.00000000000E+00  0.63697223579E+03  0.63697223581E+03  0.50400001928E-02 0. -1.
        1   -1    0    0  501    0  0.00000000000E+00  0.00000000000E+00 -0.21851220212E+03  0.21851220217E+03  0.50400001928E-02 0.  1.
    10030    2    1    2    0    0  0.00000000000E+00  0.00000000000E+00  0.41846003367E+03  0.85548443798E+03  0.74615335143E+03 0.  0.
        5    1    3    3  502    0 -0.40224926336E+02  0.34456093791E+03  0.51926645303E+02  0.35079730775E+03  0.46999998093E+01 0.  1.
       -5    1    3    3    0  502  0.40224926336E+02 -0.34456093791E+03  0.36653338837E+03  0.50468713023E+03  0.46999998093E+01 0. -1.
</event>
<event>
 5   0  0.1961098E-03  0.1560022E+04  0.7818609E-02  0.8845492E-01
        2   -1    0    0  501    0  0.00000000000E+00  0.00000000000E+00  0.13787827733E+04  0.13787827733E+04  0.25500000920E-02 0. -1.
       -2   -1    0    0    0  501  0.00000000000E+00  0.00000000000E+00 -0.44127109954E+03  0.44127109955E+03  0.25500000920E-02 0.  1.
    10030    2    1    2    0    0  0.00000000000E+00  0.00000000000E+00  0.93751167376E+03  0.18200538729E+04  0.15600217824E+04 0.  0.
        2    1    3    3  502    0 -0.60417371519E+03  0.35383035833E+03  0.86985659412E+03  0.11166343605E+04  0.25500000920E-02 0. -1.
       -2    1    3    3    0  502  0.60417371519E+03 -0.35383035833E+03  0.67655079640E+02  0.70341951239E+03  0.25500000920E-02 0.  1.
</event>
<event>
 5   0  0.1961098E-03  0.8895733E+03  0.7818609E-02  0.9438710E-01
        2   -1    0    0  501    0  0.00000000000E+00  0.00000000000E+00  0.75409387729E+03  0.75409387730E+03  0.25500000920E-02 0. -1.
       -2   -1    0    0    0  501  0.00000000000E+00  0.00000000000E+00 -0.26234817923E+03  0.26234817924E+03  0.25500000920E-02 0.  1.
    10030    2    1    2    0    0  0.00000000000E+00  0.00000000000E+00  0.49174569806E+03  0.10164420565E+04  0.88957328126E+03 0.  0.
        2    1    3    3  502    0  0.21157907389E+03 -0.38176019860E+03  0.34368920113E+03  0.55554371630E+03  0.25500000920E-02 0. -1.
       -2    1    3    3    0  502 -0.21157907389E+03  0.38176019860E+03  0.14805649694E+03  0.46089834024E+03  0.25500000920E-02 0.  1.
</event>
<event>
 5   0  0.1078018E-03  0.1579537E+04  0.7818609E-02  0.8833219E-01
       -1   -1    0    0    0  501  0.00000000000E+00  0.00000000000E+00  0.48920601123E+03  0.48920601125E+03  0.50400001928E-02 0. -1.
        1   -1    0    0  501    0  0.00000000000E+00  0.00000000000E+00 -0.12749927844E+04  0.12749927844E+04  0.50400001928E-02 0.  1.
    10030    2    1    2    0    0  0.00000000000E+00  0.00000000000E+00 -0.78578677319E+03  0.17641987957E+04  0.15795368111E+04 0.  0.
        4    1    3    3  502    0 -0.59587722817E+03 -0.51481653479E+03 -0.32562999918E+03  0.85213980356E+03  0.12699999809E+01 0.  1.
       -4    1    3    3    0  502  0.59587722817E+03  0.51481653479E+03 -0.46015677401E+03  0.91205899212E+03  0.12699999809E+01 0. -1.
</event>
<event>
 5   0  0.1993623E-03  0.1494014E+04  0.7818609E-02  0.8888444E-01
       -2   -1    0    0    0  501  0.00000000000E+00  0.00000000000E+00  0.46059973215E+03  0.46059973216E+03  0.25500000920E-02 0. -1.
        2   -1    0    0  501    0  0.00000000000E+00  0.00000000000E+00 -0.12115057128E+04  0.12115057128E+04  0.25500000920E-02 0.  1.
    10030    2    1    2    0    0  0.00000000000E+00  0.00000000000E+00 -0.75090598067E+03  0.16721054450E+04  0.14940136637E+04 0.  0.
        4    1    3    3  502    0  0.15318484630E+03  0.12897278286E+03  0.42999889382E+03  0.47434189931E+03  0.12699999809E+01 0. -1.
       -4    1    3    3    0  502 -0.15318484630E+03 -0.12897278286E+03 -0.11809048745E+04  0.11977635457E+04  0.12699999809E+01 0.  1.
</event>
<event>
 5   0  0.7468375E-04  0.1508954E+04  0.7818609E-02  0.8878521E-01
        3   -1    0    0  501    0  0.00000000000E+00  0.00000000000E+00  0.16110951740E+04  0.16110951771E+04  0.10100000352E+00 0. -1.
       -3   -1    0    0    0  501  0.00000000000E+00  0.00000000000E+00 -0.35332196396E+03  0.35332197840E+03  0.10100000352E+00 0.  1.
    10030    2    1    2    0    0  0.00000000000E+00  0.00000000000E+00  0.12577732100E+04  0.19644171555E+04  0.15089537147E+04 0.  0.
        3    1    3    3  502    0 -0.25645906332E+03 -0.17138426071E+03 -0.26748663981E+03  0.40828045343E+03  0.10100000352E+00 0.  1.
       -3    1    3    3    0  502  0.25645906332E+03  0.17138426071E+03  0.15252598498E+04  0.15561367021E+04  0.10100000352E+00 0. -1.
</event>
<event>
 5   0  0.7468375E-04  0.1393032E+04  0.7818609E-02  0.8958878E-01
        3   -1    0    0  501    0  0.00000000000E+00  0.00000000000E+00  0.17831425026E+04  0.17831425055E+04  0.10100000352E+00 0.  1.
       -3   -1    0    0    0  501  0.00000000000E+00  0.00000000000E+00 -0.27206715458E+03  0.27206717333E+03  0.10100000352E+00 0. -1.
    10030    2    1    2    0    0  0.00000000000E+00  0.00000000000E+00  0.15110753480E+04  0.20552096788E+04  0.13930319868E+04 0.  0.
        4    1    3    3  502    0  0.18652912701E+03  0.50746228295E+03  0.10768963207E+03  0.55128010448E+03  0.12699999809E+01 0. -1.
       -4    1    3    3    0  502 -0.18652912701E+03 -0.50746228295E+03  0.14033857160E+04  0.15039295743E+04  0.12699999809E+01 0.  1.
</event>
<event>
 5   0  0.1087761E-03  0.1483584E+04  0.7818609E-02  0.8895443E-01
        1   -1    0    0  501    0  0.00000000000E+00  0.00000000000E+00  0.12385973729E+04  0.12385973729E+04  0.50400001928E-02 0.  1.
       -1   -1    0    0    0  501  0.00000000000E+00  0.00000000000E+00 -0.44425691941E+03  0.44425691944E+03  0.50400001928E-02 0. -1.
    10030    2    1    2    0    0  0.00000000000E+00  0.00000000000E+00  0.79434045353E+03  0.16828542924E+04  0.14835841106E+04 0.  0.
        3    1    3    3  502    0 -0.58048088572E+03  0.96195320835E+02 -0.11521439947E+03  0.59957148571E+03  0.10100000352E+00 0. -1.
       -3    1    3    3    0  502  0.58048088572E+03 -0.96195320835E+02  0.90955485300E+03  0.10832828067E+04  0.10100000352E+00 0.  1.
</event>
<event>
 5   0  0.1961098E-03  0.1484920E+04  0.7818609E-02  0.8894543E-01
        2   -1    0    0  501    0  0.00000000000E+00  0.00000000000E+00  0.69668934774E+03  0.69668934774E+03  0.25500000920E-02 0.  1.
       -2   -1    0    0    0  501  0.00000000000E+00  0.00000000000E+00 -0.79123761081E+03  0.79123761081E+03  0.25500000920E-02 0. -1.
    10030    2    1    2    0    0  0.00000000000E+00  0.00000000000E+00 -0.94548263070E+02  0.14879269586E+04  0.14849199507E+04 0.  0.
        2    1    3    3  502    0  0.26879663133E+03  0.21014687434E+03  0.61348025720E+03  0.70197675445E+03  0.25500000920E-02 0.  1.
       -2    1    3    3    0  502 -0.26879663133E+03 -0.21014687434E+03 -0.70802852027E+03  0.78595020410E+03  0.25500000920E-02 0. -1.
</event>
<event>
 5   0  0.1077140E-03  0.1449812E+04  0.7818609E-02  0.8918531E-01
       -1   -1    0    0    0  501  0.00000000000E+00  0.00000000000E+00  0.10409099722E+04  0.10409099722E+04  0.50400001928E-02 0. -1.
        1   -1    0    0  501    0  0.00000000000E+00  0.00000000000E+00 -0.50483572711E+03  0.50483572714E+03  0.50400001928E-02 0.  1.
    10030    2    1    2    0    0  0.00000000000E+00  0.00000000000E+00  0.53607424508E+03  0.15457456993E+04  0.14498117708E+04 0.  0.
        1    1    3    3  502    0 -0.32962061311E+03  0.64279216310E+03  0.33251201648E+03  0.79523314484E+03  0.50400001928E-02 0.  1.
       -1    1    3    3    0  502  0.32962061311E+03 -0.64279216310E+03  0.20356222860E+03  0.75051255450E+03  0.50400001928E-02 0. -1.
</event>
<event>
 5   0  0.1961098E-03  0.8183233E+03  0.7818609E-02  0.9533867E-01
       -2   -1    0    0    0  501  0.00000000000E+00  0.00000000000E+00  0.13431905978E+03  0.13431905980E+03  0.25500000920E-02 0. -1.
        2   -1    0    0  501    0  0.00000000000E+00  0.00000000000E+00 -0.12463849608E+04  0.12463849608E+04  0.25500000920E-02 0.  1.
    10030    2    1    2    0    0  0.00000000000E+00  0.00000000000E+00 -0.11120659010E+04  0.13807040206E+04  0.81832330058E+03 0.  0.
        2    1    3    3  502    0 -0.83048337602E+02 -0.16778847684E+02 -0.12314219115E+04  0.12343332128E+04  0.25500000920E-02 0.  1.
       -2    1    3    3    0  502  0.83048337602E+02  0.16778847684E+02  0.11935601052E+03  0.14637080775E+03  0.25500000920E-02 0. -1.
</event>
<event>
 5   0  0.1961098E-03  0.1520541E+04  0.7818609E-02  0.8870907E-01
       -2   -1    0    0    0  501  0.00000000000E+00  0.00000000000E+00  0.36605283199E+03  0.36605283200E+03  0.25500000920E-02 0. -1.
        2   -1    0    0  501    0  0.00000000000E+00  0.00000000000E+00 -0.15790369996E+04  0.15790369996E+04  0.25500000920E-02 0.  1.
    10030    2    1    2    0    0  0.00000000000E+00  0.00000000000E+00 -0.12129841676E+04  0.19450898316E+04  0.15205406480E+04 0.  0.
        2    1    3    3  502    0 -0.13693261340E+03 -0.74223400549E+03 -0.48960632068E+03  0.89965338257E+03  0.25500000920E-02 0.  1.
       -2    1    3    3    0  502  0.13693261340E+03  0.74223400549E+03 -0.72337784695E+03  0.10454364490E+04  0.25500000920E-02 0. -1.
</event>
<event>
 5   0  0.1087761E-03  0.1481169E+04  0.7818609E-02  0.8897073E-01
       -1   -1    0    0    0  501  0.00000000000E+00  0.00000000000E+00  0.41146765962E+03  0.41146765965E+03  0.50400001928E-02 0. -1.
        1   -1    0    0  501    0  0.00000000000E+00  0.00000000000E+00 -0.13329496107E+04  0.13329496107E+04  0.50400001928E-02 0.  1.
    10030    2    1    2    0    0  0.00000000000E+00  0.00000000000E+00 -0.92148195106E+03  0.17444172703E+04  0.14811693444E+04 0.  0.
        3    1    3    3  502    0 -0.44125046053E+03 -0.52567088369E+03 -0.78846701377E+03  0.10453286990E+04  0.10100000352E+00 0.  1.
       -3    1    3    3    0  502  0.44125046053E+03  0.52567088369E+03 -0.13301493729E+03  0.69908857137E+03  0.10100000352E+00 0. -1.
</event>
<event>
 5   0  0.1077140E-03  0.1513971E+04  0.7818609E-02  0.8875215E-01
        1   -1    0    0  501    0  0.00000000000E+00  0.00000000000E+00  0.65256494961E+03  0.65256494963E+03  0.50400001928E-02 0.  1.
       -1   -1    0    0    0  501  0.00000000000E+00  0.00000000000E+00 -0.87811475359E+03  0.87811475360E+03  0.50400001928E-02 0. -1.
    10030    2    1    2    0    0  0.00000000000E+00  0.00000000000E+00 -0.22554980398E+03  0.15306797032E+04  0.15139708187E+04 0.  0.
        1    1    3    3  502    0 -0.64881720888E+03  0.12738107332E+03  0.25985369566E+03  0.71043201755E+03  0.50400001928E-02 0.  1.
       -1    1    3    3    0  502  0.64881720888E+03 -0.12738107332E+03 -0.48540349964E+03  0.82024768568E+03  0.50400001928E-02 0. -1.
</event>
<event>
 5   0  0.1087761E-03  0.1182013E+04  0.7818609E-02  0.9128748E-01
        1   -1    0    0  501    0  0.00000000000E+00  0.00000000000E+00  0.11297504390E+04  0.11297504390E+04  0.50400001928E-02 0.  1.
       -1   -1    0    0    0  501  0.00000000000E+00  0.00000000000E+00 -0.30917309450E+03  0.30917309454E+03  0.50400001928E-02 0. -1.
    10030    2    1    2    0    0  0.00000000000E+00  0.00000000000E+00  0.82057734451E+03  0.14389235336E+04  0.11820125876E+04 0.  0.
        3    1    3    3  502    0  0.42317846301E+03  0.53866952934E+02  0.90822334666E+03  0.10034198113E+04  0.10100000352E+00 0.  1.
       -3    1    3    3    0  502 -0.42317846301E+03 -0.53866952934E+02 -0.87646002152E+02  0.43550372222E+03  0.10100000352E+00 0. -1.
</event>
<event>
 5   0  0.7468375E-04  0.1481943E+04  0.7818609E-02  0.8896550E-01
        3   -1    0    0  501    0  0.00000000000E+00  0.00000000000E+00  0.67456258897E+03  0.67456259653E+03  0.10100000352E+00 0.  1.
       -3   -1    0    0    0  501  0.00000000000E+00  0.00000000000E+00 -0.81391855069E+03  0.81391855695E+03  0.10100000352E+00 0. -1.
    10030    2    1    2    0    0  0.00000000000E+00  0.00000000000E+00 -0.13935596172E+03  0.14884811535E+04  0.14819433391E+04 0.  0.
        1    1    3    3  502    0 -0.27655597448E+03 -0.52161827036E+03 -0.51939222132E+03  0.78634414005E+03  0.50400001928E-02 0. -1.
       -1    1    3    3    0  502  0.27655597448E+03  0.52161827036E+03  0.38003625960E+03  0.70213701343E+03  0.50400001928E-02 0.  1.
</event>
<event>
 5   0  0.1078018E-03  0.1510287E+04  0.7818609E-02  0.8877641E-01
        1   -1    0    0  501    0  0.00000000000E+00  0.00000000000E+00  0.66498807658E+03  0.66498807660E+03  0.50400001928E-02 0.  1.
       -1   -1    0    0    0  501  0.00000000000E+00  0.00000000000E+00 -0.85752167406E+03  0.85752167408E+03  0.50400001928E-02 0. -1.
    10030    2    1    2    0    0  0.00000000000E+00  0.00000000000E+00 -0.19253359748E+03  0.15225097507E+04  0.15102869776E+04 0.  0.
        4    1    3    3  502    0 -0.45301794367E+03 -0.56194117545E+03  0.12742296200E+03  0.73296750685E+03  0.12699999809E+01 0.  1.
       -4    1    3    3    0  502  0.45301794367E+03  0.56194117545E+03 -0.31995655948E+03  0.78954224384E+03  0.12699999809E+01 0. -1.
</event>
<event>
 5   0  0.1078018E-03  0.1477385E+04  0.7818609E-02  0.8899632E-01
        1   -1    0    0  501    0  0.00000000000E+00  0.00000000000E+00  0.10998365799E+04  0.10998365799E+04  0.50400001928E-02 0.  1.
       -1   -1    0    0    0  501  0.00000000000E+00  0.00000000000E+00 -0.49613457480E+03  0.49613457483E+03  0.50400001928E-02 0. -1.
    10030    2    1    2    0    0  0.00000000000E+00  0.00000000000E+00  0.60370200505E+03  0.15959711547E+04  0.14773854662E+04 0.  0.
        4    1    3    3  502    0 -0.47916101924E+02  0.20712981623E+03  0.10660716670E+04  0.10870644533E+04  0.12699999809E+01 0.  1.
       -4    1    3    3    0  502  0.47916101924E+02 -0.20712981623E+03 -0.46236966190E+03  0.50890670142E+03  0.12699999809E+01 0. -1.
</event>
<event>
 5   0  0.2094566E-03  0.1502611E+04  0.7818609E-02  0.8882718E-01
        2   -1    0    0  501    0  0.00000000000E+00  0.00000000000E+00  0.60718305176E+03  0.60718305176E+03  0.25500000920E-02 0.  1.
       -2   -1    0    0    0  501  0.00000000000E+00  0.00000000000E+00 -0.92963749468E+03  0.92963749468E+03  0.25500000920E-02 0. -1.
    10030    2    1    2    0    0  0.00000000000E+00  0.00000000000E+00 -0.32245444292E+03  0.15368205464E+04  0.15026112352E+04 0.  0.
        1    1    3    3  502    0 -0.56097126957E+03 -0.15673636348E+03  0.32413460467E+03  0.66657204779E+03  0.50400001928E-02 0.  1.
       -1    1    3    3    0  502  0.56097126957E+03  0.15673636348E+03 -0.64658904759E+03  0.87024849865E+03  0.50400001928E-02 0. -1.
</event>
<event>
 5   0  0.2150197E-03  0.1462936E+04  0.7818609E-02  0.8909481E-01
       -2   -1    0    0    0  501  0.00000000000E+00  0.00000000000E+00  0.36983049236E+03  0.36983049237E+03  0.25500000920E-02 0.  1.
        2   -1    0    0  501    0  0.00000000000E+00  0.00000000000E+00 -0.14467308686E+04  0.14467308686E+04  0.25500000920E-02 0. -1.
    10030    2    1    2    0    0  0.00000000000E+00  0.00000000000E+00 -0.10769003762E+04  0.18165613609E+04  0.14629356643E+04 0.  0.
        3    1    3    3  502    0  0.40484986566E+03 -0.47340076007E+03 -0.62312047490E+02  0.62601477205E+03  0.10100000352E+00 0.  1.
       -3    1    3    3    0  502 -0.40484986566E+03  0.47340076007E+03 -0.10145883287E+04  0.11905465889E+04  0.10100000352E+00 0. -1.
</event>
<event>
 5   0  0.7468375E-04  0.1495750E+04  0.7818609E-02  0.8887284E-01
       -3   -1    0    0    0  501  0.00000000000E+00  0.00000000000E+00  0.59720882226E+03  0.59720883080E+03  0.10100000352E+00 0. -1.
        3   -1    0    0  501    0  0.00000000000E+00  0.00000000000E+00 -0.93655196317E+03  0.93655196862E+03  0.10100000352E+00 0.  1.
    10030    2    1    2    0    0  0.00000000000E+00  0.00000000000E+00 -0.33934314091E+03  0.15337607994E+04  0.14957501204E+04 0.  0.
        4    1    3    3  502    0  0.20295595354E+03 -0.45171786978E+03  0.40499443405E+03  0.63973608423E+03  0.12699999809E+01 0. -1.
       -4    1    3    3    0  502 -0.20295595354E+03  0.45171786978E+03 -0.74433757496E+03  0.89402471518E+03  0.12699999809E+01 0.  1.
</event>
<event>
 5   0  0.1961098E-03  0.1255343E+04  0.7818609E-02  0.9065748E-01
        2   -1    0    0  501    0  0.00000000000E+00  0.00000000000E+00  0.41109907848E+03  0.41109907849E+03  0.25500000920E-02 0.  1.
       -2   -1    0    0    0  501  0.00000000000E+00  0.00000000000E+00 -0.95833723474E+03  0.95833723474E+03  0.25500000920E-02 0. -1.
    10030    2    1    2    0    0  0.00000000000E+00  0.00000000000E+00 -0.54723815626E+03  0.13694363132E+04  0.12553430672E+04 0.  0.
        2    1    3    3  502    0  0.22357620588E+03 -0.10310765155E+02  0.36608952285E+03  0.42908527178E+03  0.25500000920E-02 0.  1.
       -2    1    3    3    0  502 -0.22357620588E+03  0.10310765155E+02 -0.91332767911E+03  0.94035104144E+03  0.25500000920E-02 0. -1.
</event>
<event>
 5   0  0.1993623E-03  0.1635172E+04  0.7818609E-02  0.8799227E-01
       -2   -1    0    0    0  501  0.00000000000E+00  0.00000000000E+00  0.13513208121E+04  0.13513208121E+04  0.25500000920E-02 0.  1.
        2   -1    0    0  501    0  0.00000000000E+00  0.00000000000E+00 -0.49466197849E+03  0.49466197850E+03  0.25500000920E-02 0. -1.
    10030    2    1    2    0    0  0.00000000000E+00  0.00000000000E+00  0.85665883361E+03  0.18459827906E+04  0.16351721946E+04 0.  0.
        4    1    3    3  502    0  0.47572883198E+03 -0.21553113473E+03  0.11384511648E+04  0.12525351329E+04  0.12699999809E+01 0.  1.
       -4    1    3    3    0  502 -0.47572883198E+03  0.21553113473E+03 -0.28179233119E+03  0.59344765770E+03  0.12699999809E+01 0. -1.
</event>
<event>
 5   0  0.1078018E-03  0.1502427E+04  0.7818609E-02  0.8882841E-01
        1   -1    0    0  501    0  0.00000000000E+00  0.00000000000E+00  0.95548996093E+03  0.95548996095E+03  0.50400001928E-02 0. -1.
       -1   -1    0    0    0  501  0.00000000000E+00  0.00000000000E+00 -0.59060959136E+03  0.59060959138E+03  0.50400001928E-02 0.  1.
    10030    2    1    2    0    0  0.00000000000E+00  0.00000000000E+00  0.36488036957E+03  0.15460995523E+04  0.15024267508E+04 0.  0.
        4    1    3    3  502    0  0.21940929923E+03  0.60079079929E+03  0.58788507554E+03  0.86873499990E+03  0.12699999809E+01 0. -1.
       -4    1    3    3    0  502 -0.21940929923E+03 -0.60079079929E+03 -0.22300470597E+03  0.67736455243E+03  0.12699999809E+01 0.  1.
</event>
<event>
 5   0  0.2111533E-03  0.1533938E+04  0.7818609E-02  0.8862193E-01
        2   -1    0    0  501    0  0.00000000000E+00  0.00000000000E+00  0.62422844650E+03  0.62422844650E+03  0.25500000920E-02 0.  1.
       -2   -1    0    0    0  501  0.00000000000E+00  0.00000000000E+00 -0.94234989560E+03  0.94234989561E+03  0.25500000920E-02 0. -1.
    10030    2    1    2    0    0  0.00000000000E+00  0.00000000000E+00 -0.31812144911E+03  0.15665783421E+04  0.15339382144E+04 0.  0.
        5    1    3    3  502    0 -0.37863247990E+02 -0.26245424976E+03  0.57590780299E+03  0.63404080808E+03  0.46999998093E+01 0.  1.
       -5    1    3    3    0  502  0.37863247990E+02  0.26245424976E+03 -0.89402925210E+03  0.93253753403E+03  0.46999998093E+01 0. -1.
</event>
<event>
 5   0  0.2150197E-03  0.1491839E+04  0.7818609E-02  0.8889898E-01
       -2   -1    0    0    0  501  0.00000000000E+00  0.00000000000E+00  0.42403254688E+03  0.42403254688E+03  0.25500000920E-02 0. -1.
        2   -1    0    0  501    0  0.00000000000E+00  0.00000000000E+00 -0.13121539414E+04  0.13121539414E+04  0.25500000920E-02 0.  1.
    10030    2    1    2    0    0  0.00000000000E+00  0.00000000000E+00 -0.88812139456E+03  0.17361864883E+04  0.14918391035E+04 0.  0.
        3    1    3    3  502    0  0.53200729009E+03 -0.23944807540E+03 -0.98497721346E+03  0.11447913604E+04  0.10100000352E+00 0.  1.
       -3    1    3    3    0  502 -0.53200729009E+03  0.23944807540E+03  0.96855818899E+02  0.59139512796E+03  0.10100000352E+00 0. -1.
</event>
<event>
 5   0  0.1078018E-03  0.1535372E+04  0.7818609E-02  0.8861266E-01
       -1   -1    0    0    0  501  0.00000000000E+00  0.00000000000E+00  0.30371299669E+03  0.30371299673E+03  0.50400001928E-02 0. -1.
        1   -1    0    0  501    0  0.00000000000E+00  0.00000000000E+00 -0.19404557014E+04  0.19404557014E+04  0.50400001928E-02 0.  1.
    10030    2    1    2    0    0  0.00000000000E+00  0.00000000000E+00 -0.16367427047E+04  0.22441686981E+04  0.15353717675E+04 0.  0.
        4    1    3    3  502    0  0.30316061082E+03 -0.17619040449E+03 -0.18165696826E+04  0.18501017375E+04  0.12699999809E+01 0. -1.
       -4    1    3    3    0  502 -0.30316061082E+03  0.17619040449E+03  0.17982697787E+03  0.39406696063E+03  0.12699999809E+01 0.  1.
</event>
<event>
 5   0  0.1087761E-03  0.1443697E+04  0.7818609E-02  0.8922782E-01
       -1   -1    0    0    0  501  0.00000000000E+00  0.00000000000E+00  0.58871865039E+03  0.58871865041E+03  0.50400001928E-02 0. -1.
        1   -1    0    0  501    0  0.00000000000E+00  0.00000000000E+00 -0.88508424134E+03  0.88508424136E+03  0.50400001928E-02 0.  1.
    10030    2    1    2    0    0  0.00000000000E+00  0.00000000000E+00 -0.29636559095E+03  0.14738028918E+04  0.14436974753E+04 0.  0.
        3    1    3    3  502    0  0.49426431930E+02 -0.30252119096E+03 -0.81534248247E+03  0.87105993885E+03  0.10100000352E+00 0.  1.
       -3    1    3    3    0  502 -0.49426431930E+02  0.30252119096E+03  0.51897689152E+03  0.60274295291E+03  0.10100000352E+00 0. -1.
</event>
<event>
 5   0  0.1993623E-03  0.1528880E+04  0.7818609E-02  0.8865472E-01
       -2   -1    0    0    0  501  0.00000000000E+00  0.00000000000E+00  0.57312606633E+03  0.57312606633E+03  0.25500000920E-02 0. -1.
        2   -1    0    0  501    0  0.00000000000E+00  0.00000000000E+00 -0.10196157432E+04  0.10196157432E+04  0.25500000920E-02 0.  1.
    10030    2    1    2    0    0  0.00000000000E+00  0.00000000000E+00 -0.44648967686E+03  0.15927418095E+04  0.15288797992E+04 0.  0.
        4    1    3    3  502    0 -0.44871539159E+03 -0.42976175645E+03 -0.68718497814E+03  0.92642618542E+03  0.12699999809E+01 0. -1.
       -4    1    3    3    0  502  0.44871539159E+03  0.42976175645E+03  0.24069530129E+03  0.66631562410E+03  0.12699999809E+01 0.  1.
</event>
<event>
 5   0  0.2111533E-03  0.1498876E+04  0.7818609E-02  0.8885201E-01
       -2   -1    0    0    0  501  0.00000000000E+00  0.00000000000E+00  0.98047734972E+03  0.98047734972E+03  0.25500000920E-02 0.  1.
        2   -1    0    0  501    0  0.00000000000E+00  0.00000000000E+00 -0.57284061284E+03  0.57284061284E+03  0.25500000920E-02 0. -1.
    10030    2    1    2    0    0  0.00000000000E+00  0.00000000000E+00  0.40763673688E+03  0.15533179626E+04  0.14988759067E+04 0.  0.
        5    1    3    3  502    0  0.13118754124E+03  0.19951491905E+03 -0.53234870909E+03  0.58346689021E+03  0.46999998093E+01 0. -1.
       -5    1    3    3    0  502 -0.13118754124E+03 -0.19951491905E+03  0.93998544597E+03  0.96985107235E+03  0.46999998093E+01 0.  1.
</event>
<event>
 5   0  0.1961098E-03  0.1564215E+04  0.7818609E-02  0.8842839E-01
        2   -1    0    0  501    0  0.00000000000E+00  0.00000000000E+00  0.82057273503E+03  0.82057273504E+03  0.25500000920E-02 0. -1.
       -2   -1    0    0    0  501  0.00000000000E+00  0.00000000000E+00 -0.74544557127E+03  0.74544557127E+03  0.25500000920E-02 0.  1.
    10030    2    1    2    0    0  0.00000000000E+00  0.00000000000E+00  0.75127163763E+02  0.15660183063E+04  0.15642152170E+04 0.  0.
        2    1    3    3  502    0 -0.28001386806E+03 -0.50432159509E+03  0.56632414113E+03  0.80837557510E+03  0.25500000920E-02 0. -1.
       -2    1    3    3    0  502  0.28001386806E+03  0.50432159509E+03 -0.49119697737E+03  0.75764273121E+03  0.25500000920E-02 0.  1.
</event>
<event>
 5   0  0.1961098E-03  0.1448749E+04  0.7818609E-02  0.8919269E-01
       -2   -1    0    0    0  501  0.00000000000E+00  0.00000000000E+00  0.16069523137E+04  0.16069523137E+04  0.25500000920E-02 0. -1.
        2   -1    0    0  501    0  0.00000000000E+00  0.00000000000E+00 -0.32652997347E+03  0.32652997348E+03  0.25500000920E-02 0.  1.
    10030    2    1    2    0    0  0.00000000000E+00  0.00000000000E+00  0.12804223402E+04  0.19334822872E+04  0.14487485584E+04 0.  0.
        2    1    3    3  502    0  0.27505303195E+03  0.42936293823E+03 -0.46435784012E+02  0.51201853986E+03  0.25500000920E-02 0.  1.
       -2    1    3    3    0  502 -0.27505303195E+03 -0.42936293823E+03  0.13268581242E+04  0.14214637473E+04  0.25500000920E-02 0. -1.
</event>
<event>
 5   0  0.1993623E-03  0.1532500E+04  0.7818609E-02  0.8863124E-01
       -2   -1    0    0    0  501  0.00000000000E+00  0.00000000000E+00  0.74588932802E+03  0.74588932802E+03  0.25500000920E-02 0. -1.
        2   -1    0    0  501    0  0.00000000000E+00  0.00000000000E+00 -0.78716638873E+03  0.78716638873E+03  0.25500000920E-02 0.  1.
    10030    2    1    2    0    0  0.00000000000E+00  0.00000000000E+00 -0.41277060714E+02  0.15330557168E+04  0.15324999298E+04 0.  0.
        4    1    3    3  502    0  0.18092648675E+02  0.25980323997E+03  0.70025610233E+03  0.74711798880E+03  0.12699999809E+01 0. -1.
       -4    1    3    3    0  502 -0.18092648675E+02 -0.25980323997E+03 -0.74153316304E+03  0.78593772796E+03  0.12699999809E+01 0.  1.
</event>
<event>
 5   0  0.2111533E-03  0.1403652E+04  0.7818609E-02  0.8951180E-01
       -2   -1    0    0    0  501  0.00000000000E+00  0.00000000000E+00  0.12323999383E+04  0.12323999383E+04  0.25500000920E-02 0. -1.
        2   -1    0    0  501    0  0.00000000000E+00  0.00000000000E+00 -0.39967503097E+03  0.39967503098E+03  0.25500000920E-02 0.  1.
    10030    2    1    2    0    0  0.00000000000E+00  0.00000000000E+00  0.83272490729E+03  0.16320749692E+04  0.14036516427E+04 0.  0.
        5    1    3    3  502    0 -0.37548408845E+03 -0.57521544477E+03  0.24916986580E+03  0.73073170221E+03  0.46999998093E+01 0.  1.
       -5    1    3    3    0  502  0.37548408845E+03  0.57521544477E+03  0.58355504149E+03  0.90134326704E+03  0.46999998093E+01 0. -1.
</event>
<event>
 5   0  0.7468375E-04  0.1511829E+04  0.7818609E-02  0.8876625E-01
       -4   -1    0    0    0  501  0.00000000000E+00  0.00000000000E+00  0.65038125447E+03  0.65038249443E+03  0.12699999809E+01 0. -1.
        4   -1    0    0  501    0  0.00000000000E+00  0.00000000000E+00 -0.87856953941E+03  0.87857045732E+03  0.12699999809E+01 0.  1.
    10030    2    1    2    0    0  0.00000000000E+00  0.00000000000E+00 -0.22818828494E+03  0.15289529518E+04  0.15118291025E+04 0.  0.
        2    1    3    3  502    0  0.69020406482E+03 -0.24493369570E+02 -0.42486154087E+03  0.81085689561E+03  0.25500000920E-02 0.  1.
       -2    1    3    3    0  502 -0.69020406482E+03  0.24493369570E+02  0.19667325594E+03  0.71809605614E+03  0.25500000920E-02 0. -1.
</event>
<event>
 5   0  0.2150197E-03  0.1121275E+04  0.7818609E-02  0.9184700E-01
        2   -1    0    0  501    0  0.00000000000E+00  0.00000000000E+00  0.86639274925E+03  0.86639274925E+03  0.25500000920E-02 0. -1.
       -2   -1    0    0    0  501  0.00000000000E+00  0.00000000000E+00 -0.36278517707E+03  0.36278517708E+03  0.25500000920E-02 0.  1.
    10030    2    1    2    0    0  0.00000000000E+00  0.00000000000E+00  0.50360757217E+03  0.12291779263E+04  0.11212750723E+04 0.  0.
        3    1    3    3  502    0 -0.27988508073E+03 -0.15571454312E+02  0.78405397498E+03  0.83265765743E+03  0.10100000352E+00 0. -1.
       -3    1    3    3    0  502  0.27988508073E+03  0.15571454312E+02 -0.28044640280E+03  0.39652026890E+03  0.10100000352E+00 0.  1.
</event>
<event>
 5   0  0.1077140E-03  0.1515321E+04  0.7818609E-02  0.8874328E-01
       -1   -1    0    0    0  501  0.00000000000E+00  0.00000000000E+00  0.34414941431E+03  0.34414941435E+03  0.50400001928E-02 0.  1.
        1   -1    0    0  501    0  0.00000000000E+00  0.00000000000E+00 -0.16680239464E+04  0.16680239464E+04  0.50400001928E-02 0. -1.
    10030    2    1    2    0    0  0.00000000000E+00  0.00000000000E+00 -0.13238745321E+04  0.20121733607E+04  0.15153210409E+04 0.  0.
        1    1    3    3  502    0 -0.31022142631E+02  0.18006362440E+03 -0.16383300050E+04  0.16484873331E+04  0.50400001928E-02 0. -1.
       -1    1    3    3    0  502  0.31022142631E+02 -0.18006362440E+03  0.31445547295E+03  0.36368602758E+03  0.50400001928E-02 0.  1.
</event>
<event>
 5   0  0.1077140E-03  0.1787789E+04  0.7818609E-02  0.8712820E-01
        1   -1    0    0  501    0  0.00000000000E+00  0.00000000000E+00  0.82836744103E+03  0.82836744105E+03  0.50400001928E-02 0. -1.
       -1   -1    0    0    0  501  0.00000000000E+00  0.00000000000E+00 -0.96460541094E+03  0.96460541095E+03  0.50400001928E-02 0.  1.
    10030    2    1    2    0    0  0.00000000000E+00  0.00000000000E+00 -0.13623796990E+03  0.17929728520E+04  0.17877893790E+04 0.  0.
        1    1    3    3  502    0  0.52908559539E+02  0.78355794594E+03  0.36006777955E+03  0.86395091077E+03  0.50400001928E-02 0. -1.
       -1    1    3    3    0  502 -0.52908559539E+02 -0.78355794594E+03 -0.49630574945E+03  0.92902194123E+03  0.50400001928E-02 0.  1.
</event>
<event>
 5   0  0.1961098E-03  0.1500286E+04  0.7818609E-02  0.8884263E-01
       -2   -1    0    0    0  501  0.00000000000E+00  0.00000000000E+00  0.55583476789E+03  0.55583476790E+03  0.25500000920E-02 0. -1.
        2   -1    0    0  501    0  0.00000000000E+00  0.00000000000E+00 -0.10123770126E+04  0.10123770126E+04  0.25500000920E-02 0.  1.
    10030    2    1    2    0    0  0.00000000000E+00  0.00000000000E+00 -0.45654224472E+03  0.15682117805E+04  0.15002857619E+04 0.  0.
        2    1    3    3  502    0 -0.43257244810E+03 -0.53627784611E+03 -0.53835253852E+03  0.87437766830E+03  0.25500000920E-02 0.  1.
       -2    1    3    3    0  502  0.43257244810E+03  0.53627784611E+03  0.81810293797E+02  0.69383411221E+03  0.25500000920E-02 0. -1.
</event>
<event>
 5   0  0.1993623E-03  0.1493173E+04  0.7818609E-02  0.8889005E-01
       -2   -1    0    0    0  501  0.00000000000E+00  0.00000000000E+00  0.65196404324E+03  0.65196404324E+03  0.25500000920E-02 0. -1.
        2   -1    0    0  501    0  0.00000000000E+00  0.00000000000E+00 -0.85494245369E+03  0.85494245369E+03  0.25500000920E-02 0.  1.
    10030    2    1    2    0    0  0.00000000000E+00  0.00000000000E+00 -0.20297841045E+03  0.15069064969E+04  0.14931734512E+04 0.  0.
        4    1    3    3  502    0 -0.14637307316E+03 -0.26562948131E+03  0.58699193476E+03  0.66071570456E+03  0.12699999809E+01 0. -1.
       -4    1    3    3    0  502  0.14637307316E+03  0.26562948131E+03 -0.78997034521E+03  0.84619079237E+03  0.12699999809E+01 0.  1.
</event>
<event>
 5   0  0.1078787E-03  0.1518359E+04  0.7818609E-02  0.8872336E-01
       -1   -1    0    0    0  501  0.00000000000E+00  0.00000000000E+00  0.47208497020E+03  0.47208497023E+03  0.50400001928E-02 0. -1.
        1   -1    0    0  501    0  0.00000000000E+00  0.00000000000E+00 -0.12208677417E+04  0.12208677417E+04  0.50400001928E-02 0.  1.
    10030    2    1    2    0    0  0.00000000000E+00  0.00000000000E+00 -0.74878277148E+03  0.16929527119E+04  0.15183587343E+04 0.  0.
        5    1    3    3  502    0 -0.34626122763E+03  0.67544206405E+03 -0.39064124394E+03  0.85366357021E+03  0.46999998093E+01 0.  1.
       -5    1    3    3    0  502  0.34626122763E+03 -0.67544206405E+03 -0.35814152754E+03  0.83928914171E+03  0.46999998093E+01 0. -1.
</event>
<event>
 5   0  0.2094566E-03  0.1842648E+04  0.7818609E-02  0.8683943E-01
       -2   -1    0    0    0  501  0.00000000000E+00  0.00000000000E+00  0.12817708904E+04  0.12817708904E+04  0.25500000920E-02 0.  1.
        2   -1    0    0  501    0  0.00000000000E+00  0.00000000000E+00 -0.66223868342E+03  0.66223868342E+03  0.25500000920E-02 0. -1.
    10030    2    1    2    0    0  0.00000000000E+00  0.00000000000E+00  0.61953220694E+03  0.19440095738E+04  0.18426483841E+04 0.  0.
        1    1    3    3  502    0  0.18979168346E+03  0.89388677413E+02  0.12562368829E+04  0.12736335127E+04  0.50400001928E-02 0.  1.
       -1    1    3    3    0  502 -0.18979168346E+03 -0.89388677413E+02 -0.63670467598E+03  0.67037606103E+03  0.50400001928E-02 0. -1.
</event>
<event>
 5   0  0.1078787E-03  0.1498715E+04  0.7818609E-02  0.8885308E-01
       -1   -1    0    0    0  501  0.00000000000E+00  0.00000000000E+00  0.61150274320E+03  0.61150274322E+03  0.50400001928E-02 0. -1.
        1   -1    0    0  501    0  0.00000000000E+00  0.00000000000E+00 -0.91828933539E+03  0.91828933541E+03  0.50400001928E-02 0.  1.
    10030    2    1    2    0    0  0.00000000000E+00  0.00000000000E+00 -0.30678659219E+03  0.15297920786E+04  0.14987147129E+04 0.  0.
        5    1    3    3  502    0 -0.38662820095E+03 -0.39459313562E+03 -0.67018141401E+03  0.86853343409E+03  0.46999998093E+01 0.  1.
       -5    1    3    3    0  502  0.38662820095E+03  0.39459313562E+03  0.36339482182E+03  0.66125864454E+03  0.46999998093E+01 0. -1.
</event>
<event>
 5   0  0.1078018E-03  0.1190037E+04  0.7818609E-02  0.9121622E-01
       -1   -1    0    0    0  501  0.00000000000E+00  0.00000000000E+00  0.56205789654E+03  0.56205789657E+03  0.50400001928E-02 0.  1.
        1   -1    0    0  501    0  0.00000000000E+00  0.00000000000E+00 -0.62991151281E+03  0.62991151283E+03  0.50400001928E-02 0. -1.
    10030    2    1    2    0    0  0.00000000000E+00  0.00000000000E+00 -0.67853616264E+02  0.11919694094E+04  0.11900365371E+04 0.  0.
        4    1    3    3  502    0  0.28415049193E+03 -0.50446940740E+03 -0.17131461053E+03  0.60380559267E+03  0.12699999809E+01 0. -1.
       -4    1    3    3    0  502 -0.28415049193E+03  0.50446940740E+03  0.10346099426E+03  0.58816381672E+03  0.12699999809E+01 0.  1.
</event>
<event>
 5   0  0.1077140E-03  0.1480336E+04  0.7818609E-02  0.8897635E-01
       -1   -1    0    0    0  501  0.00000000000E+00  0.00000000000E+00  0.55852467160E+03  0.55852467162E+03  0.50400001928E-02 0. -1.
        1   -1    0    0  501    0  0.00000000000E+00  0.00000000000E+00 -0.98088576170E+03  0.98088576171E+03  0.50400001928E-02 0.  1.
    10030    2    1    2    0    0  0.00000000000E+00  0.00000000000E+00 -0.42236109010E+03  0.15394104333E+04  0.14803363104E+04 0.  0.
        1    1    3    3  502    0  0.87068230817E+02  0.11088509445E+03  0.54443292616E+03  0.56239096019E+03  0.50400001928E-02 0. -1.
       -1    1    3    3    0  502 -0.87068230817E+02 -0.11088509445E+03 -0.96679401626E+03  0.97701947314E+03  0.50400001928E-02 0.  1.
</event>
<event>
 5   0  0.1077140E-03  0.1530227E+04  0.7818609E-02  0.8864597E-01
       -1   -1    0    0    0  501  0.00000000000E+00  0.00000000000E+00  0.47185407069E+03  0.47185407071E+03  0.50400001928E-02 0. -1.
        1   -1    0    0  501    0  0.00000000000E+00  0.00000000000E+00 -0.12406350622E+04  0.12406350622E+04  0.50400001928E-02 0.  1.
    10030    2    1    2    0    0  0.00000000000E+00  0.00000000000E+00 -0.76878099155E+03  0.17124891330E+04  0.15302270477E+04 0.  0.
        1    1    3    3  502    0  0.55859086823E+03  0.51614347970E+03 -0.29095433963E+03  0.81429864146E+03  0.50400001928E-02 0.  1.
       -1    1    3    3    0  502 -0.55859086823E+03 -0.51614347970E+03 -0.47782665192E+03  0.89819049150E+03  0.50400001928E-02 0. -1.
</event>
<event>
 5   0  0.1077140E-03  0.1944877E+04  0.7818609E-02  0.8632835E-01
       -1   -1    0    0    0  501  0.00000000000E+00  0.00000000000E+00  0.52275956256E+03  0.52275956258E+03  0.50400001928E-02 0.  1.
        1   -1    0    0  501    0  0.00000000000E+00  0.00000000000E+00 -0.18089315547E+04  0.18089315547E+04  0.50400001928E-02 0. -1.
    10030    2    1    2    0    0  0.00000000000E+00  0.00000000000E+00 -0.12861719921E+04  0.23316911173E+04  0.19448766216E+04 0.  0.
        1    1    3    3  502    0 -0.54944217864E+02  0.79551200150E+03 -0.13103601262E+04  0.15339171659E+04  0.50400001928E-02 0. -1.
       -1    1    3    3    0  502  0.54944217864E+02 -0.79551200150E+03  0.24188134054E+02  0.79777395135E+03  0.50400001928E-02 0.  1.
</event>
<event>
 5   0  0.1069697E-03  0.1493300E+04  0.7818609E-02  0.8888921E-01
       -1   -1    0    0    0  501  0.00000000000E+00  0.00000000000E+00  0.61395206675E+03  0.61395206677E+03  0.50400001928E-02 0. -1.
        1   -1    0    0  501    0  0.00000000000E+00  0.00000000000E+00 -0.90802830816E+03  0.90802830817E+03  0.50400001928E-02 0.  1.
    10030    2    1    2    0    0  0.00000000000E+00  0.00000000000E+00 -0.29407624141E+03  0.15219803749E+04  0.14932995098E+04 0.  0.
        2    1    3    3  502    0  0.51773343126E+03 -0.31049813550E+03 -0.59482694573E+03  0.84751170692E+03  0.25500000920E-02 0.  1.
       -2    1    3    3    0  502 -0.51773343126E+03  0.31049813550E+03  0.30075070432E+03  0.67446866803E+03  0.25500000920E-02 0. -1.
</event>
<event>
 5   0  0.1078787E-03  0.1447862E+04  0.7818609E-02  0.8919884E-01
        1   -1    0    0  501    0  0.00000000000E+00  0.00000000000E+00  0.89741749979E+03  0.89741749980E+03  0.50400001928E-02 0.  1.
       -1   -1    0    0    0  501  0.00000000000E+00  0.00000000000E+00 -0.58398277496E+03  0.58398277499E+03  0.50400001928E-02 0. -1.
    10030    2    1    2    0    0  0.00000000000E+00  0.00000000000E+00  0.31343472483E+03  0.14814002748E+04  0.14478623717E+04 0.  0.
        5    1    3    3  502    0 -0.49228549757E+03  0.14021445064E+03 -0.36704770834E+03  0.62988190439E+03  0.46999998093E+01 0. -1.
       -5    1    3    3    0  502  0.49228549757E+03 -0.14021445064E+03  0.68048243316E+03  0.85151837040E+03  0.46999998093E+01 0.  1.
</event>
<event>
 5   0  0.2150197E-03  0.1568605E+04  0.7818609E-02  0.8840071E-01
        2   -1    0    0  501    0  0.00000000000E+00  0.00000000000E+00  0.22339294133E+04  0.22339294133E+04  0.25500000920E-02 0. -1.
       -2   -1    0    0    0  501  0.00000000000E+00  0.00000000000E+00 -0.27535802573E+03  0.27535802574E+03  0.25500000920E-02 0.  1.
    10030    2    1    2    0    0  0.00000000000E+00  0.00000000000E+00  0.19585713876E+04  0.25092874390E+04  0.15686049762E+04 0.  0.
        3    1    3    3  502    0  0.76452526342E+03  0.34009337961E+02  0.12539250468E+04  0.14690076742E+04  0.10100000352E+00 0. -1.
       -3    1    3    3    0  502 -0.76452526342E+03 -0.34009337961E+02  0.70464634072E+03  0.10402797649E+04  0.10100000352E+00 0.  1.
</event>
<event>
 5   0  0.1087761E-03  0.1500990E+04  0.7818609E-02  0.8883795E-01
        1   -1    0    0  501    0  0.00000000000E+00  0.00000000000E+00  0.10110269993E+04  0.10110269993E+04  0.50400001928E-02 0. -1.
       -1   -1    0    0    0  501  0.00000000000E+00  0.00000000000E+00 -0.55709943833E+03  0.55709943835E+03  0.50400001928E-02 0.  1.
    10030    2    1    2    0    0  0.00000000000E+00  0.00000000000E+00  0.45392756097E+03  0.15681264377E+04  0.15009897714E+04 0.  0.
        3    1    3    3  502    0 -0.17585147106E+03 -0.72231831143E+03  0.33439863063E+03  0.81516252200E+03  0.10100000352E+00 0.  1.
       -3    1    3    3    0  502  0.17585147106E+03  0.72231831143E+03  0.11952893034E+03  0.75296391566E+03  0.10100000352E+00 0. -1.
</event>
<event>
 5   0  0.1069697E-03  0.1484576E+04  0.7818609E-02  0.8894775E-01
        1   -1    0    0  501    0  0.00000000000E+00  0.00000000000E+00  0.75254704554E+03  0.75254704555E+03  0.50400001928E-02 0. -1.
       -1   -1    0    0    0  501  0.00000000000E+00  0.00000000000E+00 -0.73216860900E+03  0.73216860902E+03  0.50400001928E-02 0.  1.
    10030    2    1    2    0    0  0.00000000000E+00  0.00000000000E+00  0.20378436537E+02  0.14847156546E+04  0.14845757961E+04 0.  0.
        2    1    3    3  502    0 -0.11875212717E+03  0.25446527052E+03  0.69737597890E+03  0.75178979612E+03  0.25500000920E-02 0. -1.
       -2    1    3    3    0  502  0.11875212717E+03 -0.25446527052E+03 -0.67699754236E+03  0.73292585844E+03  0.25500000920E-02 0.  1.
</event>
<event>
 5   0  0.2111533E-03  0.1486872E+04  0.7818609E-02  0.8893230E-01
        2   -1    0    0  501    0  0.00000000000E+00  0.00000000000E+00  0.60197688831E+03  0.60197688832E+03  0.25500000920E-02 0.  1.
       -2   -1    0    0    0  501  0.00000000000E+00  0.00000000000E+00 -0.91813699668E+03  0.91813699669E+03  0.25500000920E-02 0. -1.
    10030    2    1    2    0    0  0.00000000000E+00  0.00000000000E+00 -0.31616010837E+03  0.15201138850E+04  0.14868722236E+04 0.  0.
        5    1    3    3  502    0 -0.50886316208E+03  0.11054702410E+03  0.38435975032E+03  0.64723787738E+03  0.46999998093E+01 0.  1.
       -5    1    3    3    0  502  0.50886316208E+03 -0.11054702410E+03 -0.70051985869E+03  0.87287600762E+03  0.46999998093E+01 0. -1.
</event>
<event>
 5   0  0.2150197E-03  0.1465349E+04  0.7818609E-02  0.8907828E-01
       -2   -1    0    0    0  501  0.00000000000E+00  0.00000000000E+00  0.55525147628E+03  0.55525147629E+03  0.25500000920E-02 0. -1.
        2   -1    0    0  501    0  0.00000000000E+00  0.00000000000E+00 -0.96679064552E+03  0.96679064552E+03  0.25500000920E-02 0.  1.
    10030    2    1    2    0    0  0.00000000000E+00  0.00000000000E+00 -0.41153916924E+03  0.15220421218E+04  0.14653490140E+04 0.  0.
        3    1    3    3  502    0 -0.38321859999E+03 -0.35382428353E+03  0.32869003860E+03  0.61651056006E+03  0.10100000352E+00 0.  1.
       -3    1    3    3    0  502  0.38321859999E+03  0.35382428353E+03 -0.74022920784E+03  0.90553156175E+03  0.10100000352E+00 0. -1.
</event>
<event>
 5   0  0.1077140E-03  0.1468116E+04  0.7818609E-02  0.8905937E-01
       -1   -1    0    0    0  501  0.00000000000E+00  0.00000000000E+00  0.43792895398E+03  0.43792895400E+03  0.50400001928E-02 0.  1.
        1   -1    0    0  501    0  0.00000000000E+00  0.00000000000E+00 -0.12304299327E+04  0.12304299327E+04  0.50400001928E-02 0. -1.
    10030    2    1    2    0    0  0.00000000000E+00  0.00000000000E+00 -0.79250097874E+03  0.16683588867E+04  0.14681156540E+04 0.  0.
        1    1    3    3  502    0 -0.79796883321E+02 -0.72908018803E+03 -0.43063333608E+03  0.85051192428E+03  0.50400001928E-02 0.  1.
       -1    1    3    3    0  502  0.79796883321E+02  0.72908018803E+03 -0.36186764266E+03  0.81784696246E+03  0.50400001928E-02 0. -1.
</event>
<event>
 5   0  0.1993623E-03  0.1506366E+04  0.7818609E-02  0.8880231E-01
       -2   -1    0    0    0  501  0.00000000000E+00  0.00000000000E+00  0.89937768420E+03  0.89937768420E+03  0.25500000920E-02 0. -1.
        2   -1    0    0  501    0  0.00000000000E+00  0.00000000000E+00 -0.63075215185E+03  0.63075215186E+03  0.25500000920E-02 0.  1.
    10030    2    1    2    0    0  0.00000000000E+00  0.00000000000E+00  0.26862553235E+03  0.15301298361E+04  0.15063657055E+04 0.  0.
        4    1    3    3  502    0  0.31051196565E+03 -0.36629555484E+03 -0.45509343749E+03  0.66159032947E+03  0.12699999809E+01 0.  1.
       -4    1    3    3    0  502 -0.31051196565E+03  0.36629555484E+03  0.72371896984E+03  0.86853950659E+03  0.12699999809E+01 0. -1.
</event>
<event>
 5   0  0.2094566E-03  0.1488779E+04  0.7818609E-02  0.8891949E-01
        2   -1    0    0  501    0  0.00000000000E+00  0.00000000000E+00  0.99230517475E+03  0.99230517475E+03  0.25500000920E-02 0. -1.
       -2   -1    0    0    0  501  0.00000000000E+00  0.00000000000E+00 -0.55841242391E+03  0.55841242391E+03  0.25500000920E-02 0.  1.
    10030    2    1    2    0    0  0.00000000000E+00  0.00000000000E+00  0.43389275084E+03  0.15507175987E+04  0.14887787450E+04 0.  0.
        1    1    3    3  502    0  0.91132537009E+02  0.63433817563E+03  0.61141794487E+03  0.88573244476E+03  0.50400001928E-02 0.  1.
       -1    1    3    3    0  502 -0.91132537009E+02 -0.63433817563E+03 -0.17752519403E+03  0.66498515390E+03  0.50400001928E-02 0. -1.
</event>
<event>
 5   0  0.2150197E-03  0.1694817E+04  0.7818609E-02  0.8764326E-01
        2   -1    0    0  501    0  0.00000000000E+00  0.00000000000E+00  0.97675851879E+03  0.97675851880E+03  0.25500000920E-02 0. -1.
       -2   -1    0    0    0  501  0.00000000000E+00  0.00000000000E+00 -0.73518796151E+03  0.73518796151E+03  0.25500000920E-02 0.  1.
    10030    2    1    2    0    0  0.00000000000E+00  0.00000000000E+00  0.24157055728E+03  0.17119464803E+04  0.16948169274E+04 0.  0.
        3    1    3    3  502    0  0.10395230265E+02  0.31742943841E+02  0.97609331431E+03  0.97666465265E+03  0.10100000352E+00 0. -1.
       -3    1    3    3    0  502 -0.10395230265E+02 -0.31742943841E+02 -0.73452275702E+03  0.73528182766E+03  0.10100000352E+00 0.  1.
</event>
<event>
 5   0  0.1078787E-03  0.1500187E+04  0.7818609E-02  0.8884329E-01
        1   -1    0    0  501    0  0.00000000000E+00  0.00000000000E+00  0.10781523950E+04  0.10781523950E+04  0.50400001928E-02 0. -1.
       -1   -1    0    0    0  501  0.00000000000E+00  0.00000000000E+00 -0.52185563566E+03  0.52185563568E+03  0.50400001928E-02 0.  1.
    10030    2    1    2    0    0  0.00000000000E+00  0.00000000000E+00  0.55629675936E+03  0.16000080307E+04  0.15001865264E+04 0.  0.
        5    1    3    3  502    0 -0.40261440279E+03  0.18778289644E+03 -0.36643069026E+03  0.57589436036E+03  0.46999998093E+01 0.  1.
       -5    1    3    3    0  502  0.40261440279E+03 -0.18778289644E+03  0.92272744962E+03  0.10241136704E+04  0.46999998093E+01 0. -1.
</event>
<event>
 5   0  0.1069697E-03  0.1336517E+04  0.7818609E-02  0.9001098E-01
        1   -1    0    0  501    0  0.00000000000E+00  0.00000000000E+00  0.94509580323E+03  0.94509580324E+03  0.50400001928E-02 0.  1.
       -1   -1    0    0    0  501  0.00000000000E+00  0.00000000000E+00 -0.47251201938E+03  0.47251201941E+03  0.50400001928E-02 0. -1.
    10030    2    1    2    0    0  0.00000000000E+00  0.00000000000E+00  0.47258378385E+03  0.14176078226E+04  0.13365165566E+04 0.  0.
        2    1    3    3  502    0 -0.38739333339E+03 -0.36777753322E+03 -0.18961210159E+03  0.56682153962E+03  0.25500000920E-02 0.  1.
       -2    1    3    3    0  502  0.38739333339E+03  0.36777753322E+03  0.66219588544E+03  0.85078628303E+03  0.25500000920E-02 0. -1.
</event>
<event>
 5   0  0.1087761E-03  0.1554595E+04  0.7818609E-02  0.8848938E-01
        1   -1    0    0  501    0  0.00000000000E+00  0.00000000000E+00  0.20777011008E+04  0.20777011008E+04  0.50400001928E-02 0.  1.
       -1   -1    0    0    0  501  0.00000000000E+00  0.00000000000E+00 -0.29079796683E+03  0.29079796688E+03  0.50400001928E-02 0. -1.
    10030    2    1    2    0    0  0.00000000000E+00  0.00000000000E+00  0.17869031340E+04  0.23684990677E+04  0.15545948100E+04 0.  0.
        3    1    3    3  502    0  0.60418688975E+02 -0.81730862751E+02 -0.28063026679E+03  0.29846894100E+03  0.10100000352E+00 0. -1.
       -3    1    3    3    0  502 -0.60418688975E+02  0.81730862751E+02  0.20675334008E+04  0.20700301267E+04  0.10100000352E+00 0.  1.
</event>
<event>
 5   0  0.1961098E-03  0.1535798E+04  0.7818609E-02  0.8860990E-01
        2   -1    0    0  501    0  0.00000000000E+00  0.00000000000E+00  0.22011373214E+04  0.22011373214E+04  0.25500000920E-02 0.  1.
       -2   -1    0    0    0  501  0.00000000000E+00  0.00000000000E+00 -0.26789284066E+03  0.26789284067E+03  0.25500000920E-02 0. -1.
    10030    2    1    2    0    0  0.00000000000E+00  0.00000000000E+00  0.19332444807E+04  0.24690301620E+04  0.15357980723E+04 0.  0.
        2    1    3    3  502    0  0.31841099653E+03 -0.62064252729E+03  0.14827920334E+04  0.16386747461E+04  0.25500000920E-02 0. -1.
       -2    1    3    3    0  502 -0.31841099653E+03  0.62064252729E+03  0.45045244734E+03  0.83035541590E+03  0.25500000920E-02 0.  1.
</event>
<event>
 5   0  0.1993623E-03  0.1473021E+04  0.7818609E-02  0.8902595E-01
       -2   -1    0    0    0  501  0.00000000000E+00  0.00000000000E+00  0.88263960356E+03  0.88263960356E+03  0.25500000920E-02 0. -1.
        2   -1    0    0  501    0  0.00000000000E+00  0.00000000000E+00 -0.61457431970E+03  0.61457431971E+03  0.25500000920E-02 0.  1.
    10030    2    1    2    0    0  0.00000000000E+00  0.00000000000E+00  0.26806528385E+03  0.14972139233E+04  0.14730208877E+04 0.  0.
        4    1    3    3  502    0 -0.47757515101E+03 -0.53710700460E+03  0.29756028055E+03  0.77788539819E+03  0.12699999809E+01 0.  1.
       -4    1    3    3    0  502  0.47757515101E+03  0.53710700460E+03 -0.29494996703E+02  0.71932852508E+03  0.12699999809E+01 0. -1.
</event>
<event>
 5   0  0.1069697E-03  0.1511465E+04  0.7818609E-02  0.8876865E-01
        1   -1    0    0  501    0  0.00000000000E+00  0.00000000000E+00  0.94155760407E+03  0.94155760408E+03  0.50400001928E-02 0. -1.
       -1   -1    0    0    0  501  0.00000000000E+00  0.00000000000E+00 -0.60658145718E+03  0.60658145721E+03  0.50400001928E-02 0.  1.
    10030    2    1    2    0    0  0.00000000000E+00  0.00000000000E+00  0.33497614689E+03  0.15481390613E+04  0.15114646983E+04 0.  0.
        2    1    3    3  502    0 -0.59554656361E+03 -0.23352912302E+03  0.57964439960E+03  0.86324920546E+03  0.25500000920E-02 0. -1.
       -2    1    3    3    0  502  0.59554656361E+03  0.23352912302E+03 -0.24466825271E+03  0.68488985583E+03  0.25500000920E-02 0.  1.
</event>
<event>
 5   0  0.1078787E-03  0.1480482E+04  0.7818609E-02  0.8897537E-01
        1   -1    0    0  501    0  0.00000000000E+00  0.00000000000E+00  0.85472920139E+03  0.85472920141E+03  0.50400001928E-02 0.  1.
       -1   -1    0    0    0  501  0.00000000000E+00  0.00000000000E+00 -0.64108854065E+03  0.64108854067E+03  0.50400001928E-02 0. -1.
    10030    2    1    2    0    0  0.00000000000E+00  0.00000000000E+00  0.21364066074E+03  0.14958177421E+04  0.14804824841E+04 0.  0.
        5    1    3    3  502    0  0.67312842476E+03 -0.12614738086E+03 -0.17701657178E+03  0.70736977218E+03  0.46999998093E+01 0. -1.
       -5    1    3    3    0  502 -0.67312842476E+03  0.12614738086E+03  0.39065723252E+03  0.78844796990E+03  0.46999998093E+01 0.  1.
</event>
<event>
 5   0  0.1069697E-03  0.1486588E+04  0.7818609E-02  0.8893421E-01
        1   -1    0    0  501    0  0.00000000000E+00  0.00000000000E+00  0.82347951280E+03  0.82347951282E+03  0.50400001928E-02 0. -1.
       -1   -1    0    0    0  501  0.00000000000E+00  0.00000000000E+00 -0.67091642355E+03  0.67091642357E+03  0.50400001928E-02 0.  1.
    10030    2    1    2    0    0  0.00000000000E+00  0.00000000000E+00  0.15256308925E+03  0.14943959364E+04  0.14865879451E+04 0.  0.
        2    1    3    3  502    0  0.61959711251E+03 -0.39992482720E+03  0.16975098358E+03  0.75674027623E+03  0.25500000920E-02 0. -1.
       -2    1    3    3    0  502 -0.61959711251E+03  0.39992482720E+03 -0.17187894329E+02  0.73765566015E+03  0.25500000920E-02 0.  1.
</event>
<event>
 5   0  0.1961098E-03  0.1424069E+04  0.7818609E-02  0.8936578E-01
       -2   -1    0    0    0  501  0.00000000000E+00  0.00000000000E+00  0.44079827788E+03  0.44079827789E+03  0.25500000920E-02 0. -1.
        2   -1    0    0  501    0  0.00000000000E+00  0.00000000000E+00 -0.11501704352E+04  0.11501704352E+04  0.25500000920E-02 0.  1.
    10030    2    1    2    0    0  0.00000000000E+00  0.00000000000E+00 -0.70937215730E+03  0.15909687131E+04  0.14240690252E+04 0.  0.
        2    1    3    3  502    0 -0.16937847947E+03  0.69031322950E+02  0.41410504893E+03  0.45270010428E+03  0.25500000920E-02 0. -1.
       -2    1    3    3    0  502  0.16937847947E+03 -0.69031322950E+02 -0.11234772062E+04  0.11382686088E+04  0.25500000920E-02 0.  1.
</event>
<event>
 5   0  0.2150197E-03  0.1496368E+04  0.7818609E-02  0.8886872E-01
        2   -1    0    0  501    0  0.00000000000E+00  0.00000000000E+00  0.11119052644E+04  0.11119052644E+04  0.25500000920E-02 0.  1.
       -2   -1    0    0    0  501  0.00000000000E+00  0.00000000000E+00 -0.50344161795E+03  0.50344161796E+03  0.25500000920E-02 0. -1.
    10030    2    1    2    0    0  0.00000000000E+00  0.00000000000E+00  0.60846364644E+03  0.16153468823E+04  0.14963681169E+04 0.  0.
        3    1    3    3  502    0  0.22522892331E+03  0.45700485681E+03  0.89569968762E+03  0.10304656460E+04  0.10100000352E+00 0.  1.
       -3    1    3    3    0  502 -0.22522892331E+03 -0.45700485681E+03 -0.28723604118E+03  0.58488123632E+03  0.10100000352E+00 0. -1.
</event>
<event>
 5   0  0.1961098E-03  0.1689105E+04  0.7818609E-02  0.8767603E-01
        2   -1    0    0  501    0  0.00000000000E+00  0.00000000000E+00  0.21316582802E+04  0.21316582802E+04  0.25500000920E-02 0.  1.
       -2   -1    0    0    0  501  0.00000000000E+00  0.00000000000E+00 -0.33460752770E+03  0.33460752771E+03  0.25500000920E-02 0. -1.
    10030    2    1    2    0    0  0.00000000000E+00  0.00000000000E+00  0.17970507525E+04  0.24662658079E+04  0.16891049784E+04 0.  0.
        2    1    3    3  502    0  0.79472533541E+03 -0.77818178615E+02  0.49699760568E+03  0.94055868915E+03  0.25500000920E-02 0. -1.
       -2    1    3    3    0  502 -0.79472533541E+03  0.77818178615E+02  0.13000531468E+04  0.15257071187E+04  0.25500000920E-02 0.  1.
</event>
<event>
 5   0  0.1087761E-03  0.1476780E+04  0.7818609E-02  0.8900042E-01
        1   -1    0    0  501    0  0.00000000000E+00  0.00000000000E+00  0.43141711455E+03  0.43141711458E+03  0.50400001928E-02 0. -1.
       -1   -1    0    0    0  501  0.00000000000E+00  0.00000000000E+00 -0.12637882044E+04  0.12637882044E+04  0.50400001928E-02 0.  1.
    10030    2    1    2    0    0  0.00000000000E+00  0.00000000000E+00 -0.83237108985E+03  0.16952053190E+04  0.14767800927E+04 0.  0.
        3    1    3    3  502    0  0.42293292908E+03 -0.59339880233E+03 -0.55309690119E+03  0.91482817699E+03  0.10100000352E+00 0.  1.
       -3    1    3    3    0  502 -0.42293292908E+03  0.59339880233E+03 -0.27927418866E+03  0.78037714200E+03  0.10100000352E+00 0. -1.
</event>
<event>
 5   0  0.1078787E-03  0.1501170E+04  0.7818609E-02  0.8883675E-01
        1   -1    0    0  501    0  0.00000000000E+00  0.00000000000E+00  0.44062009640E+03  0.44062009643E+03  0.50400001928E-02 0. -1.
       -1   -1    0    0    0  501  0.00000000000E+00  0.00000000000E+00 -0.12786027586E+04  0.12786027586E+04  0.50400001928E-02 0.  1.
    10030    2    1    2    0    0  0.00000000000E+00  0.00000000000E+00 -0.83798266223E+03  0.17192228551E+04  0.15011703045E+04 0.  0.
        5    1    3    3  502    0  0.30331938120E+03  0.56220028536E+03  0.32309161720E+02  0.63963878854E+03  0.46999998093E+01 0. -1.
       -5    1    3    3    0  502 -0.30331938120E+03 -0.56220028536E+03 -0.87029182395E+03  0.10795840665E+04  0.46999998093E+01 0.  1.
</event>
<event>
 5   0  0.2111533E-03  0.1523999E+04  0.7818609E-02  0.8868649E-01
        2   -1    0    0  501    0  0.00000000000E+00  0.00000000000E+00  0.10054740779E+04  0.10054740779E+04  0.25500000920E-02 0. -1.
       -2   -1    0    0    0  501  0.00000000000E+00  0.00000000000E+00 -0.57748230063E+03  0.57748230063E+03  0.25500000920E-02 0.  1.
    10030    2    1    2    0    0  0.00000000000E+00  0.00000000000E+00  0.42799177729E+03  0.15829563786E+04  0.15239993225E+04 0.  0.
        5    1    3    3  502    0  0.86717994644E-02  0.43771968119E+02 -0.57616029626E+03  0.57783973752E+03  0.46999998093E+01 0.  1.
       -5    1    3    3    0  502 -0.86717994644E-02 -0.43771968119E+02  0.10041520736E+04  0.10051166410E+04  0.46999998093E+01 0. -1.
</event>
<event>
 5   0  0.1078787E-03  0.1424814E+04  0.7818609E-02  0.8936050E-01
        1   -1    0    0  501    0  0.00000000000E+00  0.00000000000E+00  0.58005378837E+03  0.58005378839E+03  0.50400001928E-02 0. -1.
       -1   -1    0    0    0  501  0.00000000000E+00  0.00000000000E+00 -0.87496027037E+03  0.87496027039E+03  0.50400001928E-02 0.  1.
    10030    2    1    2    0    0  0.00000000000E+00  0.00000000000E+00 -0.29490648200E+03  0.14550140588E+04  0.14248144013E+04 0.  0.
        5    1    3    3  502    0 -0.31623911280E+03  0.26529080445E+03  0.44546973700E+03  0.60733167543E+03  0.46999998093E+01 0. -1.
       -5    1    3    3    0  502  0.31623911280E+03 -0.26529080445E+03 -0.74037621900E+03  0.84768238335E+03  0.46999998093E+01 0.  1.
</event>
<event>
 5   0  0.1069697E-03  0.1377894E+04  0.7818609E-02  0.8969977E-01
        1   -1    0    0  501    0  0.00000000000E+00  0.00000000000E+00  0.44346677856E+03  0.44346677859E+03  0.50400001928E-02 0.  1.
       -1   -1    0    0    0  501  0.00000000000E+00  0.00000000000E+00 -0.10703125062E+04  0.10703125062E+04  0.50400001928E-02 0. -1.
    10030    2    1    2    0    0  0.00000000000E+00  0.00000000000E+00 -0.62684572759E+03  0.15137792848E+04  0.13778941022E+04 0.  0.
        2    1    3    3  502    0  0.24479010998E+03 -0.64381058389E+03 -0.29662538180E+03  0.74993391909E+03  0.25500000920E-02 0. -1.
       -2    1    3    3    0  502 -0.24479010998E+03  0.64381058389E+03 -0.33022034579E+03  0.76384536567E+03  0.25500000920E-02 0.  1.
</event>
<event>
 5   0  0.2111533E-03  0.1517880E+04  0.7818609E-02  0.8872649E-01
       -2   -1    0    0    0  501  0.00000000000E+00  0.00000000000E+00  0.10490259237E+04  0.10490259237E+04  0.25500000920E-02 0.  1.
        2   -1    0    0  501    0  0.00000000000E+00  0.00000000000E+00 -0.54907098955E+03  0.54907098956E+03  0.25500000920E-02 0. -1.
    10030    2    1    2    0    0  0.00000000000E+00  0.00000000000E+00  0.49995493415E+03  0.15980969133E+04  0.15178797080E+04 0.  0.
        5    1    3    3  502    0 -0.33487258942E+03  0.19638004216E+03 -0.43660779230E+03  0.58425441924E+03  0.46999998093E+01 0. -1.
       -5    1    3    3    0  502  0.33487258942E+03 -0.19638004216E+03  0.93656272646E+03  0.10138424940E+04  0.46999998093E+01 0.  1.
</event>
<event>
 5   0  0.1077140E-03  0.1458919E+04  0.7818609E-02  0.8912241E-01
        1   -1    0    0  501    0  0.00000000000E+00  0.00000000000E+00  0.91546810025E+03  0.91546810026E+03  0.50400001928E-02 0.  1.
       -1   -1    0    0    0  501  0.00000000000E+00  0.00000000000E+00 -0.58124472560E+03  0.58124472563E+03  0.50400001928E-02 0. -1.
    10030    2    1    2    0    0  0.00000000000E+00  0.00000000000E+00  0.33422337465E+03  0.14967128259E+04  0.14589187842E+04 0.  0.
        1    1    3    3  502    0 -0.58274521296E+03 -0.46377705144E+02 -0.28050316261E+03  0.64840180369E+03  0.50400001928E-02 0. -1.
       -1    1    3    3    0  502  0.58274521296E+03  0.46377705144E+02  0.61472653725E+03  0.84831102220E+03  0.50400001928E-02 0.  1.
</event>
<event>
 5   0  0.2150197E-03  0.1523004E+04  0.7818609E-02  0.8869298E-01
       -2   -1    0    0    0  501  0.00000000000E+00  0.00000000000E+00  0.41210118473E+03  0.41210118474E+03  0.25500000920E-02 0. -1.
        2   -1    0    0  501    0  0.00000000000E+00  0.00000000000E+00 -0.14071437391E+04  0.14071437391E+04  0.25500000920E-02 0.  1.
    10030    2    1    2    0    0  0.00000000000E+00  0.00000000000E+00 -0.99504255436E+03  0.18192449238E+04  0.15230044018E+04 0.  0.
        3    1    3    3  502    0 -0.34209134641E+03 -0.66749881385E+03 -0.65465476039E+03  0.99556718572E+03  0.10100000352E+00 0. -1.
       -3    1    3    3    0  502  0.34209134641E+03  0.66749881385E+03 -0.34038779397E+03  0.82367773811E+03  0.10100000352E+00 0.  1.
</event>
<event>
 5   0  0.2094566E-03  0.1510193E+04  0.7818609E-02  0.8877703E-01
       -2   -1    0    0    0  501  0.00000000000E+00  0.00000000000E+00  0.39990924260E+03  0.39990924261E+03  0.25500000920E-02 0.  1.
        2   -1    0    0  501    0  0.00000000000E+00  0.00000000000E+00 -0.14257500983E+04  0.14257500983E+04  0.25500000920E-02 0. -1.
    10030    2    1    2    0    0  0.00000000000E+00  0.00000000000E+00 -0.10258408557E+04  0.18256593409E+04  0.15101928909E+04 0.  0.
        1    1    3    3  502    0  0.18914423725E+03 -0.70618492104E+03 -0.74132721314E+03  0.10411718024E+04  0.50400001928E-02 0. -1.
       -1    1    3    3    0  502 -0.18914423725E+03  0.70618492104E+03 -0.28451364253E+03  0.78448753846E+03  0.50400001928E-02 0.  1.
</event>
<event>
 5   0  0.2150197E-03  0.1319138E+04  0.7818609E-02  0.9014525E-01
        2   -1    0    0  501    0  0.00000000000E+00  0.00000000000E+00  0.12906441732E+04  0.12906441732E+04  0.25500000920E-02 0. -1.
       -2   -1    0    0    0  501  0.00000000000E+00  0.00000000000E+00 -0.33706519890E+03  0.33706519891E+03  0.25500000920E-02 0.  1.
    10030    2    1    2    0    0  0.00000000000E+00  0.00000000000E+00  0.95357897432E+03  0.16277093721E+04  0.13191379533E+04 0.  0.
        3    1    3    3  502    0  0.49352731536E+03 -0.34614505677E+03  0.14651011444E+03  0.62036347021E+03  0.10100000352E+00 0.  1.
       -3    1    3    3    0  502 -0.49352731536E+03  0.34614505677E+03  0.80706885988E+03  0.10073459019E+04  0.10100000352E+00 0. -1.
</event>
<event>
 5   0  0.1069697E-03  0.1474369E+04  0.7818609E-02  0.8901678E-01
        1   -1    0    0  501    0  0.00000000000E+00  0.00000000000E+00  0.90352004199E+03  0.90352004201E+03  0.50400001928E-02 0. -1.
       -1   -1    0    0    0  501  0.00000000000E+00  0.00000000000E+00 -0.60147084191E+03  0.60147084193E+03  0.50400001928E-02 0.  1.
    10030    2    1    2    0    0  0.00000000000E+00  0.00000000000E+00  0.30204920008E+03  0.15049908839E+04  0.14743689638E+04 0.  0.
        2    1    3    3  502    0  0.64879624201E+03 -0.34999082926E+03  0.14766750101E+03  0.75182167770E+03  0.25500000920E-02 0.  1.
       -2    1    3    3    0  502 -0.64879624201E+03  0.34999082926E+03  0.15438169907E+03  0.75316920623E+03  0.25500000920E-02 0. -1.
</event>
<event>
 5   0  0.1993623E-03  0.1479765E+04  0.7818609E-02  0.8898021E-01
        2   -1    0    0  501    0  0.00000000000E+00  0.00000000000E+00  0.11813859950E+04  0.11813859950E+04  0.25500000920E-02 0.  1.
       -2   -1    0    0    0  501  0.00000000000E+00  0.00000000000E+00 -0.46337645616E+03  0.46337645617E+03  0.25500000920E-02 0. -1.
    10030    2    1    2    0    0  0.00000000000E+00  0.00000000000E+00  0.71800953887E+03  0.16447624512E+04  0.14797654621E+04 0.  0.
        4    1    3    3  502    0 -0.12311769977E+03  0.67512350176E+03  0.51628444065E+02  0.68819824162E+03  0.12699999809E+01 0. -1.
       -4    1    3    3    0  502  0.12311769977E+03 -0.67512350176E+03  0.66638109481E+03  0.95656420958E+03  0.12699999809E+01 0.  1.
</event>
<event>
 5   0  0.1078787E-03  0.1506522E+04  0.7818609E-02  0.8880128E-01
        1   -1    0    0  501    0  0.00000000000E+00  0.00000000000E+00  0.73234355118E+03  0.73234355120E+03  0.50400001928E-02 0. -1.
       -1   -1    0    0    0  501  0.00000000000E+00  0.00000000000E+00 -0.77477542697E+03  0.77477542698E+03  0.50400001928E-02 0.  1.
    10030    2    1    2    0    0  0.00000000000E+00  0.00000000000E+00 -0.42431875780E+02  0.15071189782E+04  0.15065215399E+04 0.  0.
        5    1    3    3  502    0  0.69475331048E+03  0.32277520902E+01  0.26990997731E+03  0.74536304352E+03  0.46999998093E+01 0.  1.
       -5    1    3    3    0  502 -0.69475331048E+03 -0.32277520902E+01 -0.31234185309E+03  0.76175593466E+03  0.46999998093E+01 0. -1.
</event>
<event>
 5   0  0.1069697E-03  0.1493480E+04  0.7818609E-02  0.8888800E-01
        1   -1    0    0  501    0  0.00000000000E+00  0.00000000000E+00  0.84592678599E+03  0.84592678600E+03  0.50400001928E-02 0. -1.
       -1   -1    0    0    0  501  0.00000000000E+00  0.00000000000E+00 -0.65918330780E+03  0.65918330782E+03  0.50400001928E-02 0.  1.
    10030    2    1    2    0    0  0.00000000000E+00  0.00000000000E+00  0.18674347819E+03  0.15051100938E+04  0.14934802536E+04 0.  0.
        2    1    3    3  502    0  0.43976422909E+03 -0.11747377863E+03  0.68995117216E+03  0.82657442848E+03  0.25500000920E-02 0. -1.
       -2    1    3    3    0  502 -0.43976422909E+03  0.11747377863E+03 -0.50320769397E+03  0.67853566533E+03  0.25500000920E-02 0.  1.
</event>
<event>
 5   0  0.7468375E-04  0.1507726E+04  0.7818609E-02  0.8879332E-01
        3   -1    0    0  501    0  0.00000000000E+00  0.00000000000E+00  0.47957322313E+03  0.47957323376E+03  0.10100000352E+00 0. -1.
       -3   -1    0    0    0  501  0.00000000000E+00  0.00000000000E+00 -0.11850312883E+04  0.11850312926E+04  0.10100000352E+00 0.  1.
    10030    2    1    2    0    0  0.00000000000E+00  0.00000000000E+00 -0.70545806517E+03  0.16646045264E+04  0.15077258197E+04 0.  0.
        5    1    3    3  502    0  0.48586340051E+02 -0.49674300488E+03 -0.97646636553E+03  0.10966416454E+04  0.46999998093E+01 0.  1.
       -5    1    3    3    0  502 -0.48586340051E+02  0.49674300488E+03  0.27100830036E+03  0.56796288100E+03  0.46999998093E+01 0. -1.
</event>
<event>
 5   0  0.1069697E-03  0.1453025E+04  0.7818609E-02  0.8916306E-01
       -1   -1    0    0    0  501  0.00000000000E+00  0.00000000000E+00  0.13176100212E+04  0.13176100212E+04  0.50400001928E-02 0.  1.
        1   -1    0    0  501    0  0.00000000000E+00  0.00000000000E+00 -0.40058933070E+03  0.40058933073E+03  0.50400001928E-02 0. -1.
    10030    2    1    2    0    0  0.00000000000E+00  0.00000000000E+00  0.91702069053E+03  0.17181993520E+04  0.14530251430E+04 0.  0.
        2    1    3    3  502    0 -0.87588353925E+01  0.44473321583E+02 -0.39891563517E+03  0.40148259928E+03  0.25500000920E-02 0. -1.
       -2    1    3    3    0  502  0.87588353925E+01 -0.44473321583E+02  0.13159363257E+04  0.13167167527E+04  0.25500000920E-02 0.  1.
</event>
<event>
 5   0  0.1087761E-03  0.9800705E+03  0.7818609E-02  0.9330677E-01
        1   -1    0    0  501    0  0.00000000000E+00  0.00000000000E+00  0.10351415610E+04  0.10351415610E+04  0.50400001928E-02 0. -1.
       -1   -1    0    0    0  501  0.00000000000E+00  0.00000000000E+00 -0.23198231191E+03  0.23198231196E+03  0.50400001928E-02 0.  1.
    10030    2    1    2    0    0  0.00000000000E+00  0.00000000000E+00  0.80315924907E+03  0.12671238730E+04  0.98007047197E+03 0.  0.
        3    1    3    3  502    0  0.94377758040E+02  0.24636787037E+03 -0.13232349926E+03  0.29515048268E+03  0.10100000352E+00 0.  1.
       -3    1    3    3    0  502 -0.94377758040E+02 -0.24636787037E+03  0.93548274834E+03  0.97197339028E+03  0.10100000352E+00 0. -1.
</event>
<event>
 5   0  0.1078787E-03  0.1538457E+04  0.7818609E-02  0.8859275E-01
       -1   -1    0    0    0  501  0.00000000000E+00  0.00000000000E+00  0.56088080999E+03  0.56088081001E+03  0.50400001928E-02 0.  1.
        1   -1    0    0  501    0  0.00000000000E+00  0.00000000000E+00 -0.10549695950E+04  0.10549695951E+04  0.50400001928E-02 0. -1.
    10030    2    1    2    0    0  0.00000000000E+00  0.00000000000E+00 -0.49408878505E+03  0.16158504051E+04  0.15384566305E+04 0.  0.
        5    1    3    3  502    0  0.57022360427E+03  0.11570594768E+03 -0.77549272429E+03  0.96951218694E+03  0.46999998093E+01 0. -1.
       -5    1    3    3    0  502 -0.57022360427E+03 -0.11570594768E+03  0.28140393924E+03  0.64633821813E+03  0.46999998093E+01 0.  1.
</event>
<event>
 5   0  0.2111533E-03  0.1445124E+04  0.7818609E-02  0.8921788E-01
       -2   -1    0    0    0  501  0.00000000000E+00  0.00000000000E+00  0.24974421929E+03  0.24974421930E+03  0.25500000920E-02 0.  1.
        2   -1    0    0  501    0  0.00000000000E+00  0.00000000000E+00 -0.20905219763E+04  0.20905219763E+04  0.25500000920E-02 0. -1.
    10030    2    1    2    0    0  0.00000000000E+00  0.00000000000E+00 -0.18407777570E+04  0.23402661956E+04  0.14451239101E+04 0.  0.
        5    1    3    3  502    0  0.22837089040E+02 -0.66028266851E+03 -0.13941328096E+04  0.15427647636E+04  0.46999998093E+01 0. -1.
       -5    1    3    3    0  502 -0.22837089040E+02  0.66028266851E+03 -0.44664494735E+03  0.79750143195E+03  0.46999998093E+01 0.  1.
</event>
<event>
 5   0  0.1087761E-03  0.1545632E+04  0.7818609E-02  0.8854662E-01
       -1   -1    0    0    0  501  0.00000000000E+00  0.00000000000E+00  0.70536788025E+03  0.70536788027E+03  0.50400001928E-02 0. -1.
        1   -1    0    0  501    0  0.00000000000E+00  0.00000000000E+00 -0.84671406293E+03  0.84671406295E+03  0.50400001928E-02 0.  1.
    10030    2    1    2    0    0  0.00000000000E+00  0.00000000000E+00 -0.14134618269E+03  0.15520819432E+04  0.15456324321E+04 0.  0.
        3    1    3    3  502    0 -0.57518268246E+03  0.30981293056E+03  0.34387602859E+03  0.73828849604E+03  0.10100000352E+00 0. -1.
       -3    1    3    3    0  502  0.57518268246E+03 -0.30981293056E+03 -0.48522221127E+03  0.81379344717E+03  0.10100000352E+00 0.  1.
</event>
<event>
 5   0  0.1078787E-03  0.1533380E+04  0.7818609E-02  0.8862554E-01
        1   -1    0    0  501    0  0.00000000000E+00  0.00000000000E+00  0.75645247556E+03  0.75645247558E+03  0.50400001928E-02 0. -1.
       -1   -1    0    0    0  501  0.00000000000E+00  0.00000000000E+00 -0.77706570936E+03  0.77706570938E+03  0.50400001928E-02 0.  1.
    10030    2    1    2    0    0  0.00000000000E+00  0.00000000000E+00 -0.20613233800E+02  0.15335181850E+04  0.15333796393E+04 0.  0.
        5    1    3    3  502    0  0.34125071277E+03 -0.25176242401E+03  0.62846450468E+03  0.75817286337E+03  0.46999998093E+01 0.  1.
       -5    1    3    3    0  502 -0.34125071277E+03  0.25176242401E+03 -0.64907773848E+03  0.77534532159E+03  0.46999998093E+01 0. -1.
</event>
<event>
 5   0  0.1078018E-03  0.1248033E+04  0.7818609E-02  0.9071822E-01
        1   -1    0    0  501    0  0.00000000000E+00  0.00000000000E+00  0.13862361557E+04  0.13862361557E+04  0.50400001928E-02 0.  1.
       -1   -1    0    0    0  501  0.00000000000E+00  0.00000000000E+00 -0.28090187329E+03  0.28090187334E+03  0.50400001928E-02 0. -1.
    10030    2    1    2    0    0  0.00000000000E+00  0.00000000000E+00  0.11053342824E+04  0.16671380290E+04  0.12480325845E+04 0.  0.
        4    1    3    3  502    0  0.30278333740E+03  0.49820433705E+03  0.25543928705E+03  0.63650306608E+03  0.12699999809E+01 0. -1.
       -4    1    3    3    0  502 -0.30278333740E+03 -0.49820433705E+03  0.84989499536E+03  0.10306349630E+04  0.12699999809E+01 0.  1.
</event>
<event>
 5   0  0.1069697E-03  0.1520404E+04  0.7818609E-02  0.8870997E-01
        1   -1    0    0  501    0  0.00000000000E+00  0.00000000000E+00  0.11713129945E+04  0.11713129945E+04  0.50400001928E-02 0.  1.
       -1   -1    0    0    0  501  0.00000000000E+00  0.00000000000E+00 -0.49338422789E+03  0.49338422791E+03  0.50400001928E-02 0. -1.
    10030    2    1    2    0    0  0.00000000000E+00  0.00000000000E+00  0.67792876661E+03  0.16646972224E+04  0.15204043639E+04 0.  0.
        2    1    3    3  502    0  0.16469583320E+03 -0.51471762144E+03  0.92435268319E+03  0.10707412527E+04  0.25500000920E-02 0.  1.
       -2    1    3    3    0  502 -0.16469583320E+03  0.51471762144E+03 -0.24642391658E+03  0.59395596972E+03  0.25500000920E-02 0. -1.
</event>
<event>
 5   0  0.1961098E-03  0.1444556E+04  0.7818609E-02  0.8922183E-01
       -2   -1    0    0    0  501  0.00000000000E+00  0.00000000000E+00  0.49997025976E+03  0.49997025976E+03  0.25500000920E-02 0.  1.
        2   -1    0    0  501    0  0.00000000000E+00  0.00000000000E+00 -0.10434333981E+04  0.10434333981E+04  0.25500000920E-02 0. -1.
    10030    2    1    2    0    0  0.00000000000E+00  0.00000000000E+00 -0.54346313838E+03  0.15434036579E+04  0.14445562185E+04 0.  0.
        2    1    3    3  502    0  0.34645841184E+03 -0.10673807956E+03  0.39572292587E+03  0.53667782032E+03  0.25500000920E-02 0.  1.
       -2    1    3    3    0  502 -0.34645841184E+03  0.10673807956E+03 -0.93918606426E+03  0.10067258376E+04  0.25500000920E-02 0. -1.
</event>
<event>
 5   0  0.2150197E-03  0.1176552E+04  0.7818609E-02  0.9133632E-01
       -2   -1    0    0    0  501  0.00000000000E+00  0.00000000000E+00  0.43248436058E+03  0.43248436059E+03  0.25500000920E-02 0.  1.
        2   -1    0    0  501    0  0.00000000000E+00  0.00000000000E+00 -0.80018772729E+03  0.80018772729E+03  0.25500000920E-02 0. -1.
    10030    2    1    2    0    0  0.00000000000E+00  0.00000000000E+00 -0.36770336671E+03  0.12326720879E+04  0.11765520432E+04 0.  0.
        3    1    3    3  502    0  0.60982434625E+02 -0.84915113260E+02  0.42267380450E+03  0.43541082784E+03  0.10100000352E+00 0.  1.
       -3    1    3    3    0  502 -0.60982434625E+02  0.84915113260E+02 -0.79037717121E+03  0.79726126004E+03  0.10100000352E+00 0. -1.
</event>
<event>
 5   0  0.1993623E-03  0.1502627E+04  0.7818609E-02  0.8882708E-01
       -2   -1    0    0    0  501  0.00000000000E+00  0.00000000000E+00  0.28432456106E+03  0.28432456107E+03  0.25500000920E-02 0. -1.
        2   -1    0    0  501    0  0.00000000000E+00  0.00000000000E+00 -0.19853090814E+04  0.19853090814E+04  0.25500000920E-02 0.  1.
    10030    2    1    2    0    0  0.00000000000E+00  0.00000000000E+00 -0.17009845203E+04  0.22696336424E+04  0.15026272101E+04 0.  0.
        4    1    3    3  502    0  0.51093016330E+03  0.15573178598E+03 -0.16485562542E+04  0.17329285494E+04  0.12699999809E+01 0.  1.
       -4    1    3    3    0  502 -0.51093016330E+03 -0.15573178598E+03 -0.52428266053E+02  0.53670509306E+03  0.12699999809E+01 0. -1.
</event>
<event>
 5   0  0.1078787E-03  0.1502268E+04  0.7818609E-02  0.8882946E-01
       -1   -1    0    0    0  501  0.00000000000E+00  0.00000000000E+00  0.38084652949E+03  0.38084652952E+03  0.50400001928E-02 0.  1.
        1   -1    0    0  501    0  0.00000000000E+00  0.00000000000E+00 -0.14814425727E+04  0.14814425727E+04  0.50400001928E-02 0. -1.
    10030    2    1    2    0    0  0.00000000000E+00  0.00000000000E+00 -0.11005960432E+04  0.18622891022E+04  0.15022679688E+04 0.  0.
        5    1    3    3  502    0  0.11762193896E+03  0.33377832830E+02  0.36840952444E+03  0.38819668719E+03  0.46999998093E+01 0.  1.
       -5    1    3    3    0  502 -0.11762193896E+03 -0.33377832830E+02 -0.14690055677E+04  0.14740924150E+04  0.46999998093E+01 0. -1.
</event>
<event>
 5   0  0.2094566E-03  0.1468673E+04  0.7818609E-02  0.8905556E-01
        2   -1    0    0  501    0  0.00000000000E+00  0.00000000000E+00  0.91302807842E+03  0.91302807842E+03  0.25500000920E-02 0. -1.
       -2   -1    0    0    0  501  0.00000000000E+00  0.00000000000E+00 -0.59061754227E+03  0.59061754228E+03  0.25500000920E-02 0.  1.
    10030    2    1    2    0    0  0.00000000000E+00  0.00000000000E+00  0.32241053615E+03  0.15036456207E+04  0.14686734146E+04 0.  0.
        1    1    3    3  502    0  0.69267393917E+03 -0.19217244944E+03  0.31485543109E+03  0.78476835999E+03  0.50400001928E-02 0. -1.
       -1    1    3    3    0  502 -0.69267393917E+03  0.19217244944E+03  0.75551050585E+01  0.71887726071E+03  0.50400001928E-02 0.  1.
</event>
<event>
 5   0  0.2111533E-03  0.1496648E+04  0.7818609E-02  0.8886685E-01
       -2   -1    0    0    0  501  0.00000000000E+00  0.00000000000E+00  0.10505187848E+04  0.10505187848E+04  0.25500000920E-02 0.  1.
        2   -1    0    0  501    0  0.00000000000E+00  0.00000000000E+00 -0.53305956962E+03  0.53305956963E+03  0.25500000920E-02 0. -1.
    10030    2    1    2    0    0  0.00000000000E+00  0.00000000000E+00  0.51745921521E+03  0.15835783545E+04  0.14966483773E+04 0.  0.
        5    1    3    3  502    0 -0.20518073237E+03  0.56244774689E+03  0.73371394218E+03  0.94699780351E+03  0.46999998093E+01 0.  1.
       -5    1    3    3    0  502  0.20518073237E+03 -0.56244774689E+03 -0.21625472697E+03  0.63658055095E+03  0.46999998093E+01 0. -1.
</event>
<event>
 5   0  0.1078018E-03  0.1481804E+04  0.7818609E-02  0.8896644E-01
       -1   -1    0    0    0  501  0.00000000000E+00  0.00000000000E+00  0.35973991767E+03  0.35973991770E+03  0.50400001928E-02 0.  1.
        1   -1    0    0  501    0  0.00000000000E+00  0.00000000000E+00 -0.15259240522E+04  0.15259240522E+04  0.50400001928E-02 0. -1.
    10030    2    1    2    0    0  0.00000000000E+00  0.00000000000E+00 -0.11661841345E+04  0.18856639699E+04  0.14818040261E+04 0.  0.
        4    1    3    3  502    0 -0.21608093369E+03  0.60195345250E+03 -0.10590570678E+04  0.12371913412E+04  0.12699999809E+01 0. -1.
       -4    1    3    3    0  502  0.21608093369E+03 -0.60195345250E+03 -0.10712706669E+03  0.64847262872E+03  0.12699999809E+01 0.  1.
</event>
<event>
 5   0  0.1069697E-03  0.1218843E+04  0.7818609E-02  0.9096521E-01
        1   -1    0    0  501    0  0.00000000000E+00  0.00000000000E+00  0.40969740690E+03  0.40969740693E+03  0.50400001928E-02 0.  1.
       -1   -1    0    0    0  501  0.00000000000E+00  0.00000000000E+00 -0.90650950211E+03  0.90650950212E+03  0.50400001928E-02 0. -1.
    10030    2    1    2    0    0  0.00000000000E+00  0.00000000000E+00 -0.49681209521E+03  0.13162069091E+04  0.12188430455E+04 0.  0.
        2    1    3    3  502    0 -0.41315509038E+02  0.56084794813E+03 -0.50197655348E+03  0.75381552946E+03  0.25500000920E-02 0. -1.
       -2    1    3    3    0  502  0.41315509038E+02 -0.56084794813E+03  0.51644582668E+01  0.56239137960E+03  0.25500000920E-02 0.  1.
</event>
<event>
 5   0  0.1069697E-03  0.1509045E+04  0.7818609E-02  0.8878461E-01
       -1   -1    0    0    0  501  0.00000000000E+00  0.00000000000E+00  0.73587967842E+03  0.73587967844E+03  0.50400001928E-02 0.  1.
        1   -1    0    0  501    0  0.00000000000E+00  0.00000000000E+00 -0.77363729062E+03  0.77363729064E+03  0.50400001928E-02 0. -1.
    10030    2    1    2    0    0  0.00000000000E+00  0.00000000000E+00 -0.37757612203E+02  0.15095169691E+04  0.15090446788E+04 0.  0.
        2    1    3    3  502    0  0.39459928233E+03  0.36981810015E+03 -0.54518978600E+03  0.76792312348E+03  0.25500000920E-02 0. -1.
       -2    1    3    3    0  502 -0.39459928233E+03 -0.36981810015E+03  0.50743217380E+03  0.74159384560E+03  0.25500000920E-02 0.  1.
</event>
<event>
 5   0  0.1078787E-03  0.1394476E+04  0.7818609E-02  0.8957827E-01
        1   -1    0    0  501    0  0.00000000000E+00  0.00000000000E+00  0.16206608141E+04  0.16206608141E+04  0.50400001928E-02 0. -1.
       -1   -1    0    0    0  501  0.00000000000E+00  0.00000000000E+00 -0.29996451691E+03  0.29996451695E+03  0.50400001928E-02 0.  1.
    10030    2    1    2    0    0  0.00000000000E+00  0.00000000000E+00  0.13206962972E+04  0.19206253311E+04  0.13944758703E+04 0.  0.
        5    1    3    3  502    0 -0.89395815270E+02 -0.40587956350E+03  0.14313819114E+04  0.14905053164E+04  0.46999998093E+01 0. -1.
       -5    1    3    3    0  502  0.89395815270E+02  0.40587956350E+03 -0.11068561420E+03  0.43012001470E+03  0.46999998093E+01 0.  1.
</event>
<event>
 5   0  0.1069697E-03  0.1499286E+04  0.7818609E-02  0.8884928E-01
       -1   -1    0    0    0  501  0.00000000000E+00  0.00000000000E+00  0.10061311454E+04  0.10061311454E+04  0.50400001928E-02 0. -1.
        1   -1    0    0  501    0  0.00000000000E+00  0.00000000000E+00 -0.55854039636E+03  0.55854039638E+03  0.50400001928E-02 0.  1.
    10030    2    1    2    0    0  0.00000000000E+00  0.00000000000E+00  0.44759074902E+03  0.15646715418E+04  0.14992863486E+04 0.  0.
        2    1    3    3  502    0 -0.41577863145E+03 -0.26360596237E+03 -0.36619553718E+03  0.61356266609E+03  0.25500000920E-02 0.  1.
       -2    1    3    3    0  502  0.41577863145E+03  0.26360596237E+03  0.81378628620E+03  0.95110887567E+03  0.25500000920E-02 0. -1.
</event>
<event>
 5   0  0.1961098E-03  0.1485711E+04  0.7818609E-02  0.8894011E-01
        2   -1    0    0  501    0  0.00000000000E+00  0.00000000000E+00  0.62558023064E+03  0.62558023064E+03  0.25500000920E-02 0.  1.
       -2   -1    0    0    0  501  0.00000000000E+00  0.00000000000E+00 -0.88211556020E+03  0.88211556021E+03  0.25500000920E-02 0. -1.
    10030    2    1    2    0    0  0.00000000000E+00  0.00000000000E+00 -0.25653532956E+03  0.15076957909E+04  0.14857106792E+04 0.  0.
        2    1    3    3  502    0  0.70786976698E+03 -0.64772423149E+02 -0.34723594851E+03  0.79110547827E+03  0.25500000920E-02 0. -1.
       -2    1    3    3    0  502 -0.70786976698E+03  0.64772423149E+02  0.90700618944E+02  0.71659031258E+03  0.25500000920E-02 0.  1.
</event>
<event>
 5   0  0.1961098E-03  0.1476417E+04  0.7818609E-02  0.8900289E-01
       -2   -1    0    0    0  501  0.00000000000E+00  0.00000000000E+00  0.29880665611E+03  0.29880665612E+03  0.25500000920E-02 0. -1.
        2   -1    0    0  501    0  0.00000000000E+00  0.00000000000E+00 -0.18237597318E+04  0.18237597318E+04  0.25500000920E-02 0.  1.
    10030    2    1    2    0    0  0.00000000000E+00  0.00000000000E+00 -0.15249530757E+04  0.21225663879E+04  0.14764166716E+04 0.  0.
        2    1    3    3  502    0  0.28702671207E+03 -0.52652639390E+03 -0.13813952395E+04  0.15059439513E+04  0.25500000920E-02 0.  1.
       -2    1    3    3    0  502 -0.28702671207E+03  0.52652639390E+03 -0.14355783618E+03  0.61662243655E+03  0.25500000920E-02 0. -1.
</event>
<event>
 5   0  0.2150197E-03  0.1494668E+04  0.7818609E-02  0.8888006E-01
       -2   -1    0    0    0  501  0.00000000000E+00  0.00000000000E+00  0.24853416353E+03  0.24853416354E+03  0.25500000920E-02 0. -1.
        2   -1    0    0  501    0  0.00000000000E+00  0.00000000000E+00 -0.22472093725E+04  0.22472093725E+04  0.25500000920E-02 0.  1.
    10030    2    1    2    0    0  0.00000000000E+00  0.00000000000E+00 -0.19986752090E+04  0.24957435361E+04  0.14946682598E+04 0.  0.
        3    1    3    3  502    0 -0.44404268379E+03 -0.51516036081E+03 -0.48213050071E+03  0.83367495602E+03  0.10100000352E+00 0. -1.
       -3    1    3    3    0  502  0.44404268379E+03  0.51516036081E+03 -0.15165447083E+04  0.16620685801E+04  0.10100000352E+00 0.  1.
</event>
<event>
 5   0  0.1077140E-03  0.1363861E+04  0.7818609E-02  0.8980402E-01
       -1   -1    0    0    0  501  0.00000000000E+00  0.00000000000E+00  0.43107672423E+03  0.43107672426E+03  0.50400001928E-02 0.  1.
        1   -1    0    0  501    0  0.00000000000E+00  0.00000000000E+00 -0.10787612881E+04  0.10787612882E+04  0.50400001928E-02 0. -1.
    10030    2    1    2    0    0  0.00000000000E+00  0.00000000000E+00 -0.64768456391E+03  0.15098380124E+04  0.13638605242E+04 0.  0.
        1    1    3    3  502    0  0.47116091486E+03 -0.42240934803E+03 -0.60522595693E+03  0.87562590411E+03  0.50400001928E-02 0. -1.
       -1    1    3    3    0  502 -0.47116091486E+03  0.42240934803E+03 -0.42458606989E+02  0.63421210831E+03  0.50400001928E-02 0.  1.
</event>
<event>
 5   0  0.1069697E-03  0.1427100E+04  0.7818609E-02  0.8934432E-01
        1   -1    0    0  501    0  0.00000000000E+00  0.00000000000E+00  0.14549175218E+04  0.14549175218E+04  0.50400001928E-02 0.  1.
       -1   -1    0    0    0  501  0.00000000000E+00  0.00000000000E+00 -0.34995370966E+03  0.34995370969E+03  0.50400001928E-02 0. -1.
    10030    2    1    2    0    0  0.00000000000E+00  0.00000000000E+00  0.11049638121E+04  0.18048712315E+04  0.14271002544E+04 0.  0.
        2    1    3    3  502    0  0.68814000604E+03 -0.15271155237E+03  0.69272417411E+03  0.98829361403E+03  0.25500000920E-02 0.  1.
       -2    1    3    3    0  502 -0.68814000604E+03  0.15271155237E+03  0.41223963799E+03  0.81657761742E+03  0.25500000920E-02 0. -1.
</event>
<event>
 5   0  0.1069697E-03  0.1494787E+04  0.7818609E-02  0.8887927E-01
        1   -1    0    0  501    0  0.00000000000E+00  0.00000000000E+00  0.13975214216E+04  0.13975214216E+04  0.50400001928E-02 0. -1.
       -1   -1    0    0    0  501  0.00000000000E+00  0.00000000000E+00 -0.39970527965E+03  0.39970527968E+03  0.50400001928E-02 0.  1.
    10030    2    1    2    0    0  0.00000000000E+00  0.00000000000E+00  0.99781614194E+03  0.17972267013E+04  0.14947865275E+04 0.  0.
        2    1    3    3  502    0  0.55767412720E+03 -0.48644649041E+03  0.37300126595E+03  0.82871018130E+03  0.25500000920E-02 0.  1.
       -2    1    3    3    0  502 -0.55767412720E+03  0.48644649041E+03  0.62481487599E+03  0.96851651997E+03  0.25500000920E-02 0. -1.
</event>
<event>
 5   0  0.2150197E-03  0.1516280E+04  0.7818609E-02  0.8873698E-01
        2   -1    0    0  501    0  0.00000000000E+00  0.00000000000E+00  0.25984451966E+04  0.25984451966E+04  0.25500000920E-02 0. -1.
       -2   -1    0    0    0  501  0.00000000000E+00  0.00000000000E+00 -0.22120019327E+03  0.22120019328E+03  0.25500000920E-02 0.  1.
    10030    2    1    2    0    0  0.00000000000E+00  0.00000000000E+00  0.23772450033E+04  0.28196453898E+04  0.15162804222E+04 0.  0.
        3    1    3    3  502    0  0.28216868799E+03  0.25466495089E+03 -0.31215714533E+02  0.38137624038E+03  0.10100000352E+00 0.  1.
       -3    1    3    3    0  502 -0.28216868799E+03 -0.25466495089E+03  0.24084607178E+04  0.24382691495E+04  0.10100000352E+00 0. -1.
</event>
<event>
 5   0  0.1961098E-03  0.1446059E+04  0.7818609E-02  0.8921137E-01
        2   -1    0    0  501    0  0.00000000000E+00  0.00000000000E+00  0.67127377530E+03  0.67127377531E+03  0.25500000920E-02 0. -1.
       -2   -1    0    0    0  501  0.00000000000E+00  0.00000000000E+00 -0.77877589584E+03  0.77877589584E+03  0.25500000920E-02 0.  1.
    10030    2    1    2    0    0  0.00000000000E+00  0.00000000000E+00 -0.10750212053E+03  0.14500496711E+04  0.14460592460E+04 0.  0.
        2    1    3    3  502    0  0.17948525900E+02 -0.45474540585E+03 -0.61713443204E+03  0.76679230627E+03  0.25500000920E-02 0.  1.
       -2    1    3    3    0  502 -0.17948525900E+02  0.45474540585E+03  0.50963231151E+03  0.68325736488E+03  0.25500000920E-02 0. -1.
</event>
<event>
 5   0  0.1961098E-03  0.1506249E+04  0.7818609E-02  0.8880308E-01
       -2   -1    0    0    0  501  0.00000000000E+00  0.00000000000E+00  0.45499813056E+03  0.45499813057E+03  0.25500000920E-02 0.  1.
        2   -1    0    0  501    0  0.00000000000E+00  0.00000000000E+00 -0.12465903327E+04  0.12465903328E+04  0.25500000920E-02 0. -1.
    10030    2    1    2    0    0  0.00000000000E+00  0.00000000000E+00 -0.79159220219E+03  0.17015884633E+04  0.15062486793E+04 0.  0.
        2    1    3    3  502    0  0.48292862671E+03  0.28901102862E+03 -0.96114605832E+03  0.11137994337E+04  0.25500000920E-02 0. -1.
       -2    1    3    3    0  502 -0.48292862671E+03 -0.28901102862E+03  0.16955385614E+03  0.58778902958E+03  0.25500000920E-02 0.  1.
</event>
<event>
 5   0  0.1078018E-03  0.1493400E+04  0.7818609E-02  0.8888854E-01
       -1   -1    0    0    0  501  0.00000000000E+00  0.00000000000E+00  0.14279339026E+04  0.14279339026E+04  0.50400001928E-02 0. -1.
        1   -1    0    0  501    0  0.00000000000E+00  0.00000000000E+00 -0.39046698665E+03  0.39046698668E+03  0.50400001928E-02 0.  1.
    10030    2    1    2    0    0  0.00000000000E+00  0.00000000000E+00  0.10374669160E+04  0.18184008893E+04  0.14934002118E+04 0.  0.
        4    1    3    3  502    0 -0.56250403265E+03  0.41683436560E+02  0.11145130237E+04  0.12491153623E+04  0.12699999809E+01 0. -1.
       -4    1    3    3    0  502  0.56250403265E+03 -0.41683436560E+02 -0.77046107677E+02  0.56928552698E+03  0.12699999809E+01 0.  1.
</event>
<event>
 5   0  0.7468375E-04  0.1467233E+04  0.7818609E-02  0.8906540E-01
       -3   -1    0    0    0  501  0.00000000000E+00  0.00000000000E+00  0.95288820095E+03  0.95288820631E+03  0.10100000352E+00 0.  1.
        3   -1    0    0  501    0  0.00000000000E+00  0.00000000000E+00 -0.56480180934E+03  0.56480181838E+03  0.10100000352E+00 0. -1.
    10030    2    1    2    0    0  0.00000000000E+00  0.00000000000E+00  0.38808639161E+03  0.15176900247E+04  0.14672327572E+04 0.  0.
        1    1    3    3  502    0 -0.57209840699E+03  0.25409734545E+03 -0.20164413976E+03  0.65766435768E+03  0.50400001928E-02 0. -1.
       -1    1    3    3    0  502  0.57209840699E+03 -0.25409734545E+03  0.58973053137E+03  0.86002566700E+03  0.50400001928E-02 0.  1.
</event>
<event>
 5   0  0.2094566E-03  0.1521272E+04  0.7818609E-02  0.8870429E-01
        2   -1    0    0  501    0  0.00000000000E+00  0.00000000000E+00  0.10419546866E+04  0.10419546866E+04  0.25500000920E-02 0.  1.
       -2   -1    0    0    0  501  0.00000000000E+00  0.00000000000E+00 -0.55527120779E+03  0.55527120780E+03  0.25500000920E-02 0. -1.
    10030    2    1    2    0    0  0.00000000000E+00  0.00000000000E+00  0.48668347885E+03  0.15972258944E+04  0.15212724113E+04 0.  0.
        1    1    3    3  502    0 -0.71395582648E+03  0.21074066569E+02 -0.31230686851E+02  0.71494922496E+03  0.50400001928E-02 0. -1.
       -1    1    3    3    0  502  0.71395582648E+03 -0.21074066569E+02  0.51791416570E+03  0.88227666948E+03  0.50400001928E-02 0.  1.
</event>
<event>
 5   0  0.2150197E-03  0.1488071E+04  0.7818609E-02  0.8892425E-01
        2   -1    0    0  501    0  0.00000000000E+00  0.00000000000E+00  0.77964670328E+03  0.77964670328E+03  0.25500000920E-02 0.  1.
       -2   -1    0    0    0  501  0.00000000000E+00  0.00000000000E+00 -0.71005086170E+03  0.71005086170E+03  0.25500000920E-02 0. -1.
    10030    2    1    2    0    0  0.00000000000E+00  0.00000000000E+00  0.69595841579E+02  0.14896975650E+04  0.14880709842E+04 0.  0.
        3    1    3    3  502    0  0.46656047797E+03  0.44733690473E+03 -0.33411515809E+03  0.72761386395E+03  0.10100000352E+00 0. -1.
       -3    1    3    3    0  502 -0.46656047797E+03 -0.44733690473E+03  0.40371099967E+03  0.76208370104E+03  0.10100000352E+00 0.  1.
</event>
<event>
 5   0  0.1069697E-03  0.8711559E+03  0.7818609E-02  0.9462374E-01
        1   -1    0    0  501    0  0.00000000000E+00  0.00000000000E+00  0.11392393989E+04  0.11392393989E+04  0.50400001928E-02 0. -1.
       -1   -1    0    0    0  501  0.00000000000E+00  0.00000000000E+00 -0.16653933280E+03  0.16653933287E+03  0.50400001928E-02 0.  1.
    10030    2    1    2    0    0  0.00000000000E+00  0.00000000000E+00  0.97270006606E+03  0.13057787317E+04  0.87115594341E+03 0.  0.
        2    1    3    3  502    0  0.30522289099E+02  0.13754633673E+03 -0.13144114131E+03  0.19268466082E+03  0.25500000920E-02 0.  1.
       -2    1    3    3    0  502 -0.30522289099E+02 -0.13754633673E+03  0.11041412074E+04  0.11130940709E+04  0.25500000920E-02 0. -1.
</event>
<event>
 5   0  0.2150197E-03  0.1521505E+04  0.7818609E-02  0.8870277E-01
       -2   -1    0    0    0  501  0.00000000000E+00  0.00000000000E+00  0.10875856621E+04  0.10875856621E+04  0.25500000920E-02 0.  1.
        2   -1    0    0  501    0  0.00000000000E+00  0.00000000000E+00 -0.53213658745E+03  0.53213658746E+03  0.25500000920E-02 0. -1.
    10030    2    1    2    0    0  0.00000000000E+00  0.00000000000E+00  0.55544907461E+03  0.16197222495E+04  0.15215046799E+04 0.  0.
        3    1    3    3  502    0 -0.41380316148E+03  0.55560763101E+03  0.61235877903E+03  0.92461677497E+03  0.10100000352E+00 0.  1.
       -3    1    3    3    0  502  0.41380316148E+03 -0.55560763101E+03 -0.56909704429E+02  0.69510547455E+03  0.10100000352E+00 0. -1.
</event>
<event>
 5   0  0.1961098E-03  0.1527666E+04  0.7818609E-02  0.8866261E-01
       -2   -1    0    0    0  501  0.00000000000E+00  0.00000000000E+00  0.65252609453E+03  0.65252609454E+03  0.25500000920E-02 0. -1.
        2   -1    0    0  501    0  0.00000000000E+00  0.00000000000E+00 -0.89412662843E+03  0.89412662843E+03  0.25500000920E-02 0.  1.
    10030    2    1    2    0    0  0.00000000000E+00  0.00000000000E+00 -0.24160053389E+03  0.15466527230E+04  0.15276661374E+04 0.  0.
        2    1    3    3  502    0  0.64434813116E+03 -0.38650575423E+03  0.18274189268E+02  0.75160172843E+03  0.25500000920E-02 0. -1.
       -2    1    3    3    0  502 -0.64434813116E+03  0.38650575423E+03 -0.25987472316E+03  0.79505099454E+03  0.25500000920E-02 0.  1.
</event>
<event>
 5   0  0.2111533E-03  0.1475322E+04  0.7818609E-02  0.8901031E-01
        2   -1    0    0  501    0  0.00000000000E+00  0.00000000000E+00  0.48987378363E+03  0.48987378364E+03  0.25500000920E-02 0.  1.
       -2   -1    0    0    0  501  0.00000000000E+00  0.00000000000E+00 -0.11107835355E+04  0.11107835356E+04  0.25500000920E-02 0. -1.
    10030    2    1    2    0    0  0.00000000000E+00  0.00000000000E+00 -0.62090975192E+03  0.16006573192E+04  0.14753219762E+04 0.  0.
        5    1    3    3  502    0  0.62394995490E+03 -0.38887957045E+03 -0.37537811525E+03  0.82551298351E+03  0.46999998093E+01 0.  1.
       -5    1    3    3    0  502 -0.62394995490E+03  0.38887957045E+03 -0.24553163667E+03  0.77514433568E+03  0.46999998093E+01 0. -1.
</event>
<event>
 5   0  0.1078787E-03  0.1489901E+04  0.7818609E-02  0.8891197E-01
        1   -1    0    0  501    0  0.00000000000E+00  0.00000000000E+00  0.94621562921E+03  0.94621562923E+03  0.50400001928E-02 0. -1.
       -1   -1    0    0    0  501  0.00000000000E+00  0.00000000000E+00 -0.58649526184E+03  0.58649526186E+03  0.50400001928E-02 0.  1.
    10030    2    1    2    0    0  0.00000000000E+00  0.00000000000E+00  0.35972036737E+03  0.15327108911E+04  0.14899006453E+04 0.  0.
        5    1    3    3  502    0 -0.16764843089E+03 -0.72123002705E+03  0.26375178622E+03  0.78604442816E+03  0.46999998093E+01 0.  1.
       -5    1    3    3    0  502  0.16764843089E+03  0.72123002705E+03  0.95968581157E+02  0.74666646293E+03  0.46999998093E+01 0. -1.
</event>
<event>
 5   0  0.1078787E-03  0.1496399E+04  0.7818609E-02  0.8886851E-01
        1   -1    0    0  501    0  0.00000000000E+00  0.00000000000E+00  0.14296552515E+04  0.14296552515E+04  0.50400001928E-02 0.  1.
       -1   -1    0    0    0  501  0.00000000000E+00  0.00000000000E+00 -0.39156451820E+03  0.39156451823E+03  0.50400001928E-02 0. -1.
    10030    2    1    2    0    0  0.00000000000E+00  0.00000000000E+00  0.10380907333E+04  0.18212197697E+04  0.14963987032E+04 0.  0.
        5    1    3    3  502    0  0.64910518419E+03 -0.34640490500E+03  0.35374666293E+03  0.81639003539E+03  0.46999998093E+01 0. -1.
       -5    1    3    3    0  502 -0.64910518419E+03  0.34640490500E+03  0.68434407033E+03  0.10048297343E+04  0.46999998093E+01 0.  1.
</event>
<event>
 5   0  0.2094566E-03  0.1569510E+04  0.7818609E-02  0.8839501E-01
       -2   -1    0    0    0  501  0.00000000000E+00  0.00000000000E+00  0.55287031326E+03  0.55287031327E+03  0.25500000920E-02 0.  1.
        2   -1    0    0  501    0  0.00000000000E+00  0.00000000000E+00 -0.11138962541E+04  0.11138962541E+04  0.25500000920E-02 0. -1.
    10030    2    1    2    0    0  0.00000000000E+00  0.00000000000E+00 -0.56102594079E+03  0.16667665673E+04  0.15695096953E+04 0.  0.
        1    1    3    3  502    0 -0.66085800483E+03  0.39634331451E+03 -0.43809549315E+03  0.88642483418E+03  0.50400001928E-02 0.  1.
       -1    1    3    3    0  502  0.66085800483E+03 -0.39634331451E+03 -0.12293044764E+03  0.78034173315E+03  0.50400001928E-02 0. -1.
</event>
<event>
 5   0  0.1078018E-03  0.1815697E+04  0.7818609E-02  0.8697996E-01
       -1   -1    0    0    0  501  0.00000000000E+00  0.00000000000E+00  0.15790404121E+04  0.15790404121E+04  0.50400001928E-02 0.  1.
        1   -1    0    0  501    0  0.00000000000E+00  0.00000000000E+00 -0.52195557952E+03  0.52195557954E+03  0.50400001928E-02 0. -1.
    10030    2    1    2    0    0  0.00000000000E+00  0.00000000000E+00  0.10570848326E+04  0.21009959917E+04  0.18156970600E+04 0.  0.
        4    1    3    3  502    0 -0.29544343980E+02  0.82761232708E+03  0.98108557548E+02  0.83393161240E+03  0.12699999809E+01 0. -1.
       -4    1    3    3    0  502  0.29544343980E+02 -0.82761232708E+03  0.95897627507E+03  0.12670643793E+04  0.12699999809E+01 0.  1.
</event>
<event>
 5   0  0.1961098E-03  0.1493883E+04  0.7818609E-02  0.8888531E-01
        2   -1    0    0  501    0  0.00000000000E+00  0.00000000000E+00  0.13379242134E+04  0.13379242134E+04  0.25500000920E-02 0. -1.
       -2   -1    0    0    0  501  0.00000000000E+00  0.00000000000E+00 -0.41700529245E+03  0.41700529246E+03  0.25500000920E-02 0.  1.
    10030    2    1    2    0    0  0.00000000000E+00  0.00000000000E+00  0.92091892090E+03  0.17549295058E+04  0.14938828306E+04 0.  0.
        2    1    3    3  502    0  0.61235267152E+03 -0.35449407615E+02 -0.40275005009E+02  0.61469873178E+03  0.25500000920E-02 0.  1.
       -2    1    3    3    0  502 -0.61235267152E+03  0.35449407615E+02  0.96119392591E+03  0.11402307740E+04  0.25500000920E-02 0. -1.
</event>
<event>
 5   0  0.1077140E-03  0.1491449E+04  0.7818609E-02  0.8890159E-01
        1   -1    0    0  501    0  0.00000000000E+00  0.00000000000E+00  0.15523361309E+04  0.15523361309E+04  0.50400001928E-02 0.  1.
       -1   -1    0    0    0  501  0.00000000000E+00  0.00000000000E+00 -0.35823771688E+03  0.35823771691E+03  0.50400001928E-02 0. -1.
    10030    2    1    2    0    0  0.00000000000E+00  0.00000000000E+00  0.11940984141E+04  0.19105738479E+04  0.14914494311E+04 0.  0.
        1    1    3    3  502    0  0.23123239516E+01  0.26233223558E+02  0.15517402675E+04  0.15519637195E+04  0.50400001928E-02 0.  1.
       -1    1    3    3    0  502 -0.23123239516E+01 -0.26233223558E+02 -0.35764185339E+03  0.35861012839E+03  0.50400001928E-02 0. -1.
</event>
<event>
 5   0  0.1993623E-03  0.1756114E+04  0.7818609E-02  0.8729992E-01
        2   -1    0    0  501    0  0.00000000000E+00  0.00000000000E+00  0.19419173245E+04  0.19419173245E+04  0.25500000920E-02 0.  1.
       -2   -1    0    0    0  501  0.00000000000E+00  0.00000000000E+00 -0.39702188113E+03  0.39702188114E+03  0.25500000920E-02 0. -1.
    10030    2    1    2    0    0  0.00000000000E+00  0.00000000000E+00  0.15448954434E+04  0.23389392057E+04  0.17561135148E+04 0.  0.
        4    1    3    3  502    0 -0.40782515654E+03  0.31312576403E+03  0.17204393315E+04  0.17956286389E+04  0.12699999809E+01 0.  1.
       -4    1    3    3    0  502  0.40782515654E+03 -0.31312576403E+03 -0.17554388815E+03  0.54331056677E+03  0.12699999809E+01 0. -1.
</event>
<event>
 5   0  0.1078018E-03  0.1493682E+04  0.7818609E-02  0.8888665E-01
        1   -1    0    0  501    0  0.00000000000E+00  0.00000000000E+00  0.61452448485E+03  0.61452448487E+03  0.50400001928E-02 0.  1.
       -1   -1    0    0    0  501  0.00000000000E+00  0.00000000000E+00 -0.90764761233E+03  0.90764761234E+03  0.50400001928E-02 0. -1.
    10030    2    1    2    0    0  0.00000000000E+00  0.00000000000E+00 -0.29312312748E+03  0.15221720972E+04  0.14936822707E+04 0.  0.
        4    1    3    3  502    0 -0.62917363232E+03  0.26467184288E+03 -0.45542563420E+03  0.82056368748E+03  0.12699999809E+01 0.  1.
       -4    1    3    3    0  502  0.62917363232E+03 -0.26467184288E+03  0.16230250672E+03  0.70160840973E+03  0.12699999809E+01 0. -1.
</event>
<event>
 5   0  0.7468375E-04  0.1174466E+04  0.7818609E-02  0.9135505E-01
        4   -1    0    0  501    0  0.00000000000E+00  0.00000000000E+00  0.79316688303E+03  0.79316789977E+03  0.12699999809E+01 0. -1.
       -4   -1    0    0    0  501  0.00000000000E+00  0.00000000000E+00 -0.43476427084E+03  0.43476612575E+03  0.12699999809E+01 0.  1.
    10030    2    1    2    0    0  0.00000000000E+00  0.00000000000E+00  0.35840261219E+03  0.12279340255E+04  0.11744656396E+04 0.  0.
        3    1    3    3  502    0  0.56652727933E+02 -0.35500429753E+03 -0.30627039843E+03  0.47227020867E+03  0.10100000352E+00 0.  1.
       -3    1    3    3    0  502 -0.56652727933E+02  0.35500429753E+03  0.66467301061E+03  0.75566381684E+03  0.10100000352E+00 0. -1.
</event>
<event>
 5   0  0.1078018E-03  0.1488969E+04  0.7818609E-02  0.8891821E-01
       -1   -1    0    0    0  501  0.00000000000E+00  0.00000000000E+00  0.12443659967E+04  0.12443659967E+04  0.50400001928E-02 0.  1.
        1   -1    0    0  501    0  0.00000000000E+00  0.00000000000E+00 -0.44541358802E+03  0.44541358804E+03  0.50400001928E-02 0. -1.
    10030    2    1    2    0    0  0.00000000000E+00  0.00000000000E+00  0.79895240870E+03  0.16897795848E+04  0.14889694737E+04 0.  0.
        4    1    3    3  502    0 -0.32988544251E+03  0.51419011730E+03 -0.83395291505E+02  0.61658111344E+03  0.12699999809E+01 0.  1.
       -4    1    3    3    0  502  0.32988544251E+03 -0.51419011730E+03  0.88234770020E+03  0.10731984713E+04  0.12699999809E+01 0. -1.
</event>
<event>
 5   0  0.1078787E-03  0.1365138E+04  0.7818609E-02  0.8979448E-01
       -1   -1    0    0    0  501  0.00000000000E+00  0.00000000000E+00  0.66404947076E+03  0.66404947078E+03  0.50400001928E-02 0. -1.
        1   -1    0    0  501    0  0.00000000000E+00  0.00000000000E+00 -0.70160450601E+03  0.70160450602E+03  0.50400001928E-02 0.  1.
    10030    2    1    2    0    0  0.00000000000E+00  0.00000000000E+00 -0.37555035244E+02  0.13656539768E+04  0.13651375036E+04 0.  0.
        5    1    3    3  502    0  0.64639816737E+03 -0.11709484443E+03  0.16659293133E+03  0.67772936202E+03  0.46999998093E+01 0. -1.
       -5    1    3    3    0  502 -0.64639816737E+03  0.11709484443E+03 -0.20414796657E+03  0.68792461479E+03  0.46999998093E+01 0.  1.
</event>
<event>
 5   0  0.2094566E-03  0.1431745E+04  0.7818609E-02  0.8931155E-01
       -2   -1    0    0    0  501  0.00000000000E+00  0.00000000000E+00  0.87625952026E+03  0.87625952026E+03  0.25500000920E-02 0.  1.
        2   -1    0    0  501    0  0.00000000000E+00  0.00000000000E+00 -0.58484226847E+03  0.58484226847E+03  0.25500000920E-02 0. -1.
    10030    2    1    2    0    0  0.00000000000E+00  0.00000000000E+00  0.29141725179E+03  0.14611017887E+04  0.14317452366E+04 0.  0.
        1    1    3    3  502    0  0.53007255352E+03 -0.33154711346E+03  0.50153133244E+03  0.80151985496E+03  0.50400001928E-02 0.  1.
       -1    1    3    3    0  502 -0.53007255352E+03  0.33154711346E+03 -0.21011408066E+03  0.65958193377E+03  0.50400001928E-02 0. -1.
</event>
<event>
 5   0  0.1078787E-03  0.1500457E+04  0.7818609E-02  0.8884149E-01
       -1   -1    0    0    0  501  0.00000000000E+00  0.00000000000E+00  0.49423243523E+03  0.49423243526E+03  0.50400001928E-02 0.  1.
        1   -1    0    0  501    0  0.00000000000E+00  0.00000000000E+00 -0.11388225609E+04  0.11388225609E+04  0.50400001928E-02 0. -1.
    10030    2    1    2    0    0  0.00000000000E+00  0.00000000000E+00 -0.64459012564E+03  0.16330549961E+04  0.15004573271E+04 0.  0.
        5    1    3    3  502    0 -0.19021651366E+03  0.19160590169E+03  0.43950731421E+03  0.51583322195E+03  0.46999998093E+01 0.  1.
       -5    1    3    3    0  502  0.19021651366E+03 -0.19160590169E+03 -0.10840974398E+04  0.11172217742E+04  0.46999998093E+01 0. -1.
</event>
<event>
 5   0  0.2094566E-03  0.1399774E+04  0.7818609E-02  0.8953982E-01
        2   -1    0    0  501    0  0.00000000000E+00  0.00000000000E+00  0.14047976824E+04  0.14047976824E+04  0.25500000920E-02 0. -1.
       -2   -1    0    0    0  501  0.00000000000E+00  0.00000000000E+00 -0.34869217237E+03  0.34869217238E+03  0.25500000920E-02 0.  1.
    10030    2    1    2    0    0  0.00000000000E+00  0.00000000000E+00  0.10561055100E+04  0.17534898548E+04  0.13997742041E+04 0.  0.
        1    1    3    3  502    0  0.43334458267E+03  0.45929593058E+03  0.90615430358E+03  0.11044708693E+04  0.50400001928E-02 0. -1.
       -1    1    3    3    0  502 -0.43334458267E+03 -0.45929593058E+03  0.14995120643E+03  0.64901898548E+03  0.50400001928E-02 0.  1.
</event>
<event>
 5   0  0.1087761E-03  0.1491605E+04  0.7818609E-02  0.8890055E-01
        1   -1    0    0  501    0  0.00000000000E+00  0.00000000000E+00  0.89906880780E+03  0.89906880782E+03  0.50400001928E-02 0. -1.
       -1   -1    0    0    0  501  0.00000000000E+00  0.00000000000E+00 -0.61866416039E+03  0.61866416042E+03  0.50400001928E-02 0.  1.
    10030    2    1    2    0    0  0.00000000000E+00  0.00000000000E+00  0.28040464741E+03  0.15177329682E+04  0.14916053756E+04 0.  0.
        3    1    3    3  502    0  0.68289342105E+03 -0.23792014741E+03 -0.45399527600E+02  0.72457611634E+03  0.10100000352E+00 0.  1.
       -3    1    3    3    0  502 -0.68289342105E+03  0.23792014741E+03  0.32580417501E+03  0.79315685190E+03  0.10100000352E+00 0. -1.
</event>
<event>
 5   0  0.1078787E-03  0.1519933E+04  0.7818609E-02  0.8871305E-01
       -1   -1    0    0    0  501  0.00000000000E+00  0.00000000000E+00  0.11050298380E+04  0.11050298380E+04  0.50400001928E-02 0. -1.
        1   -1    0    0  501    0  0.00000000000E+00  0.00000000000E+00 -0.52265499393E+03  0.52265499396E+03  0.50400001928E-02 0.  1.
    10030    2    1    2    0    0  0.00000000000E+00  0.00000000000E+00  0.58237484404E+03  0.16276848319E+04  0.15199333713E+04 0.  0.
        5    1    3    3  502    0  0.50268497596E+03  0.41904448312E+03 -0.12251088515E+03  0.66582390379E+03  0.46999998093E+01 0.  1.
       -5    1    3    3    0  502 -0.50268497596E+03 -0.41904448312E+03  0.70488572919E+03  0.96186092815E+03  0.46999998093E+01 0. -1.
</event>
<event>
 5   0  0.1993623E-03  0.1064026E+04  0.7818609E-02  0.9240982E-01
        2   -1    0    0  501    0  0.00000000000E+00  0.00000000000E+00  0.65057071631E+03  0.65057071631E+03  0.25500000920E-02 0. -1.
       -2   -1    0    0    0  501  0.00000000000E+00  0.00000000000E+00 -0.43506043283E+03  0.43506043283E+03  0.25500000920E-02 0.  1.
    10030    2    1    2    0    0  0.00000000000E+00  0.00000000000E+00  0.21551028348E+03  0.10856311491E+04  0.10640255212E+04 0.  0.
        4    1    3    3  502    0  0.18188997515E+03  0.43736278731E+03 -0.13937329750E+03  0.49375773385E+03  0.12699999809E+01 0.  1.
       -4    1    3    3    0  502 -0.18188997515E+03 -0.43736278731E+03  0.35488358098E+03  0.59187341530E+03  0.12699999809E+01 0. -1.
</event>
<event>
 5   0  0.1961098E-03  0.1458426E+04  0.7818609E-02  0.8912580E-01
        2   -1    0    0  501    0  0.00000000000E+00  0.00000000000E+00  0.21312327329E+04  0.21312327329E+04  0.25500000920E-02 0.  1.
       -2   -1    0    0    0  501  0.00000000000E+00  0.00000000000E+00 -0.24950422798E+03  0.24950422800E+03  0.25500000920E-02 0. -1.
    10030    2    1    2    0    0  0.00000000000E+00  0.00000000000E+00  0.18817285049E+04  0.23807369609E+04  0.14584259703E+04 0.  0.
        2    1    3    3  502    0  0.45740136559E+03 -0.67635932941E+02  0.18613433215E+04  0.19179128211E+04  0.25500000920E-02 0.  1.
       -2    1    3    3    0  502 -0.45740136559E+03  0.67635932941E+02  0.20385183375E+02  0.46282413980E+03  0.25500000920E-02 0. -1.
</event>
<event>
 5   0  0.1078018E-03  0.1311150E+04  0.7818609E-02  0.9020770E-01
        1   -1    0    0  501    0  0.00000000000E+00  0.00000000000E+00  0.73680051583E+03  0.73680051585E+03  0.50400001928E-02 0.  1.
       -1   -1    0    0    0  501  0.00000000000E+00  0.00000000000E+00 -0.58330356320E+03  0.58330356323E+03  0.50400001928E-02 0. -1.
    10030    2    1    2    0    0  0.00000000000E+00  0.00000000000E+00  0.15349695263E+03  0.13201040791E+04  0.13111496730E+04 0.  0.
        4    1    3    3  502    0  0.44410107272E+03 -0.34281287698E+03  0.41822595781E+03  0.69975781246E+03  0.12699999809E+01 0.  1.
       -4    1    3    3    0  502 -0.44410107272E+03  0.34281287698E+03 -0.26472900519E+03  0.62034626661E+03  0.12699999809E+01 0. -1.
</event>
<event>
 5   0  0.2111533E-03  0.1529356E+04  0.7818609E-02  0.8865163E-01
       -2   -1    0    0    0  501  0.00000000000E+00  0.00000000000E+00  0.11188173741E+04  0.11188173741E+04  0.25500000920E-02 0.  1.
        2   -1    0    0  501    0  0.00000000000E+00  0.00000000000E+00 -0.52263467158E+03  0.52263467159E+03  0.25500000920E-02 0. -1.
    10030    2    1    2    0    0  0.00000000000E+00  0.00000000000E+00  0.59618270253E+03  0.16414520457E+04  0.15293564017E+04 0.  0.
        5    1    3    3  502    0 -0.55829673833E+03 -0.45724119891E+02  0.85674650418E+03  0.10236320655E+04  0.46999998093E+01 0.  1.
       -5    1    3    3    0  502  0.55829673833E+03  0.45724119891E+02 -0.26056380165E+03  0.61781998017E+03  0.46999998093E+01 0. -1.
</event>
<event>
 5   0  0.1077140E-03  0.1416730E+04  0.7818609E-02  0.8941797E-01
       -1   -1    0    0    0  501  0.00000000000E+00  0.00000000000E+00  0.12967466431E+04  0.12967466431E+04  0.50400001928E-02 0. -1.
        1   -1    0    0  501    0  0.00000000000E+00  0.00000000000E+00 -0.38695359343E+03  0.38695359346E+03  0.50400001928E-02 0.  1.
    10030    2    1    2    0    0  0.00000000000E+00  0.00000000000E+00  0.90979304968E+03  0.16837002366E+04  0.14167297178E+04 0.  0.
        1    1    3    3  502    0  0.29772891572E+03  0.58761785720E+03  0.76444734237E+03  0.10091169370E+04  0.50400001928E-02 0.  1.
       -1    1    3    3    0  502 -0.29772891572E+03 -0.58761785720E+03  0.14534570731E+03  0.67458329954E+03  0.50400001928E-02 0. -1.
</event>
<event>
 5   0  0.1993623E-03  0.1481921E+04  0.7818609E-02  0.8896565E-01
        2   -1    0    0  501    0  0.00000000000E+00  0.00000000000E+00  0.79332428808E+03  0.79332428809E+03  0.25500000920E-02 0.  1.
       -2   -1    0    0    0  501  0.00000000000E+00  0.00000000000E+00 -0.69205299488E+03  0.69205299489E+03  0.25500000920E-02 0. -1.
    10030    2    1    2    0    0  0.00000000000E+00  0.00000000000E+00  0.10127129320E+03  0.14853772830E+04  0.14819209824E+04 0.  0.
        4    1    3    3  502    0  0.59340392340E+02  0.43007668422E+03 -0.55120927883E+03  0.70165555541E+03  0.12699999809E+01 0. -1.
       -4    1    3    3    0  502 -0.59340392340E+02 -0.43007668422E+03  0.65248057203E+03  0.78372172756E+03  0.12699999809E+01 0.  1.
</event>
<event>
 5   0  0.1069697E-03  0.1468166E+04  0.7818609E-02  0.8905903E-01
       -1   -1    0    0    0  501  0.00000000000E+00  0.00000000000E+00  0.28471706378E+03  0.28471706383E+03  0.50400001928E-02 0.  1.
        1   -1    0    0  501    0  0.00000000000E+00  0.00000000000E+00 -0.18926781510E+04  0.18926781510E+04  0.50400001928E-02 0. -1.
    10030    2    1    2    0    0  0.00000000000E+00  0.00000000000E+00 -0.16079610872E+04  0.21773952149E+04  0.14681658842E+04 0.  0.
        2    1    3    3  502    0 -0.49213338573E+03 -0.23593613644E+03 -0.15320715161E+04  0.16263776499E+04  0.25500000920E-02 0. -1.
       -2    1    3    3    0  502  0.49213338573E+03  0.23593613644E+03 -0.75889571158E+02  0.55101756492E+03  0.25500000920E-02 0.  1.
</event>
<event>
 5   0  0.1069697E-03  0.1480196E+04  0.7818609E-02  0.8897730E-01
        1   -1    0    0  501    0  0.00000000000E+00  0.00000000000E+00  0.14056973206E+04  0.14056973206E+04  0.50400001928E-02 0.  1.
       -1   -1    0    0    0  501  0.00000000000E+00  0.00000000000E+00 -0.38966092948E+03  0.38966092951E+03  0.50400001928E-02 0. -1.
    10030    2    1    2    0    0  0.00000000000E+00  0.00000000000E+00  0.10160363911E+04  0.17953582501E+04  0.14801963715E+04 0.  0.
        2    1    3    3  502    0 -0.67228629729E+02 -0.58921505353E+03 -0.29034130074E+02  0.59374830415E+03  0.25500000920E-02 0. -1.
       -2    1    3    3    0  502  0.67228629729E+02  0.58921505353E+03  0.10450705212E+04  0.12016099460E+04  0.25500000920E-02 0.  1.
</event>
<event>
 5   0  0.1961098E-03  0.1488604E+04  0.7818609E-02  0.8892067E-01
        2   -1    0    0  501    0  0.00000000000E+00  0.00000000000E+00  0.76702269393E+03  0.76702269393E+03  0.25500000920E-02 0. -1.
       -2   -1    0    0    0  501  0.00000000000E+00  0.00000000000E+00 -0.72225435058E+03  0.72225435058E+03  0.25500000920E-02 0.  1.
    10030    2    1    2    0    0  0.00000000000E+00  0.00000000000E+00  0.44768343347E+02  0.14892770445E+04  0.14886040141E+04 0.  0.
        2    1    3    3  502    0  0.54911379754E+03  0.41322603487E+03  0.30835209985E+03  0.75323484786E+03  0.25500000920E-02 0.  1.
       -2    1    3    3    0  502 -0.54911379754E+03 -0.41322603487E+03 -0.26358375651E+03  0.73604219665E+03  0.25500000920E-02 0. -1.
</event>
<event>
 5   0  0.1078787E-03  0.1504572E+04  0.7818609E-02  0.8881418E-01
        1   -1    0    0  501    0  0.00000000000E+00  0.00000000000E+00  0.37696181829E+03  0.37696181832E+03  0.50400001928E-02 0. -1.
       -1   -1    0    0    0  501  0.00000000000E+00  0.00000000000E+00 -0.15013041841E+04  0.15013041841E+04  0.50400001928E-02 0.  1.
    10030    2    1    2    0    0  0.00000000000E+00  0.00000000000E+00 -0.11243423659E+04  0.18782660025E+04  0.15045721719E+04 0.  0.
        5    1    3    3  502    0 -0.20576135953E+03 -0.29285399341E+02 -0.14647337980E+04  0.14794129108E+04  0.46999998093E+01 0.  1.
       -5    1    3    3    0  502  0.20576135953E+03  0.29285399341E+02  0.34039143212E+03  0.39885309168E+03  0.46999998093E+01 0. -1.
</event>
<event>
 5   0  0.1077140E-03  0.1492968E+04  0.7818609E-02  0.8889143E-01
       -1   -1    0    0    0  501  0.00000000000E+00  0.00000000000E+00  0.40877140654E+03  0.40877140658E+03  0.50400001928E-02 0.  1.
        1   -1    0    0  501    0  0.00000000000E+00  0.00000000000E+00 -0.13632030018E+04  0.13632030018E+04  0.50400001928E-02 0. -1.
    10030    2    1    2    0    0  0.00000000000E+00  0.00000000000E+00 -0.95443159527E+03  0.17719744084E+04  0.14929680619E+04 0.  0.
        1    1    3    3  502    0  0.45335030922E+03 -0.96710636742E+02 -0.11716766615E+04  0.12600419236E+04  0.50400001928E-02 0. -1.
       -1    1    3    3    0  502 -0.45335030922E+03  0.96710636742E+02  0.21724506625E+03  0.51193248477E+03  0.50400001928E-02 0.  1.
</event>
<event>
 5   0  0.1078787E-03  0.1480697E+04  0.7818609E-02  0.8897391E-01
        1   -1    0    0  501    0  0.00000000000E+00  0.00000000000E+00  0.65625689452E+03  0.65625689454E+03  0.50400001928E-02 0. -1.
       -1   -1    0    0    0  501  0.00000000000E+00  0.00000000000E+00 -0.83521568778E+03  0.83521568780E+03  0.50400001928E-02 0.  1.
    10030    2    1    2    0    0  0.00000000000E+00  0.00000000000E+00 -0.17895879326E+03  0.14914725823E+04  0.14806972054E+04 0.  0.
        5    1    3    3  502    0 -0.24025412109E+03 -0.15024236595E+03 -0.77841516423E+03  0.82840030730E+03  0.46999998093E+01 0.  1.
       -5    1    3    3    0  502  0.24025412109E+03  0.15024236595E+03  0.59945637097E+03  0.66307227504E+03  0.46999998093E+01 0. -1.
</event>
<event>
 5   0  0.1961098E-03  0.1527803E+04  0.7818609E-02  0.8866172E-01
       -2   -1    0    0    0  501  0.00000000000E+00  0.00000000000E+00  0.50534289207E+03  0.50534289208E+03  0.25500000920E-02 0. -1.
        2   -1    0    0  501    0  0.00000000000E+00  0.00000000000E+00 -0.11547513321E+04  0.11547513321E+04  0.25500000920E-02 0.  1.
    10030    2    1    2    0    0  0.00000000000E+00  0.00000000000E+00 -0.64940843998E+03  0.16600942241E+04  0.15278028378E+04 0.  0.
        2    1    3    3  502    0  0.74531014388E+03  0.12871778333E+03 -0.20823168170E+03  0.78448448779E+03  0.25500000920E-02 0. -1.
       -2    1    3    3    0  502 -0.74531014388E+03 -0.12871778333E+03 -0.44117675828E+03  0.87560973634E+03  0.25500000920E-02 0.  1.
</event>
<event>
 5   0  0.1961098E-03  0.1500691E+04  0.7818609E-02  0.8883993E-01
       -2   -1    0    0    0  501  0.00000000000E+00  0.00000000000E+00  0.87864242393E+03  0.87864242394E+03  0.25500000920E-02 0.  1.
        2   -1    0    0  501    0  0.00000000000E+00  0.00000000000E+00 -0.64078231094E+03  0.64078231094E+03  0.25500000920E-02 0. -1.
    10030    2    1    2    0    0  0.00000000000E+00  0.00000000000E+00  0.23786011300E+03  0.15194247349E+04  0.15006912046E+04 0.  0.
        2    1    3    3  502    0 -0.15459292932E+03 -0.70868682712E+03  0.31337569580E+03  0.79015208628E+03  0.25500000920E-02 0.  1.
       -2    1    3    3    0  502  0.15459292932E+03  0.70868682712E+03 -0.75515582802E+02  0.72927264859E+03  0.25500000920E-02 0. -1.
</event>
<event>
 5   0  0.1077140E-03  0.1499739E+04  0.7818609E-02  0.8884626E-01
       -1   -1    0    0    0  501  0.00000000000E+00  0.00000000000E+00  0.64686050967E+03  0.64686050969E+03  0.50400001928E-02 0.  1.
        1   -1    0    0  501    0  0.00000000000E+00  0.00000000000E+00 -0.86928247158E+03  0.86928247159E+03  0.50400001928E-02 0. -1.
    10030    2    1    2    0    0  0.00000000000E+00  0.00000000000E+00 -0.22242196190E+03  0.15161429813E+04  0.14997393142E+04 0.  0.
        1    1    3    3  502    0 -0.15285273476E+03  0.60790737543E+03  0.30485978242E+03  0.69703287052E+03  0.50400001928E-02 0.  1.
       -1    1    3    3    0  502  0.15285273476E+03 -0.60790737543E+03 -0.52728174433E+03  0.81911011076E+03  0.50400001928E-02 0. -1.
</event>
<event>
 5   0  0.2150197E-03  0.1484323E+04  0.7818609E-02  0.8894946E-01
       -2   -1    0    0    0  501  0.00000000000E+00  0.00000000000E+00  0.53931959239E+03  0.53931959239E+03  0.25500000920E-02 0. -1.
        2   -1    0    0  501    0  0.00000000000E+00  0.00000000000E+00 -0.10212932509E+04  0.10212932509E+04  0.25500000920E-02 0.  1.
    10030    2    1    2    0    0  0.00000000000E+00  0.00000000000E+00 -0.48197365853E+03  0.15606128433E+04  0.14843226870E+04 0.  0.
        3    1    3    3  502    0  0.35514592489E+03 -0.63781001477E+03 -0.10042477680E+03  0.73689577886E+03  0.10100000352E+00 0. -1.
       -3    1    3    3    0  502 -0.35514592489E+03  0.63781001477E+03 -0.38154888173E+03  0.82371706445E+03  0.10100000352E+00 0.  1.
</event>
<event>
 5   0  0.2150197E-03  0.1484735E+04  0.7818609E-02  0.8894668E-01
        2   -1    0    0  501    0  0.00000000000E+00  0.00000000000E+00  0.80956273537E+03  0.80956273538E+03  0.25500000920E-02 0. -1.
       -2   -1    0    0    0  501  0.00000000000E+00  0.00000000000E+00 -0.68074975098E+03  0.68074975098E+03  0.25500000920E-02 0.  1.
    10030    2    1    2    0    0  0.00000000000E+00  0.00000000000E+00  0.12881298440E+03  0.14903124864E+04  0.14847351690E+04 0.  0.
        3    1    3    3  502    0  0.97183030040E+02 -0.38103039861E+03 -0.56762611920E+03  0.69052742697E+03  0.10100000352E+00 0.  1.
       -3    1    3    3    0  502 -0.97183030040E+02  0.38103039861E+03  0.69643910360E+03  0.79978505939E+03  0.10100000352E+00 0. -1.
</event>
<event>
 5   0  0.1993623E-03  0.1322075E+04  0.7818609E-02  0.9012241E-01
       -2   -1    0    0    0  501  0.00000000000E+00  0.00000000000E+00  0.37833885909E+03  0.37833885910E+03  0.25500000920E-02 0. -1.
        2   -1    0    0  501    0  0.00000000000E+00  0.00000000000E+00 -0.11549710305E+04  0.11549710305E+04  0.25500000920E-02 0.  1.
    10030    2    1    2    0    0  0.00000000000E+00  0.00000000000E+00 -0.77663217141E+03  0.15333098896E+04  0.13220747664E+04 0.  0.
        4    1    3    3  502    0 -0.36563064821E+03  0.34137833327E+03  0.11286780122E+03  0.51280180459E+03  0.12699999809E+01 0.  1.
       -4    1    3    3    0  502  0.36563064821E+03 -0.34137833327E+03 -0.88949997263E+03  0.10205080850E+04  0.12699999809E+01 0. -1.
</event>
<event>
 5   0  0.1078018E-03  0.1497325E+04  0.7818609E-02  0.8886234E-01
        1   -1    0    0  501    0  0.00000000000E+00  0.00000000000E+00  0.69871807644E+03  0.69871807646E+03  0.50400001928E-02 0. -1.
       -1   -1    0    0    0  501  0.00000000000E+00  0.00000000000E+00 -0.80217701912E+03  0.80217701914E+03  0.50400001928E-02 0.  1.
    10030    2    1    2    0    0  0.00000000000E+00  0.00000000000E+00 -0.10345894268E+03  0.15008950956E+04  0.14973250600E+04 0.  0.
        4    1    3    3  502    0 -0.14276415131E+03  0.66013472568E+03  0.27204920234E+03  0.72812899980E+03  0.12699999809E+01 0. -1.
       -4    1    3    3    0  502  0.14276415131E+03 -0.66013472568E+03 -0.37550814502E+03  0.77276609580E+03  0.12699999809E+01 0.  1.
</event>
<event>
 5   0  0.1078018E-03  0.1469662E+04  0.7818609E-02  0.8904882E-01
        1   -1    0    0  501    0  0.00000000000E+00  0.00000000000E+00  0.69306340307E+03  0.69306340309E+03  0.50400001928E-02 0.  1.
       -1   -1    0    0    0  501  0.00000000000E+00  0.00000000000E+00 -0.77911570878E+03  0.77911570880E+03  0.50400001928E-02 0. -1.
    10030    2    1    2    0    0  0.00000000000E+00  0.00000000000E+00 -0.86052305712E+02  0.14721791119E+04  0.14696619809E+04 0.  0.
        4    1    3    3  502    0  0.59357048863E+03 -0.41188776989E+03  0.91358422740E+02  0.72823446380E+03  0.12699999809E+01 0.  1.
       -4    1    3    3    0  502 -0.59357048863E+03  0.41188776989E+03 -0.17741072845E+03  0.74394464809E+03  0.12699999809E+01 0. -1.
</event>
<event>
 5   0  0.2111533E-03  0.1536180E+04  0.7818609E-02  0.8860744E-01
       -2   -1    0    0    0  501  0.00000000000E+00  0.00000000000E+00  0.49213333654E+03  0.49213333655E+03  0.25500000920E-02 0. -1.
        2   -1    0    0  501    0  0.00000000000E+00  0.00000000000E+00 -0.11987856943E+04  0.11987856943E+04  0.25500000920E-02 0.  1.
    10030    2    1    2    0    0  0.00000000000E+00  0.00000000000E+00 -0.70665235772E+03  0.16909190308E+04  0.15361802023E+04 0.  0.
        5    1    3    3  502    0  0.61514622898E+03 -0.57024349002E+02  0.14902594459E+03  0.63552142495E+03  0.46999998093E+01 0. -1.
       -5    1    3    3    0  502 -0.61514622898E+03  0.57024349002E+02 -0.85567830231E+03  0.10553976059E+04  0.46999998093E+01 0.  1.
</event>
<event>
 5   0  0.1078018E-03  0.1519013E+04  0.7818609E-02  0.8871907E-01
        1   -1    0    0  501    0  0.00000000000E+00  0.00000000000E+00  0.72901155739E+03  0.72901155741E+03  0.50400001928E-02 0. -1.
       -1   -1    0    0    0  501  0.00000000000E+00  0.00000000000E+00 -0.79127739806E+03  0.79127739808E+03  0.50400001928E-02 0.  1.
    10030    2    1    2    0    0  0.00000000000E+00  0.00000000000E+00 -0.62265840675E+02  0.15202889555E+04  0.15190133223E+04 0.  0.
        4    1    3    3  502    0  0.16705672968E+03  0.27084700641E+03  0.65907125692E+03  0.73187607312E+03  0.12699999809E+01 0. -1.
       -4    1    3    3    0  502 -0.16705672968E+03 -0.27084700641E+03 -0.72133709759E+03  0.78841288236E+03  0.12699999809E+01 0.  1.
</event>
<event>
 5   0  0.2150197E-03  0.1617859E+04  0.7818609E-02  0.8809651E-01
        2   -1    0    0  501    0  0.00000000000E+00  0.00000000000E+00  0.27467595797E+03  0.27467595798E+03  0.25500000920E-02 0.  1.
       -2   -1    0    0    0  501  0.00000000000E+00  0.00000000000E+00 -0.23823220576E+04  0.23823220576E+04  0.25500000920E-02 0. -1.
    10030    2    1    2    0    0  0.00000000000E+00  0.00000000000E+00 -0.21076460997E+04  0.26569980156E+04  0.16178585765E+04 0.  0.
        3    1    3    3  502    0  0.57622523233E+03 -0.40828994494E+03 -0.17017079696E+04  0.18424294346E+04  0.10100000352E+00 0. -1.
       -3    1    3    3    0  502 -0.57622523233E+03  0.40828994494E+03 -0.40593813008E+03  0.81456858101E+03  0.10100000352E+00 0.  1.
</event>
<event>
 5   0  0.2111533E-03  0.1497218E+04  0.7818609E-02  0.8886305E-01
        2   -1    0    0  501    0  0.00000000000E+00  0.00000000000E+00  0.83469375938E+03  0.83469375939E+03  0.25500000920E-02 0. -1.
       -2   -1    0    0    0  501  0.00000000000E+00  0.00000000000E+00 -0.67140259503E+03  0.67140259504E+03  0.25500000920E-02 0.  1.
    10030    2    1    2    0    0  0.00000000000E+00  0.00000000000E+00  0.16329116435E+03  0.15060963544E+04  0.14972181619E+04 0.  0.
        5    1    3    3  502    0 -0.20231058651E+03 -0.52068391949E+03 -0.41965895061E+03  0.69869667400E+03  0.46999998093E+01 0.  1.
       -5    1    3    3    0  502  0.20231058651E+03  0.52068391949E+03  0.58295011496E+03  0.80739968043E+03  0.46999998093E+01 0. -1.
</event>
<event>
 5   0  0.1078018E-03  0.1262049E+04  0.7818609E-02  0.9060214E-01
        1   -1    0    0  501    0  0.00000000000E+00  0.00000000000E+00  0.13925656233E+04  0.13925656233E+04  0.50400001928E-02 0. -1.
       -1   -1    0    0    0  501  0.00000000000E+00  0.00000000000E+00 -0.28594132403E+03  0.28594132407E+03  0.50400001928E-02 0.  1.
    10030    2    1    2    0    0  0.00000000000E+00  0.00000000000E+00  0.11066242993E+04  0.16785069474E+04  0.12620492196E+04 0.  0.
        4    1    3    3  502    0 -0.23757877841E+03 -0.31661754885E+03  0.12069023100E+04  0.12701594966E+04  0.12699999809E+01 0. -1.
       -4    1    3    3    0  502  0.23757877841E+03  0.31661754885E+03 -0.10027801070E+03  0.40834745074E+03  0.12699999809E+01 0.  1.
</event>
<event>
 5   0  0.1087761E-03  0.1531199E+04  0.7818609E-02  0.8863967E-01
        1   -1    0    0  501    0  0.00000000000E+00  0.00000000000E+00  0.15437203100E+04  0.15437203100E+04  0.50400001928E-02 0. -1.
       -1   -1    0    0    0  501  0.00000000000E+00  0.00000000000E+00 -0.37969459889E+03  0.37969459893E+03  0.50400001928E-02 0.  1.
    10030    2    1    2    0    0  0.00000000000E+00  0.00000000000E+00  0.11640257111E+04  0.19234149090E+04  0.15311985684E+04 0.  0.
        3    1    3    3  502    0  0.14891664649E+03 -0.15340856481E+03  0.15054598053E+04  0.15205655497E+04  0.10100000352E+00 0. -1.
       -3    1    3    3    0  502 -0.14891664649E+03  0.15340856481E+03 -0.34143409419E+03  0.40284935924E+03  0.10100000352E+00 0.  1.
</event>
<event>
 5   0  0.1078018E-03  0.1481513E+04  0.7818609E-02  0.8896841E-01
       -1   -1    0    0    0  501  0.00000000000E+00  0.00000000000E+00  0.51179124564E+03  0.51179124567E+03  0.50400001928E-02 0.  1.
        1   -1    0    0  501    0  0.00000000000E+00  0.00000000000E+00 -0.10721560553E+04  0.10721560553E+04  0.50400001928E-02 0. -1.
    10030    2    1    2    0    0  0.00000000000E+00  0.00000000000E+00 -0.56036480964E+03  0.15839473010E+04  0.14815128526E+04 0.  0.
        4    1    3    3  502    0 -0.14153702759E+03 -0.39976813970E+03 -0.92952316336E+03  0.10216957570E+04  0.12699999809E+01 0. -1.
       -4    1    3    3    0  502  0.14153702759E+03  0.39976813970E+03  0.36915835371E+03  0.56225154399E+03  0.12699999809E+01 0.  1.
</event>
<event>
 5   0  0.2111533E-03  0.1065750E+04  0.7818609E-02  0.9239233E-01
       -2   -1    0    0    0  501  0.00000000000E+00  0.00000000000E+00  0.45858647584E+03  0.45858647584E+03  0.25500000920E-02 0.  1.
        2   -1    0    0  501    0  0.00000000000E+00  0.00000000000E+00 -0.61919740487E+03  0.61919740487E+03  0.25500000920E-02 0. -1.
    10030    2    1    2    0    0  0.00000000000E+00  0.00000000000E+00 -0.16061092903E+03  0.10777838807E+04  0.10657496062E+04 0.  0.
        5    1    3    3  502    0 -0.36677756457E+03  0.14593674338E+03 -0.44227187783E+03  0.59283203258E+03  0.46999998093E+01 0. -1.
       -5    1    3    3    0  502  0.36677756457E+03 -0.14593674338E+03  0.28166094879E+03  0.48495184814E+03  0.46999998093E+01 0.  1.
</event>
<event>
 5   0  0.1078018E-03  0.1534425E+04  0.7818609E-02  0.8861878E-01
       -1   -1    0    0    0  501  0.00000000000E+00  0.00000000000E+00  0.68923458362E+03  0.68923458364E+03  0.50400001928E-02 0. -1.
        1   -1    0    0  501    0  0.00000000000E+00  0.00000000000E+00 -0.85401238167E+03  0.85401238168E+03  0.50400001928E-02 0.  1.
    10030    2    1    2    0    0  0.00000000000E+00  0.00000000000E+00 -0.16477779804E+03  0.15432469653E+04  0.15344248021E+04 0.  0.
        4    1    3    3  502    0 -0.26987492567E+03 -0.39740824658E+03  0.51925399925E+03  0.70738399656E+03  0.12699999809E+01 0. -1.
       -4    1    3    3    0  502  0.26987492567E+03  0.39740824658E+03 -0.68403179729E+03  0.83586296877E+03  0.12699999809E+01 0.  1.
</event>
<event>
 5   0  0.1069697E-03  0.1382523E+04  0.7818609E-02  0.8966567E-01
        1   -1    0    0  501    0  0.00000000000E+00  0.00000000000E+00  0.14930702303E+04  0.14930702303E+04  0.50400001928E-02 0.  1.
       -1   -1    0    0    0  501  0.00000000000E+00  0.00000000000E+00 -0.32004034107E+03  0.32004034111E+03  0.50400001928E-02 0. -1.
    10030    2    1    2    0    0  0.00000000000E+00  0.00000000000E+00  0.11730298892E+04  0.18131105714E+04  0.13825233536E+04 0.  0.
        2    1    3    3  502    0 -0.34388357406E+03 -0.56169386293E+03  0.31115162363E+03  0.72840321324E+03  0.25500000920E-02 0. -1.
       -2    1    3    3    0  502  0.34388357406E+03  0.56169386293E+03  0.86187826562E+03  0.10847073582E+04  0.25500000920E-02 0.  1.
</event>
<event>
 5   0  0.1078787E-03  0.1601673E+04  0.7818609E-02  0.8819521E-01
        1   -1    0    0  501    0  0.00000000000E+00  0.00000000000E+00  0.46218930992E+03  0.46218930994E+03  0.50400001928E-02 0. -1.
       -1   -1    0    0    0  501  0.00000000000E+00  0.00000000000E+00 -0.13876108296E+04  0.13876108296E+04  0.50400001928E-02 0.  1.
    10030    2    1    2    0    0  0.00000000000E+00  0.00000000000E+00 -0.92542151968E+03  0.18498001396E+04  0.16016727404E+04 0.  0.
        5    1    3    3  502    0 -0.24069056765E+03  0.15890742906E+02 -0.13446417150E+04  0.13661141595E+04  0.46999998093E+01 0.  1.
       -5    1    3    3    0  502  0.24069056765E+03 -0.15890742906E+02  0.41922019536E+03  0.48368598001E+03  0.46999998093E+01 0. -1.
</event>
<event>
 5   0  0.1961098E-03  0.1477360E+04  0.7818609E-02  0.8899649E-01
       -2   -1    0    0    0  501  0.00000000000E+00  0.00000000000E+00  0.80979657903E+03  0.80979657904E+03  0.25500000920E-02 0.  1.
        2   -1    0    0  501    0  0.00000000000E+00  0.00000000000E+00 -0.67380918700E+03  0.67380918700E+03  0.25500000920E-02 0. -1.
    10030    2    1    2    0    0  0.00000000000E+00  0.00000000000E+00  0.13598739204E+03  0.14836057660E+04  0.14773603143E+04 0.  0.
        2    1    3    3  502    0 -0.27139523935E+03 -0.58566292911E+03  0.42866646817E+03  0.77486217059E+03  0.25500000920E-02 0.  1.
       -2    1    3    3    0  502  0.27139523935E+03  0.58566292911E+03 -0.29267907613E+03  0.70874359545E+03  0.25500000920E-02 0. -1.
</event>
<event>
 5   0  0.1993623E-03  0.1535515E+04  0.7818609E-02  0.8861173E-01
       -2   -1    0    0    0  501  0.00000000000E+00  0.00000000000E+00  0.35926530875E+03  0.35926530876E+03  0.25500000920E-02 0.  1.
        2   -1    0    0  501    0  0.00000000000E+00  0.00000000000E+00 -0.16407146976E+04  0.16407146976E+04  0.25500000920E-02 0. -1.
    10030    2    1    2    0    0  0.00000000000E+00  0.00000000000E+00 -0.12814493889E+04  0.19999800064E+04  0.15355153824E+04 0.  0.
        4    1    3    3  502    0 -0.67215636465E+03 -0.32957198957E+03 -0.86267600286E+03  0.11422011091E+04  0.12699999809E+01 0. -1.
       -4    1    3    3    0  502  0.67215636465E+03  0.32957198957E+03 -0.41877338600E+03  0.85777889726E+03  0.12699999809E+01 0.  1.
</event>
<event>
 5   0  0.2150197E-03  0.1470754E+04  0.7818609E-02  0.8904138E-01
        2   -1    0    0  501    0  0.00000000000E+00  0.00000000000E+00  0.14091155717E+04  0.14091155717E+04  0.25500000920E-02 0.  1.
       -2   -1    0    0    0  501  0.00000000000E+00  0.00000000000E+00 -0.38377194623E+03  0.38377194624E+03  0.25500000920E-02 0. -1.
    10030    2    1    2    0    0  0.00000000000E+00  0.00000000000E+00  0.10253436255E+04  0.17928875179E+04  0.14707535829E+04 0.  0.
        3    1    3    3  502    0 -0.59564721297E+03  0.43123422239E+03  0.51818557887E+03  0.89959705493E+03  0.10100000352E+00 0. -1.
       -3    1    3    3    0  502  0.59564721297E+03 -0.43123422239E+03  0.50715804658E+03  0.89329046300E+03  0.10100000352E+00 0.  1.
</event>
<event>
 5   0  0.1077140E-03  0.9244142E+03  0.7818609E-02  0.9395567E-01
       -1   -1    0    0    0  501  0.00000000000E+00  0.00000000000E+00  0.46696040415E+03  0.46696040418E+03  0.50400001928E-02 0. -1.
        1   -1    0    0  501    0  0.00000000000E+00  0.00000000000E+00 -0.45750222742E+03  0.45750222744E+03  0.50400001928E-02 0.  1.
    10030    2    1    2    0    0  0.00000000000E+00  0.00000000000E+00  0.94581767313E+01  0.92446263162E+03  0.92441424705E+03 0.  0.
        1    1    3    3  502    0 -0.36296355473E+03 -0.54143543574E+02  0.28574443609E+03  0.46510638369E+03  0.50400001928E-02 0. -1.
       -1    1    3    3    0  502  0.36296355473E+03  0.54143543574E+02 -0.27628625936E+03  0.45935624792E+03  0.50400001928E-02 0.  1.
</event>
<event>
 5   0  0.1087761E-03  0.1487779E+04  0.7818609E-02  0.8892621E-01
        1   -1    0    0  501    0  0.00000000000E+00  0.00000000000E+00  0.90973865600E+03  0.90973865602E+03  0.50400001928E-02 0.  1.
       -1   -1    0    0    0  501  0.00000000000E+00  0.00000000000E+00 -0.60827508900E+03  0.60827508902E+03  0.50400001928E-02 0. -1.
    10030    2    1    2    0    0  0.00000000000E+00  0.00000000000E+00  0.30146356700E+03  0.15180137450E+04  0.14877786959E+04 0.  0.
        3    1    3    3  502    0 -0.60602892538E+03 -0.43070012457E+03  0.12578712461E+03  0.75405309271E+03  0.10100000352E+00 0. -1.
       -3    1    3    3    0  502  0.60602892538E+03  0.43070012457E+03  0.17567644239E+03  0.76396065233E+03  0.10100000352E+00 0.  1.
</event>
<event>
 5   0  0.1078787E-03  0.1471168E+04  0.7818609E-02  0.8903856E-01
       -1   -1    0    0    0  501  0.00000000000E+00  0.00000000000E+00  0.49722510429E+03  0.49722510432E+03  0.50400001928E-02 0.  1.
        1   -1    0    0  501    0  0.00000000000E+00  0.00000000000E+00 -0.10882067704E+04  0.10882067704E+04  0.50400001928E-02 0. -1.
    10030    2    1    2    0    0  0.00000000000E+00  0.00000000000E+00 -0.59098166608E+03  0.15854318747E+04  0.14711678693E+04 0.  0.
        5    1    3    3  502    0  0.37275997434E+03  0.62080254624E+03 -0.43482235866E+03  0.84465281239E+03  0.46999998093E+01 0.  1.
       -5    1    3    3    0  502 -0.37275997434E+03 -0.62080254624E+03 -0.15615930742E+03  0.74077906232E+03  0.46999998093E+01 0. -1.
</event>
<event>
 5   0  0.1078787E-03  0.1862537E+04  0.7818609E-02  0.8673732E-01
        1   -1    0    0  501    0  0.00000000000E+00  0.00000000000E+00  0.10282882034E+04  0.10282882034E+04  0.50400001928E-02 0.  1.
       -1   -1    0    0    0  501  0.00000000000E+00  0.00000000000E+00 -0.84340252273E+03  0.84340252275E+03  0.50400001928E-02 0. -1.
    10030    2    1    2    0    0  0.00000000000E+00  0.00000000000E+00  0.18488568068E+03  0.18716907262E+04  0.18625368344E+04 0.  0.
        5    1    3    3  502    0 -0.76439775413E+02  0.20295820861E+03  0.10025448651E+04  0.10257452755E+04  0.46999998093E+01 0.  1.
       -5    1    3    3    0  502  0.76439775413E+02 -0.20295820861E+03 -0.81765918440E+03  0.84594545068E+03  0.46999998093E+01 0. -1.
</event>
<event>
 5   0  0.1961098E-03  0.1479517E+04  0.7818609E-02  0.8898189E-01
        2   -1    0    0  501    0  0.00000000000E+00  0.00000000000E+00  0.48988289148E+03  0.48988289148E+03  0.25500000920E-02 0.  1.
       -2   -1    0    0    0  501  0.00000000000E+00  0.00000000000E+00 -0.11170892378E+04  0.11170892378E+04  0.25500000920E-02 0. -1.
    10030    2    1    2    0    0  0.00000000000E+00  0.00000000000E+00 -0.62720634628E+03  0.16069721292E+04  0.14795173616E+04 0.  0.
        2    1    3    3  502    0 -0.26625648474E+03 -0.68662321294E+03 -0.23758105914E+03  0.77381439111E+03  0.25500000920E-02 0.  1.
       -2    1    3    3    0  502  0.26625648474E+03  0.68662321294E+03 -0.38962528713E+03  0.83315773813E+03  0.25500000920E-02 0. -1.
</event>
<event>
 5   0  0.1961098E-03  0.1459502E+04  0.7818609E-02  0.8911839E-01
        2   -1    0    0  501    0  0.00000000000E+00  0.00000000000E+00  0.15041525363E+04  0.15041525363E+04  0.25500000920E-02 0. -1.
       -2   -1    0    0    0  501  0.00000000000E+00  0.00000000000E+00 -0.35404422802E+03  0.35404422802E+03  0.25500000920E-02 0.  1.
    10030    2    1    2    0    0  0.00000000000E+00  0.00000000000E+00  0.11501083083E+04  0.18581967644E+04  0.14595020021E+04 0.  0.
        2    1    3    3  502    0  0.39363848828E+02  0.31690477190E+03  0.14104706104E+04  0.14461692466E+04  0.25500000920E-02 0. -1.
       -2    1    3    3    0  502 -0.39363848828E+02 -0.31690477190E+03 -0.26036230206E+03  0.41202751776E+03  0.25500000920E-02 0.  1.
</event>
<event>
 5   0  0.1087761E-03  0.1478458E+04  0.7818609E-02  0.8898906E-01
        1   -1    0    0  501    0  0.00000000000E+00  0.00000000000E+00  0.49739009119E+03  0.49739009121E+03  0.50400001928E-02 0. -1.
       -1   -1    0    0    0  501  0.00000000000E+00  0.00000000000E+00 -0.10986531090E+04  0.10986531090E+04  0.50400001928E-02 0.  1.
    10030    2    1    2    0    0  0.00000000000E+00  0.00000000000E+00 -0.60126301785E+03  0.15960432003E+04  0.14784575342E+04 0.  0.
        3    1    3    3  502    0  0.55677810618E+03  0.16890141543E+03  0.19162782456E+03  0.61257716331E+03  0.10100000352E+00 0. -1.
       -3    1    3    3    0  502 -0.55677810618E+03 -0.16890141543E+03 -0.79289084241E+03  0.98346603695E+03  0.10100000352E+00 0.  1.
</event>
<event>
 5   0  0.1077140E-03  0.1505012E+04  0.7818609E-02  0.8881127E-01
        1   -1    0    0  501    0  0.00000000000E+00  0.00000000000E+00  0.61016590698E+03  0.61016590701E+03  0.50400001928E-02 0.  1.
       -1   -1    0    0    0  501  0.00000000000E+00  0.00000000000E+00 -0.92805144642E+03  0.92805144643E+03  0.50400001928E-02 0. -1.
    10030    2    1    2    0    0  0.00000000000E+00  0.00000000000E+00 -0.31788553943E+03  0.15382173534E+04  0.15050120964E+04 0.  0.
        1    1    3    3  502    0  0.13437605350E+03 -0.48533231315E+03  0.41255501943E+03  0.65100385715E+03  0.50400001928E-02 0.  1.
       -1    1    3    3    0  502 -0.13437605350E+03  0.48533231315E+03 -0.73044055886E+03  0.88721349629E+03  0.50400001928E-02 0. -1.
</event>
<event>
 5   0  0.2094566E-03  0.1552061E+04  0.7818609E-02  0.8850553E-01
       -2   -1    0    0    0  501  0.00000000000E+00  0.00000000000E+00  0.78855897763E+03  0.78855897763E+03  0.25500000920E-02 0.  1.
        2   -1    0    0  501    0  0.00000000000E+00  0.00000000000E+00 -0.76370063098E+03  0.76370063099E+03  0.25500000920E-02 0. -1.
    10030    2    1    2    0    0  0.00000000000E+00  0.00000000000E+00  0.24858346647E+02  0.15522596086E+04  0.15520605514E+04 0.  0.
        1    1    3    3  502    0  0.12718347942E+03  0.73976430838E+03  0.20942174041E+03  0.77928450182E+03  0.50400001928E-02 0.  1.
       -1    1    3    3    0  502 -0.12718347942E+03 -0.73976430838E+03 -0.18456339376E+03  0.77297510680E+03  0.50400001928E-02 0. -1.
</event>
<event>
 5   0  0.2111533E-03  0.1541373E+04  0.7818609E-02  0.8857397E-01
        2   -1    0    0  501    0  0.00000000000E+00  0.00000000000E+00  0.18781623063E+04  0.18781623063E+04  0.25500000920E-02 0. -1.
       -2   -1    0    0    0  501  0.00000000000E+00  0.00000000000E+00 -0.31624406579E+03  0.31624406580E+03  0.25500000920E-02 0.  1.
    10030    2    1    2    0    0  0.00000000000E+00  0.00000000000E+00  0.15619182405E+04  0.21944063721E+04  0.15413730035E+04 0.  0.
        5    1    3    3  502    0 -0.55708868108E+03  0.42265649759E+03  0.31974877519E+03  0.76892631817E+03  0.46999998093E+01 0.  1.
       -5    1    3    3    0  502  0.55708868108E+03 -0.42265649759E+03  0.12421694653E+04  0.14254800539E+04  0.46999998093E+01 0. -1.
</event>
<event>
 5   0  0.1069697E-03  0.1856038E+04  0.7818609E-02  0.8677054E-01
        1   -1    0    0  501    0  0.00000000000E+00  0.00000000000E+00  0.21821775801E+04  0.21821775801E+04  0.50400001928E-02 0.  1.
       -1   -1    0    0    0  501  0.00000000000E+00  0.00000000000E+00 -0.39466035187E+03  0.39466035191E+03  0.50400001928E-02 0. -1.
    10030    2    1    2    0    0  0.00000000000E+00  0.00000000000E+00  0.17875172282E+04  0.25768379320E+04  0.18560376846E+04 0.  0.
        2    1    3    3  502    0 -0.18938284001E+03  0.32683160680E+03 -0.28309932322E+03  0.47204871158E+03  0.25500000920E-02 0. -1.
       -2    1    3    3    0  502  0.18938284001E+03 -0.32683160680E+03  0.20706165514E+04  0.21047892204E+04  0.25500000920E-02 0.  1.
</event>
<event>
 5   0  0.1069697E-03  0.1150494E+04  0.7818609E-02  0.9157328E-01
        1   -1    0    0  501    0  0.00000000000E+00  0.00000000000E+00  0.66946287705E+03  0.66946287707E+03  0.50400001928E-02 0.  1.
       -1   -1    0    0    0  501  0.00000000000E+00  0.00000000000E+00 -0.49429050640E+03  0.49429050643E+03  0.50400001928E-02 0. -1.
    10030    2    1    2    0    0  0.00000000000E+00  0.00000000000E+00  0.17517237065E+03  0.11637533835E+04  0.11504940583E+04 0.  0.
        2    1    3    3  502    0 -0.30702216446E+03  0.39879065914E+03  0.36938719159E+03  0.62429439899E+03  0.25500000920E-02 0.  1.
       -2    1    3    3    0  502  0.30702216446E+03 -0.39879065914E+03 -0.19421482094E+03  0.53945898451E+03  0.25500000920E-02 0. -1.
</event>
<event>
 5   0  0.1087761E-03  0.1490419E+04  0.7818609E-02  0.8890850E-01
       -1   -1    0    0    0  501  0.00000000000E+00  0.00000000000E+00  0.40957847434E+03  0.40957847437E+03  0.50400001928E-02 0. -1.
        1   -1    0    0  501    0  0.00000000000E+00  0.00000000000E+00 -0.13558743509E+04  0.13558743509E+04  0.50400001928E-02 0.  1.
    10030    2    1    2    0    0  0.00000000000E+00  0.00000000000E+00 -0.94629587652E+03  0.17654528252E+04  0.14904186634E+04 0.  0.
        3    1    3    3  502    0  0.15313321592E+03  0.17349843990E+03  0.36593882086E+03  0.43296965399E+03  0.10100000352E+00 0. -1.
       -3    1    3    3    0  502 -0.15313321592E+03 -0.17349843990E+03 -0.13122346974E+04  0.13324831712E+04  0.10100000352E+00 0.  1.
</event>
<event>
 5   0  0.2150197E-03  0.1477226E+04  0.7818609E-02  0.8899740E-01
       -2   -1    0    0    0  501  0.00000000000E+00  0.00000000000E+00  0.33397281571E+03  0.33397281572E+03  0.25500000920E-02 0. -1.
        2   -1    0    0  501    0  0.00000000000E+00  0.00000000000E+00 -0.16335131683E+04  0.16335131683E+04  0.25500000920E-02 0.  1.
    10030    2    1    2    0    0  0.00000000000E+00  0.00000000000E+00 -0.12995403526E+04  0.19674859840E+04  0.14772257679E+04 0.  0.
        3    1    3    3  502    0 -0.64623715938E+03 -0.35656959597E+03 -0.61246236504E+03  0.95910088193E+03  0.10100000352E+00 0. -1.
       -3    1    3    3    0  502  0.64623715938E+03  0.35656959597E+03 -0.68707798754E+03  0.10083851021E+04  0.10100000352E+00 0.  1.
</event>
<event>
 5   0  0.1078787E-03  0.1519741E+04  0.7818609E-02  0.8871430E-01
       -1   -1    0    0    0  501  0.00000000000E+00  0.00000000000E+00  0.74821040076E+03  0.74821040078E+03  0.50400001928E-02 0. -1.
        1   -1    0    0  501    0  0.00000000000E+00  0.00000000000E+00 -0.77171273715E+03  0.77171273717E+03  0.50400001928E-02 0.  1.
    10030    2    1    2    0    0  0.00000000000E+00  0.00000000000E+00 -0.23502336387E+02  0.15199231379E+04  0.15197414206E+04 0.  0.
        5    1    3    3  502    0  0.14759190235E+03 -0.35593830437E+03 -0.66673860011E+03  0.77008953832E+03  0.46999998093E+01 0.  1.
       -5    1    3    3    0  502 -0.14759190235E+03  0.35593830437E+03  0.64323626373E+03  0.74983359962E+03  0.46999998093E+01 0. -1.
</event>
<event>
 5   0  0.1078018E-03  0.1497150E+04  0.7818609E-02  0.8886350E-01
        1   -1    0    0  501    0  0.00000000000E+00  0.00000000000E+00  0.64324228680E+03  0.64324228682E+03  0.50400001928E-02 0.  1.
       -1   -1    0    0    0  501  0.00000000000E+00  0.00000000000E+00 -0.87115665512E+03  0.87115665513E+03  0.50400001928E-02 0. -1.
    10030    2    1    2    0    0  0.00000000000E+00  0.00000000000E+00 -0.22791436832E+03  0.15143989420E+04  0.14971503586E+04 0.  0.
        4    1    3    3  502    0  0.53065795952E+03 -0.50162768867E+03  0.52667606378E+02  0.73212273404E+03  0.12699999809E+01 0.  1.
       -4    1    3    3    0  502 -0.53065795952E+03  0.50162768867E+03 -0.28058197469E+03  0.78227620791E+03  0.12699999809E+01 0. -1.
</event>
<event>
 5   0  0.2150197E-03  0.1526048E+04  0.7818609E-02  0.8867314E-01
        2   -1    0    0  501    0  0.00000000000E+00  0.00000000000E+00  0.12301522756E+04  0.12301522756E+04  0.25500000920E-02 0. -1.
       -2   -1    0    0    0  501  0.00000000000E+00  0.00000000000E+00 -0.47327913258E+03  0.47327913259E+03  0.25500000920E-02 0.  1.
    10030    2    1    2    0    0  0.00000000000E+00  0.00000000000E+00  0.75687314306E+03  0.17034314082E+04  0.15260477083E+04 0.  0.
        3    1    3    3  502    0  0.71707776783E+03 -0.19403141500E+03  0.57292047017E+03  0.93812930370E+03  0.10100000352E+00 0. -1.
       -3    1    3    3    0  502 -0.71707776783E+03  0.19403141500E+03  0.18395267289E+03  0.76530210453E+03  0.10100000352E+00 0.  1.
</event>
<event>
 5   0  0.2111533E-03  0.1492272E+04  0.7818609E-02  0.8889609E-01
       -2   -1    0    0    0  501  0.00000000000E+00  0.00000000000E+00  0.89775796186E+03  0.89775796186E+03  0.25500000920E-02 0. -1.
        2   -1    0    0  501    0  0.00000000000E+00  0.00000000000E+00 -0.62012106060E+03  0.62012106061E+03  0.25500000920E-02 0.  1.
    10030    2    1    2    0    0  0.00000000000E+00  0.00000000000E+00  0.27763690126E+03  0.15178790225E+04  0.14922715832E+04 0.  0.
        5    1    3    3  502    0  0.64402668796E+03  0.37024611164E+03  0.68025489360E+02  0.74599069377E+03  0.46999998093E+01 0.  1.
       -5    1    3    3    0  502 -0.64402668796E+03 -0.37024611164E+03  0.20961141190E+03  0.77188832870E+03  0.46999998093E+01 0. -1.
</event>
<event>
 5   0  0.2111533E-03  0.1514665E+04  0.7818609E-02  0.8874759E-01
       -2   -1    0    0    0  501  0.00000000000E+00  0.00000000000E+00  0.50089332729E+03  0.50089332729E+03  0.25500000920E-02 0. -1.
        2   -1    0    0  501    0  0.00000000000E+00  0.00000000000E+00 -0.11450587751E+04  0.11450587751E+04  0.25500000920E-02 0.  1.
    10030    2    1    2    0    0  0.00000000000E+00  0.00000000000E+00 -0.64416544777E+03  0.16459521024E+04  0.15146647151E+04 0.  0.
        5    1    3    3  502    0  0.41639856541E+03 -0.63090802215E+03 -0.27231441064E+03  0.80349855378E+03  0.46999998093E+01 0. -1.
       -5    1    3    3    0  502 -0.41639856541E+03  0.63090802215E+03 -0.37185103713E+03  0.84245354857E+03  0.46999998093E+01 0.  1.
</event>
<event>
 5   0  0.2111533E-03  0.1481365E+04  0.7818609E-02  0.8896941E-01
       -2   -1    0    0    0  501  0.00000000000E+00  0.00000000000E+00  0.22626556391E+03  0.22626556392E+03  0.25500000920E-02 0. -1.
        2   -1    0    0  501    0  0.00000000000E+00  0.00000000000E+00 -0.24246301562E+04  0.24246301562E+04  0.25500000920E-02 0.  1.
    10030    2    1    2    0    0  0.00000000000E+00  0.00000000000E+00 -0.21983645923E+04  0.26508957201E+04  0.14813646541E+04 0.  0.
        5    1    3    3  502    0 -0.34335327469E+03 -0.65517878943E+03 -0.11670299645E+04  0.13817133369E+04  0.46999998093E+01 0.  1.
       -5    1    3    3    0  502  0.34335327469E+03  0.65517878943E+03 -0.10313346278E+04  0.12691823832E+04  0.46999998093E+01 0. -1.
</event>
<event>
 5   0  0.1961098E-03  0.1453136E+04  0.7818609E-02  0.8916229E-01
        2   -1    0    0  501    0  0.00000000000E+00  0.00000000000E+00  0.21046988844E+04  0.21046988844E+04  0.25500000920E-02 0. -1.
       -2   -1    0    0    0  501  0.00000000000E+00  0.00000000000E+00 -0.25082033023E+03  0.25082033025E+03  0.25500000920E-02 0.  1.
    10030    2    1    2    0    0  0.00000000000E+00  0.00000000000E+00  0.18538785542E+04  0.23555192147E+04  0.14531362899E+04 0.  0.
        2    1    3    3  502    0 -0.54332512234E+03  0.17129994646E+03  0.19595477936E+03  0.60244845073E+03  0.25500000920E-02 0.  1.
       -2    1    3    3    0  502  0.54332512234E+03 -0.17129994646E+03  0.16579237749E+04  0.17530707640E+04  0.25500000920E-02 0. -1.
</event>
<event>
 5   0  0.1993623E-03  0.1500965E+04  0.7818609E-02  0.8883812E-01
       -2   -1    0    0    0  501  0.00000000000E+00  0.00000000000E+00  0.67637313412E+03  0.67637313412E+03  0.25500000920E-02 0.  1.
        2   -1    0    0  501    0  0.00000000000E+00  0.00000000000E+00 -0.83271181585E+03  0.83271181585E+03  0.25500000920E-02 0. -1.
    10030    2    1    2    0    0  0.00000000000E+00  0.00000000000E+00 -0.15633868173E+03  0.15090849500E+04  0.15009648906E+04 0.  0.
        4    1    3    3  502    0 -0.17340445117E+03 -0.71212012519E+03 -0.24040558919E+03  0.77134987950E+03  0.12699999809E+01 0. -1.
       -4    1    3    3    0  502  0.17340445117E+03  0.71212012519E+03  0.84066907456E+02  0.73773507048E+03  0.12699999809E+01 0.  1.
</event>
<event>
 5   0  0.2111533E-03  0.1503177E+04  0.7818609E-02  0.8882343E-01
       -2   -1    0    0    0  501  0.00000000000E+00  0.00000000000E+00  0.32274154161E+03  0.32274154162E+03  0.25500000920E-02 0.  1.
        2   -1    0    0  501    0  0.00000000000E+00  0.00000000000E+00 -0.17502706893E+04  0.17502706893E+04  0.25500000920E-02 0. -1.
    10030    2    1    2    0    0  0.00000000000E+00  0.00000000000E+00 -0.14275291477E+04  0.20730122309E+04  0.15031767168E+04 0.  0.
        5    1    3    3  502    0 -0.16823529693E+03 -0.49405005111E+03 -0.14595875449E+04  0.15500988547E+04  0.46999998093E+01 0. -1.
       -5    1    3    3    0  502  0.16823529693E+03  0.49405005111E+03  0.32058397272E+02  0.52291337616E+03  0.46999998093E+01 0.  1.
</event>
<event>
 5   0  0.2111533E-03  0.1504740E+04  0.7818609E-02  0.8881307E-01
       -2   -1    0    0    0  501  0.00000000000E+00  0.00000000000E+00  0.25348185239E+03  0.25348185240E+03  0.25500000920E-02 0. -1.
        2   -1    0    0  501    0  0.00000000000E+00  0.00000000000E+00 -0.22331413631E+04  0.22331413631E+04  0.25500000920E-02 0.  1.
    10030    2    1    2    0    0  0.00000000000E+00  0.00000000000E+00 -0.19796595107E+04  0.24866232155E+04  0.15047402558E+04 0.  0.
        5    1    3    3  502    0  0.33780937395E+03 -0.65958489212E+03 -0.12044758191E+04  0.14141964120E+04  0.46999998093E+01 0. -1.
       -5    1    3    3    0  502 -0.33780937395E+03  0.65958489212E+03 -0.77518369162E+03  0.10724268035E+04  0.46999998093E+01 0.  1.
</event>
<event>
 5   0  0.2094566E-03  0.1505268E+04  0.7818609E-02  0.8880957E-01
       -2   -1    0    0    0  501  0.00000000000E+00  0.00000000000E+00  0.29830775762E+03  0.29830775763E+03  0.25500000920E-02 0. -1.
        2   -1    0    0  501    0  0.00000000000E+00  0.00000000000E+00 -0.18989043757E+04  0.18989043757E+04  0.25500000920E-02 0.  1.
    10030    2    1    2    0    0  0.00000000000E+00  0.00000000000E+00 -0.16005966181E+04  0.21972121334E+04  0.15052679579E+04 0.  0.
        1    1    3    3  502    0  0.42005590614E+03 -0.23671952904E+03 -0.16438564577E+04  0.17131103739E+04  0.50400001928E-02 0.  1.
       -1    1    3    3    0  502 -0.42005590614E+03  0.23671952904E+03  0.43259839612E+02  0.48410175941E+03  0.50400001928E-02 0. -1.
</event>
<event>
 5   0  0.7468375E-04  0.1484228E+04  0.7818609E-02  0.8895009E-01
       -3   -1    0    0    0  501  0.00000000000E+00  0.00000000000E+00  0.53235725263E+03  0.53235726221E+03  0.10100000352E+00 0. -1.
        3   -1    0    0  501    0  0.00000000000E+00  0.00000000000E+00 -0.10345187136E+04  0.10345187185E+04  0.10100000352E+00 0.  1.
    10030    2    1    2    0    0  0.00000000000E+00  0.00000000000E+00 -0.50216146092E+03  0.15668759807E+04  0.14842284885E+04 0.  0.
        5    1    3    3  502    0  0.88250393395E+02  0.88443444664E+02  0.52115835053E+03  0.53594635101E+03  0.46999998093E+01 0. -1.
       -5    1    3    3    0  502 -0.88250393395E+02 -0.88443444664E+02 -0.10233198115E+04  0.10309296297E+04  0.46999998093E+01 0.  1.
</event>
<event>
 5   0  0.2094566E-03  0.1438080E+04  0.7818609E-02  0.8926707E-01
       -2   -1    0    0    0  501  0.00000000000E+00  0.00000000000E+00  0.65013700322E+03  0.65013700322E+03  0.25500000920E-02 0. -1.
        2   -1    0    0  501    0  0.00000000000E+00  0.00000000000E+00 -0.79524502140E+03  0.79524502140E+03  0.25500000920E-02 0.  1.
    10030    2    1    2    0    0  0.00000000000E+00  0.00000000000E+00 -0.14510801818E+03  0.14453820246E+04  0.14380795737E+04 0.  0.
        1    1    3    3  502    0 -0.23790903264E+03  0.13428525904E+02  0.60929871921E+03  0.65423693138E+03  0.50400001928E-02 0. -1.
       -1    1    3    3    0  502  0.23790903264E+03 -0.13428525904E+02 -0.75440673739E+03  0.79114509324E+03  0.50400001928E-02 0.  1.
</event>
<event>
 5   0  0.1069697E-03  0.1499197E+04  0.7818609E-02  0.8884987E-01
       -1   -1    0    0    0  501  0.00000000000E+00  0.00000000000E+00  0.65709197467E+03  0.65709197469E+03  0.50400001928E-02 0. -1.
        1   -1    0    0  501    0  0.00000000000E+00  0.00000000000E+00 -0.85512856834E+03  0.85512856835E+03  0.50400001928E-02 0.  1.
    10030    2    1    2    0    0  0.00000000000E+00  0.00000000000E+00 -0.19803659366E+03  0.15122205430E+04  0.14991972780E+04 0.  0.
        2    1    3    3  502    0 -0.30495326206E+03  0.32808276396E+03 -0.70529138029E+03  0.83550626758E+03  0.25500000920E-02 0.  1.
       -2    1    3    3    0  502  0.30495326206E+03 -0.32808276396E+03  0.50725478663E+03  0.67671427546E+03  0.25500000920E-02 0. -1.
</event>
<event>
 5   0  0.2150197E-03  0.1511361E+04  0.7818609E-02  0.8876933E-01
       -2   -1    0    0    0  501  0.00000000000E+00  0.00000000000E+00  0.80500504099E+03  0.80500504100E+03  0.25500000920E-02 0.  1.
        2   -1    0    0  501    0  0.00000000000E+00  0.00000000000E+00 -0.70937823639E+03  0.70937823640E+03  0.25500000920E-02 0. -1.
    10030    2    1    2    0    0  0.00000000000E+00  0.00000000000E+00  0.95626804599E+02  0.15143832774E+04  0.15113610505E+04 0.  0.
        3    1    3    3  502    0 -0.16982566756E+03  0.61948315978E+03 -0.35104402189E+03  0.73200550416E+03  0.10100000352E+00 0.  1.
       -3    1    3    3    0  502  0.16982566756E+03 -0.61948315978E+03  0.44667082649E+03  0.78237777323E+03  0.10100000352E+00 0. -1.
</event>
<event>
 5   0  0.1078018E-03  0.1499055E+04  0.7818609E-02  0.8885082E-01
       -1   -1    0    0    0  501  0.00000000000E+00  0.00000000000E+00  0.25275213470E+03  0.25275213475E+03  0.50400001928E-02 0. -1.
        1   -1    0    0  501    0  0.00000000000E+00  0.00000000000E+00 -0.22226974735E+04  0.22226974735E+04  0.50400001928E-02 0.  1.
    10030    2    1    2    0    0  0.00000000000E+00  0.00000000000E+00 -0.19699453388E+04  0.24754496082E+04  0.14990550774E+04 0.  0.
        4    1    3    3  502    0  0.25397304355E+03 -0.66845776006E+03 -0.13558881690E+04  0.15328967426E+04  0.12699999809E+01 0.  1.
       -4    1    3    3    0  502 -0.25397304355E+03  0.66845776006E+03 -0.61405716980E+03  0.94255286564E+03  0.12699999809E+01 0. -1.
</event>
<event>
 5   0  0.1077140E-03  0.1421993E+04  0.7818609E-02  0.8938051E-01
        1   -1    0    0  501    0  0.00000000000E+00  0.00000000000E+00  0.46947413414E+03  0.46947413416E+03  0.50400001928E-02 0.  1.
       -1   -1    0    0    0  501  0.00000000000E+00  0.00000000000E+00 -0.10767705935E+04  0.10767705935E+04  0.50400001928E-02 0. -1.
    10030    2    1    2    0    0  0.00000000000E+00  0.00000000000E+00 -0.60729645932E+03  0.15462447276E+04  0.14219928861E+04 0.  0.
        1    1    3    3  502    0  0.60104949070E+03  0.26683466540E+03 -0.97446147037E+01  0.65769003829E+03  0.50400001928E-02 0.  1.
       -1    1    3    3    0  502 -0.60104949070E+03 -0.26683466540E+03 -0.59755184462E+03  0.88855468934E+03  0.50400001928E-02 0. -1.
</event>
<event>
 5   0  0.1078787E-03  0.1556255E+04  0.7818609E-02  0.8847882E-01
        1   -1    0    0  501    0  0.00000000000E+00  0.00000000000E+00  0.10585073291E+04  0.10585073291E+04  0.50400001928E-02 0. -1.
       -1   -1    0    0    0  501  0.00000000000E+00  0.00000000000E+00 -0.57201509636E+03  0.57201509638E+03  0.50400001928E-02 0.  1.
    10030    2    1    2    0    0  0.00000000000E+00  0.00000000000E+00  0.48649223272E+03  0.16305224255E+04  0.15562546988E+04 0.  0.
        5    1    3    3  502    0 -0.12419160036E+03  0.46346676332E+03 -0.39855108864E+03  0.62377083497E+03  0.46999998093E+01 0.  1.
       -5    1    3    3    0  502  0.12419160036E+03 -0.46346676332E+03  0.88504332136E+03  0.10067515905E+04  0.46999998093E+01 0. -1.
</event>
<event>
 5   0  0.1993623E-03  0.1436236E+04  0.7818609E-02  0.8927999E-01
       -2   -1    0    0    0  501  0.00000000000E+00  0.00000000000E+00  0.82199335323E+03  0.82199335324E+03  0.25500000920E-02 0. -1.
        2   -1    0    0  501    0  0.00000000000E+00  0.00000000000E+00 -0.62736908271E+03  0.62736908272E+03  0.25500000920E-02 0.  1.
    10030    2    1    2    0    0  0.00000000000E+00  0.00000000000E+00  0.19462427052E+03  0.14493624360E+04  0.14362356576E+04 0.  0.
        4    1    3    3  502    0 -0.39522685106E+03  0.45470582526E+03 -0.29706652179E+03  0.67172299543E+03  0.12699999809E+01 0.  1.
       -4    1    3    3    0  502  0.39522685106E+03 -0.45470582526E+03  0.49169079231E+03  0.77763944053E+03  0.12699999809E+01 0. -1.
</event>
<event>
 5   0  0.1069697E-03  0.1484984E+04  0.7818609E-02  0.8894500E-01
       -1   -1    0    0    0  501  0.00000000000E+00  0.00000000000E+00  0.37767423052E+03  0.37767423055E+03  0.50400001928E-02 0. -1.
        1   -1    0    0  501    0  0.00000000000E+00  0.00000000000E+00 -0.14597086482E+04  0.14597086482E+04  0.50400001928E-02 0.  1.
    10030    2    1    2    0    0  0.00000000000E+00  0.00000000000E+00 -0.10820344177E+04  0.18373828788E+04  0.14849839602E+04 0.  0.
        2    1    3    3  502    0  0.16673778188E+03 -0.41185093708E+03  0.19502173425E+03  0.48523824985E+03  0.25500000920E-02 0. -1.
       -2    1    3    3    0  502 -0.16673778188E+03  0.41185093708E+03 -0.12770561520E+04  0.13521446289E+04  0.25500000920E-02 0.  1.
</event>
<event>
 5   0  0.1961098E-03  0.9179673E+03  0.7818609E-02  0.9403396E-01
       -2   -1    0    0    0  501  0.00000000000E+00  0.00000000000E+00  0.17633751590E+03  0.17633751592E+03  0.25500000920E-02 0.  1.
        2   -1    0    0  501    0  0.00000000000E+00  0.00000000000E+00 -0.11946748652E+04  0.11946748652E+04  0.25500000920E-02 0. -1.
    10030    2    1    2    0    0  0.00000000000E+00  0.00000000000E+00 -0.10183373493E+04  0.13710123812E+04  0.91796731546E+03 0.  0.
        2    1    3    3  502    0  0.10643396566E+03  0.16183937680E+03 -0.11306386772E+04  0.11471111503E+04  0.25500000920E-02 0. -1.
       -2    1    3    3    0  502 -0.10643396566E+03 -0.16183937680E+03  0.11230132783E+03  0.22390123083E+03  0.25500000920E-02 0.  1.
</event>
<event>
 5   0  0.2094566E-03  0.1510178E+04  0.7818609E-02  0.8877713E-01
        2   -1    0    0  501    0  0.00000000000E+00  0.00000000000E+00  0.10265432437E+04  0.10265432437E+04  0.25500000920E-02 0.  1.
       -2   -1    0    0    0  501  0.00000000000E+00  0.00000000000E+00 -0.55541658677E+03  0.55541658677E+03  0.25500000920E-02 0. -1.
    10030    2    1    2    0    0  0.00000000000E+00  0.00000000000E+00  0.47112665691E+03  0.15819598305E+04  0.15101776645E+04 0.  0.
        1    1    3    3  502    0 -0.43320583534E+03  0.36788064924E+03 -0.28521476068E+03  0.63588593913E+03  0.50400001928E-02 0. -1.
       -1    1    3    3    0  502  0.43320583534E+03 -0.36788064924E+03  0.75634141758E+03  0.94607389132E+03  0.50400001928E-02 0.  1.
</event>
<event>
 5   0  0.7468375E-04  0.1376983E+04  0.7818609E-02  0.8970650E-01
       -4   -1    0    0    0  501  0.00000000000E+00  0.00000000000E+00  0.10535836411E+04  0.10535844065E+04  0.12699999809E+01 0.  1.
        4   -1    0    0  501    0  0.00000000000E+00  0.00000000000E+00 -0.44991051883E+03  0.44991231130E+03  0.12699999809E+01 0. -1.
    10030    2    1    2    0    0  0.00000000000E+00  0.00000000000E+00  0.60367312226E+03  0.15034967178E+04  0.13769826223E+04 0.  0.
        2    1    3    3  502    0 -0.27403162748E+03  0.10951278371E+03  0.98102833446E+03  0.10244525248E+04  0.25500000920E-02 0.  1.
       -2    1    3    3    0  502  0.27403162748E+03 -0.10951278371E+03 -0.37735521219E+03  0.47904419298E+03  0.25500000920E-02 0. -1.
</event>
<event>
 5   0  0.1069697E-03  0.8178987E+03  0.7818609E-02  0.9534465E-01
       -1   -1    0    0    0  501  0.00000000000E+00  0.00000000000E+00  0.18806583841E+03  0.18806583848E+03  0.50400001928E-02 0.  1.
        1   -1    0    0  501    0  0.00000000000E+00  0.00000000000E+00 -0.88926086025E+03  0.88926086026E+03  0.50400001928E-02 0. -1.
    10030    2    1    2    0    0  0.00000000000E+00  0.00000000000E+00 -0.70119502184E+03  0.10773266987E+04  0.81789874506E+03 0.  0.
        2    1    3    3  502    0 -0.19152201861E+03 -0.35194507110E+03 -0.45836229676E+03  0.60880375474E+03  0.25500000920E-02 0.  1.
       -2    1    3    3    0  502  0.19152201861E+03  0.35194507110E+03 -0.24283272508E+03  0.46852294400E+03  0.25500000920E-02 0. -1.
</event>
<event>
 5   0  0.1078018E-03  0.1519223E+04  0.7818609E-02  0.8871770E-01
        1   -1    0    0  501    0  0.00000000000E+00  0.00000000000E+00  0.10080802281E+04  0.10080802281E+04  0.50400001928E-02 0.  1.
       -1   -1    0    0    0  501  0.00000000000E+00  0.00000000000E+00 -0.57238454006E+03  0.57238454009E+03  0.50400001928E-02 0. -1.
    10030    2    1    2    0    0  0.00000000000E+00  0.00000000000E+00  0.43569568802E+03  0.15804647682E+04  0.15192228773E+04 0.  0.
        4    1    3    3  502    0  0.47273401119E+03  0.45733786300E+03 -0.17743289595E+03  0.68126310023E+03  0.12699999809E+01 0. -1.
       -4    1    3    3    0  502 -0.47273401119E+03 -0.45733786300E+03  0.61312858397E+03  0.89920166795E+03  0.12699999809E+01 0.  1.
</event>
<event>
 5   0  0.1993623E-03  0.1851651E+04  0.7818609E-02  0.8679304E-01
       -2   -1    0    0    0  501  0.00000000000E+00  0.00000000000E+00  0.89340411523E+03  0.89340411523E+03  0.25500000920E-02 0.  1.
        2   -1    0    0  501    0  0.00000000000E+00  0.00000000000E+00 -0.95942348133E+03  0.95942348133E+03  0.25500000920E-02 0. -1.
    10030    2    1    2    0    0  0.00000000000E+00  0.00000000000E+00 -0.66019366099E+02  0.18528275966E+04  0.18516510324E+04 0.  0.
        4    1    3    3  502    0 -0.70013917507E+03 -0.45938700134E+03 -0.42812764316E+03  0.94049251630E+03  0.12699999809E+01 0. -1.
       -4    1    3    3    0  502  0.70013917507E+03  0.45938700134E+03  0.36210827706E+03  0.91233508027E+03  0.12699999809E+01 0.  1.
</event>
<event>
 5   0  0.2150197E-03  0.1487009E+04  0.7818609E-02  0.8893138E-01
        2   -1    0    0  501    0  0.00000000000E+00  0.00000000000E+00  0.12106347294E+04  0.12106347294E+04  0.25500000920E-02 0. -1.
       -2   -1    0    0    0  501  0.00000000000E+00  0.00000000000E+00 -0.45661924194E+03  0.45661924194E+03  0.25500000920E-02 0.  1.
    10030    2    1    2    0    0  0.00000000000E+00  0.00000000000E+00  0.75401548747E+03  0.16672539713E+04  0.14870092298E+04 0.  0.
        3    1    3    3  502    0  0.16706404532E+02  0.11099534893E+03 -0.44706471276E+03  0.46094027707E+03  0.10100000352E+00 0.  1.
       -3    1    3    3    0  502 -0.16706404532E+02 -0.11099534893E+03  0.12010802002E+04  0.12063136943E+04  0.10100000352E+00 0. -1.
</event>
<event>
 5   0  0.1077140E-03  0.1344292E+04  0.7818609E-02  0.8995161E-01
       -1   -1    0    0    0  501  0.00000000000E+00  0.00000000000E+00  0.18437231646E+03  0.18437231653E+03  0.50400001928E-02 0.  1.
        1   -1    0    0  501    0  0.00000000000E+00  0.00000000000E+00 -0.24503677417E+04  0.24503677417E+04  0.50400001928E-02 0. -1.
    10030    2    1    2    0    0  0.00000000000E+00  0.00000000000E+00 -0.22659954252E+04  0.26347400582E+04  0.13442916005E+04 0.  0.
        1    1    3    3  502    0 -0.50689209240E+03 -0.90360389850E+02 -0.28618412995E+03  0.58907210904E+03  0.50400001928E-02 0.  1.
       -1    1    3    3    0  502  0.50689209240E+03  0.90360389850E+02 -0.19798112953E+04  0.20456679492E+04  0.50400001928E-02 0. -1.
</event>
<event>
 5   0  0.1087761E-03  0.1505148E+04  0.7818609E-02  0.8881037E-01
        1   -1    0    0  501    0  0.00000000000E+00  0.00000000000E+00  0.12563282471E+04  0.12563282471E+04  0.50400001928E-02 0.  1.
       -1   -1    0    0    0  501  0.00000000000E+00  0.00000000000E+00 -0.45081157461E+03  0.45081157464E+03  0.50400001928E-02 0. -1.
    10030    2    1    2    0    0  0.00000000000E+00  0.00000000000E+00  0.80551667247E+03  0.17071398217E+04  0.15051475879E+04 0.  0.
        3    1    3    3  502    0 -0.33034044389E+03  0.95858960211E+02 -0.35643951522E+03  0.49534118276E+03  0.10100000352E+00 0. -1.
       -3    1    3    3    0  502  0.33034044389E+03 -0.95858960211E+02  0.11619561877E+04  0.12117986390E+04  0.10100000352E+00 0.  1.
</event>
<event>
 5   0  0.1069697E-03  0.1524838E+04  0.7818609E-02  0.8868102E-01
       -1   -1    0    0    0  501  0.00000000000E+00  0.00000000000E+00  0.77938765417E+03  0.77938765419E+03  0.50400001928E-02 0. -1.
        1   -1    0    0  501    0  0.00000000000E+00  0.00000000000E+00 -0.74581931341E+03  0.74581931342E+03  0.50400001928E-02 0.  1.
    10030    2    1    2    0    0  0.00000000000E+00  0.00000000000E+00  0.33568340764E+02  0.15252069676E+04  0.15248375194E+04 0.  0.
        2    1    3    3  502    0 -0.62899012823E+03  0.26541053463E+03 -0.32272557446E+03  0.75513120034E+03  0.25500000920E-02 0.  1.
       -2    1    3    3    0  502  0.62899012823E+03 -0.26541053463E+03  0.35629391522E+03  0.77007576727E+03  0.25500000920E-02 0. -1.
</event>
<event>
 5   0  0.1069697E-03  0.1476077E+04  0.7818609E-02  0.8900519E-01
       -1   -1    0    0    0  501  0.00000000000E+00  0.00000000000E+00  0.11099935023E+04  0.11099935023E+04  0.50400001928E-02 0. -1.
        1   -1    0    0  501    0  0.00000000000E+00  0.00000000000E+00 -0.49072432491E+03  0.49072432494E+03  0.50400001928E-02 0.  1.
    10030    2    1    2    0    0  0.00000000000E+00  0.00000000000E+00  0.61926917736E+03  0.16007178272E+04  0.14760769791E+04 0.  0.
        2    1    3    3  502    0 -0.49521830942E+03 -0.54700654089E+03  0.29271306383E+03  0.79381248888E+03  0.25500000920E-02 0.  1.
       -2    1    3    3    0  502  0.49521830942E+03  0.54700654089E+03  0.32655611353E+03  0.80690533834E+03  0.25500000920E-02 0. -1.
</event>
<event>
 5   0  0.2111533E-03  0.1271872E+04  0.7818609E-02  0.9052173E-01
        2   -1    0    0  501    0  0.00000000000E+00  0.00000000000E+00  0.20545142966E+04  0.20545142966E+04  0.25500000920E-02 0. -1.
       -2   -1    0    0    0  501  0.00000000000E+00  0.00000000000E+00 -0.19684207829E+03  0.19684207830E+03  0.25500000920E-02 0.  1.
    10030    2    1    2    0    0  0.00000000000E+00  0.00000000000E+00  0.18576722183E+04  0.22513563749E+04  0.12718724213E+04 0.  0.
        5    1    3    3  502    0 -0.95933416850E+02 -0.48960932285E+03  0.16267906839E+04  0.17015847110E+04  0.46999998093E+01 0. -1.
       -5    1    3    3    0  502  0.95933416850E+02  0.48960932285E+03  0.23088153438E+03  0.54977166388E+03  0.46999998093E+01 0.  1.
</event>
<event>
 5   0  0.1078787E-03  0.1534305E+04  0.7818609E-02  0.8861955E-01
       -1   -1    0    0    0  501  0.00000000000E+00  0.00000000000E+00  0.14499818489E+04  0.14499818489E+04  0.50400001928E-02 0. -1.
        1   -1    0    0  501    0  0.00000000000E+00  0.00000000000E+00 -0.40588322454E+03  0.40588322457E+03  0.50400001928E-02 0.  1.
    10030    2    1    2    0    0  0.00000000000E+00  0.00000000000E+00  0.10440986244E+04  0.18558650735E+04  0.15343054564E+04 0.  0.
        5    1    3    3  502    0  0.43603832693E+03  0.17304242714E+03 -0.21214489015E+03  0.51487925629E+03  0.46999998093E+01 0.  1.
       -5    1    3    3    0  502 -0.43603832693E+03 -0.17304242714E+03  0.12562435145E+04  0.13409858172E+04  0.46999998093E+01 0. -1.
</event>
<event>
 5   0  0.1087761E-03  0.1332863E+04  0.7818609E-02  0.9003903E-01
        1   -1    0    0  501    0  0.00000000000E+00  0.00000000000E+00  0.36853328111E+03  0.36853328114E+03  0.50400001928E-02 0.  1.
       -1   -1    0    0    0  501  0.00000000000E+00  0.00000000000E+00 -0.12051317757E+04  0.12051317757E+04  0.50400001928E-02 0. -1.
    10030    2    1    2    0    0  0.00000000000E+00  0.00000000000E+00 -0.83659849461E+03  0.15736650569E+04  0.13328633351E+04 0.  0.
        3    1    3    3  502    0 -0.13550420108E+03 -0.23357192356E+03  0.30104837064E+03  0.40440989559E+03  0.10100000352E+00 0.  1.
       -3    1    3    3    0  502  0.13550420108E+03  0.23357192356E+03 -0.11376468652E+04  0.11692551613E+04  0.10100000352E+00 0. -1.
</event>
<event>
 5   0  0.1078787E-03  0.1501284E+04  0.7818609E-02  0.8883599E-01
        1   -1    0    0  501    0  0.00000000000E+00  0.00000000000E+00  0.14412207899E+04  0.14412207899E+04  0.50400001928E-02 0. -1.
       -1   -1    0    0    0  501  0.00000000000E+00  0.00000000000E+00 -0.39096262111E+03  0.39096262114E+03  0.50400001928E-02 0.  1.
    10030    2    1    2    0    0  0.00000000000E+00  0.00000000000E+00  0.10502581687E+04  0.18321834110E+04  0.15012840606E+04 0.  0.
        5    1    3    3  502    0 -0.74834187049E+02 -0.30794054161E+03 -0.30530096713E+03  0.44006624870E+03  0.46999998093E+01 0.  1.
       -5    1    3    3    0  502  0.74834187049E+02  0.30794054161E+03  0.13555591359E+04  0.13921171623E+04  0.46999998093E+01 0. -1.
</event>
<event>
 5   0  0.1077140E-03  0.1556814E+04  0.7818609E-02  0.8847527E-01
        1   -1    0    0  501    0  0.00000000000E+00  0.00000000000E+00  0.46422446317E+03  0.46422446319E+03  0.50400001928E-02 0.  1.
       -1   -1    0    0    0  501  0.00000000000E+00  0.00000000000E+00 -0.13052249784E+04  0.13052249784E+04  0.50400001928E-02 0. -1.
    10030    2    1    2    0    0  0.00000000000E+00  0.00000000000E+00 -0.84100051527E+03  0.17694494416E+04  0.15568138809E+04 0.  0.
        1    1    3    3  502    0 -0.75283272543E+03  0.11248207017E+03 -0.23544976675E+03  0.79677218907E+03  0.50400001928E-02 0. -1.
       -1    1    3    3    0  502  0.75283272543E+03 -0.11248207017E+03 -0.60555074853E+03  0.97267725257E+03  0.50400001928E-02 0.  1.
</event>
<event>
 5   0  0.1961098E-03  0.1506547E+04  0.7818609E-02  0.8880111E-01
       -2   -1    0    0    0  501  0.00000000000E+00  0.00000000000E+00  0.33314534382E+03  0.33314534383E+03  0.25500000920E-02 0. -1.
        2   -1    0    0  501    0  0.00000000000E+00  0.00000000000E+00 -0.17032241019E+04  0.17032241019E+04  0.25500000920E-02 0.  1.
    10030    2    1    2    0    0  0.00000000000E+00  0.00000000000E+00 -0.13700787581E+04  0.20363694458E+04  0.15065472831E+04 0.  0.
        2    1    3    3  502    0  0.93307224657E+02 -0.36132649165E+03 -0.15694946847E+04  0.16132503331E+04  0.25500000920E-02 0.  1.
       -2    1    3    3    0  502 -0.93307224657E+02  0.36132649165E+03  0.19941592661E+03  0.42311911271E+03  0.25500000920E-02 0. -1.
</event>
<event>
 5   0  0.2094566E-03  0.1442146E+04  0.7818609E-02  0.8923864E-01
        2   -1    0    0  501    0  0.00000000000E+00  0.00000000000E+00  0.14215470450E+04  0.14215470450E+04  0.25500000920E-02 0.  1.
       -2   -1    0    0    0  501  0.00000000000E+00  0.00000000000E+00 -0.36576070582E+03  0.36576070583E+03  0.25500000920E-02 0. -1.
    10030    2    1    2    0    0  0.00000000000E+00  0.00000000000E+00  0.10557863392E+04  0.17873077508E+04  0.14421456938E+04 0.  0.
        1    1    3    3  502    0 -0.49279391419E+02 -0.70490872314E+03  0.34992265575E+03  0.78852433787E+03  0.50400001928E-02 0. -1.
       -1    1    3    3    0  502  0.49279391419E+02  0.70490872314E+03  0.70586368340E+03  0.99878341293E+03  0.50400001928E-02 0.  1.
</event>
<event>
 5   0  0.7468375E-04  0.1510358E+04  0.7818609E-02  0.8877594E-01
        3   -1    0    0  501    0  0.00000000000E+00  0.00000000000E+00  0.82138394024E+03  0.82138394645E+03  0.10100000352E+00 0. -1.
       -3   -1    0    0    0  501  0.00000000000E+00  0.00000000000E+00 -0.69431033434E+03  0.69431034168E+03  0.10100000352E+00 0.  1.
    10030    2    1    2    0    0  0.00000000000E+00  0.00000000000E+00  0.12707360590E+03  0.15156942881E+04  0.15103580614E+04 0.  0.
        2    1    3    3  502    0 -0.23120745167E+03 -0.39352402701E+03 -0.54023437574E+03  0.70722784609E+03  0.25500000920E-02 0.  1.
       -2    1    3    3    0  502  0.23120745167E+03  0.39352402701E+03  0.66730798164E+03  0.80846644204E+03  0.25500000920E-02 0. -1.
</event>
<event>
 5   0  0.1069697E-03  0.1495047E+04  0.7818609E-02  0.8887753E-01
        1   -1    0    0  501    0  0.00000000000E+00  0.00000000000E+00  0.10262755133E+04  0.10262755133E+04  0.50400001928E-02 0.  1.
       -1   -1    0    0    0  501  0.00000000000E+00  0.00000000000E+00 -0.54448492516E+03  0.54448492518E+03  0.50400001928E-02 0. -1.
    10030    2    1    2    0    0  0.00000000000E+00  0.00000000000E+00  0.48179058817E+03  0.15707604385E+04  0.14950472181E+04 0.  0.
        2    1    3    3  502    0  0.39735761281E+03  0.34058644901E+03  0.80168595202E+03  0.95738840988E+03  0.25500000920E-02 0.  1.
       -2    1    3    3    0  502 -0.39735761281E+03 -0.34058644901E+03 -0.31989536385E+03  0.61337202865E+03  0.25500000920E-02 0. -1.
</event>
<event>
 5   0  0.1087761E-03  0.1221978E+04  0.7818609E-02  0.9093834E-01
       -1   -1    0    0    0  501  0.00000000000E+00  0.00000000000E+00  0.26817500061E+03  0.26817500066E+03  0.50400001928E-02 0. -1.
        1   -1    0    0  501    0  0.00000000000E+00  0.00000000000E+00 -0.13920304598E+04  0.13920304598E+04  0.50400001928E-02 0.  1.
    10030    2    1    2    0    0  0.00000000000E+00  0.00000000000E+00 -0.11238554592E+04  0.16602054605E+04  0.12219783459E+04 0.  0.
        3    1    3    3  502    0 -0.49112163666E+03 -0.11739279032E+03 -0.10292740652E+04  0.11464670256E+04  0.10100000352E+00 0.  1.
       -3    1    3    3    0  502  0.49112163666E+03  0.11739279032E+03 -0.94581394008E+02  0.51373843492E+03  0.10100000352E+00 0. -1.
</event>
<event>
 5   0  0.1961098E-03  0.1476551E+04  0.7818609E-02  0.8900198E-01
       -2   -1    0    0    0  501  0.00000000000E+00  0.00000000000E+00  0.45107890864E+03  0.45107890865E+03  0.25500000920E-02 0. -1.
        2   -1    0    0  501    0  0.00000000000E+00  0.00000000000E+00 -0.12083267641E+04  0.12083267642E+04  0.25500000920E-02 0.  1.
    10030    2    1    2    0    0  0.00000000000E+00  0.00000000000E+00 -0.75724785551E+03  0.16594056728E+04  0.14765510056E+04 0.  0.
        2    1    3    3  502    0  0.59858386044E+03  0.37476392131E+03 -0.13680237630E+03  0.71935076622E+03  0.25500000920E-02 0. -1.
       -2    1    3    3    0  502 -0.59858386044E+03 -0.37476392131E+03 -0.62044547921E+03  0.94005490657E+03  0.25500000920E-02 0.  1.
</event>
<event>
 5   0  0.2094566E-03  0.1146957E+04  0.7818609E-02  0.9160595E-01
       -2   -1    0    0    0  501  0.00000000000E+00  0.00000000000E+00  0.61859967253E+03  0.61859967253E+03  0.25500000920E-02 0.  1.
        2   -1    0    0  501    0  0.00000000000E+00  0.00000000000E+00 -0.53164888925E+03  0.53164888926E+03  0.25500000920E-02 0. -1.
    10030    2    1    2    0    0  0.00000000000E+00  0.00000000000E+00  0.86950783274E+02  0.11502485618E+04  0.11469574165E+04 0.  0.
        1    1    3    3  502    0 -0.98645413136E+02 -0.37794810152E+03  0.46456371773E+03  0.60695562674E+03  0.50400001928E-02 0.  1.
       -1    1    3    3    0  502  0.98645413136E+02  0.37794810152E+03 -0.37761293446E+03  0.54329293505E+03  0.50400001928E-02 0. -1.
</event>
<event>
 5   0  0.1077140E-03  0.1458749E+04  0.7818609E-02  0.8912358E-01
        1   -1    0    0  501    0  0.00000000000E+00  0.00000000000E+00  0.52637575073E+03  0.52637575076E+03  0.50400001928E-02 0. -1.
       -1   -1    0    0    0  501  0.00000000000E+00  0.00000000000E+00 -0.10106602635E+04  0.10106602636E+04  0.50400001928E-02 0.  1.
    10030    2    1    2    0    0  0.00000000000E+00  0.00000000000E+00 -0.48428451281E+03  0.15370360143E+04  0.14587488543E+04 0.  0.
        1    1    3    3  502    0 -0.32337941825E+03 -0.10377609341E+02 -0.93090961913E+03  0.98553267928E+03  0.50400001928E-02 0.  1.
       -1    1    3    3    0  502  0.32337941825E+03  0.10377609341E+02  0.44662510632E+03  0.55150333503E+03  0.50400001928E-02 0. -1.
</event>
<event>
 5   0  0.1961098E-03  0.1466342E+04  0.7818609E-02  0.8907149E-01
       -2   -1    0    0    0  501  0.00000000000E+00  0.00000000000E+00  0.72895657257E+03  0.72895657257E+03  0.25500000920E-02 0. -1.
        2   -1    0    0  501    0  0.00000000000E+00  0.00000000000E+00 -0.73741000641E+03  0.73741000642E+03  0.25500000920E-02 0.  1.
    10030    2    1    2    0    0  0.00000000000E+00  0.00000000000E+00 -0.84534338457E+01  0.14663665790E+04  0.14663422123E+04 0.  0.
        2    1    3    3  502    0  0.26621686624E+03 -0.58894133947E+03  0.34192430756E+03  0.73118776885E+03  0.25500000920E-02 0. -1.
       -2    1    3    3    0  502 -0.26621686624E+03  0.58894133947E+03 -0.35037774140E+03  0.73517881014E+03  0.25500000920E-02 0.  1.
</event>
<event>
 5   0  0.1078018E-03  0.1468702E+04  0.7818609E-02  0.8905537E-01
       -1   -1    0    0    0  501  0.00000000000E+00  0.00000000000E+00  0.52671745188E+03  0.52671745190E+03  0.50400001928E-02 0.  1.
        1   -1    0    0  501    0  0.00000000000E+00  0.00000000000E+00 -0.10238340710E+04  0.10238340710E+04  0.50400001928E-02 0. -1.
    10030    2    1    2    0    0  0.00000000000E+00  0.00000000000E+00 -0.49711661910E+03  0.15505515229E+04  0.14687018391E+04 0.  0.
        4    1    3    3  502    0  0.13044838651E+03  0.39493635546E+03  0.39037873916E+03  0.57042850498E+03  0.12699999809E+01 0.  1.
       -4    1    3    3    0  502 -0.13044838651E+03 -0.39493635546E+03 -0.88749535826E+03  0.98012301791E+03  0.12699999809E+01 0. -1.
</event>
<event>
 5   0  0.1087761E-03  0.1559283E+04  0.7818609E-02  0.8845960E-01
        1   -1    0    0  501    0  0.00000000000E+00  0.00000000000E+00  0.10220510128E+04  0.10220510128E+04  0.50400001928E-02 0. -1.
       -1   -1    0    0    0  501  0.00000000000E+00  0.00000000000E+00 -0.59472676253E+03  0.59472676255E+03  0.50400001928E-02 0.  1.
    10030    2    1    2    0    0  0.00000000000E+00  0.00000000000E+00  0.42732425027E+03  0.16167777754E+04  0.15592832841E+04 0.  0.
        3    1    3    3  502    0 -0.50171028593E+03  0.12679348548E+03 -0.39097876644E+03  0.64857860354E+03  0.10100000352E+00 0. -1.
       -3    1    3    3    0  502  0.50171028593E+03 -0.12679348548E+03  0.81830301671E+03  0.96819917182E+03  0.10100000352E+00 0.  1.
</event>
<event>
 5   0  0.2111533E-03  0.1290393E+04  0.7818609E-02  0.9037219E-01
       -2   -1    0    0    0  501  0.00000000000E+00  0.00000000000E+00  0.77810482189E+03  0.77810482189E+03  0.25500000920E-02 0. -1.
        2   -1    0    0  501    0  0.00000000000E+00  0.00000000000E+00 -0.53498995791E+03  0.53498995792E+03  0.25500000920E-02 0.  1.
    10030    2    1    2    0    0  0.00000000000E+00  0.00000000000E+00  0.24311486398E+03  0.13130947798E+04  0.12903926006E+04 0.  0.
        5    1    3    3  502    0  0.27970034368E+03  0.11254942692E+03  0.70199293404E+03  0.76401297449E+03  0.46999998093E+01 0. -1.
       -5    1    3    3    0  502 -0.27970034368E+03 -0.11254942692E+03 -0.45887807006E+03  0.54908180532E+03  0.46999998093E+01 0.  1.
</event>
<event>
 5   0  0.1961098E-03  0.1526116E+04  0.7818609E-02  0.8867270E-01
        2   -1    0    0  501    0  0.00000000000E+00  0.00000000000E+00  0.13676169451E+04  0.13676169451E+04  0.25500000920E-02 0.  1.
       -2   -1    0    0    0  501  0.00000000000E+00  0.00000000000E+00 -0.42574579309E+03  0.42574579310E+03  0.25500000920E-02 0. -1.
    10030    2    1    2    0    0  0.00000000000E+00  0.00000000000E+00  0.94187115200E+03  0.17933627382E+04  0.15261155408E+04 0.  0.
        2    1    3    3  502    0  0.68022969599E+03 -0.18905339033E+03  0.81111802398E+03  0.10753446297E+04  0.25500000920E-02 0.  1.
       -2    1    3    3    0  502 -0.68022969599E+03  0.18905339033E+03  0.13075312802E+03  0.71801810854E+03  0.25500000920E-02 0. -1.
</event>
<event>
 5   0  0.7468375E-04  0.1494191E+04  0.7818609E-02  0.8888325E-01
       -3   -1    0    0    0  501  0.00000000000E+00  0.00000000000E+00  0.14495856205E+04  0.14495856240E+04  0.10100000352E+00 0. -1.
        3   -1    0    0  501    0  0.00000000000E+00  0.00000000000E+00 -0.38504240881E+03  0.38504242205E+03  0.10100000352E+00 0.  1.
    10030    2    1    2    0    0  0.00000000000E+00  0.00000000000E+00  0.10645432116E+04  0.18346280460E+04  0.14941913592E+04 0.  0.
        3    1    3    3  502    0 -0.79835080429E+02  0.54359624693E+03 -0.89313174882E+02  0.55663935645E+03  0.10100000352E+00 0.  1.
       -3    1    3    3    0  502  0.79835080429E+02 -0.54359624693E+03  0.11538563865E+04  0.12779886896E+04  0.10100000352E+00 0. -1.
</event>
<event>
 5   0  0.7468375E-04  0.1504329E+04  0.7818609E-02  0.8881579E-01
       -3   -1    0    0    0  501  0.00000000000E+00  0.00000000000E+00  0.76848241972E+03  0.76848242636E+03  0.10100000352E+00 0.  1.
        3   -1    0    0  501    0  0.00000000000E+00  0.00000000000E+00 -0.73619348258E+03  0.73619348951E+03  0.10100000352E+00 0. -1.
    10030    2    1    2    0    0  0.00000000000E+00  0.00000000000E+00  0.32288937139E+02  0.15046759159E+04  0.15043294308E+04 0.  0.
        2    1    3    3  502    0 -0.30534055940E+03 -0.45362035612E+03  0.53273944134E+03  0.76342360264E+03  0.25500000920E-02 0.  1.
       -2    1    3    3    0  502  0.30534055940E+03  0.45362035612E+03 -0.50045050421E+03  0.74125231323E+03  0.25500000920E-02 0. -1.
</event>
<event>
 5   0  0.1069697E-03  0.1504599E+04  0.7818609E-02  0.8881400E-01
       -1   -1    0    0    0  501  0.00000000000E+00  0.00000000000E+00  0.66658872397E+03  0.66658872399E+03  0.50400001928E-02 0. -1.
        1   -1    0    0  501    0  0.00000000000E+00  0.00000000000E+00 -0.84903151576E+03  0.84903151578E+03  0.50400001928E-02 0.  1.
    10030    2    1    2    0    0  0.00000000000E+00  0.00000000000E+00 -0.18244279179E+03  0.15156202398E+04  0.15045993948E+04 0.  0.
        2    1    3    3  502    0 -0.46258380491E+03  0.12740396685E+03  0.49245293699E+03  0.68755031997E+03  0.25500000920E-02 0. -1.
       -2    1    3    3    0  502  0.46258380491E+03 -0.12740396685E+03 -0.67489572878E+03  0.82806991980E+03  0.25500000920E-02 0.  1.
</event>
<event>
 5   0  0.1077140E-03  0.1466779E+04  0.7818609E-02  0.8906850E-01
        1   -1    0    0  501    0  0.00000000000E+00  0.00000000000E+00  0.12244590001E+04  0.12244590001E+04  0.50400001928E-02 0.  1.
       -1   -1    0    0    0  501  0.00000000000E+00  0.00000000000E+00 -0.43926376781E+03  0.43926376784E+03  0.50400001928E-02 0. -1.
    10030    2    1    2    0    0  0.00000000000E+00  0.00000000000E+00  0.78519523227E+03  0.16637227679E+04  0.14667794298E+04 0.  0.
        1    1    3    3  502    0  0.43868261391E+03  0.45597389961E+03 -0.28009603077E+02  0.63335548530E+03  0.50400001928E-02 0. -1.
       -1    1    3    3    0  502 -0.43868261391E+03 -0.45597389961E+03  0.81320483535E+03  0.10303672826E+04  0.50400001928E-02 0.  1.
</event>
<event>
 5   0  0.1961098E-03  0.1579438E+04  0.7818609E-02  0.8833280E-01
        2   -1    0    0  501    0  0.00000000000E+00  0.00000000000E+00  0.20026753326E+04  0.20026753326E+04  0.25500000920E-02 0.  1.
       -2   -1    0    0    0  501  0.00000000000E+00  0.00000000000E+00 -0.31141158559E+03  0.31141158560E+03  0.25500000920E-02 0. -1.
    10030    2    1    2    0    0  0.00000000000E+00  0.00000000000E+00  0.16912637470E+04  0.23140869182E+04  0.15794382555E+04 0.  0.
        2    1    3    3  502    0 -0.78822160682E+03 -0.33563587065E+02  0.89715134817E+03  0.11946967638E+04  0.25500000920E-02 0.  1.
       -2    1    3    3    0  502  0.78822160682E+03  0.33563587065E+02  0.79411239883E+03  0.11193901544E+04  0.25500000920E-02 0. -1.
</event>
<event>
 5   0  0.1077140E-03  0.1408649E+04  0.7818609E-02  0.8947582E-01
        1   -1    0    0  501    0  0.00000000000E+00  0.00000000000E+00  0.12383058283E+04  0.12383058283E+04  0.50400001928E-02 0. -1.
       -1   -1    0    0    0  501  0.00000000000E+00  0.00000000000E+00 -0.40060607661E+03  0.40060607664E+03  0.50400001928E-02 0.  1.
    10030    2    1    2    0    0  0.00000000000E+00  0.00000000000E+00  0.83769975168E+03  0.16389119049E+04  0.14086487703E+04 0.  0.
        1    1    3    3  502    0 -0.21170061580E+03 -0.62491248264E+03  0.70559138159E+03  0.96601861239E+03  0.50400001928E-02 0. -1.
       -1    1    3    3    0  502  0.21170061580E+03  0.62491248264E+03  0.13210837010E+03  0.67289329255E+03  0.50400001928E-02 0.  1.
</event>
<event>
 5   0  0.7468375E-04  0.1460580E+04  0.7818609E-02  0.8911098E-01
       -4   -1    0    0    0  501  0.00000000000E+00  0.00000000000E+00  0.57870934725E+03  0.57871074078E+03  0.12699999809E+01 0. -1.
        4   -1    0    0  501    0  0.00000000000E+00  0.00000000000E+00 -0.92157142477E+03  0.92157229985E+03  0.12699999809E+01 0.  1.
    10030    2    1    2    0    0  0.00000000000E+00  0.00000000000E+00 -0.34286207751E+03  0.15002830406E+04  0.14605802949E+04 0.  0.
        3    1    3    3  502    0  0.84854751597E+02  0.24610897050E+03  0.52943121431E+03  0.58997235115E+03  0.10100000352E+00 0. -1.
       -3    1    3    3    0  502 -0.84854751597E+02 -0.24610897050E+03 -0.87229329182E+03  0.91031068949E+03  0.10100000352E+00 0.  1.
</event>
<event>
 5   0  0.1087761E-03  0.1479002E+04  0.7818609E-02  0.8898538E-01
       -1   -1    0    0    0  501  0.00000000000E+00  0.00000000000E+00  0.87808386850E+03  0.87808386851E+03  0.50400001928E-02 0. -1.
        1   -1    0    0  501    0  0.00000000000E+00  0.00000000000E+00 -0.62278968044E+03  0.62278968046E+03  0.50400001928E-02 0.  1.
    10030    2    1    2    0    0  0.00000000000E+00  0.00000000000E+00  0.25529418806E+03  0.15008735490E+04  0.14790017875E+04 0.  0.
        3    1    3    3  502    0 -0.66736785563E+03 -0.29023596688E+03 -0.56143042554E+01  0.72776940154E+03  0.10100000352E+00 0. -1.
       -3    1    3    3    0  502  0.66736785563E+03  0.29023596688E+03  0.26090849232E+03  0.77310414743E+03  0.10100000352E+00 0.  1.
</event>
<event>
 5   0  0.7468375E-04  0.1466129E+04  0.7818609E-02  0.8907294E-01
        3   -1    0    0  501    0  0.00000000000E+00  0.00000000000E+00  0.67166816076E+03  0.67166816835E+03  0.10100000352E+00 0. -1.
       -3   -1    0    0    0  501  0.00000000000E+00  0.00000000000E+00 -0.80007317862E+03  0.80007318500E+03  0.10100000352E+00 0.  1.
    10030    2    1    2    0    0  0.00000000000E+00  0.00000000000E+00 -0.12840501786E+03  0.14717413533E+04  0.14661291766E+04 0.  0.
        1    1    3    3  502    0  0.24257736091E+02  0.52991386886E+03 -0.57209036116E+03  0.78018236812E+03  0.50400001928E-02 0. -1.
       -1    1    3    3    0  502 -0.24257736091E+02 -0.52991386886E+03  0.44368534330E+03  0.69155898523E+03  0.50400001928E-02 0.  1.
</event>
<event>
 5   0  0.1078787E-03  0.1569246E+04  0.7818609E-02  0.8839667E-01
        1   -1    0    0  501    0  0.00000000000E+00  0.00000000000E+00  0.84084520459E+03  0.84084520461E+03  0.50400001928E-02 0.  1.
       -1   -1    0    0    0  501  0.00000000000E+00  0.00000000000E+00 -0.73216026295E+03  0.73216026296E+03  0.50400001928E-02 0. -1.
    10030    2    1    2    0    0  0.00000000000E+00  0.00000000000E+00  0.10868494165E+03  0.15730054676E+04  0.15692462472E+04 0.  0.
        5    1    3    3  502    0  0.30622176728E+03  0.23901127920E+03 -0.62898933394E+03  0.73928873558E+03  0.46999998093E+01 0. -1.
       -5    1    3    3    0  502 -0.30622176728E+03 -0.23901127920E+03  0.73767427559E+03  0.83371673199E+03  0.46999998093E+01 0.  1.
</event>
<event>
 5   0  0.1961098E-03  0.1370143E+04  0.7818609E-02  0.8975719E-01
       -2   -1    0    0    0  501  0.00000000000E+00  0.00000000000E+00  0.72314865024E+03  0.72314865024E+03  0.25500000920E-02 0.  1.
        2   -1    0    0  501    0  0.00000000000E+00  0.00000000000E+00 -0.64899936122E+03  0.64899936123E+03  0.25500000920E-02 0. -1.
    10030    2    1    2    0    0  0.00000000000E+00  0.00000000000E+00  0.74149289014E+02  0.13721480115E+04  0.13701430759E+04 0.  0.
        2    1    3    3  502    0 -0.67733796883E+03  0.36736254598E+02  0.13306235883E+03  0.69126107062E+03  0.25500000920E-02 0.  1.
       -2    1    3    3    0  502  0.67733796883E+03 -0.36736254598E+02 -0.58913069820E+02  0.68088694085E+03  0.25500000920E-02 0. -1.
</event>
<event>
 5   0  0.7468375E-04  0.1479253E+04  0.7818609E-02  0.8898368E-01
       -3   -1    0    0    0  501  0.00000000000E+00  0.00000000000E+00  0.18643240930E+04  0.18643240957E+04  0.10100000352E+00 0. -1.
        3   -1    0    0  501    0  0.00000000000E+00  0.00000000000E+00 -0.29342934674E+03  0.29342936412E+03  0.10100000352E+00 0.  1.
    10030    2    1    2    0    0  0.00000000000E+00  0.00000000000E+00  0.15708947462E+04  0.21577534598E+04  0.14792530851E+04 0.  0.
        3    1    3    3  502    0  0.11596562323E+03  0.28657388944E+02 -0.27926557797E+03  0.30374091748E+03  0.10100000352E+00 0.  1.
       -3    1    3    3    0  502 -0.11596562323E+03 -0.28657388944E+02  0.18501603242E+04  0.18540125423E+04  0.10100000352E+00 0. -1.
</event>
<event>
 5   0  0.1077140E-03  0.1511496E+04  0.7818609E-02  0.8876844E-01
       -1   -1    0    0    0  501  0.00000000000E+00  0.00000000000E+00  0.54260661213E+03  0.54260661215E+03  0.50400001928E-02 0. -1.
        1   -1    0    0  501    0  0.00000000000E+00  0.00000000000E+00 -0.10526139412E+04  0.10526139413E+04  0.50400001928E-02 0.  1.
    10030    2    1    2    0    0  0.00000000000E+00  0.00000000000E+00 -0.51000732912E+03  0.15952205534E+04  0.15114963243E+04 0.  0.
        1    1    3    3  502    0  0.25662683275E+03 -0.48625100005E+03  0.29223283596E+03  0.62265351262E+03  0.50400001928E-02 0. -1.
       -1    1    3    3    0  502 -0.25662683275E+03  0.48625100005E+03 -0.80224016509E+03  0.97256704079E+03  0.50400001928E-02 0.  1.
</event>
<event>
 5   0  0.1961098E-03  0.1501273E+04  0.7818609E-02  0.8883607E-01
        2   -1    0    0  501    0  0.00000000000E+00  0.00000000000E+00  0.83978028452E+03  0.83978028453E+03  0.25500000920E-02 0. -1.
       -2   -1    0    0    0  501  0.00000000000E+00  0.00000000000E+00 -0.67095554210E+03  0.67095554211E+03  0.25500000920E-02 0.  1.
    10030    2    1    2    0    0  0.00000000000E+00  0.00000000000E+00  0.16882474242E+03  0.15107358266E+04  0.15012731078E+04 0.  0.
        2    1    3    3  502    0  0.47708968337E+03 -0.15316610168E+03 -0.47802089555E+03  0.69251599062E+03  0.25500000920E-02 0.  1.
       -2    1    3    3    0  502 -0.47708968337E+03  0.15316610168E+03  0.64684563797E+03  0.81821983601E+03  0.25500000920E-02 0. -1.
</event>
<event>
 5   0  0.1069697E-03  0.1444912E+04  0.7818609E-02  0.8921935E-01
       -1   -1    0    0    0  501  0.00000000000E+00  0.00000000000E+00  0.77553722114E+03  0.77553722116E+03  0.50400001928E-02 0. -1.
        1   -1    0    0  501    0  0.00000000000E+00  0.00000000000E+00 -0.67300835789E+03  0.67300835791E+03  0.50400001928E-02 0.  1.
    10030    2    1    2    0    0  0.00000000000E+00  0.00000000000E+00  0.10252886325E+03  0.14485455791E+04  0.14449124980E+04 0.  0.
        2    1    3    3  502    0  0.38173952569E+03  0.47201576919E+02  0.66434930260E+03  0.76766727833E+03  0.25500000920E-02 0. -1.
       -2    1    3    3    0  502 -0.38173952569E+03 -0.47201576919E+02 -0.56182043935E+03  0.68087830074E+03  0.25500000920E-02 0.  1.
</event>
<event>
 5   0  0.1069697E-03  0.1637788E+04  0.7818609E-02  0.8797664E-01
       -1   -1    0    0    0  501  0.00000000000E+00  0.00000000000E+00  0.56308252913E+03  0.56308252915E+03  0.50400001928E-02 0.  1.
        1   -1    0    0  501    0  0.00000000000E+00  0.00000000000E+00 -0.11909218971E+04  0.11909218971E+04  0.50400001928E-02 0. -1.
    10030    2    1    2    0    0  0.00000000000E+00  0.00000000000E+00 -0.62783936797E+03  0.17540044263E+04  0.16377879153E+04 0.  0.
        2    1    3    3  502    0 -0.31942064932E+03  0.61937497791E+03  0.14663321982E+03  0.71214901224E+03  0.25500000920E-02 0.  1.
       -2    1    3    3    0  502  0.31942064932E+03 -0.61937497791E+03 -0.77447258779E+03  0.10418554140E+04  0.25500000920E-02 0. -1.
</event>
<event>
 5   0  0.1078018E-03  0.1512434E+04  0.7818609E-02  0.8876226E-01
       -1   -1    0    0    0  501  0.00000000000E+00  0.00000000000E+00  0.23993077446E+03  0.23993077451E+03  0.50400001928E-02 0.  1.
        1   -1    0    0  501    0  0.00000000000E+00  0.00000000000E+00 -0.23834542672E+04  0.23834542672E+04  0.50400001928E-02 0. -1.
    10030    2    1    2    0    0  0.00000000000E+00  0.00000000000E+00 -0.21435234927E+04  0.26233850417E+04  0.15124338376E+04 0.  0.
        4    1    3    3  502    0 -0.60038112108E+03 -0.35645724634E+02 -0.18668844125E+04  0.19613737866E+04  0.12699999809E+01 0. -1.
       -4    1    3    3    0  502  0.60038112108E+03  0.35645724634E+02 -0.27663908016E+03  0.66201125504E+03  0.12699999809E+01 0.  1.
</event>
<event>
 5   0  0.1078018E-03  0.1564288E+04  0.7818609E-02  0.8842792E-01
       -1   -1    0    0    0  501  0.00000000000E+00  0.00000000000E+00  0.87713283128E+03  0.87713283129E+03  0.50400001928E-02 0.  1.
        1   -1    0    0  501    0  0.00000000000E+00  0.00000000000E+00 -0.69744219515E+03  0.69744219517E+03  0.50400001928E-02 0. -1.
    10030    2    1    2    0    0  0.00000000000E+00  0.00000000000E+00  0.17969063612E+03  0.15745750265E+04  0.15642882692E+04 0.  0.
        4    1    3    3  502    0  0.18640101996E+03  0.17690812131E+03 -0.65373166714E+03  0.70243044435E+03  0.12699999809E+01 0. -1.
       -4    1    3    3    0  502 -0.18640101996E+03 -0.17690812131E+03  0.83342230327E+03  0.87214458211E+03  0.12699999809E+01 0.  1.
</event>
<event>
 5   0  0.1078787E-03  0.1510107E+04  0.7818609E-02  0.8877759E-01
        1   -1    0    0  501    0  0.00000000000E+00  0.00000000000E+00  0.55808383075E+03  0.55808383077E+03  0.50400001928E-02 0. -1.
       -1   -1    0    0    0  501  0.00000000000E+00  0.00000000000E+00 -0.10215418165E+04  0.10215418165E+04  0.50400001928E-02 0.  1.
    10030    2    1    2    0    0  0.00000000000E+00  0.00000000000E+00 -0.46345798571E+03  0.15796256472E+04  0.15101072415E+04 0.  0.
        5    1    3    3  502    0  0.61779966260E+03  0.21274564458E+03  0.16403577473E+03  0.67369648788E+03  0.46999998093E+01 0. -1.
       -5    1    3    3    0  502 -0.61779966260E+03 -0.21274564458E+03 -0.62749376044E+03  0.90592915936E+03  0.46999998093E+01 0.  1.
</event>
<event>
 5   0  0.1087761E-03  0.1382064E+04  0.7818609E-02  0.8966904E-01
       -1   -1    0    0    0  501  0.00000000000E+00  0.00000000000E+00  0.48998667488E+03  0.48998667491E+03  0.50400001928E-02 0. -1.
        1   -1    0    0  501    0  0.00000000000E+00  0.00000000000E+00 -0.97456846103E+03  0.97456846104E+03  0.50400001928E-02 0.  1.
    10030    2    1    2    0    0  0.00000000000E+00  0.00000000000E+00 -0.48458178614E+03  0.14645551360E+04  0.13820644843E+04 0.  0.
        3    1    3    3  502    0 -0.44570547798E+03 -0.43702271887E+03  0.71854464311E+02  0.62833534371E+03  0.10100000352E+00 0. -1.
       -3    1    3    3    0  502  0.44570547798E+03  0.43702271887E+03 -0.55643625045E+03  0.83621979224E+03  0.10100000352E+00 0.  1.
</event>
<event>
 5   0  0.2111533E-03  0.1496430E+04  0.7818609E-02  0.8886831E-01
       -2   -1    0    0    0  501  0.00000000000E+00  0.00000000000E+00  0.67901399268E+03  0.67901399269E+03  0.25500000920E-02 0.  1.
        2   -1    0    0  501    0  0.00000000000E+00  0.00000000000E+00 -0.82446815540E+03  0.82446815540E+03  0.25500000920E-02 0. -1.
    10030    2    1    2    0    0  0.00000000000E+00  0.00000000000E+00 -0.14545416272E+03  0.15034821481E+04  0.14964296362E+04 0.  0.
        5    1    3    3  502    0  0.44101301761E+03  0.53958374070E+03  0.20088010911E+03  0.72527098602E+03  0.46999998093E+01 0.  1.
       -5    1    3    3    0  502 -0.44101301761E+03 -0.53958374070E+03 -0.34633427183E+03  0.77821116207E+03  0.46999998093E+01 0. -1.
</event>
<event>
 5   0  0.1078787E-03  0.1409538E+04  0.7818609E-02  0.8946943E-01
        1   -1    0    0  501    0  0.00000000000E+00  0.00000000000E+00  0.84044405618E+03  0.84044405619E+03  0.50400001928E-02 0.  1.
       -1   -1    0    0    0  501  0.00000000000E+00  0.00000000000E+00 -0.59099615382E+03  0.59099615384E+03  0.50400001928E-02 0. -1.
    10030    2    1    2    0    0  0.00000000000E+00  0.00000000000E+00  0.24944790236E+03  0.14314402100E+04  0.14095378033E+04 0.  0.
        5    1    3    3  502    0 -0.23552860324E+03 -0.62744167103E+03 -0.96654966562E+02  0.67714182123E+03  0.46999998093E+01 0. -1.
       -5    1    3    3    0  502  0.23552860324E+03  0.62744167103E+03  0.34610286892E+03  0.75429838881E+03  0.46999998093E+01 0.  1.
</event>
<event>
 5   0  0.2094566E-03  0.1506460E+04  0.7818609E-02  0.8880168E-01
        2   -1    0    0  501    0  0.00000000000E+00  0.00000000000E+00  0.39650277251E+03  0.39650277252E+03  0.25500000920E-02 0.  1.
       -2   -1    0    0    0  501  0.00000000000E+00  0.00000000000E+00 -0.14308996470E+04  0.14308996470E+04  0.25500000920E-02 0. -1.
    10030    2    1    2    0    0  0.00000000000E+00  0.00000000000E+00 -0.10343968745E+04  0.18274024195E+04  0.15064603244E+04 0.  0.
        1    1    3    3  502    0  0.23010680951E+02 -0.19323701276E+03  0.36548218330E+03  0.41406190464E+03  0.50400001928E-02 0.  1.
       -1    1    3    3    0  502 -0.23010680951E+02  0.19323701276E+03 -0.13998790578E+04  0.14133405149E+04  0.50400001928E-02 0. -1.
</event>
<event>
 5   0  0.1087761E-03  0.1501660E+04  0.7818609E-02  0.8883350E-01
       -1   -1    0    0    0  501  0.00000000000E+00  0.00000000000E+00  0.30329542723E+03  0.30329542728E+03  0.50400001928E-02 0. -1.
        1   -1    0    0  501    0  0.00000000000E+00  0.00000000000E+00 -0.18587350772E+04  0.18587350772E+04  0.50400001928E-02 0.  1.
    10030    2    1    2    0    0  0.00000000000E+00  0.00000000000E+00 -0.15554396499E+04  0.21620305045E+04  0.15016602138E+04 0.  0.
        3    1    3    3  502    0 -0.88416463425E+01  0.54369359179E+03 -0.15231554657E+04  0.16173074783E+04  0.10100000352E+00 0.  1.
       -3    1    3    3    0  502  0.88416463425E+01 -0.54369359179E+03 -0.32284184225E+02  0.54472302615E+03  0.10100000352E+00 0. -1.
</event>
<event>
 5   0  0.1078018E-03  0.1177330E+04  0.7818609E-02  0.9132934E-01
       -1   -1    0    0    0  501  0.00000000000E+00  0.00000000000E+00  0.35853294463E+03  0.35853294466E+03  0.50400001928E-02 0.  1.
        1   -1    0    0  501    0  0.00000000000E+00  0.00000000000E+00 -0.96651286522E+03  0.96651286524E+03  0.50400001928E-02 0. -1.
    10030    2    1    2    0    0  0.00000000000E+00  0.00000000000E+00 -0.60797992060E+03  0.13250458099E+04  0.11773303761E+04 0.  0.
        4    1    3    3  502    0 -0.15913385867E+03  0.56502132055E+03 -0.25425996737E+03  0.63970494882E+03  0.12699999809E+01 0. -1.
       -4    1    3    3    0  502  0.15913385867E+03 -0.56502132055E+03 -0.35371995323E+03  0.68534086108E+03  0.12699999809E+01 0.  1.
</event>
<event>
 5   0  0.2094566E-03  0.1430230E+04  0.7818609E-02  0.8932222E-01
       -2   -1    0    0    0  501  0.00000000000E+00  0.00000000000E+00  0.30188239585E+03  0.30188239586E+03  0.25500000920E-02 0.  1.
        2   -1    0    0  501    0  0.00000000000E+00  0.00000000000E+00 -0.16940029059E+04  0.16940029059E+04  0.25500000920E-02 0. -1.
    10030    2    1    2    0    0  0.00000000000E+00  0.00000000000E+00 -0.13921205100E+04  0.19958853017E+04  0.14302302693E+04 0.  0.
        1    1    3    3  502    0 -0.55404458985E+03  0.43632696320E+03 -0.53068900178E+03  0.88259698787E+03  0.50400001928E-02 0.  1.
       -1    1    3    3    0  502  0.55404458985E+03 -0.43632696320E+03 -0.86143150824E+03  0.11132883139E+04  0.50400001928E-02 0. -1.
</event>
<event>
 5   0  0.2111533E-03  0.1516297E+04  0.7818609E-02  0.8873687E-01
       -2   -1    0    0    0  501  0.00000000000E+00  0.00000000000E+00  0.54748181309E+03  0.54748181309E+03  0.25500000920E-02 0.  1.
        2   -1    0    0  501    0  0.00000000000E+00  0.00000000000E+00 -0.10498787389E+04  0.10498787389E+04  0.25500000920E-02 0. -1.
    10030    2    1    2    0    0  0.00000000000E+00  0.00000000000E+00 -0.50239692577E+03  0.15973605520E+04  0.15162974846E+04 0.  0.
        5    1    3    3  502    0 -0.22071043743E+03  0.69552376981E+03 -0.46786604109E+03  0.86682589600E+03  0.46999998093E+01 0. -1.
       -5    1    3    3    0  502  0.22071043743E+03 -0.69552376981E+03 -0.34530884682E+02  0.73053465596E+03  0.46999998093E+01 0.  1.
</event>
<event>
 5   0  0.2094566E-03  0.1504966E+04  0.7818609E-02  0.8881157E-01
        2   -1    0    0  501    0  0.00000000000E+00  0.00000000000E+00  0.58385896800E+03  0.58385896800E+03  0.25500000920E-02 0.  1.
       -2   -1    0    0    0  501  0.00000000000E+00  0.00000000000E+00 -0.96980763537E+03  0.96980763538E+03  0.25500000920E-02 0. -1.
    10030    2    1    2    0    0  0.00000000000E+00  0.00000000000E+00 -0.38594866738E+03  0.15536666034E+04  0.15049662922E+04 0.  0.
        1    1    3    3  502    0  0.55545164709E+03 -0.35424117071E+02 -0.71576999312E+03  0.90670176100E+03  0.50400001928E-02 0. -1.
       -1    1    3    3    0  502 -0.55545164709E+03  0.35424117071E+02  0.32982132574E+03  0.64696484238E+03  0.50400001928E-02 0.  1.
</event>
<event>
 5   0  0.2150197E-03  0.1478478E+04  0.7818609E-02  0.8898892E-01
       -2   -1    0    0    0  501  0.00000000000E+00  0.00000000000E+00  0.47783221622E+03  0.47783221623E+03  0.25500000920E-02 0.  1.
        2   -1    0    0  501    0  0.00000000000E+00  0.00000000000E+00 -0.11436532299E+04  0.11436532299E+04  0.25500000920E-02 0. -1.
    10030    2    1    2    0    0  0.00000000000E+00  0.00000000000E+00 -0.66582101369E+03  0.16214854461E+04  0.14784780789E+04 0.  0.
        3    1    3    3  502    0  0.64549955961E+03 -0.31983225532E+03 -0.51482160735E+03  0.88543980631E+03  0.10100000352E+00 0. -1.
       -3    1    3    3    0  502 -0.64549955961E+03  0.31983225532E+03 -0.15099940634E+03  0.73604563983E+03  0.10100000352E+00 0.  1.
</event>
<event>
 5   0  0.1961098E-03  0.1598245E+04  0.7818609E-02  0.8821627E-01
        2   -1    0    0  501    0  0.00000000000E+00  0.00000000000E+00  0.12473667601E+04  0.12473667601E+04  0.25500000920E-02 0. -1.
       -2   -1    0    0    0  501  0.00000000000E+00  0.00000000000E+00 -0.51195618854E+03  0.51195618855E+03  0.25500000920E-02 0.  1.
    10030    2    1    2    0    0  0.00000000000E+00  0.00000000000E+00  0.73541057160E+03  0.17593229487E+04  0.15982454533E+04 0.  0.
        2    1    3    3  502    0  0.42150478266E+03 -0.17803242537E+03 -0.35348490070E+03  0.57819841000E+03  0.25500000920E-02 0.  1.
       -2    1    3    3    0  502 -0.42150478266E+03  0.17803242537E+03  0.10888954723E+04  0.11811245387E+04  0.25500000920E-02 0. -1.
</event>
<event>
 5   0  0.2094566E-03  0.1519370E+04  0.7818609E-02  0.8871673E-01
        2   -1    0    0  501    0  0.00000000000E+00  0.00000000000E+00  0.86977391467E+03  0.86977391468E+03  0.25500000920E-02 0.  1.
       -2   -1    0    0    0  501  0.00000000000E+00  0.00000000000E+00 -0.66353037829E+03  0.66353037829E+03  0.25500000920E-02 0. -1.
    10030    2    1    2    0    0  0.00000000000E+00  0.00000000000E+00  0.20624353639E+03  0.15333042930E+04  0.15193701519E+04 0.  0.
        1    1    3    3  502    0 -0.29496069220E+03  0.51524717384E+02  0.80771163847E+03  0.86142596745E+03  0.50400001928E-02 0.  1.
       -1    1    3    3    0  502  0.29496069220E+03 -0.51524717384E+02 -0.60146810209E+03  0.67187832552E+03  0.50400001928E-02 0. -1.
</event>
<event>
 5   0  0.1078787E-03  0.1434312E+04  0.7818609E-02  0.8929350E-01
       -1   -1    0    0    0  501  0.00000000000E+00  0.00000000000E+00  0.31947135202E+03  0.31947135206E+03  0.50400001928E-02 0.  1.
        1   -1    0    0  501    0  0.00000000000E+00  0.00000000000E+00 -0.16098859187E+04  0.16098859187E+04  0.50400001928E-02 0. -1.
    10030    2    1    2    0    0  0.00000000000E+00  0.00000000000E+00 -0.12904145667E+04  0.19293572708E+04  0.14343115855E+04 0.  0.
        5    1    3    3  502    0  0.48424133106E+03  0.47137315948E+03 -0.32234997640E+03  0.74874155719E+03  0.46999998093E+01 0.  1.
       -5    1    3    3    0  502 -0.48424133106E+03 -0.47137315948E+03 -0.96806459032E+03  0.11806157136E+04  0.46999998093E+01 0. -1.
</event>
<event>
 5   0  0.1078787E-03  0.1499968E+04  0.7818609E-02  0.8884474E-01
        1   -1    0    0  501    0  0.00000000000E+00  0.00000000000E+00  0.47252013051E+03  0.47252013054E+03  0.50400001928E-02 0.  1.
       -1   -1    0    0    0  501  0.00000000000E+00  0.00000000000E+00 -0.11903746102E+04  0.11903746103E+04  0.50400001928E-02 0. -1.
    10030    2    1    2    0    0  0.00000000000E+00  0.00000000000E+00 -0.71785447973E+03  0.16628947408E+04  0.14999679546E+04 0.  0.
        5    1    3    3  502    0 -0.72265281868E+03 -0.19991100011E+03 -0.34096992306E+03  0.82369538225E+03  0.46999998093E+01 0. -1.
       -5    1    3    3    0  502  0.72265281868E+03  0.19991100011E+03 -0.37688455667E+03  0.83919935854E+03  0.46999998093E+01 0.  1.
</event>
<event>
 5   0  0.1961098E-03  0.1517152E+04  0.7818609E-02  0.8873126E-01
       -2   -1    0    0    0  501  0.00000000000E+00  0.00000000000E+00  0.22481971752E+03  0.22481971753E+03  0.25500000920E-02 0.  1.
        2   -1    0    0  501    0  0.00000000000E+00  0.00000000000E+00 -0.25595514268E+04  0.25595514268E+04  0.25500000920E-02 0. -1.
    10030    2    1    2    0    0  0.00000000000E+00  0.00000000000E+00 -0.23347317093E+04  0.27843711443E+04  0.15171521068E+04 0.  0.
        2    1    3    3  502    0  0.70848490143E+01 -0.62684032692E+03 -0.38343056622E+03  0.73484555497E+03  0.25500000920E-02 0.  1.
       -2    1    3    3    0  502 -0.70848490143E+01  0.62684032692E+03 -0.19513011431E+04  0.20495255894E+04  0.25500000920E-02 0. -1.
</event>
<event>
 5   0  0.1087761E-03  0.1517600E+04  0.7818609E-02  0.8872833E-01
        1   -1    0    0  501    0  0.00000000000E+00  0.00000000000E+00  0.43453089037E+03  0.43453089040E+03  0.50400001928E-02 0.  1.
       -1   -1    0    0    0  501  0.00000000000E+00  0.00000000000E+00 -0.13250559082E+04  0.13250559082E+04  0.50400001928E-02 0. -1.
    10030    2    1    2    0    0  0.00000000000E+00  0.00000000000E+00 -0.89052501783E+03  0.17595867986E+04  0.15176003738E+04 0.  0.
        3    1    3    3  502    0 -0.44941688908E+03  0.39713139744E+03 -0.98423850715E+03  0.11525685820E+04  0.10100000352E+00 0.  1.
       -3    1    3    3    0  502  0.44941688908E+03 -0.39713139744E+03  0.93713489321E+02  0.60701821662E+03  0.10100000352E+00 0. -1.
</event>
<event>
 5   0  0.1078787E-03  0.1690364E+04  0.7818609E-02  0.8766879E-01
       -1   -1    0    0    0  501  0.00000000000E+00  0.00000000000E+00  0.34276909408E+03  0.34276909412E+03  0.50400001928E-02 0. -1.
        1   -1    0    0  501    0  0.00000000000E+00  0.00000000000E+00 -0.20840060015E+04  0.20840060015E+04  0.50400001928E-02 0.  1.
    10030    2    1    2    0    0  0.00000000000E+00  0.00000000000E+00 -0.17412369075E+04  0.24267750957E+04  0.16903642794E+04 0.  0.
        5    1    3    3  502    0 -0.53725058283E+03  0.44185302881E+03 -0.15597890116E+04  0.17078747432E+04  0.46999998093E+01 0.  1.
       -5    1    3    3    0  502  0.53725058283E+03 -0.44185302881E+03 -0.18144789583E+03  0.71890035242E+03  0.46999998093E+01 0. -1.
</event>
<event>
 5   0  0.7468375E-04  0.1552025E+04  0.7818609E-02  0.8850575E-01
        4   -1    0    0  501    0  0.00000000000E+00  0.00000000000E+00  0.60734864230E+03  0.60734997011E+03  0.12699999809E+01 0.  1.
       -4   -1    0    0    0  501  0.00000000000E+00  0.00000000000E+00 -0.99151243286E+03  0.99151324622E+03  0.12699999809E+01 0. -1.
    10030    2    1    2    0    0  0.00000000000E+00  0.00000000000E+00 -0.38416379057E+03  0.15988632163E+04  0.15520250535E+04 0.  0.
        5    1    3    3  502    0 -0.45285131662E+03 -0.33587528081E+03  0.35719452522E+03  0.66745527047E+03  0.46999998093E+01 0.  1.
       -5    1    3    3    0  502  0.45285131662E+03  0.33587528081E+03 -0.74135831579E+03  0.93140794586E+03  0.46999998093E+01 0. -1.
</event>
<event>
 5   0  0.2150197E-03  0.1505946E+04  0.7818609E-02  0.8880508E-01
       -2   -1    0    0    0  501  0.00000000000E+00  0.00000000000E+00  0.43468177820E+03  0.43468177821E+03  0.25500000920E-02 0.  1.
        2   -1    0    0  501    0  0.00000000000E+00  0.00000000000E+00 -0.13043302428E+04  0.13043302428E+04  0.25500000920E-02 0. -1.
    10030    2    1    2    0    0  0.00000000000E+00  0.00000000000E+00 -0.86964846459E+03  0.17390120210E+04  0.15059463328E+04 0.  0.
        3    1    3    3  502    0 -0.56803211753E+03 -0.44230441756E+03 -0.68959265565E+03  0.99691109196E+03  0.10100000352E+00 0. -1.
       -3    1    3    3    0  502  0.56803211753E+03  0.44230441756E+03 -0.18005580894E+03  0.74210092903E+03  0.10100000352E+00 0.  1.
</event>
<event>
 5   0  0.7468375E-04  0.1534993E+04  0.7818609E-02  0.8861510E-01
        3   -1    0    0  501    0  0.00000000000E+00  0.00000000000E+00  0.37917712812E+03  0.37917714157E+03  0.10100000352E+00 0. -1.
       -3   -1    0    0    0  501  0.00000000000E+00  0.00000000000E+00 -0.15534987802E+04  0.15534987835E+04  0.10100000352E+00 0.  1.
    10030    2    1    2    0    0  0.00000000000E+00  0.00000000000E+00 -0.11743216521E+04  0.19326759251E+04  0.15349934491E+04 0.  0.
        2    1    3    3  502    0 -0.13157021450E+03 -0.69293324385E+03 -0.20612802558E+03  0.73481696000E+03  0.25500000920E-02 0. -1.
       -2    1    3    3    0  502  0.13157021450E+03  0.69293324385E+03 -0.96819362653E+03  0.11978589651E+04  0.25500000920E-02 0.  1.
</event>
<event>
 5   0  0.1961098E-03  0.1513529E+04  0.7818609E-02  0.8875506E-01
       -2   -1    0    0    0  501  0.00000000000E+00  0.00000000000E+00  0.38663659508E+03  0.38663659509E+03  0.25500000920E-02 0. -1.
        2   -1    0    0  501    0  0.00000000000E+00  0.00000000000E+00 -0.14812156009E+04  0.14812156009E+04  0.25500000920E-02 0.  1.
    10030    2    1    2    0    0  0.00000000000E+00  0.00000000000E+00 -0.10945790059E+04  0.18678521960E+04  0.15135285350E+04 0.  0.
        2    1    3    3  502    0 -0.25662474424E+03  0.23840500072E+03  0.28057192010E+03  0.44879149511E+03  0.25500000920E-02 0. -1.
       -2    1    3    3    0  502  0.25662474424E+03 -0.23840500072E+03 -0.13751509260E+04  0.14190607009E+04  0.25500000920E-02 0.  1.
</event>
<event>
 5   0  0.1077140E-03  0.1488697E+04  0.7818609E-02  0.8892004E-01
        1   -1    0    0  501    0  0.00000000000E+00  0.00000000000E+00  0.54168202889E+03  0.54168202891E+03  0.50400001928E-02 0. -1.
       -1   -1    0    0    0  501  0.00000000000E+00  0.00000000000E+00 -0.10228418376E+04  0.10228418376E+04  0.50400001928E-02 0.  1.
    10030    2    1    2    0    0  0.00000000000E+00  0.00000000000E+00 -0.48115980869E+03  0.15645238665E+04  0.14886974734E+04 0.  0.
        1    1    3    3  502    0 -0.59011704881E+03  0.31467366434E+03 -0.58402401383E+03  0.88788608227E+03  0.50400001928E-02 0.  1.
       -1    1    3    3    0  502  0.59011704881E+03 -0.31467366434E+03  0.10286420514E+03  0.67663778424E+03  0.50400001928E-02 0. -1.
</event>
<event>
 5   0  0.2150197E-03  0.1467462E+04  0.7818609E-02  0.8906383E-01
       -2   -1    0    0    0  501  0.00000000000E+00  0.00000000000E+00  0.63379190584E+03  0.63379190584E+03  0.25500000920E-02 0. -1.
        2   -1    0    0  501    0  0.00000000000E+00  0.00000000000E+00 -0.84942902092E+03  0.84942902093E+03  0.25500000920E-02 0.  1.
    10030    2    1    2    0    0  0.00000000000E+00  0.00000000000E+00 -0.21563711509E+03  0.14832209268E+04  0.14674620786E+04 0.  0.
        3    1    3    3  502    0  0.68578816424E+03  0.80373118997E+02 -0.35866916301E+03  0.77808021641E+03  0.10100000352E+00 0.  1.
       -3    1    3    3    0  502 -0.68578816424E+03 -0.80373118997E+02  0.14303204793E+03  0.70514071036E+03  0.10100000352E+00 0. -1.
</event>
<event>
 5   0  0.1069697E-03  0.1508720E+04  0.7818609E-02  0.8878675E-01
        1   -1    0    0  501    0  0.00000000000E+00  0.00000000000E+00  0.72464420645E+03  0.72464420646E+03  0.50400001928E-02 0.  1.
       -1   -1    0    0    0  501  0.00000000000E+00  0.00000000000E+00 -0.78529421625E+03  0.78529421626E+03  0.50400001928E-02 0. -1.
    10030    2    1    2    0    0  0.00000000000E+00  0.00000000000E+00 -0.60650009800E+02  0.15099384227E+04  0.15087198603E+04 0.  0.
        2    1    3    3  502    0  0.44042766150E+03 -0.37454779125E+03  0.45462423459E+03  0.73549015468E+03  0.25500000920E-02 0.  1.
       -2    1    3    3    0  502 -0.44042766150E+03  0.37454779125E+03 -0.51527424439E+03  0.77444826805E+03  0.25500000920E-02 0. -1.
</event>
<event>
 5   0  0.1087761E-03  0.1574930E+04  0.7818609E-02  0.8836099E-01
        1   -1    0    0  501    0  0.00000000000E+00  0.00000000000E+00  0.17590586795E+04  0.17590586795E+04  0.50400001928E-02 0. -1.
       -1   -1    0    0    0  501  0.00000000000E+00  0.00000000000E+00 -0.35251853005E+03  0.35251853009E+03  0.50400001928E-02 0.  1.
    10030    2    1    2    0    0  0.00000000000E+00  0.00000000000E+00  0.14065401494E+04  0.21115772096E+04  0.15749295603E+04 0.  0.
        3    1    3    3  502    0  0.76801663222E+03  0.26061047774E+02  0.93383142399E+03  0.12093675472E+04  0.10100000352E+00 0.  1.
       -3    1    3    3    0  502 -0.76801663222E+03 -0.26061047774E+02  0.47270872545E+03  0.90220966238E+03  0.10100000352E+00 0. -1.
</event>
<event>
 5   0  0.1078787E-03  0.1483963E+04  0.7818609E-02  0.8895188E-01
       -1   -1    0    0    0  501  0.00000000000E+00  0.00000000000E+00  0.40791164819E+03  0.40791164823E+03  0.50400001928E-02 0.  1.
        1   -1    0    0  501    0  0.00000000000E+00  0.00000000000E+00 -0.13496470031E+04  0.13496470031E+04  0.50400001928E-02 0. -1.
    10030    2    1    2    0    0  0.00000000000E+00  0.00000000000E+00 -0.94173535487E+03  0.17575586513E+04  0.14839632523E+04 0.  0.
        5    1    3    3  502    0  0.53606468954E+03  0.46348345137E+03 -0.21048878103E+03  0.73926306414E+03  0.46999998093E+01 0.  1.
       -5    1    3    3    0  502 -0.53606468954E+03 -0.46348345137E+03 -0.73124657384E+03  0.10182955872E+04  0.46999998093E+01 0. -1.
</event>
<event>
 5   0  0.1069697E-03  0.1455824E+04  0.7818609E-02  0.8914373E-01
        1   -1    0    0  501    0  0.00000000000E+00  0.00000000000E+00  0.12034730364E+04  0.12034730364E+04  0.50400001928E-02 0. -1.
       -1   -1    0    0    0  501  0.00000000000E+00  0.00000000000E+00 -0.44027203366E+03  0.44027203369E+03  0.50400001928E-02 0.  1.
    10030    2    1    2    0    0  0.00000000000E+00  0.00000000000E+00  0.76320100277E+03  0.16437450701E+04  0.14558235075E+04 0.  0.
        2    1    3    3  502    0  0.10588212280E+03  0.60985527819E+03 -0.50885375080E+02  0.62106666766E+03  0.25500000920E-02 0.  1.
       -2    1    3    3    0  502 -0.10588212280E+03 -0.60985527819E+03  0.81408637785E+03  0.10226784025E+04  0.25500000920E-02 0. -1.
</event>
<event>
 5   0  0.1993623E-03  0.1521627E+04  0.7818609E-02  0.8870197E-01
        2   -1    0    0  501    0  0.00000000000E+00  0.00000000000E+00  0.12214987851E+04  0.12214987851E+04  0.25500000920E-02 0.  1.
       -2   -1    0    0    0  501  0.00000000000E+00  0.00000000000E+00 -0.47387472295E+03  0.47387472295E+03  0.25500000920E-02 0. -1.
    10030    2    1    2    0    0  0.00000000000E+00  0.00000000000E+00  0.74762406214E+03  0.16953735080E+04  0.15216272847E+04 0.  0.
        4    1    3    3  502    0  0.45656696756E+03 -0.48183151986E+03 -0.40420086549E+02  0.66501910175E+03  0.12699999809E+01 0. -1.
       -4    1    3    3    0  502 -0.45656696756E+03  0.48183151986E+03  0.78804414869E+03  0.10303544063E+04  0.12699999809E+01 0.  1.
</event>
<event>
 5   0  0.1078018E-03  0.1486545E+04  0.7818609E-02  0.8893450E-01
       -1   -1    0    0    0  501  0.00000000000E+00  0.00000000000E+00  0.66024409025E+03  0.66024409027E+03  0.50400001928E-02 0. -1.
        1   -1    0    0  501    0  0.00000000000E+00  0.00000000000E+00 -0.83674196328E+03  0.83674196329E+03  0.50400001928E-02 0.  1.
    10030    2    1    2    0    0  0.00000000000E+00  0.00000000000E+00 -0.17649787302E+03  0.14969860536E+04  0.14865449019E+04 0.  0.
        4    1    3    3  502    0  0.65649431900E+03 -0.15228869646E+02 -0.43888358618E+03  0.78983360556E+03  0.12699999809E+01 0.  1.
       -4    1    3    3    0  502 -0.65649431900E+03  0.15228869646E+02  0.26238571316E+03  0.70715244801E+03  0.12699999809E+01 0. -1.
</event>
<event>
 5   0  0.1078787E-03  0.8871961E+03  0.7818609E-02  0.9441730E-01
       -1   -1    0    0    0  501  0.00000000000E+00  0.00000000000E+00  0.22371167442E+03  0.22371167448E+03  0.50400001928E-02 0. -1.
        1   -1    0    0  501    0  0.00000000000E+00  0.00000000000E+00 -0.87961085210E+03  0.87961085212E+03  0.50400001928E-02 0.  1.
    10030    2    1    2    0    0  0.00000000000E+00  0.00000000000E+00 -0.65589917768E+03  0.11033225266E+04  0.88719606988E+03 0.  0.
        5    1    3    3  502    0  0.42306728712E+03  0.16005553324E+02 -0.16336537106E+03  0.45381983389E+03  0.46999998093E+01 0. -1.
       -5    1    3    3    0  502 -0.42306728712E+03 -0.16005553324E+02 -0.49253380662E+03  0.64950269271E+03  0.46999998093E+01 0.  1.
</event>
<event>
 5   0  0.1069697E-03  0.1450530E+04  0.7818609E-02  0.8918033E-01
       -1   -1    0    0    0  501  0.00000000000E+00  0.00000000000E+00  0.95211632096E+03  0.95211632097E+03  0.50400001928E-02 0.  1.
        1   -1    0    0  501    0  0.00000000000E+00  0.00000000000E+00 -0.55246308542E+03  0.55246308545E+03  0.50400001928E-02 0. -1.
    10030    2    1    2    0    0  0.00000000000E+00  0.00000000000E+00  0.39965323553E+03  0.15045794064E+04  0.14505297245E+04 0.  0.
        2    1    3    3  502    0 -0.89711102760E+02  0.66790123972E+03  0.47789985832E+03  0.82615278403E+03  0.25500000920E-02 0. -1.
       -2    1    3    3    0  502  0.89711102760E+02 -0.66790123972E+03 -0.78246622782E+02  0.67842662239E+03  0.25500000920E-02 0.  1.
</event>
<event>
 5   0  0.2094566E-03  0.1491658E+04  0.7818609E-02  0.8890019E-01
        2   -1    0    0  501    0  0.00000000000E+00  0.00000000000E+00  0.14961828137E+04  0.14961828137E+04  0.25500000920E-02 0. -1.
       -2   -1    0    0    0  501  0.00000000000E+00  0.00000000000E+00 -0.37178659918E+03  0.37178659919E+03  0.25500000920E-02 0.  1.
    10030    2    1    2    0    0  0.00000000000E+00  0.00000000000E+00  0.11243962145E+04  0.18679694129E+04  0.14916577624E+04 0.  0.
        1    1    3    3  502    0 -0.29922443352E+03 -0.38349142930E+03 -0.14582033078E+03  0.50780361052E+03  0.50400001928E-02 0.  1.
       -1    1    3    3    0  502  0.29922443352E+03  0.38349142930E+03  0.12702165453E+04  0.13601658023E+04  0.50400001928E-02 0. -1.
</event>
<event>
 5   0  0.2150197E-03  0.1656896E+04  0.7818609E-02  0.8786338E-01
       -2   -1    0    0    0  501  0.00000000000E+00  0.00000000000E+00  0.74314430560E+03  0.74314430561E+03  0.25500000920E-02 0. -1.
        2   -1    0    0  501    0  0.00000000000E+00  0.00000000000E+00 -0.92354302948E+03  0.92354302949E+03  0.25500000920E-02 0.  1.
    10030    2    1    2    0    0  0.00000000000E+00  0.00000000000E+00 -0.18039872388E+03  0.16666873351E+04  0.16568955831E+04 0.  0.
        3    1    3    3  502    0  0.72827727040E+00  0.81950613248E+03 -0.21230412772E+03  0.84656003001E+03  0.10100000352E+00 0.  1.
       -3    1    3    3    0  502 -0.72827727040E+00 -0.81950613248E+03  0.31905403839E+02  0.82012730509E+03  0.10100000352E+00 0. -1.
</event>
<event>
 5   0  0.2150197E-03  0.1722918E+04  0.7818609E-02  0.8748400E-01
        2   -1    0    0  501    0  0.00000000000E+00  0.00000000000E+00  0.56830651993E+03  0.56830651993E+03  0.25500000920E-02 0.  1.
       -2   -1    0    0    0  501  0.00000000000E+00  0.00000000000E+00 -0.13058296714E+04  0.13058296714E+04  0.25500000920E-02 0. -1.
    10030    2    1    2    0    0  0.00000000000E+00  0.00000000000E+00 -0.73752315148E+03  0.18741361913E+04  0.17229178926E+04 0.  0.
        3    1    3    3  502    0  0.57160628318E+03 -0.60298310158E+03 -0.12121556889E+03  0.83965206371E+03  0.10100000352E+00 0.  1.
       -3    1    3    3    0  502 -0.57160628318E+03  0.60298310158E+03 -0.61630758259E+03  0.10344841276E+04  0.10100000352E+00 0. -1.
</event>
<event>
 5   0  0.1078018E-03  0.1136864E+04  0.7818609E-02  0.9169988E-01
        1   -1    0    0  501    0  0.00000000000E+00  0.00000000000E+00  0.62396003831E+03  0.62396003833E+03  0.50400001928E-02 0.  1.
       -1   -1    0    0    0  501  0.00000000000E+00  0.00000000000E+00 -0.51784564816E+03  0.51784564819E+03  0.50400001928E-02 0. -1.
    10030    2    1    2    0    0  0.00000000000E+00  0.00000000000E+00  0.10611439014E+03  0.11418056865E+04  0.11368640912E+04 0.  0.
        4    1    3    3  502    0  0.16828883737E+03 -0.35778880915E+03 -0.35710428606E+03  0.53278424222E+03  0.12699999809E+01 0. -1.
       -4    1    3    3    0  502 -0.16828883737E+03  0.35778880915E+03  0.46321867620E+03  0.60902144430E+03  0.12699999809E+01 0.  1.
</event>
<event>
 5   0  0.2094566E-03  0.1437219E+04  0.7818609E-02  0.8927310E-01
        2   -1    0    0  501    0  0.00000000000E+00  0.00000000000E+00  0.14695501303E+04  0.14695501303E+04  0.25500000920E-02 0. -1.
       -2   -1    0    0    0  501  0.00000000000E+00  0.00000000000E+00 -0.35139982282E+03  0.35139982283E+03  0.25500000920E-02 0.  1.
    10030    2    1    2    0    0  0.00000000000E+00  0.00000000000E+00  0.11181503075E+04  0.18209499531E+04  0.14372190584E+04 0.  0.
        1    1    3    3  502    0  0.30291247441E+03  0.53426984445E+03  0.10317840303E+04  0.12007408209E+04  0.50400001928E-02 0. -1.
       -1    1    3    3    0  502 -0.30291247441E+03 -0.53426984445E+03  0.86366277226E+02  0.62020913224E+03  0.50400001928E-02 0.  1.
</event>
<event>
 5   0  0.1069697E-03  0.1456666E+04  0.7818609E-02  0.8913792E-01
       -1   -1    0    0    0  501  0.00000000000E+00  0.00000000000E+00  0.49181707641E+03  0.49181707644E+03  0.50400001928E-02 0.  1.
        1   -1    0    0  501    0  0.00000000000E+00  0.00000000000E+00 -0.10785902990E+04  0.10785902990E+04  0.50400001928E-02 0. -1.
    10030    2    1    2    0    0  0.00000000000E+00  0.00000000000E+00 -0.58677322261E+03  0.15704073755E+04  0.14566662316E+04 0.  0.
        2    1    3    3  502    0 -0.10211741964E+03  0.29587768360E+03 -0.10023831302E+04  0.10501159511E+04  0.25500000920E-02 0. -1.
       -2    1    3    3    0  502  0.10211741964E+03 -0.29587768360E+03  0.41560990755E+03  0.52029142441E+03  0.25500000920E-02 0.  1.
</event>
<event>
 5   0  0.1087761E-03  0.1495326E+04  0.7818609E-02  0.8887567E-01
        1   -1    0    0  501    0  0.00000000000E+00  0.00000000000E+00  0.15530950537E+04  0.15530950538E+04  0.50400001928E-02 0. -1.
       -1   -1    0    0    0  501  0.00000000000E+00  0.00000000000E+00 -0.35992651703E+03  0.35992651707E+03  0.50400001928E-02 0.  1.
    10030    2    1    2    0    0  0.00000000000E+00  0.00000000000E+00  0.11931685367E+04  0.19130215708E+04  0.14953261763E+04 0.  0.
        3    1    3    3  502    0  0.56829316744E+03 -0.31118811319E+03  0.10739060131E+04  0.12542205950E+04  0.10100000352E+00 0. -1.
       -3    1    3    3    0  502 -0.56829316744E+03  0.31118811319E+03  0.11926252366E+03  0.65880097578E+03  0.10100000352E+00 0.  1.
</event>
<event>
 5   0  0.1078787E-03  0.1489395E+04  0.7818609E-02  0.8891536E-01
        1   -1    0    0  501    0  0.00000000000E+00  0.00000000000E+00  0.13672460115E+04  0.13672460115E+04  0.50400001928E-02 0. -1.
       -1   -1    0    0    0  501  0.00000000000E+00  0.00000000000E+00 -0.40561428297E+03  0.40561428300E+03  0.50400001928E-02 0.  1.
    10030    2    1    2    0    0  0.00000000000E+00  0.00000000000E+00  0.96163172856E+03  0.17728602945E+04  0.14893951936E+04 0.  0.
        5    1    3    3  502    0  0.48749147260E+03 -0.38719420696E+03  0.96722695212E+03  0.11502683846E+04  0.46999998093E+01 0. -1.
       -5    1    3    3    0  502 -0.48749147260E+03  0.38719420696E+03 -0.55952235679E+01  0.62259190991E+03  0.46999998093E+01 0.  1.
</event>
<event>
 5   0  0.1961098E-03  0.1508971E+04  0.7818609E-02  0.8878509E-01
       -2   -1    0    0    0  501  0.00000000000E+00  0.00000000000E+00  0.92267734086E+03  0.92267734086E+03  0.25500000920E-02 0. -1.
        2   -1    0    0  501    0  0.00000000000E+00  0.00000000000E+00 -0.61695298815E+03  0.61695298815E+03  0.25500000920E-02 0.  1.
    10030    2    1    2    0    0  0.00000000000E+00  0.00000000000E+00  0.30572435272E+03  0.15396303290E+04  0.15089712291E+04 0.  0.
        2    1    3    3  502    0  0.32861471467E+03 -0.59399215016E+03 -0.18312191400E+03  0.70309881279E+03  0.25500000920E-02 0.  1.
       -2    1    3    3    0  502 -0.32861471467E+03  0.59399215016E+03  0.48884626671E+03  0.83653151623E+03  0.25500000920E-02 0. -1.
</event>
<event>
 5   0  0.2094566E-03  0.1442828E+04  0.7818609E-02  0.8923388E-01
       -2   -1    0    0    0  501  0.00000000000E+00  0.00000000000E+00  0.25707172271E+03  0.25707172272E+03  0.25500000920E-02 0.  1.
        2   -1    0    0  501    0  0.00000000000E+00  0.00000000000E+00 -0.20244865111E+04  0.20244865111E+04  0.25500000920E-02 0. -1.
    10030    2    1    2    0    0  0.00000000000E+00  0.00000000000E+00 -0.17674147883E+04  0.22815582338E+04  0.14428281048E+04 0.  0.
        1    1    3    3  502    0  0.69333975846E+03 -0.64054944630E+02 -0.58528285856E+03  0.90960380449E+03  0.50400001928E-02 0. -1.
       -1    1    3    3    0  502 -0.69333975846E+03  0.64054944630E+02 -0.11821319298E+04  0.13719544293E+04  0.50400001928E-02 0.  1.
</event>
<event>
 5   0  0.2111533E-03  0.1503176E+04  0.7818609E-02  0.8882344E-01
        2   -1    0    0  501    0  0.00000000000E+00  0.00000000000E+00  0.28682368660E+04  0.28682368660E+04  0.25500000920E-02 0.  1.
       -2   -1    0    0    0  501  0.00000000000E+00  0.00000000000E+00 -0.19694475324E+03  0.19694475325E+03  0.25500000920E-02 0. -1.
    10030    2    1    2    0    0  0.00000000000E+00  0.00000000000E+00  0.26712921128E+04  0.30651816193E+04  0.15031755744E+04 0.  0.
        5    1    3    3  502    0 -0.20923942751E+03 -0.65166355828E+03  0.70247637216E+03  0.98078625330E+03  0.46999998093E+01 0. -1.
       -5    1    3    3    0  502  0.20923942751E+03  0.65166355828E+03  0.19688157406E+04  0.20843953660E+04  0.46999998093E+01 0.  1.
</event>
<event>
 5   0  0.7468375E-04  0.1199724E+04  0.7818609E-02  0.9113098E-01
       -3   -1    0    0    0  501  0.00000000000E+00  0.00000000000E+00  0.49930588982E+03  0.49930590004E+03  0.10100000352E+00 0. -1.
        3   -1    0    0  501    0  0.00000000000E+00  0.00000000000E+00 -0.72066948483E+03  0.72066949190E+03  0.10100000352E+00 0.  1.
    10030    2    1    2    0    0  0.00000000000E+00  0.00000000000E+00 -0.22136359500E+03  0.12199753919E+04  0.11997241832E+04 0.  0.
        5    1    3    3  502    0 -0.24164543087E+03 -0.32383758352E+03  0.34014034234E+03  0.52818636601E+03  0.46999998093E+01 0. -1.
       -5    1    3    3    0  502  0.24164543087E+03  0.32383758352E+03 -0.56150393734E+03  0.69178902593E+03  0.46999998093E+01 0.  1.
</event>
<event>
 5   0  0.1069697E-03  0.1492679E+04  0.7818609E-02  0.8889336E-01
       -1   -1    0    0    0  501  0.00000000000E+00  0.00000000000E+00  0.41368166124E+03  0.41368166127E+03  0.50400001928E-02 0.  1.
        1   -1    0    0  501    0  0.00000000000E+00  0.00000000000E+00 -0.13465012084E+04  0.13465012084E+04  0.50400001928E-02 0. -1.
    10030    2    1    2    0    0  0.00000000000E+00  0.00000000000E+00 -0.93281954719E+03  0.17601828697E+04  0.14926792781E+04 0.  0.
        2    1    3    3  502    0  0.17804672696E+03 -0.24101040485E+03 -0.12724552221E+04  0.13072600906E+04  0.25500000920E-02 0. -1.
       -2    1    3    3    0  502 -0.17804672696E+03  0.24101040485E+03  0.33963567487E+03  0.45292277915E+03  0.25500000920E-02 0.  1.
</event>
<event>
 5   0  0.1993623E-03  0.1550969E+04  0.7818609E-02  0.8851249E-01
        2   -1    0    0  501    0  0.00000000000E+00  0.00000000000E+00  0.16631930858E+04  0.16631930858E+04  0.25500000920E-02 0.  1.
       -2   -1    0    0    0  501  0.00000000000E+00  0.00000000000E+00 -0.36157930320E+03  0.36157930320E+03  0.25500000920E-02 0. -1.
    10030    2    1    2    0    0  0.00000000000E+00  0.00000000000E+00  0.13016137826E+04  0.20247723890E+04  0.15509689836E+04 0.  0.
        4    1    3    3  502    0  0.20898752460E+02  0.76951570443E+03  0.52845671511E+03  0.93373405735E+03  0.12699999809E+01 0. -1.
       -4    1    3    3    0  502 -0.20898752460E+02 -0.76951570443E+03  0.77315706750E+03  0.10910383317E+04  0.12699999809E+01 0.  1.
</event>
<event>
 5   0  0.2094566E-03  0.1430828E+04  0.7818609E-02  0.8931801E-01
       -2   -1    0    0    0  501  0.00000000000E+00  0.00000000000E+00  0.33504264440E+03  0.33504264441E+03  0.25500000920E-02 0. -1.
        2   -1    0    0  501    0  0.00000000000E+00  0.00000000000E+00 -0.15276176809E+04  0.15276176809E+04  0.25500000920E-02 0.  1.
    10030    2    1    2    0    0  0.00000000000E+00  0.00000000000E+00 -0.11925750365E+04  0.18626603254E+04  0.14308278268E+04 0.  0.
        1    1    3    3  502    0 -0.68527671589E+02  0.40592989356E+02  0.32925285642E+03  0.33874957719E+03  0.50400001928E-02 0. -1.
       -1    1    3    3    0  502  0.68527671589E+02 -0.40592989356E+02 -0.15218278930E+04  0.15239107482E+04  0.50400001928E-02 0.  1.
</event>
<event>
 5   0  0.1077140E-03  0.1324944E+04  0.7818609E-02  0.9010015E-01
        1   -1    0    0  501    0  0.00000000000E+00  0.00000000000E+00  0.14403678986E+04  0.14403678986E+04  0.50400001928E-02 0.  1.
       -1   -1    0    0    0  501  0.00000000000E+00  0.00000000000E+00 -0.30469255103E+03  0.30469255107E+03  0.50400001928E-02 0. -1.
    10030    2    1    2    0    0  0.00000000000E+00  0.00000000000E+00  0.11356753476E+04  0.17450604497E+04  0.13249443301E+04 0.  0.
        1    1    3    3  502    0 -0.70499797199E+02  0.49788851614E+03 -0.19919404765E+00  0.50285508411E+03  0.50400001928E-02 0. -1.
       -1    1    3    3    0  502  0.70499797199E+02 -0.49788851614E+03  0.11358745416E+04  0.12422053656E+04  0.50400001928E-02 0.  1.
</event>
<event>
 5   0  0.1078787E-03  0.1557707E+04  0.7818609E-02  0.8846960E-01
        1   -1    0    0  501    0  0.00000000000E+00  0.00000000000E+00  0.92828406663E+03  0.92828406664E+03  0.50400001928E-02 0.  1.
       -1   -1    0    0    0  501  0.00000000000E+00  0.00000000000E+00 -0.65347793956E+03  0.65347793958E+03  0.50400001928E-02 0. -1.
    10030    2    1    2    0    0  0.00000000000E+00  0.00000000000E+00  0.27480612706E+03  0.15817620062E+04  0.15577074940E+04 0.  0.
        5    1    3    3  502    0  0.19790957815E+03 -0.66711801685E+03 -0.21782241004E+03  0.72916619631E+03  0.46999998093E+01 0.  1.
       -5    1    3    3    0  502 -0.19790957815E+03  0.66711801685E+03  0.49262853710E+03  0.85259580992E+03  0.46999998093E+01 0. -1.
</event>
<event>
 5   0  0.2111533E-03  0.1548212E+04  0.7818609E-02  0.8853011E-01
       -2   -1    0    0    0  501  0.00000000000E+00  0.00000000000E+00  0.92853087786E+03  0.92853087786E+03  0.25500000920E-02 0.  1.
        2   -1    0    0  501    0  0.00000000000E+00  0.00000000000E+00 -0.64536334548E+03  0.64536334548E+03  0.25500000920E-02 0. -1.
    10030    2    1    2    0    0  0.00000000000E+00  0.00000000000E+00  0.28316753238E+03  0.15738942233E+04  0.15482116053E+04 0.  0.
        5    1    3    3  502    0 -0.69128103906E+03 -0.29369608722E+03  0.33201671271E+03  0.82120889798E+03  0.46999998093E+01 0. -1.
       -5    1    3    3    0  502  0.69128103906E+03  0.29369608722E+03 -0.48849180333E+02  0.75268532537E+03  0.46999998093E+01 0.  1.
</event>
<event>
 5   0  0.2111533E-03  0.1507004E+04  0.7818609E-02  0.8879809E-01
        2   -1    0    0  501    0  0.00000000000E+00  0.00000000000E+00  0.13851727379E+04  0.13851727379E+04  0.25500000920E-02 0.  1.
       -2   -1    0    0    0  501  0.00000000000E+00  0.00000000000E+00 -0.40988776762E+03  0.40988776763E+03  0.25500000920E-02 0. -1.
    10030    2    1    2    0    0  0.00000000000E+00  0.00000000000E+00  0.97528497028E+03  0.17950605055E+04  0.15070041292E+04 0.  0.
        5    1    3    3  502    0  0.52696211000E+03  0.12659511608E+03 -0.13589422455E+03  0.55875282465E+03  0.46999998093E+01 0. -1.
       -5    1    3    3    0  502 -0.52696211000E+03 -0.12659511608E+03  0.11111791948E+04  0.12363076809E+04  0.46999998093E+01 0.  1.
</event>
<event>
 5   0  0.2111533E-03  0.1456205E+04  0.7818609E-02  0.8914110E-01
       -2   -1    0    0    0  501  0.00000000000E+00  0.00000000000E+00  0.77003676058E+03  0.77003676058E+03  0.25500000920E-02 0. -1.
        2   -1    0    0  501    0  0.00000000000E+00  0.00000000000E+00 -0.68845230264E+03  0.68845230264E+03  0.25500000920E-02 0.  1.
    10030    2    1    2    0    0  0.00000000000E+00  0.00000000000E+00  0.81584457940E+02  0.14584890632E+04  0.14562054538E+04 0.  0.
        5    1    3    3  502    0 -0.57767826343E+03  0.43674800416E+03  0.11607988921E+03  0.73345594677E+03  0.46999998093E+01 0.  1.
       -5    1    3    3    0  502  0.57767826343E+03 -0.43674800416E+03 -0.34495431267E+02  0.72503311646E+03  0.46999998093E+01 0. -1.
</event>
<event>
 5   0  0.1993623E-03  0.1435746E+04  0.7818609E-02  0.8928342E-01
       -2   -1    0    0    0  501  0.00000000000E+00  0.00000000000E+00  0.11974133028E+04  0.11974133028E+04  0.25500000920E-02 0.  1.
        2   -1    0    0  501    0  0.00000000000E+00  0.00000000000E+00 -0.43037924715E+03  0.43037924716E+03  0.25500000920E-02 0. -1.
    10030    2    1    2    0    0  0.00000000000E+00  0.00000000000E+00  0.76703405562E+03  0.16277925499E+04  0.14357462670E+04 0.  0.
        4    1    3    3  502    0  0.66089693623E+02 -0.66399402316E+03  0.68366248145E+03  0.95532816970E+03  0.12699999809E+01 0.  1.
       -4    1    3    3    0  502 -0.66089693623E+02  0.66399402316E+03  0.83371574174E+02  0.67246438022E+03  0.12699999809E+01 0. -1.
</event>
<event>
 5   0  0.1993623E-03  0.1451667E+04  0.7818609E-02  0.8917246E-01
        2   -1    0    0  501    0  0.00000000000E+00  0.00000000000E+00  0.12804457424E+04  0.12804457425E+04  0.25500000920E-02 0. -1.
       -2   -1    0    0    0  501  0.00000000000E+00  0.00000000000E+00 -0.41144596960E+03  0.41144596961E+03  0.25500000920E-02 0.  1.
    10030    2    1    2    0    0  0.00000000000E+00  0.00000000000E+00  0.86899977285E+03  0.16918917121E+04  0.14516669591E+04 0.  0.
        4    1    3    3  502    0 -0.72749009804E+02 -0.57571865273E+03  0.94263966912E+03  0.11069397202E+04  0.12699999809E+01 0. -1.
       -4    1    3    3    0  502  0.72749009804E+02  0.57571865273E+03 -0.73639896266E+02  0.58495199183E+03  0.12699999809E+01 0.  1.
</event>
<event>
 5   0  0.1078787E-03  0.1568977E+04  0.7818609E-02  0.8839837E-01
       -1   -1    0    0    0  501  0.00000000000E+00  0.00000000000E+00  0.37335728088E+03  0.37335728092E+03  0.50400001928E-02 0. -1.
        1   -1    0    0  501    0  0.00000000000E+00  0.00000000000E+00 -0.16483459039E+04  0.16483459039E+04  0.50400001928E-02 0.  1.
    10030    2    1    2    0    0  0.00000000000E+00  0.00000000000E+00 -0.12749886230E+04  0.20217031848E+04  0.15689766661E+04 0.  0.
        5    1    3    3  502    0 -0.70204995233E+03  0.28510302411E+03 -0.89917440677E+03  0.11758803399E+04  0.46999998093E+01 0.  1.
       -5    1    3    3    0  502  0.70204995233E+03 -0.28510302411E+03 -0.37581421627E+03  0.84582284497E+03  0.46999998093E+01 0. -1.
</event>
<event>
 5   0  0.2150197E-03  0.1095650E+04  0.7818609E-02  0.9209442E-01
        2   -1    0    0  501    0  0.00000000000E+00  0.00000000000E+00  0.43556010234E+03  0.43556010235E+03  0.25500000920E-02 0.  1.
       -2   -1    0    0    0  501  0.00000000000E+00  0.00000000000E+00 -0.68902545553E+03  0.68902545553E+03  0.25500000920E-02 0. -1.
    10030    2    1    2    0    0  0.00000000000E+00  0.00000000000E+00 -0.25346535319E+03  0.11245855579E+04  0.10956495752E+04 0.  0.
        3    1    3    3  502    0 -0.51221109584E+03  0.19294670645E+03 -0.15021368433E+03  0.56758505917E+03  0.10100000352E+00 0.  1.
       -3    1    3    3    0  502  0.51221109584E+03 -0.19294670645E+03 -0.10325166886E+03  0.55700049870E+03  0.10100000352E+00 0. -1.
</event>
<event>
 5   0  0.1961098E-03  0.1428161E+04  0.7818609E-02  0.8933682E-01
       -2   -1    0    0    0  501  0.00000000000E+00  0.00000000000E+00  0.84516581050E+03  0.84516581051E+03  0.25500000920E-02 0.  1.
        2   -1    0    0  501    0  0.00000000000E+00  0.00000000000E+00 -0.60332687491E+03  0.60332687491E+03  0.25500000920E-02 0. -1.
    10030    2    1    2    0    0  0.00000000000E+00  0.00000000000E+00  0.24183893560E+03  0.14484926854E+04  0.14281614016E+04 0.  0.
        2    1    3    3  502    0  0.50116827956E+03 -0.28513789569E+03 -0.30631109316E+03  0.65291634211E+03  0.25500000920E-02 0. -1.
       -2    1    3    3    0  502 -0.50116827956E+03  0.28513789569E+03  0.54815002875E+03  0.79557634331E+03  0.25500000920E-02 0.  1.
</event>
<event>
 5   0  0.1087761E-03  0.1510661E+04  0.7818609E-02  0.8877394E-01
       -1   -1    0    0    0  501  0.00000000000E+00  0.00000000000E+00  0.65965499852E+03  0.65965499853E+03  0.50400001928E-02 0.  1.
        1   -1    0    0  501    0  0.00000000000E+00  0.00000000000E+00 -0.86488237706E+03  0.86488237708E+03  0.50400001928E-02 0. -1.
    10030    2    1    2    0    0  0.00000000000E+00  0.00000000000E+00 -0.20522737855E+03  0.15245373756E+04  0.15106607603E+04 0.  0.
        3    1    3    3  502    0  0.17758368058E+03 -0.27885404169E+03  0.58276273829E+03  0.67000593991E+03  0.10100000352E+00 0.  1.
       -3    1    3    3    0  502 -0.17758368058E+03  0.27885404169E+03 -0.78799011683E+03  0.85453143570E+03  0.10100000352E+00 0. -1.
</event>
<event>
 5   0  0.2111533E-03  0.1506323E+04  0.7818609E-02  0.8880259E-01
       -2   -1    0    0    0  501  0.00000000000E+00  0.00000000000E+00  0.35057443591E+03  0.35057443592E+03  0.25500000920E-02 0.  1.
        2   -1    0    0  501    0  0.00000000000E+00  0.00000000000E+00 -0.16180655030E+04  0.16180655030E+04  0.25500000920E-02 0. -1.
    10030    2    1    2    0    0  0.00000000000E+00  0.00000000000E+00 -0.12674910671E+04  0.19686399389E+04  0.15063232070E+04 0.  0.
        5    1    3    3  502    0  0.26339478250E+03 -0.29382868864E+03  0.20463782439E+03  0.44453440686E+03  0.46999998093E+01 0.  1.
       -5    1    3    3    0  502 -0.26339478250E+03  0.29382868864E+03 -0.14721288915E+04  0.15241055320E+04  0.46999998093E+01 0. -1.
</event>
<event>
 5   0  0.1961098E-03  0.1472917E+04  0.7818609E-02  0.8902666E-01
       -2   -1    0    0    0  501  0.00000000000E+00  0.00000000000E+00  0.81636119536E+03  0.81636119536E+03  0.25500000920E-02 0.  1.
        2   -1    0    0  501    0  0.00000000000E+00  0.00000000000E+00 -0.66437599729E+03  0.66437599729E+03  0.25500000920E-02 0. -1.
    10030    2    1    2    0    0  0.00000000000E+00  0.00000000000E+00  0.15198519807E+03  0.14807371927E+04  0.14729165398E+04 0.  0.
        2    1    3    3  502    0 -0.12203989817E+03 -0.25701374975E+03  0.75887907842E+03  0.81046114033E+03  0.25500000920E-02 0.  1.
       -2    1    3    3    0  502  0.12203989817E+03  0.25701374975E+03 -0.60689388035E+03  0.67027605232E+03  0.25500000920E-02 0. -1.
</event>
<event>
 5   0  0.1077140E-03  0.1475884E+04  0.7818609E-02  0.8900650E-01
       -1   -1    0    0    0  501  0.00000000000E+00  0.00000000000E+00  0.46295855253E+03  0.46295855256E+03  0.50400001928E-02 0. -1.
        1   -1    0    0  501    0  0.00000000000E+00  0.00000000000E+00 -0.11762572071E+04  0.11762572071E+04  0.50400001928E-02 0.  1.
    10030    2    1    2    0    0  0.00000000000E+00  0.00000000000E+00 -0.71329865458E+03  0.16392157597E+04  0.14758839169E+04 0.  0.
        1    1    3    3  502    0  0.91526230393E+02 -0.18127977252E+03 -0.11446118316E+04  0.11624868394E+04  0.50400001928E-02 0.  1.
       -1    1    3    3    0  502 -0.91526230393E+02  0.18127977252E+03  0.43131317698E+03  0.47672892029E+03  0.50400001928E-02 0. -1.
</event>
<event>
 5   0  0.2111533E-03  0.1526205E+04  0.7818609E-02  0.8867211E-01
        2   -1    0    0  501    0  0.00000000000E+00  0.00000000000E+00  0.22842586042E+04  0.22842586042E+04  0.25500000920E-02 0.  1.
       -2   -1    0    0    0  501  0.00000000000E+00  0.00000000000E+00 -0.25492973502E+03  0.25492973503E+03  0.25500000920E-02 0. -1.
    10030    2    1    2    0    0  0.00000000000E+00  0.00000000000E+00  0.20293288692E+04  0.25391883392E+04  0.15262050199E+04 0.  0.
        5    1    3    3  502    0 -0.68023546415E+03 -0.43035952296E+02  0.15855215254E+04  0.17258253033E+04  0.46999998093E+01 0.  1.
       -5    1    3    3    0  502  0.68023546415E+03  0.43035952296E+02  0.44380734375E+03  0.81336303594E+03  0.46999998093E+01 0. -1.
</event>
<event>
 5   0  0.7468375E-04  0.1479244E+04  0.7818609E-02  0.8898374E-01
        4   -1    0    0  501    0  0.00000000000E+00  0.00000000000E+00  0.77070639097E+03  0.77070743734E+03  0.12699999809E+01 0.  1.
       -4   -1    0    0    0  501  0.00000000000E+00  0.00000000000E+00 -0.70978938709E+03  0.70979052327E+03  0.12699999809E+01 0. -1.
    10030    2    1    2    0    0  0.00000000000E+00  0.00000000000E+00  0.60917003872E+02  0.14804979606E+04  0.14792441753E+04 0.  0.
        5    1    3    3  502    0 -0.67436894818E+03  0.30286660172E+03  0.53217296288E+02  0.74118542034E+03  0.46999998093E+01 0.  1.
       -5    1    3    3    0  502  0.67436894818E+03 -0.30286660172E+03  0.76997075832E+01  0.73931254027E+03  0.46999998093E+01 0. -1.
</event>
<event>
 5   0  0.2150197E-03  0.1537596E+04  0.7818609E-02  0.8859830E-01
        2   -1    0    0  501    0  0.00000000000E+00  0.00000000000E+00  0.13952787950E+04  0.13952787950E+04  0.25500000920E-02 0.  1.
       -2   -1    0    0    0  501  0.00000000000E+00  0.00000000000E+00 -0.42360731982E+03  0.42360731983E+03  0.25500000920E-02 0. -1.
    10030    2    1    2    0    0  0.00000000000E+00  0.00000000000E+00  0.97167147517E+03  0.18188861148E+04  0.15375959297E+04 0.  0.
        3    1    3    3  502    0 -0.67820441442E+03  0.33136113814E+03  0.31323621858E+03  0.81723825806E+03  0.10100000352E+00 0. -1.
       -3    1    3    3    0  502  0.67820441442E+03 -0.33136113814E+03  0.65843525659E+03  0.10016478568E+04  0.10100000352E+00 0.  1.
</event>
<event>
 5   0  0.1069697E-03  0.1516017E+04  0.7818609E-02  0.8873871E-01
       -1   -1    0    0    0  501  0.00000000000E+00  0.00000000000E+00  0.38647974919E+03  0.38647974923E+03  0.50400001928E-02 0.  1.
        1   -1    0    0  501    0  0.00000000000E+00  0.00000000000E+00 -0.14866939135E+04  0.14866939135E+04  0.50400001928E-02 0. -1.
    10030    2    1    2    0    0  0.00000000000E+00  0.00000000000E+00 -0.11002141643E+04  0.18731736627E+04  0.15160172701E+04 0.  0.
        2    1    3    3  502    0  0.35855644992E+03  0.34679244173E+03 -0.12553125700E+04  0.13507913880E+04  0.25500000920E-02 0. -1.
       -2    1    3    3    0  502 -0.35855644992E+03 -0.34679244173E+03  0.15509840577E+03  0.52238227468E+03  0.25500000920E-02 0.  1.
</event>
<event>
 5   0  0.1078787E-03  0.1501582E+04  0.7818609E-02  0.8883401E-01
       -1   -1    0    0    0  501  0.00000000000E+00  0.00000000000E+00  0.75271706488E+03  0.75271706490E+03  0.50400001928E-02 0.  1.
        1   -1    0    0  501    0  0.00000000000E+00  0.00000000000E+00 -0.74887008562E+03  0.74887008564E+03  0.50400001928E-02 0. -1.
    10030    2    1    2    0    0  0.00000000000E+00  0.00000000000E+00  0.38469792581E+01  0.15015871505E+04  0.15015822227E+04 0.  0.
        5    1    3    3  502    0 -0.81734568964E+02  0.28629134294E+03 -0.68729711939E+03  0.74902783201E+03  0.46999998093E+01 0. -1.
       -5    1    3    3    0  502  0.81734568964E+02 -0.28629134294E+03  0.69114409865E+03  0.75255931853E+03  0.46999998093E+01 0.  1.
</event>
<event>
 5   0  0.1961098E-03  0.1513534E+04  0.7818609E-02  0.8875503E-01
       -2   -1    0    0    0  501  0.00000000000E+00  0.00000000000E+00  0.78700084980E+03  0.78700084980E+03  0.25500000920E-02 0.  1.
        2   -1    0    0  501    0  0.00000000000E+00  0.00000000000E+00 -0.72769427623E+03  0.72769427624E+03  0.25500000920E-02 0. -1.
    10030    2    1    2    0    0  0.00000000000E+00  0.00000000000E+00  0.59306573567E+02  0.15146951260E+04  0.15135336320E+04 0.  0.
        2    1    3    3  502    0 -0.43779745605E+03  0.18692728686E+03  0.61839684178E+03  0.78039930614E+03  0.25500000920E-02 0.  1.
       -2    1    3    3    0  502  0.43779745605E+03 -0.18692728686E+03 -0.55909026821E+03  0.73429581990E+03  0.25500000920E-02 0. -1.
</event>
<event>
 5   0  0.2094566E-03  0.1519045E+04  0.7818609E-02  0.8871886E-01
       -2   -1    0    0    0  501  0.00000000000E+00  0.00000000000E+00  0.17062623499E+04  0.17062623499E+04  0.25500000920E-02 0. -1.
        2   -1    0    0  501    0  0.00000000000E+00  0.00000000000E+00 -0.33809257198E+03  0.33809257198E+03  0.25500000920E-02 0.  1.
    10030    2    1    2    0    0  0.00000000000E+00  0.00000000000E+00  0.13681697779E+04  0.20443549219E+04  0.15190452611E+04 0.  0.
        1    1    3    3  502    0  0.54769684747E+03  0.13253160412E+03 -0.12751798799E+01  0.56350518092E+03  0.50400001928E-02 0.  1.
       -1    1    3    3    0  502 -0.54769684747E+03 -0.13253160412E+03  0.13694449578E+04  0.14808497409E+04  0.50400001928E-02 0. -1.
</event>
<event>
 5   0  0.1078018E-03  0.1462814E+04  0.7818609E-02  0.8909565E-01
       -1   -1    0    0    0  501  0.00000000000E+00  0.00000000000E+00  0.10807723997E+04  0.10807723997E+04  0.50400001928E-02 0. -1.
        1   -1    0    0  501    0  0.00000000000E+00  0.00000000000E+00 -0.49497582837E+03  0.49497582840E+03  0.50400001928E-02 0.  1.
    10030    2    1    2    0    0  0.00000000000E+00  0.00000000000E+00  0.58579657135E+03  0.15757482281E+04  0.14628140194E+04 0.  0.
        4    1    3    3  502    0 -0.76876719543E+02 -0.18620218690E+03 -0.46450158133E+03  0.50630486505E+03  0.12699999809E+01 0.  1.
       -4    1    3    3    0  502  0.76876719543E+02  0.18620218690E+03  0.10502981527E+04  0.10694433631E+04  0.12699999809E+01 0. -1.
</event>
<event>
 5   0  0.1087761E-03  0.1428644E+04  0.7818609E-02  0.8933342E-01
        1   -1    0    0  501    0  0.00000000000E+00  0.00000000000E+00  0.13756914095E+04  0.13756914095E+04  0.50400001928E-02 0. -1.
       -1   -1    0    0    0  501  0.00000000000E+00  0.00000000000E+00 -0.37090856695E+03  0.37090856699E+03  0.50400001928E-02 0.  1.
    10030    2    1    2    0    0  0.00000000000E+00  0.00000000000E+00  0.10047828425E+04  0.17465999765E+04  0.14286437335E+04 0.  0.
        3    1    3    3  502    0 -0.12575011139E+02 -0.50838345669E+03 -0.11089403985E+03  0.52048954670E+03  0.10100000352E+00 0.  1.
       -3    1    3    3    0  502  0.12575011139E+02  0.50838345669E+03  0.11156768824E+04  0.12261104298E+04  0.10100000352E+00 0. -1.
</event>
<event>
 5   0  0.1961098E-03  0.1496691E+04  0.7818609E-02  0.8886656E-01
        2   -1    0    0  501    0  0.00000000000E+00  0.00000000000E+00  0.96329909320E+03  0.96329909321E+03  0.25500000920E-02 0. -1.
       -2   -1    0    0    0  501  0.00000000000E+00  0.00000000000E+00 -0.58135738811E+03  0.58135738812E+03  0.25500000920E-02 0.  1.
    10030    2    1    2    0    0  0.00000000000E+00  0.00000000000E+00  0.38194170509E+03  0.15446564813E+04  0.14966910767E+04 0.  0.
        2    1    3    3  502    0 -0.67641280469E+03 -0.31193144646E+03  0.26528928370E+03  0.79070469436E+03  0.25500000920E-02 0. -1.
       -2    1    3    3    0  502  0.67641280469E+03  0.31193144646E+03  0.11665242139E+03  0.75395178696E+03  0.25500000920E-02 0.  1.
</event>
<event>
 5   0  0.1087761E-03  0.1462143E+04  0.7818609E-02  0.8910025E-01
        1   -1    0    0  501    0  0.00000000000E+00  0.00000000000E+00  0.42420852888E+03  0.42420852891E+03  0.50400001928E-02 0. -1.
       -1   -1    0    0    0  501  0.00000000000E+00  0.00000000000E+00 -0.12599131316E+04  0.12599131316E+04  0.50400001928E-02 0.  1.
    10030    2    1    2    0    0  0.00000000000E+00  0.00000000000E+00 -0.83570460270E+03  0.16841216605E+04  0.14621434897E+04 0.  0.
        3    1    3    3  502    0  0.89627707957E+02  0.14621262897E+02  0.41768668776E+03  0.42744483468E+03  0.10100000352E+00 0. -1.
       -3    1    3    3    0  502 -0.89627707957E+02 -0.14621262897E+02 -0.12533912905E+04  0.12566768258E+04  0.10100000352E+00 0.  1.
</event>
<event>
 5   0  0.1077140E-03  0.8992827E+03  0.7818609E-02  0.9426479E-01
       -1   -1    0    0    0  501  0.00000000000E+00  0.00000000000E+00  0.56089058373E+03  0.56089058375E+03  0.50400001928E-02 0. -1.
        1   -1    0    0  501    0  0.00000000000E+00  0.00000000000E+00 -0.36045770527E+03  0.36045770530E+03  0.50400001928E-02 0.  1.
    10030    2    1    2    0    0  0.00000000000E+00  0.00000000000E+00  0.20043287846E+03  0.92134828905E+03  0.89928267579E+03 0.  0.
        1    1    3    3  502    0  0.33101180077E+03  0.67268547372E+02  0.40428729540E+03  0.52682263330E+03  0.50400001928E-02 0. -1.
       -1    1    3    3    0  502 -0.33101180077E+03 -0.67268547372E+02 -0.20385441693E+03  0.39452565575E+03  0.50400001928E-02 0.  1.
</event>
<event>
 5   0  0.1069697E-03  0.1493353E+04  0.7818609E-02  0.8888885E-01
        1   -1    0    0  501    0  0.00000000000E+00  0.00000000000E+00  0.49351957793E+03  0.49351957795E+03  0.50400001928E-02 0. -1.
       -1   -1    0    0    0  501  0.00000000000E+00  0.00000000000E+00 -0.11296939212E+04  0.11296939212E+04  0.50400001928E-02 0.  1.
    10030    2    1    2    0    0  0.00000000000E+00  0.00000000000E+00 -0.63617434330E+03  0.16232134992E+04  0.14933533637E+04 0.  0.
        2    1    3    3  502    0  0.53638217552E+03  0.16365162221E+03  0.21777177756E+03  0.60159142180E+03  0.25500000920E-02 0. -1.
       -2    1    3    3    0  502 -0.53638217552E+03 -0.16365162221E+03 -0.85394612086E+03  0.10216220774E+04  0.25500000920E-02 0.  1.
</event>
<event>
 5   0  0.1993623E-03  0.1451794E+04  0.7818609E-02  0.8917158E-01
        2   -1    0    0  501    0  0.00000000000E+00  0.00000000000E+00  0.75886429019E+03  0.75886429020E+03  0.25500000920E-02 0.  1.
       -2   -1    0    0    0  501  0.00000000000E+00  0.00000000000E+00 -0.69436193589E+03  0.69436193589E+03  0.25500000920E-02 0. -1.
    10030    2    1    2    0    0  0.00000000000E+00  0.00000000000E+00  0.64502354306E+02  0.14532262261E+04  0.14517940317E+04 0.  0.
        4    1    3    3  502    0 -0.47595050812E+03  0.54804276145E+03  0.25528141994E+02  0.72631470693E+03  0.12699999809E+01 0.  1.
       -4    1    3    3    0  502  0.47595050812E+03 -0.54804276145E+03  0.38974212312E+02  0.72691151916E+03  0.12699999809E+01 0. -1.
</event>
<event>
 5   0  0.1069697E-03  0.1485724E+04  0.7818609E-02  0.8894002E-01
        1   -1    0    0  501    0  0.00000000000E+00  0.00000000000E+00  0.18877249854E+04  0.18877249855E+04  0.50400001928E-02 0.  1.
       -1   -1    0    0    0  501  0.00000000000E+00  0.00000000000E+00 -0.29233296951E+03  0.29233296955E+03  0.50400001928E-02 0. -1.
    10030    2    1    2    0    0  0.00000000000E+00  0.00000000000E+00  0.15953920159E+04  0.21800579550E+04  0.14857244033E+04 0.  0.
        2    1    3    3  502    0 -0.43682445646E+03  0.54418308582E+03  0.11714880867E+04  0.13635744108E+04  0.25500000920E-02 0.  1.
       -2    1    3    3    0  502  0.43682445646E+03 -0.54418308582E+03  0.42390392927E+03  0.81648354418E+03  0.25500000920E-02 0. -1.
</event>
<event>
 5   0  0.1993623E-03  0.1640211E+04  0.7818609E-02  0.8796218E-01
        2   -1    0    0  501    0  0.00000000000E+00  0.00000000000E+00  0.72461824617E+03  0.72461824618E+03  0.25500000920E-02 0.  1.
       -2   -1    0    0    0  501  0.00000000000E+00  0.00000000000E+00 -0.92817623684E+03  0.92817623684E+03  0.25500000920E-02 0. -1.
    10030    2    1    2    0    0  0.00000000000E+00  0.00000000000E+00 -0.20355799067E+03  0.16527944830E+04  0.16402114948E+04 0.  0.
        4    1    3    3  502    0  0.75835922517E+02 -0.21305118696E+03  0.69257683242E+03  0.72856446325E+03  0.12699999809E+01 0.  1.
       -4    1    3    3    0  502 -0.75835922517E+02  0.21305118696E+03 -0.89613482308E+03  0.92423001977E+03  0.12699999809E+01 0. -1.
</event>
<event>
 5   0  0.2094566E-03  0.1384956E+04  0.7818609E-02  0.8964781E-01
        2   -1    0    0  501    0  0.00000000000E+00  0.00000000000E+00  0.13348617600E+04  0.13348617600E+04  0.25500000920E-02 0.  1.
       -2   -1    0    0    0  501  0.00000000000E+00  0.00000000000E+00 -0.35923263524E+03  0.35923263525E+03  0.25500000920E-02 0. -1.
    10030    2    1    2    0    0  0.00000000000E+00  0.00000000000E+00  0.97562912480E+03  0.16940943953E+04  0.13849561838E+04 0.  0.
        1    1    3    3  502    0 -0.22470815176E+03 -0.35985041964E+03 -0.18165195510E+03  0.46150136598E+03  0.50400001928E-02 0. -1.
       -1    1    3    3    0  502  0.22470815176E+03  0.35985041964E+03  0.11572810799E+04  0.12325930293E+04  0.50400001928E-02 0.  1.
</event>
<event>
 5   0  0.7468375E-04  0.1498284E+04  0.7818609E-02  0.8885595E-01
       -4   -1    0    0    0  501  0.00000000000E+00  0.00000000000E+00  0.41502551753E+03  0.41502746065E+03  0.12699999809E+01 0.  1.
        4   -1    0    0  501    0  0.00000000000E+00  0.00000000000E+00 -0.13522345695E+04  0.13522351658E+04  0.12699999809E+01 0. -1.
    10030    2    1    2    0    0  0.00000000000E+00  0.00000000000E+00 -0.93720905193E+03  0.17672626265E+04  0.14982844803E+04 0.  0.
        3    1    3    3  502    0 -0.74800022854E+02  0.40508886783E+02  0.40931174807E+03  0.41805756856E+03  0.10100000352E+00 0.  1.
       -3    1    3    3    0  502  0.74800022854E+02 -0.40508886783E+02 -0.13465208000E+04  0.13492050579E+04  0.10100000352E+00 0. -1.
</event>
<event>
 5   0  0.2150197E-03  0.1463748E+04  0.7818609E-02  0.8908925E-01
       -2   -1    0    0    0  501  0.00000000000E+00  0.00000000000E+00  0.60168234961E+03  0.60168234962E+03  0.25500000920E-02 0. -1.
        2   -1    0    0  501    0  0.00000000000E+00  0.00000000000E+00 -0.89023617143E+03  0.89023617143E+03  0.25500000920E-02 0.  1.
    10030    2    1    2    0    0  0.00000000000E+00  0.00000000000E+00 -0.28855382182E+03  0.14919185210E+04  0.14637477807E+04 0.  0.
        3    1    3    3  502    0  0.25030942078E+03  0.29893728452E+03  0.48701479690E+03  0.62386034399E+03  0.10100000352E+00 0. -1.
       -3    1    3    3    0  502 -0.25030942078E+03 -0.29893728452E+03 -0.77556861872E+03  0.86805817705E+03  0.10100000352E+00 0.  1.
</event>
<event>
 5   0  0.1993623E-03  0.1457138E+04  0.7818609E-02  0.8913467E-01
       -2   -1    0    0    0  501  0.00000000000E+00  0.00000000000E+00  0.32096876514E+03  0.32096876515E+03  0.25500000920E-02 0.  1.
        2   -1    0    0  501    0  0.00000000000E+00  0.00000000000E+00 -0.16537822461E+04  0.16537822461E+04  0.25500000920E-02 0. -1.
    10030    2    1    2    0    0  0.00000000000E+00  0.00000000000E+00 -0.13328134810E+04  0.19747510113E+04  0.14571375300E+04 0.  0.
        4    1    3    3  502    0 -0.14696562442E+03 -0.47516769156E+03  0.55087506537E+02  0.50041930033E+03  0.12699999809E+01 0.  1.
       -4    1    3    3    0  502  0.14696562442E+03  0.47516769156E+03 -0.13879009875E+04  0.14743317109E+04  0.12699999809E+01 0. -1.
</event>
<event>
 5   0  0.1087761E-03  0.1517468E+04  0.7818609E-02  0.8872919E-01
       -1   -1    0    0    0  501  0.00000000000E+00  0.00000000000E+00  0.54708433266E+03  0.54708433269E+03  0.50400001928E-02 0.  1.
        1   -1    0    0  501    0  0.00000000000E+00  0.00000000000E+00 -0.10522640229E+04  0.10522640230E+04  0.50400001928E-02 0. -1.
    10030    2    1    2    0    0  0.00000000000E+00  0.00000000000E+00 -0.50517969028E+03  0.15993483556E+04  0.15174678393E+04 0.  0.
        3    1    3    3  502    0  0.13764505245E+03 -0.62471271045E+03  0.17742660102E+03  0.66384662386E+03  0.10100000352E+00 0. -1.
       -3    1    3    3    0  502 -0.13764505245E+03  0.62471271045E+03 -0.68260629130E+03  0.93550173179E+03  0.10100000352E+00 0.  1.
</event>
<event>
 5   0  0.1069697E-03  0.1484308E+04  0.7818609E-02  0.8894955E-01
        1   -1    0    0  501    0  0.00000000000E+00  0.00000000000E+00  0.19127160766E+04  0.19127160766E+04  0.50400001928E-02 0.  1.
       -1   -1    0    0    0  501  0.00000000000E+00  0.00000000000E+00 -0.28796366630E+03  0.28796366634E+03  0.50400001928E-02 0. -1.
    10030    2    1    2    0    0  0.00000000000E+00  0.00000000000E+00  0.16247524103E+04  0.22006797429E+04  0.14843082349E+04 0.  0.
        2    1    3    3  502    0 -0.42024693330E+03  0.23269417561E+03 -0.26376583687E+02  0.48109228687E+03  0.25500000920E-02 0. -1.
       -2    1    3    3    0  502  0.42024693330E+03 -0.23269417561E+03  0.16511289940E+04  0.17195874561E+04  0.25500000920E-02 0.  1.
</event>
<event>
 5   0  0.1078787E-03  0.1495596E+04  0.7818609E-02  0.8887387E-01
        1   -1    0    0  501    0  0.00000000000E+00  0.00000000000E+00  0.81904822027E+03  0.81904822029E+03  0.50400001928E-02 0. -1.
       -1   -1    0    0    0  501  0.00000000000E+00  0.00000000000E+00 -0.68274582146E+03  0.68274582147E+03  0.50400001928E-02 0.  1.
    10030    2    1    2    0    0  0.00000000000E+00  0.00000000000E+00  0.13630239882E+03  0.15017940418E+04  0.14955958679E+04 0.  0.
        5    1    3    3  502    0 -0.59899504829E+03 -0.79678800605E+02 -0.37416937776E+03  0.71075213148E+03  0.46999998093E+01 0.  1.
       -5    1    3    3    0  502  0.59899504829E+03  0.79678800605E+02  0.51047177658E+03  0.79104191028E+03  0.46999998093E+01 0. -1.
</event>
<event>
 5   0  0.1993623E-03  0.1487699E+04  0.7818609E-02  0.8892674E-01
        2   -1    0    0  501    0  0.00000000000E+00  0.00000000000E+00  0.17344972103E+04  0.17344972103E+04  0.25500000920E-02 0.  1.
       -2   -1    0    0    0  501  0.00000000000E+00  0.00000000000E+00 -0.31900433551E+03  0.31900433552E+03  0.25500000920E-02 0. -1.
    10030    2    1    2    0    0  0.00000000000E+00  0.00000000000E+00  0.14154928748E+04  0.20535015458E+04  0.14876990691E+04 0.  0.
        4    1    3    3  502    0  0.52426160847E+03 -0.51898424722E+03  0.57595919028E+03  0.93590890836E+03  0.12699999809E+01 0.  1.
       -4    1    3    3    0  502 -0.52426160847E+03  0.51898424722E+03  0.83953368451E+03  0.11175926375E+04  0.12699999809E+01 0. -1.
</event>
<event>
 5   0  0.1077140E-03  0.1640409E+04  0.7818609E-02  0.8796101E-01
        1   -1    0    0  501    0  0.00000000000E+00  0.00000000000E+00  0.78150476796E+03  0.78150476797E+03  0.50400001928E-02 0.  1.
       -1   -1    0    0    0  501  0.00000000000E+00  0.00000000000E+00 -0.86082022004E+03  0.86082022005E+03  0.50400001928E-02 0. -1.
    10030    2    1    2    0    0  0.00000000000E+00  0.00000000000E+00 -0.79315452081E+02  0.16423249880E+04  0.16404086154E+04 0.  0.
        1    1    3    3  502    0  0.20016874689E+03  0.78165855082E+03 -0.18706249913E+03  0.82828135069E+03  0.50400001928E-02 0. -1.
       -1    1    3    3    0  502 -0.20016874689E+03 -0.78165855082E+03  0.10774704705E+03  0.81404363733E+03  0.50400001928E-02 0.  1.
</event>
<event>
 5   0  0.1078787E-03  0.1538149E+04  0.7818609E-02  0.8859473E-01
       -1   -1    0    0    0  501  0.00000000000E+00  0.00000000000E+00  0.10464217374E+04  0.10464217374E+04  0.50400001928E-02 0. -1.
        1   -1    0    0  501    0  0.00000000000E+00  0.00000000000E+00 -0.56523620077E+03  0.56523620079E+03  0.50400001928E-02 0.  1.
    10030    2    1    2    0    0  0.00000000000E+00  0.00000000000E+00  0.48118553663E+03  0.16116579382E+04  0.15381488189E+04 0.  0.
        5    1    3    3  502    0  0.61844313227E+03  0.39706090781E+03  0.47796784756E+03  0.87670098988E+03  0.46999998093E+01 0. -1.
       -5    1    3    3    0  502 -0.61844313227E+03 -0.39706090781E+03  0.32176890672E+01  0.73495694832E+03  0.46999998093E+01 0.  1.
</event>
<event>
 5   0  0.1077140E-03  0.1356473E+04  0.7818609E-02  0.8985943E-01
       -1   -1    0    0    0  501  0.00000000000E+00  0.00000000000E+00  0.96342074681E+03  0.96342074683E+03  0.50400001928E-02 0.  1.
        1   -1    0    0  501    0  0.00000000000E+00  0.00000000000E+00 -0.47747013005E+03  0.47747013007E+03  0.50400001928E-02 0. -1.
    10030    2    1    2    0    0  0.00000000000E+00  0.00000000000E+00  0.48595061677E+03  0.14408908769E+04  0.13564728221E+04 0.  0.
        1    1    3    3  502    0 -0.30849782593E+03  0.27761174927E+03 -0.32684681960E+03  0.52826890449E+03  0.50400001928E-02 0. -1.
       -1    1    3    3    0  502  0.30849782593E+03 -0.27761174927E+03  0.81279743637E+03  0.91262197241E+03  0.50400001928E-02 0.  1.
</event>
<event>
 5   0  0.1069697E-03  0.1539202E+04  0.7818609E-02  0.8858795E-01
       -1   -1    0    0    0  501  0.00000000000E+00  0.00000000000E+00  0.32980820656E+03  0.32980820659E+03  0.50400001928E-02 0. -1.
        1   -1    0    0  501    0  0.00000000000E+00  0.00000000000E+00 -0.17958486292E+04  0.17958486292E+04  0.50400001928E-02 0.  1.
    10030    2    1    2    0    0  0.00000000000E+00  0.00000000000E+00 -0.14660404226E+04  0.21256568358E+04  0.15392018915E+04 0.  0.
        2    1    3    3  502    0  0.35496257649E+03  0.68142567959E+03 -0.79394505761E+03  0.11048475651E+04  0.25500000920E-02 0. -1.
       -2    1    3    3    0  502 -0.35496257649E+03 -0.68142567959E+03 -0.67209536503E+03  0.10208092707E+04  0.25500000920E-02 0.  1.
</event>
<event>
 5   0  0.2111533E-03  0.1493278E+04  0.7818609E-02  0.8888936E-01
       -2   -1    0    0    0  501  0.00000000000E+00  0.00000000000E+00  0.50168645818E+03  0.50168645819E+03  0.25500000920E-02 0. -1.
        2   -1    0    0  501    0  0.00000000000E+00  0.00000000000E+00 -0.11111911821E+04  0.11111911821E+04  0.25500000920E-02 0.  1.
    10030    2    1    2    0    0  0.00000000000E+00  0.00000000000E+00 -0.60950472390E+03  0.16128776403E+04  0.14932776949E+04 0.  0.
        5    1    3    3  502    0  0.51320651347E+03  0.16759152875E+03 -0.86179063272E+03  0.10169429830E+04  0.46999998093E+01 0.  1.
       -5    1    3    3    0  502 -0.51320651347E+03 -0.16759152875E+03  0.25228590882E+03  0.59593465730E+03  0.46999998093E+01 0. -1.
</event>
<event>
 5   0  0.1993623E-03  0.1458626E+04  0.7818609E-02  0.8912442E-01
        2   -1    0    0  501    0  0.00000000000E+00  0.00000000000E+00  0.14011162237E+04  0.14011162237E+04  0.25500000920E-02 0. -1.
       -2   -1    0    0    0  501  0.00000000000E+00  0.00000000000E+00 -0.37962431804E+03  0.37962431805E+03  0.25500000920E-02 0.  1.
    10030    2    1    2    0    0  0.00000000000E+00  0.00000000000E+00  0.10214919057E+04  0.17807405418E+04  0.14586264648E+04 0.  0.
        4    1    3    3  502    0 -0.13448062673E+03 -0.10654654843E+03 -0.35463405954E+03  0.39395956015E+03  0.12699999809E+01 0.  1.
       -4    1    3    3    0  502  0.13448062673E+03  0.10654654843E+03  0.13761259652E+04  0.13867809816E+04  0.12699999809E+01 0. -1.
</event>
<event>
 5   0  0.1087761E-03  0.1353165E+04  0.7818609E-02  0.8988436E-01
        1   -1    0    0  501    0  0.00000000000E+00  0.00000000000E+00  0.55003403065E+03  0.55003403067E+03  0.50400001928E-02 0. -1.
       -1   -1    0    0    0  501  0.00000000000E+00  0.00000000000E+00 -0.83224628421E+03  0.83224628423E+03  0.50400001928E-02 0.  1.
    10030    2    1    2    0    0  0.00000000000E+00  0.00000000000E+00 -0.28221225357E+03  0.13822803149E+04  0.13531648506E+04 0.  0.
        3    1    3    3  502    0  0.58219517683E+03  0.19301600804E+03  0.15062112944E+03  0.63157987469E+03  0.10100000352E+00 0. -1.
       -3    1    3    3    0  502 -0.58219517683E+03 -0.19301600804E+03 -0.43283338300E+03  0.75070044021E+03  0.10100000352E+00 0.  1.
</event>
<event>
 5   0  0.1069697E-03  0.1491884E+04  0.7818609E-02  0.8889868E-01
       -1   -1    0    0    0  501  0.00000000000E+00  0.00000000000E+00  0.44508070810E+03  0.44508070812E+03  0.50400001928E-02 0.  1.
        1   -1    0    0  501    0  0.00000000000E+00  0.00000000000E+00 -0.12501762002E+04  0.12501762002E+04  0.50400001928E-02 0. -1.
    10030    2    1    2    0    0  0.00000000000E+00  0.00000000000E+00 -0.80509549214E+03  0.16952569084E+04  0.14918837870E+04 0.  0.
        2    1    3    3  502    0 -0.32861306994E+03  0.66330181342E+03 -0.50714758087E+03  0.89730402552E+03  0.25500000920E-02 0. -1.
       -2    1    3    3    0  502  0.32861306994E+03 -0.66330181342E+03 -0.29794791127E+03  0.79795288285E+03  0.25500000920E-02 0.  1.
</event>
<event>
 5   0  0.1993623E-03  0.1480865E+04  0.7818609E-02  0.8897278E-01
        2   -1    0    0  501    0  0.00000000000E+00  0.00000000000E+00  0.86291265582E+03  0.86291265583E+03  0.25500000920E-02 0.  1.
       -2   -1    0    0    0  501  0.00000000000E+00  0.00000000000E+00 -0.63533677194E+03  0.63533677194E+03  0.25500000920E-02 0. -1.
    10030    2    1    2    0    0  0.00000000000E+00  0.00000000000E+00  0.22757588389E+03  0.14982494278E+04  0.14808648030E+04 0.  0.
        4    1    3    3  502    0 -0.45819267715E+03  0.18170085265E+03  0.67279832815E+03  0.83403533049E+03  0.12699999809E+01 0.  1.
       -4    1    3    3    0  502  0.45819267715E+03 -0.18170085265E+03 -0.44522244426E+03  0.66421409728E+03  0.12699999809E+01 0. -1.
</event>
<event>
 5   0  0.1077140E-03  0.1373355E+04  0.7818609E-02  0.8973335E-01
       -1   -1    0    0    0  501  0.00000000000E+00  0.00000000000E+00  0.39348122936E+03  0.39348122940E+03  0.50400001928E-02 0. -1.
        1   -1    0    0  501    0  0.00000000000E+00  0.00000000000E+00 -0.11983436808E+04  0.11983436808E+04  0.50400001928E-02 0.  1.
    10030    2    1    2    0    0  0.00000000000E+00  0.00000000000E+00 -0.80486245139E+03  0.15918249102E+04  0.13733546443E+04 0.  0.
        1    1    3    3  502    0  0.32892962251E+02 -0.30863676223E+03  0.30753317385E+03  0.43693849797E+03  0.50400001928E-02 0. -1.
       -1    1    3    3    0  502 -0.32892962251E+02  0.30863676223E+03 -0.11123956252E+04  0.11548864122E+04  0.50400001928E-02 0.  1.
</event>
<event>
 5   0  0.2094566E-03  0.1498361E+04  0.7818609E-02  0.8885544E-01
       -2   -1    0    0    0  501  0.00000000000E+00  0.00000000000E+00  0.26311802201E+03  0.26311802203E+03  0.25500000920E-02 0.  1.
        2   -1    0    0  501    0  0.00000000000E+00  0.00000000000E+00 -0.21331535249E+04  0.21331535249E+04  0.25500000920E-02 0. -1.
    10030    2    1    2    0    0  0.00000000000E+00  0.00000000000E+00 -0.18700355028E+04  0.23962715469E+04  0.14983606190E+04 0.  0.
        1    1    3    3  502    0  0.35865219957E+03  0.29783149515E+02  0.11582373953E+03  0.37806556959E+03  0.50400001928E-02 0.  1.
       -1    1    3    3    0  502 -0.35865219957E+03 -0.29783149515E+02 -0.19858592424E+04  0.20182059773E+04  0.50400001928E-02 0. -1.
</event>
<event>
 5   0  0.1077140E-03  0.1501822E+04  0.7818609E-02  0.8883242E-01
       -1   -1    0    0    0  501  0.00000000000E+00  0.00000000000E+00  0.58952300138E+03  0.58952300141E+03  0.50400001928E-02 0.  1.
        1   -1    0    0  501    0  0.00000000000E+00  0.00000000000E+00 -0.95648028625E+03  0.95648028626E+03  0.50400001928E-02 0. -1.
    10030    2    1    2    0    0  0.00000000000E+00  0.00000000000E+00 -0.36695728487E+03  0.15460032877E+04  0.15018217326E+04 0.  0.
        1    1    3    3  502    0  0.30439925015E+02  0.61173402567E+03 -0.63068021175E+03  0.87914881375E+03  0.50400001928E-02 0. -1.
       -1    1    3    3    0  502 -0.30439925015E+02 -0.61173402567E+03  0.26372292688E+03  0.66685447392E+03  0.50400001928E-02 0.  1.
</event>
<event>
 5   0  0.1077140E-03  0.1487952E+04  0.7818609E-02  0.8892505E-01
        1   -1    0    0  501    0  0.00000000000E+00  0.00000000000E+00  0.18188368609E+04  0.18188368609E+04  0.50400001928E-02 0.  1.
       -1   -1    0    0    0  501  0.00000000000E+00  0.00000000000E+00 -0.30431545085E+03  0.30431545089E+03  0.50400001928E-02 0. -1.
    10030    2    1    2    0    0  0.00000000000E+00  0.00000000000E+00  0.15145214100E+04  0.21231523118E+04  0.14879518264E+04 0.  0.
        1    1    3    3  502    0 -0.16837338551E+03 -0.47849432249E+03  0.15338300130E+04  0.16155311580E+04  0.50400001928E-02 0.  1.
       -1    1    3    3    0  502  0.16837338551E+03  0.47849432249E+03 -0.19308602970E+02  0.50762115379E+03  0.50400001928E-02 0. -1.
</event>
<event>
 5   0  0.2111533E-03  0.1464996E+04  0.7818609E-02  0.8908070E-01
       -2   -1    0    0    0  501  0.00000000000E+00  0.00000000000E+00  0.74943964655E+03  0.74943964656E+03  0.25500000920E-02 0.  1.
        2   -1    0    0  501    0  0.00000000000E+00  0.00000000000E+00 -0.71593958473E+03  0.71593958474E+03  0.25500000920E-02 0. -1.
    10030    2    1    2    0    0  0.00000000000E+00  0.00000000000E+00  0.33500061819E+02  0.14653792313E+04  0.14649962585E+04 0.  0.
        5    1    3    3  502    0  0.65979524988E+03  0.15651347374E+03  0.29377943226E+03  0.73902278994E+03  0.46999998093E+01 0.  1.
       -5    1    3    3    0  502 -0.65979524988E+03 -0.15651347374E+03 -0.26027937045E+03  0.72635644136E+03  0.46999998093E+01 0. -1.
</event>
<event>
 5   0  0.7468375E-04  0.1362854E+04  0.7818609E-02  0.8981155E-01
        3   -1    0    0  501    0  0.00000000000E+00  0.00000000000E+00  0.69517712719E+03  0.69517713453E+03  0.10100000352E+00 0. -1.
       -3   -1    0    0    0  501  0.00000000000E+00  0.00000000000E+00 -0.66794868368E+03  0.66794869131E+03  0.10100000352E+00 0.  1.
    10030    2    1    2    0    0  0.00000000000E+00  0.00000000000E+00  0.27228443514E+02  0.13631258258E+04  0.13628538546E+04 0.  0.
        2    1    3    3  502    0 -0.14069891013E+02 -0.65540631647E+03 -0.17239938412E+03  0.67784729044E+03  0.25500000920E-02 0.  1.
       -2    1    3    3    0  502  0.14069891013E+02  0.65540631647E+03  0.19962782763E+03  0.68527853540E+03  0.25500000920E-02 0. -1.
</event>
<event>
 5   0  0.2150197E-03  0.1525045E+04  0.7818609E-02  0.8867967E-01
       -2   -1    0    0    0  501  0.00000000000E+00  0.00000000000E+00  0.78824219532E+03  0.78824219533E+03  0.25500000920E-02 0.  1.
        2   -1    0    0  501    0  0.00000000000E+00  0.00000000000E+00 -0.73764178091E+03  0.73764178091E+03  0.25500000920E-02 0. -1.
    10030    2    1    2    0    0  0.00000000000E+00  0.00000000000E+00  0.50600414419E+02  0.15258839762E+04  0.15250447557E+04 0.  0.
        3    1    3    3  502    0 -0.12467777932E+02  0.58711885117E+02 -0.73527455578E+03  0.73772028136E+03  0.10100000352E+00 0. -1.
       -3    1    3    3    0  502  0.12467777932E+02 -0.58711885117E+02  0.78587497020E+03  0.78816369488E+03  0.10100000352E+00 0.  1.
</event>
<event>
 5   0  0.1993623E-03  0.1484301E+04  0.7818609E-02  0.8894960E-01
        2   -1    0    0  501    0  0.00000000000E+00  0.00000000000E+00  0.99750697516E+03  0.99750697516E+03  0.25500000920E-02 0.  1.
       -2   -1    0    0    0  501  0.00000000000E+00  0.00000000000E+00 -0.55216412594E+03  0.55216412595E+03  0.25500000920E-02 0. -1.
    10030    2    1    2    0    0  0.00000000000E+00  0.00000000000E+00  0.44534284922E+03  0.15496711011E+04  0.14843012727E+04 0.  0.
        4    1    3    3  502    0 -0.27743091452E+03  0.39939678317E+03  0.80798667337E+03  0.94304283040E+03  0.12699999809E+01 0.  1.
       -4    1    3    3    0  502  0.27743091452E+03 -0.39939678317E+03 -0.36264382415E+03  0.60662827071E+03  0.12699999809E+01 0. -1.
</event>
<event>
 5   0  0.2150197E-03  0.1491156E+04  0.7818609E-02  0.8890356E-01
        2   -1    0    0  501    0  0.00000000000E+00  0.00000000000E+00  0.74624467161E+03  0.74624467162E+03  0.25500000920E-02 0. -1.
       -2   -1    0    0    0  501  0.00000000000E+00  0.00000000000E+00 -0.74491179200E+03  0.74491179201E+03  0.25500000920E-02 0.  1.
    10030    2    1    2    0    0  0.00000000000E+00  0.00000000000E+00  0.13328796097E+01  0.14911564636E+04  0.14911558679E+04 0.  0.
        3    1    3    3  502    0  0.55975745046E+03 -0.39958572259E+03  0.28857156062E+03  0.74583557762E+03  0.10100000352E+00 0. -1.
       -3    1    3    3    0  502 -0.55975745046E+03  0.39958572259E+03 -0.28723868101E+03  0.74532088601E+03  0.10100000352E+00 0.  1.
</event>
<event>
 5   0  0.2094566E-03  0.1419656E+04  0.7818609E-02  0.8939712E-01
        2   -1    0    0  501    0  0.00000000000E+00  0.00000000000E+00  0.77212172170E+03  0.77212172170E+03  0.25500000920E-02 0.  1.
       -2   -1    0    0    0  501  0.00000000000E+00  0.00000000000E+00 -0.65256003785E+03  0.65256003785E+03  0.25500000920E-02 0. -1.
    10030    2    1    2    0    0  0.00000000000E+00  0.00000000000E+00  0.11956168385E+03  0.14246817596E+04  0.14196559864E+04 0.  0.
        1    1    3    3  502    0 -0.11551882234E+03 -0.43721905570E+03 -0.48928556016E+03  0.66626230599E+03  0.50400001928E-02 0. -1.
       -1    1    3    3    0  502  0.11551882234E+03  0.43721905570E+03  0.60884724401E+03  0.75841945356E+03  0.50400001928E-02 0.  1.
</event>
<event>
 5   0  0.1069697E-03  0.1460549E+04  0.7818609E-02  0.8911120E-01
       -1   -1    0    0    0  501  0.00000000000E+00  0.00000000000E+00  0.65043441421E+03  0.65043441423E+03  0.50400001928E-02 0. -1.
        1   -1    0    0  501    0  0.00000000000E+00  0.00000000000E+00 -0.81991505881E+03  0.81991505882E+03  0.50400001928E-02 0.  1.
    10030    2    1    2    0    0  0.00000000000E+00  0.00000000000E+00 -0.16948064459E+03  0.14703494731E+04  0.14605491721E+04 0.  0.
        2    1    3    3  502    0  0.38771835179E+03 -0.40140888924E+03  0.38942581498E+03  0.68051971467E+03  0.25500000920E-02 0. -1.
       -2    1    3    3    0  502 -0.38771835179E+03  0.40140888924E+03 -0.55890645957E+03  0.78982975839E+03  0.25500000920E-02 0.  1.
</event>
<event>
 5   0  0.1078018E-03  0.1446137E+04  0.7818609E-02  0.8921083E-01
       -1   -1    0    0    0  501  0.00000000000E+00  0.00000000000E+00  0.49904413387E+03  0.49904413389E+03  0.50400001928E-02 0.  1.
        1   -1    0    0  501    0  0.00000000000E+00  0.00000000000E+00 -0.10476587309E+04  0.10476587310E+04  0.50400001928E-02 0. -1.
    10030    2    1    2    0    0  0.00000000000E+00  0.00000000000E+00 -0.54861459708E+03  0.15467028649E+04  0.14461368455E+04 0.  0.
        4    1    3    3  502    0  0.35962949276E+01  0.40429551001E+03  0.36684541187E+03  0.54593494289E+03  0.12699999809E+01 0.  1.
       -4    1    3    3    0  502 -0.35962949276E+01 -0.40429551001E+03 -0.91546000895E+03  0.10007679220E+04  0.12699999809E+01 0. -1.
</event>
<event>
 5   0  0.2111533E-03  0.1491121E+04  0.7818609E-02  0.8890379E-01
        2   -1    0    0  501    0  0.00000000000E+00  0.00000000000E+00  0.91892586503E+03  0.91892586503E+03  0.25500000920E-02 0. -1.
       -2   -1    0    0    0  501  0.00000000000E+00  0.00000000000E+00 -0.60490280083E+03  0.60490280083E+03  0.25500000920E-02 0.  1.
    10030    2    1    2    0    0  0.00000000000E+00  0.00000000000E+00  0.31402306420E+03  0.15238286659E+04  0.14911214967E+04 0.  0.
        5    1    3    3  502    0 -0.62358193822E+03 -0.33810014614E+01  0.57459766665E+03  0.84796841531E+03  0.46999998093E+01 0. -1.
       -5    1    3    3    0  502  0.62358193822E+03  0.33810014614E+01 -0.26057460245E+03  0.67586025056E+03  0.46999998093E+01 0.  1.
</event>
<event>
 5   0  0.1077140E-03  0.1512770E+04  0.7818609E-02  0.8876005E-01
       -1   -1    0    0    0  501  0.00000000000E+00  0.00000000000E+00  0.16709740357E+03  0.16709740364E+03  0.50400001928E-02 0.  1.
        1   -1    0    0  501    0  0.00000000000E+00  0.00000000000E+00 -0.34238602207E+04  0.34238602207E+04  0.50400001928E-02 0. -1.
    10030    2    1    2    0    0  0.00000000000E+00  0.00000000000E+00 -0.32567628171E+04  0.35909576243E+04  0.15127698479E+04 0.  0.
        1    1    3    3  502    0 -0.61906168302E+03 -0.29280772810E+03 -0.86602107768E+03  0.11040680414E+04  0.50400001928E-02 0. -1.
       -1    1    3    3    0  502  0.61906168302E+03  0.29280772810E+03 -0.23907417394E+04  0.24868895829E+04  0.50400001928E-02 0.  1.
</event>
<event>
 5   0  0.1078018E-03  0.1537245E+04  0.7818609E-02  0.8860056E-01
        1   -1    0    0  501    0  0.00000000000E+00  0.00000000000E+00  0.87621014369E+03  0.87621014371E+03  0.50400001928E-02 0.  1.
       -1   -1    0    0    0  501  0.00000000000E+00  0.00000000000E+00 -0.67424503016E+03  0.67424503018E+03  0.50400001928E-02 0. -1.
    10030    2    1    2    0    0  0.00000000000E+00  0.00000000000E+00  0.20196511353E+03  0.15504551739E+04  0.15372447232E+04 0.  0.
        4    1    3    3  502    0  0.25281433198E+03  0.12848974608E+03 -0.61954728743E+03  0.68137005773E+03  0.12699999809E+01 0. -1.
       -4    1    3    3    0  502 -0.25281433198E+03 -0.12848974608E+03  0.82151240096E+03  0.86908511616E+03  0.12699999809E+01 0.  1.
</event>
<event>
 5   0  0.1078787E-03  0.1533175E+04  0.7818609E-02  0.8862686E-01
        1   -1    0    0  501    0  0.00000000000E+00  0.00000000000E+00  0.43583275025E+03  0.43583275028E+03  0.50400001928E-02 0. -1.
       -1   -1    0    0    0  501  0.00000000000E+00  0.00000000000E+00 -0.13483537800E+04  0.13483537800E+04  0.50400001928E-02 0.  1.
    10030    2    1    2    0    0  0.00000000000E+00  0.00000000000E+00 -0.91252102977E+03  0.17841865303E+04  0.15331754450E+04 0.  0.
        5    1    3    3  502    0 -0.52004683331E+03  0.51333928082E+03 -0.18666726076E+03  0.75420997229E+03  0.46999998093E+01 0. -1.
       -5    1    3    3    0  502  0.52004683331E+03 -0.51333928082E+03 -0.72585376901E+03  0.10299765580E+04  0.46999998093E+01 0.  1.
</event>
<event>
 5   0  0.1993623E-03  0.1403180E+04  0.7818609E-02  0.8951520E-01
       -2   -1    0    0    0  501  0.00000000000E+00  0.00000000000E+00  0.69388550814E+03  0.69388550814E+03  0.25500000920E-02 0.  1.
        2   -1    0    0  501    0  0.00000000000E+00  0.00000000000E+00 -0.70938023405E+03  0.70938023405E+03  0.25500000920E-02 0. -1.
    10030    2    1    2    0    0  0.00000000000E+00  0.00000000000E+00 -0.15494725913E+02  0.14032657422E+04  0.14031801939E+04 0.  0.
        4    1    3    3  502    0  0.78523265765E+01 -0.42999375200E+03  0.54660652547E+03  0.69551174856E+03  0.12699999809E+01 0.  1.
       -4    1    3    3    0  502 -0.78523265765E+01  0.42999375200E+03 -0.56210125139E+03  0.70775399363E+03  0.12699999809E+01 0. -1.
</event>
<event>
 5   0  0.1077140E-03  0.1541253E+04  0.7818609E-02  0.8857474E-01
        1   -1    0    0  501    0  0.00000000000E+00  0.00000000000E+00  0.53157362896E+03  0.53157362899E+03  0.50400001928E-02 0. -1.
       -1   -1    0    0    0  501  0.00000000000E+00  0.00000000000E+00 -0.11171838538E+04  0.11171838538E+04  0.50400001928E-02 0.  1.
    10030    2    1    2    0    0  0.00000000000E+00  0.00000000000E+00 -0.58561022481E+03  0.16487574828E+04  0.15412533541E+04 0.  0.
        1    1    3    3  502    0  0.22380118382E+03  0.73720664753E+03 -0.27412686824E+03  0.81774455116E+03  0.50400001928E-02 0.  1.
       -1    1    3    3    0  502 -0.22380118382E+03 -0.73720664753E+03 -0.31148335657E+03  0.83101293160E+03  0.50400001928E-02 0. -1.
</event>
<event>
 5   0  0.1961098E-03  0.1480126E+04  0.7818609E-02  0.8897777E-01
        2   -1    0    0  501    0  0.00000000000E+00  0.00000000000E+00  0.88014971301E+03  0.88014971302E+03  0.25500000920E-02 0. -1.
       -2   -1    0    0    0  501  0.00000000000E+00  0.00000000000E+00 -0.62227311675E+03  0.62227311676E+03  0.25500000920E-02 0.  1.
    10030    2    1    2    0    0  0.00000000000E+00  0.00000000000E+00  0.25787659626E+03  0.15024228298E+04  0.14801263529E+04 0.  0.
        2    1    3    3  502    0  0.45123519829E+03 -0.22849492392E+03  0.67732686019E+03  0.84533709842E+03  0.25500000920E-02 0. -1.
       -2    1    3    3    0  502 -0.45123519829E+03  0.22849492392E+03 -0.41945026393E+03  0.65708573135E+03  0.25500000920E-02 0.  1.
</event>
<event>
 5   0  0.2111533E-03  0.1411607E+04  0.7818609E-02  0.8945459E-01
        2   -1    0    0  501    0  0.00000000000E+00  0.00000000000E+00  0.10193459782E+04  0.10193459782E+04  0.25500000920E-02 0.  1.
       -2   -1    0    0    0  501  0.00000000000E+00  0.00000000000E+00 -0.48870432131E+03  0.48870432132E+03  0.25500000920E-02 0. -1.
    10030    2    1    2    0    0  0.00000000000E+00  0.00000000000E+00  0.53064165692E+03  0.15080502995E+04  0.14116072888E+04 0.  0.
        5    1    3    3  502    0  0.37913932507E+03 -0.32181141612E+03 -0.26972316358E+03  0.56575780183E+03  0.46999998093E+01 0. -1.
       -5    1    3    3    0  502 -0.37913932507E+03  0.32181141612E+03  0.80036482049E+03  0.94229249771E+03  0.46999998093E+01 0.  1.
</event>
<event>
 5   0  0.1087761E-03  0.1478703E+04  0.7818609E-02  0.8898740E-01
        1   -1    0    0  501    0  0.00000000000E+00  0.00000000000E+00  0.16411806558E+04  0.16411806558E+04  0.50400001928E-02 0.  1.
       -1   -1    0    0    0  501  0.00000000000E+00  0.00000000000E+00 -0.33307748131E+03  0.33307748135E+03  0.50400001928E-02 0. -1.
    10030    2    1    2    0    0  0.00000000000E+00  0.00000000000E+00  0.13081031745E+04  0.19742581372E+04  0.14787025654E+04 0.  0.
        3    1    3    3  502    0 -0.34192094495E+03  0.57257399491E+03  0.22787694431E+03  0.70475444248E+03  0.10100000352E+00 0. -1.
       -3    1    3    3    0  502  0.34192094495E+03 -0.57257399491E+03  0.10802262302E+04  0.12695036947E+04  0.10100000352E+00 0.  1.
</event>
<event>
 5   0  0.1078787E-03  0.1356869E+04  0.7818609E-02  0.8985645E-01
        1   -1    0    0  501    0  0.00000000000E+00  0.00000000000E+00  0.11863118911E+04  0.11863118912E+04  0.50400001928E-02 0. -1.
       -1   -1    0    0    0  501  0.00000000000E+00  0.00000000000E+00 -0.38798683027E+03  0.38798683030E+03  0.50400001928E-02 0.  1.
    10030    2    1    2    0    0  0.00000000000E+00  0.00000000000E+00  0.79832506088E+03  0.15742987215E+04  0.13568690289E+04 0.  0.
        5    1    3    3  502    0  0.43098046295E+03 -0.43649813752E+02  0.10049406745E+04  0.10943387570E+04  0.46999998093E+01 0. -1.
       -5    1    3    3    0  502 -0.43098046295E+03  0.43649813752E+02 -0.20661561367E+03  0.47995996447E+03  0.46999998093E+01 0.  1.
</event>
<event>
 5   0  0.1961098E-03  0.1432655E+04  0.7818609E-02  0.8930515E-01
       -2   -1    0    0    0  501  0.00000000000E+00  0.00000000000E+00  0.89257288543E+03  0.89257288544E+03  0.25500000920E-02 0.  1.
        2   -1    0    0  501    0  0.00000000000E+00  0.00000000000E+00 -0.57488296981E+03  0.57488296981E+03  0.25500000920E-02 0. -1.
    10030    2    1    2    0    0  0.00000000000E+00  0.00000000000E+00  0.31768991563E+03  0.14674558552E+04  0.14326548100E+04 0.  0.
        2    1    3    3  502    0  0.50026671250E+03 -0.19722182234E+03  0.64358665670E+03  0.83866978933E+03  0.25500000920E-02 0.  1.
       -2    1    3    3    0  502 -0.50026671250E+03  0.19722182234E+03 -0.32589674107E+03  0.62878606592E+03  0.25500000920E-02 0. -1.
</event>
<event>
 5   0  0.1078018E-03  0.1507548E+04  0.7818609E-02  0.8879449E-01
       -1   -1    0    0    0  501  0.00000000000E+00  0.00000000000E+00  0.68326030486E+03  0.68326030488E+03  0.50400001928E-02 0. -1.
        1   -1    0    0  501    0  0.00000000000E+00  0.00000000000E+00 -0.83156486531E+03  0.83156486533E+03  0.50400001928E-02 0.  1.
    10030    2    1    2    0    0  0.00000000000E+00  0.00000000000E+00 -0.14830456045E+03  0.15148251702E+04  0.15075480270E+04 0.  0.
        4    1    3    3  502    0 -0.30044136100E+03  0.68951872615E+03 -0.12411720638E+03  0.76230425614E+03  0.12699999809E+01 0.  1.
       -4    1    3    3    0  502  0.30044136100E+03 -0.68951872615E+03 -0.24187354071E+02  0.75252091406E+03  0.12699999809E+01 0. -1.
</event>
<event>
 5   0  0.2150197E-03  0.1506357E+04  0.7818609E-02  0.8880236E-01
        2   -1    0    0  501    0  0.00000000000E+00  0.00000000000E+00  0.16710891742E+04  0.16710891742E+04  0.25500000920E-02 0. -1.
       -2   -1    0    0    0  501  0.00000000000E+00  0.00000000000E+00 -0.33946613429E+03  0.33946613430E+03  0.25500000920E-02 0.  1.
    10030    2    1    2    0    0  0.00000000000E+00  0.00000000000E+00  0.13316230399E+04  0.20105553085E+04  0.15063574370E+04 0.  0.
        3    1    3    3  502    0 -0.35332811266E+02 -0.45022067605E+03  0.14703360305E+04  0.15381271461E+04  0.10100000352E+00 0. -1.
       -3    1    3    3    0  502  0.35332811266E+02  0.45022067605E+03 -0.13871299059E+03  0.47242816243E+03  0.10100000352E+00 0.  1.
</event>
<event>
 5   0  0.2111533E-03  0.1501960E+04  0.7818609E-02  0.8883151E-01
        2   -1    0    0  501    0  0.00000000000E+00  0.00000000000E+00  0.85569089062E+03  0.85569089062E+03  0.25500000920E-02 0.  1.
       -2   -1    0    0    0  501  0.00000000000E+00  0.00000000000E+00 -0.65908240011E+03  0.65908240012E+03  0.25500000920E-02 0. -1.
    10030    2    1    2    0    0  0.00000000000E+00  0.00000000000E+00  0.19660849051E+03  0.15147732907E+04  0.15019597943E+04 0.  0.
        5    1    3    3  502    0 -0.21651402875E+03  0.16353145814E+03  0.80451221396E+03  0.84904820526E+03  0.46999998093E+01 0.  1.
       -5    1    3    3    0  502  0.21651402875E+03 -0.16353145814E+03 -0.60790372346E+03  0.66572508548E+03  0.46999998093E+01 0. -1.
</event>
<event>
 5   0  0.2094566E-03  0.1487483E+04  0.7818609E-02  0.8892819E-01
       -2   -1    0    0    0  501  0.00000000000E+00  0.00000000000E+00  0.42947949015E+03  0.42947949015E+03  0.25500000920E-02 0.  1.
        2   -1    0    0  501    0  0.00000000000E+00  0.00000000000E+00 -0.12879578636E+04  0.12879578636E+04  0.25500000920E-02 0. -1.
    10030    2    1    2    0    0  0.00000000000E+00  0.00000000000E+00 -0.85847837347E+03  0.17174373538E+04  0.14874830911E+04 0.  0.
        1    1    3    3  502    0 -0.30909870253E+03 -0.50282047488E+03 -0.95172409216E+03  0.11198880236E+04  0.50400001928E-02 0. -1.
       -1    1    3    3    0  502  0.30909870253E+03  0.50282047488E+03  0.93245718690E+02  0.59754933013E+03  0.50400001928E-02 0.  1.
</event>
<event>
 5   0  0.1077140E-03  0.1248210E+04  0.7818609E-02  0.9071675E-01
       -1   -1    0    0    0  501  0.00000000000E+00  0.00000000000E+00  0.19323759681E+03  0.19323759687E+03  0.50400001928E-02 0. -1.
        1   -1    0    0  501    0  0.00000000000E+00  0.00000000000E+00 -0.20156882295E+04  0.20156882296E+04  0.50400001928E-02 0.  1.
    10030    2    1    2    0    0  0.00000000000E+00  0.00000000000E+00 -0.18224506327E+04  0.22089258264E+04  0.12482095168E+04 0.  0.
        1    1    3    3  502    0 -0.59439200747E+03  0.18018914746E+03 -0.80304671445E+03  0.10152113145E+04  0.50400001928E-02 0.  1.
       -1    1    3    3    0  502  0.59439200747E+03 -0.18018914746E+03 -0.10194039183E+04  0.11937145120E+04  0.50400001928E-02 0. -1.
</event>
<event>
 5   0  0.2094566E-03  0.1537365E+04  0.7818609E-02  0.8859979E-01
        2   -1    0    0  501    0  0.00000000000E+00  0.00000000000E+00  0.79735072197E+03  0.79735072197E+03  0.25500000920E-02 0. -1.
       -2   -1    0    0    0  501  0.00000000000E+00  0.00000000000E+00 -0.74104500164E+03  0.74104500164E+03  0.25500000920E-02 0.  1.
    10030    2    1    2    0    0  0.00000000000E+00  0.00000000000E+00  0.56305720330E+02  0.15383957236E+04  0.15373649756E+04 0.  0.
        1    1    3    3  502    0  0.15900082646E+03 -0.72139611031E+03  0.24084926016E+03  0.77698261044E+03  0.50400001928E-02 0. -1.
       -1    1    3    3    0  502 -0.15900082646E+03  0.72139611031E+03 -0.18454353983E+03  0.76141311317E+03  0.50400001928E-02 0.  1.
</event>
<event>
 5   0  0.1077140E-03  0.1536143E+04  0.7818609E-02  0.8860767E-01
       -1   -1    0    0    0  501  0.00000000000E+00  0.00000000000E+00  0.44478182111E+03  0.44478182114E+03  0.50400001928E-02 0.  1.
        1   -1    0    0  501    0  0.00000000000E+00  0.00000000000E+00 -0.13263449771E+04  0.13263449771E+04  0.50400001928E-02 0. -1.
    10030    2    1    2    0    0  0.00000000000E+00  0.00000000000E+00 -0.88156315596E+03  0.17711267982E+04  0.15361433974E+04 0.  0.
        1    1    3    3  502    0  0.25203498360E+03  0.72051560169E+03 -0.53908716571E+03  0.93449416130E+03  0.50400001928E-02 0.  1.
       -1    1    3    3    0  502 -0.25203498360E+03 -0.72051560169E+03 -0.34247599025E+03  0.83663263692E+03  0.50400001928E-02 0. -1.
</event>
<event>
 5   0  0.1993623E-03  0.1626607E+04  0.7818609E-02  0.8804367E-01
        2   -1    0    0  501    0  0.00000000000E+00  0.00000000000E+00  0.45222134070E+03  0.45222134071E+03  0.25500000920E-02 0.  1.
       -2   -1    0    0    0  501  0.00000000000E+00  0.00000000000E+00 -0.14626971033E+04  0.14626971034E+04  0.25500000920E-02 0. -1.
    10030    2    1    2    0    0  0.00000000000E+00  0.00000000000E+00 -0.10104757626E+04  0.19149184441E+04  0.16266073222E+04 0.  0.
        4    1    3    3  502    0  0.44522995637E+03 -0.21572048281E+03  0.25469865453E+03  0.55645130809E+03  0.12699999809E+01 0.  1.
       -4    1    3    3    0  502 -0.44522995637E+03  0.21572048281E+03 -0.12651744172E+04  0.13584671360E+04  0.12699999809E+01 0. -1.
</event>
<event>
 5   0  0.1077140E-03  0.1492874E+04  0.7818609E-02  0.8889206E-01
        1   -1    0    0  501    0  0.00000000000E+00  0.00000000000E+00  0.14314366848E+04  0.14314366848E+04  0.50400001928E-02 0. -1.
       -1   -1    0    0    0  501  0.00000000000E+00  0.00000000000E+00 -0.38923701011E+03  0.38923701014E+03  0.50400001928E-02 0.  1.
    10030    2    1    2    0    0  0.00000000000E+00  0.00000000000E+00  0.10421996747E+04  0.18206736950E+04  0.14928739202E+04 0.  0.
        1    1    3    3  502    0  0.16604550242E+03 -0.72681147507E+03  0.47642094170E+03  0.88476151752E+03  0.50400001928E-02 0.  1.
       -1    1    3    3    0  502 -0.16604550242E+03  0.72681147507E+03  0.56577873302E+03  0.93591217747E+03  0.50400001928E-02 0. -1.
</event>
<event>
 5   0  0.2111533E-03  0.1510418E+04  0.7818609E-02  0.8877555E-01
       -2   -1    0    0    0  501  0.00000000000E+00  0.00000000000E+00  0.16241602143E+04  0.16241602143E+04  0.25500000920E-02 0.  1.
        2   -1    0    0  501    0  0.00000000000E+00  0.00000000000E+00 -0.35116016041E+03  0.35116016042E+03  0.25500000920E-02 0. -1.
    10030    2    1    2    0    0  0.00000000000E+00  0.00000000000E+00  0.12730000539E+04  0.19753203747E+04  0.15104176395E+04 0.  0.
        5    1    3    3  502    0  0.67497283971E+03 -0.32331387416E+03  0.50443141518E+03  0.90254824702E+03  0.46999998093E+01 0. -1.
       -5    1    3    3    0  502 -0.67497283971E+03  0.32331387416E+03  0.76856863872E+03  0.10727721277E+04  0.46999998093E+01 0.  1.
</event>
<event>
 5   0  0.7468375E-04  0.1640580E+04  0.7818609E-02  0.8795999E-01
        4   -1    0    0  501    0  0.00000000000E+00  0.00000000000E+00  0.12708795049E+04  0.12708801395E+04  0.12699999809E+01 0. -1.
       -4   -1    0    0    0  501  0.00000000000E+00  0.00000000000E+00 -0.52945508005E+03  0.52945660321E+03  0.12699999809E+01 0.  1.
    10030    2    1    2    0    0  0.00000000000E+00  0.00000000000E+00  0.74142442488E+03  0.18003367427E+04  0.16405798394E+04 0.  0.
        2    1    3    3  502    0  0.63223422693E+03  0.51911462971E+03  0.30418324277E+03  0.87277005085E+03  0.25500000920E-02 0. -1.
       -2    1    3    3    0  502 -0.63223422693E+03 -0.51911462971E+03  0.43724118212E+03  0.92756669185E+03  0.25500000920E-02 0.  1.
</event>
<event>
 5   0  0.1961098E-03  0.1495804E+04  0.7818609E-02  0.8887248E-01
       -2   -1    0    0    0  501  0.00000000000E+00  0.00000000000E+00  0.29482663209E+03  0.29482663210E+03  0.25500000920E-02 0.  1.
        2   -1    0    0  501    0  0.00000000000E+00  0.00000000000E+00 -0.18972424868E+04  0.18972424868E+04  0.25500000920E-02 0. -1.
    10030    2    1    2    0    0  0.00000000000E+00  0.00000000000E+00 -0.16024158547E+04  0.21920691189E+04  0.14958042822E+04 0.  0.
        2    1    3    3  502    0  0.18715949408E+03  0.88490890052E+02  0.25199951527E+03  0.32613351491E+03  0.25500000920E-02 0.  1.
       -2    1    3    3    0  502 -0.18715949408E+03 -0.88490890052E+02 -0.18544153700E+04  0.18659356040E+04  0.25500000920E-02 0. -1.
</event>
<event>
 5   0  0.1961098E-03  0.1325172E+04  0.7818609E-02  0.9009839E-01
        2   -1    0    0  501    0  0.00000000000E+00  0.00000000000E+00  0.10009793214E+04  0.10009793214E+04  0.25500000920E-02 0.  1.
       -2   -1    0    0    0  501  0.00000000000E+00  0.00000000000E+00 -0.43859045172E+03  0.43859045173E+03  0.25500000920E-02 0. -1.
    10030    2    1    2    0    0  0.00000000000E+00  0.00000000000E+00  0.56238886970E+03  0.14395697732E+04  0.13251716459E+04 0.  0.
        2    1    3    3  502    0  0.21129747684E+02  0.66358235147E+02  0.99699252550E+03  0.99942182161E+03  0.25500000920E-02 0.  1.
       -2    1    3    3    0  502 -0.21129747684E+02 -0.66358235147E+02 -0.43460365580E+03  0.44014795154E+03  0.25500000920E-02 0. -1.
</event>
<event>
 5   0  0.2094566E-03  0.1633063E+04  0.7818609E-02  0.8800489E-01
        2   -1    0    0  501    0  0.00000000000E+00  0.00000000000E+00  0.37782481825E+03  0.37782481826E+03  0.25500000920E-02 0.  1.
       -2   -1    0    0    0  501  0.00000000000E+00  0.00000000000E+00 -0.17646381373E+04  0.17646381373E+04  0.25500000920E-02 0. -1.
    10030    2    1    2    0    0  0.00000000000E+00  0.00000000000E+00 -0.13868133190E+04  0.21424629555E+04  0.16330634813E+04 0.  0.
        1    1    3    3  502    0  0.72044288890E+03  0.53870215158E+01 -0.18928259130E+03  0.74491266304E+03  0.50400001928E-02 0.  1.
       -1    1    3    3    0  502 -0.72044288890E+03 -0.53870215158E+01 -0.11975307277E+04  0.13975502925E+04  0.50400001928E-02 0. -1.
</event>
<event>
 5   0  0.1078787E-03  0.1271555E+04  0.7818609E-02  0.9052431E-01
       -1   -1    0    0    0  501  0.00000000000E+00  0.00000000000E+00  0.41865076427E+03  0.41865076430E+03  0.50400001928E-02 0. -1.
        1   -1    0    0  501    0  0.00000000000E+00  0.00000000000E+00 -0.96551437950E+03  0.96551437951E+03  0.50400001928E-02 0.  1.
    10030    2    1    2    0    0  0.00000000000E+00  0.00000000000E+00 -0.54686361522E+03  0.13841651438E+04  0.12715554772E+04 0.  0.
        5    1    3    3  502    0  0.12396405964E+03 -0.61038213699E+03 -0.41222990293E+03  0.74691969053E+03  0.46999998093E+01 0.  1.
       -5    1    3    3    0  502 -0.12396405964E+03  0.61038213699E+03 -0.13463371230E+03  0.63724545328E+03  0.46999998093E+01 0. -1.
</event>
<event>
 5   0  0.1087761E-03  0.1542004E+04  0.7818609E-02  0.8856991E-01
       -1   -1    0    0    0  501  0.00000000000E+00  0.00000000000E+00  0.43170719856E+03  0.43170719858E+03  0.50400001928E-02 0.  1.
        1   -1    0    0  501    0  0.00000000000E+00  0.00000000000E+00 -0.13769616544E+04  0.13769616544E+04  0.50400001928E-02 0. -1.
    10030    2    1    2    0    0  0.00000000000E+00  0.00000000000E+00 -0.94525445586E+03  0.18086688530E+04  0.15420042262E+04 0.  0.
        3    1    3    3  502    0 -0.14287663841E+03  0.18787019691E+03 -0.13335440892E+04  0.13542705759E+04  0.10100000352E+00 0. -1.
       -3    1    3    3    0  502  0.14287663841E+03 -0.18787019691E+03  0.38828963334E+03  0.45439827712E+03  0.10100000352E+00 0.  1.
</event>
<event>
 5   0  0.2150197E-03  0.1491103E+04  0.7818609E-02  0.8890391E-01
        2   -1    0    0  501    0  0.00000000000E+00  0.00000000000E+00  0.17453550256E+04  0.17453550256E+04  0.25500000920E-02 0. -1.
       -2   -1    0    0    0  501  0.00000000000E+00  0.00000000000E+00 -0.31847222559E+03  0.31847222560E+03  0.25500000920E-02 0.  1.
    10030    2    1    2    0    0  0.00000000000E+00  0.00000000000E+00  0.14268828000E+04  0.20638272512E+04  0.14911030809E+04 0.  0.
        3    1    3    3  502    0  0.50468039498E+03 -0.44251053679E+03  0.26424104090E+03  0.72134680574E+03  0.10100000352E+00 0.  1.
       -3    1    3    3    0  502 -0.50468039498E+03  0.44251053679E+03  0.11626417591E+04  0.13424804455E+04  0.10100000352E+00 0. -1.
</event>
<event>
 5   0  0.1077140E-03  0.1384697E+04  0.7818609E-02  0.8964971E-01
        1   -1    0    0  501    0  0.00000000000E+00  0.00000000000E+00  0.52348499086E+03  0.52348499088E+03  0.50400001928E-02 0. -1.
       -1   -1    0    0    0  501  0.00000000000E+00  0.00000000000E+00 -0.91568330400E+03  0.91568330401E+03  0.50400001928E-02 0.  1.
    10030    2    1    2    0    0  0.00000000000E+00  0.00000000000E+00 -0.39219831314E+03  0.14391682949E+04  0.13846970297E+04 0.  0.
        1    1    3    3  502    0 -0.56002447145E+03  0.32748397585E+03 -0.44742412428E+03  0.78807455870E+03  0.50400001928E-02 0.  1.
       -1    1    3    3    0  502  0.56002447145E+03 -0.32748397585E+03  0.55225811144E+02  0.65109373619E+03  0.50400001928E-02 0. -1.
</event>
<event>
 5   0  0.1961098E-03  0.1534390E+04  0.7818609E-02  0.8861900E-01
        2   -1    0    0  501    0  0.00000000000E+00  0.00000000000E+00  0.13151280512E+04  0.13151280512E+04  0.25500000920E-02 0. -1.
       -2   -1    0    0    0  501  0.00000000000E+00  0.00000000000E+00 -0.44755211423E+03  0.44755211423E+03  0.25500000920E-02 0.  1.
    10030    2    1    2    0    0  0.00000000000E+00  0.00000000000E+00  0.86757593699E+03  0.17626801655E+04  0.15343902239E+04 0.  0.
        2    1    3    3  502    0 -0.20143242916E+03  0.33114769863E+01  0.12841990396E+04  0.12999050591E+04  0.25500000920E-02 0. -1.
       -2    1    3    3    0  502  0.20143242916E+03 -0.33114769863E+01 -0.41662310262E+03  0.46277510633E+03  0.25500000920E-02 0.  1.
</event>
<event>
 5   0  0.1078018E-03  0.1508749E+04  0.7818609E-02  0.8878656E-01
       -1   -1    0    0    0  501  0.00000000000E+00  0.00000000000E+00  0.75951362725E+03  0.75951362726E+03  0.50400001928E-02 0. -1.
        1   -1    0    0  501    0  0.00000000000E+00  0.00000000000E+00 -0.74926974827E+03  0.74926974829E+03  0.50400001928E-02 0.  1.
    10030    2    1    2    0    0  0.00000000000E+00  0.00000000000E+00  0.10243878973E+02  0.15087833756E+04  0.15087485998E+04 0.  0.
        4    1    3    3  502    0  0.64532508902E+03 -0.15193111563E+03  0.36506278080E+03  0.75683550474E+03  0.12699999809E+01 0.  1.
       -4    1    3    3    0  502 -0.64532508902E+03  0.15193111563E+03 -0.35481890182E+03  0.75194787081E+03  0.12699999809E+01 0. -1.
</event>
<event>
 5   0  0.1077140E-03  0.1492117E+04  0.7818609E-02  0.8889712E-01
       -1   -1    0    0    0  501  0.00000000000E+00  0.00000000000E+00  0.66521851595E+03  0.66521851596E+03  0.50400001928E-02 0.  1.
        1   -1    0    0  501    0  0.00000000000E+00  0.00000000000E+00 -0.83672276016E+03  0.83672276018E+03  0.50400001928E-02 0. -1.
    10030    2    1    2    0    0  0.00000000000E+00  0.00000000000E+00 -0.17150424422E+03  0.15019412761E+04  0.14921172512E+04 0.  0.
        1    1    3    3  502    0 -0.54673134525E+00 -0.68986973739E+03 -0.37166966501E+03  0.78361909969E+03  0.50400001928E-02 0.  1.
       -1    1    3    3    0  502  0.54673134525E+00  0.68986973739E+03  0.20016542079E+03  0.71832217646E+03  0.50400001928E-02 0. -1.
</event>
<event>
 5   0  0.1069697E-03  0.1502294E+04  0.7818609E-02  0.8882929E-01
        1   -1    0    0  501    0  0.00000000000E+00  0.00000000000E+00  0.12596348040E+04  0.12596348040E+04  0.50400001928E-02 0.  1.
       -1   -1    0    0    0  501  0.00000000000E+00  0.00000000000E+00 -0.44792479118E+03  0.44792479121E+03  0.50400001928E-02 0. -1.
    10030    2    1    2    0    0  0.00000000000E+00  0.00000000000E+00  0.81171001278E+03  0.17075595952E+04  0.15022937883E+04 0.  0.
        2    1    3    3  502    0  0.35609057244E+03  0.33887012974E+03 -0.23971780891E+03  0.54689860900E+03  0.25500000920E-02 0. -1.
       -2    1    3    3    0  502 -0.35609057244E+03 -0.33887012974E+03  0.10514278217E+04  0.11606609862E+04  0.25500000920E-02 0.  1.
</event>
<event>
 5   0  0.1078787E-03  0.1503621E+04  0.7818609E-02  0.8882048E-01
        1   -1    0    0  501    0  0.00000000000E+00  0.00000000000E+00  0.44613737967E+03  0.44613737969E+03  0.50400001928E-02 0. -1.
       -1   -1    0    0    0  501  0.00000000000E+00  0.00000000000E+00 -0.12669177029E+04  0.12669177029E+04  0.50400001928E-02 0.  1.
    10030    2    1    2    0    0  0.00000000000E+00  0.00000000000E+00 -0.82078032325E+03  0.17130550826E+04  0.15036214208E+04 0.  0.
        5    1    3    3  502    0 -0.15336119989E+02  0.35862531027E+03 -0.11629660262E+04  0.12171110787E+04  0.46999998093E+01 0.  1.
       -5    1    3    3    0  502  0.15336119989E+02 -0.35862531027E+03  0.34218570295E+03  0.49594400394E+03  0.46999998093E+01 0. -1.
</event>
<event>
 5   0  0.1993623E-03  0.1510750E+04  0.7818609E-02  0.8877336E-01
        2   -1    0    0  501    0  0.00000000000E+00  0.00000000000E+00  0.12922268731E+04  0.12922268731E+04  0.25500000920E-02 0.  1.
       -2   -1    0    0    0  501  0.00000000000E+00  0.00000000000E+00 -0.44155668957E+03  0.44155668958E+03  0.25500000920E-02 0. -1.
    10030    2    1    2    0    0  0.00000000000E+00  0.00000000000E+00  0.85067018352E+03  0.17337835627E+04  0.15107500392E+04 0.  0.
        4    1    3    3  502    0  0.14521755404E+03  0.69512318154E+03  0.12982193510E+03  0.72190007844E+03  0.12699999809E+01 0. -1.
       -4    1    3    3    0  502 -0.14521755404E+03 -0.69512318154E+03  0.72084824842E+03  0.10118834842E+04  0.12699999809E+01 0.  1.
</event>
<event>
 5   0  0.1993623E-03  0.1481290E+04  0.7818609E-02  0.8896991E-01
       -2   -1    0    0    0  501  0.00000000000E+00  0.00000000000E+00  0.34032677260E+03  0.34032677261E+03  0.25500000920E-02 0. -1.
        2   -1    0    0  501    0  0.00000000000E+00  0.00000000000E+00 -0.16118478380E+04  0.16118478380E+04  0.25500000920E-02 0.  1.
    10030    2    1    2    0    0  0.00000000000E+00  0.00000000000E+00 -0.12715210654E+04  0.19521746106E+04  0.14812899414E+04 0.  0.
        4    1    3    3  502    0  0.73266300022E+03 -0.73528685870E+02 -0.74079399577E+03  0.10444993521E+04  0.12699999809E+01 0. -1.
       -4    1    3    3    0  502 -0.73266300022E+03  0.73528685870E+02 -0.53072706967E+03  0.90767525852E+03  0.12699999809E+01 0.  1.
</event>
<event>
 5   0  0.1069697E-03  0.1416136E+04  0.7818609E-02  0.8942221E-01
       -1   -1    0    0    0  501  0.00000000000E+00  0.00000000000E+00  0.36698931106E+03  0.36698931109E+03  0.50400001928E-02 0.  1.
        1   -1    0    0  501    0  0.00000000000E+00  0.00000000000E+00 -0.13661440043E+04  0.13661440043E+04  0.50400001928E-02 0. -1.
    10030    2    1    2    0    0  0.00000000000E+00  0.00000000000E+00 -0.99915469326E+03  0.17331333154E+04  0.14161359356E+04 0.  0.
        2    1    3    3  502    0 -0.57125816058E+03  0.15543721652E+03 -0.24220988019E+02  0.59252280174E+03  0.25500000920E-02 0. -1.
       -2    1    3    3    0  502  0.57125816058E+03 -0.15543721652E+03 -0.97493370524E+03  0.11406105137E+04  0.25500000920E-02 0.  1.
</event>
<event>
 5   0  0.1993623E-03  0.1518686E+04  0.7818609E-02  0.8872121E-01
        2   -1    0    0  501    0  0.00000000000E+00  0.00000000000E+00  0.14287278842E+04  0.14287278842E+04  0.25500000920E-02 0. -1.
       -2   -1    0    0    0  501  0.00000000000E+00  0.00000000000E+00 -0.40357709111E+03  0.40357709112E+03  0.25500000920E-02 0.  1.
    10030    2    1    2    0    0  0.00000000000E+00  0.00000000000E+00  0.10251507931E+04  0.18323049753E+04  0.15186860683E+04 0.  0.
        4    1    3    3  502    0  0.22117820687E+03  0.24328484521E+03  0.13383875420E+04  0.13781836382E+04  0.12699999809E+01 0. -1.
       -4    1    3    3    0  502 -0.22117820687E+03 -0.24328484521E+03 -0.31323674889E+03  0.45412133715E+03  0.12699999809E+01 0.  1.
</event>
<event>
 5   0  0.2094566E-03  0.1432803E+04  0.7818609E-02  0.8930410E-01
        2   -1    0    0  501    0  0.00000000000E+00  0.00000000000E+00  0.58951412177E+03  0.58951412178E+03  0.25500000920E-02 0. -1.
       -2   -1    0    0    0  501  0.00000000000E+00  0.00000000000E+00 -0.87060036331E+03  0.87060036332E+03  0.25500000920E-02 0.  1.
    10030    2    1    2    0    0  0.00000000000E+00  0.00000000000E+00 -0.28108624154E+03  0.14601144851E+04  0.14328031387E+04 0.  0.
        1    1    3    3  502    0 -0.45286641802E+03 -0.51100016809E+03  0.80435947447E+02  0.68751662236E+03  0.50400001928E-02 0. -1.
       -1    1    3    3    0  502  0.45286641802E+03  0.51100016809E+03 -0.36152218899E+03  0.77259786274E+03  0.50400001928E-02 0.  1.
</event>
<event>
 5   0  0.1993623E-03  0.1496798E+04  0.7818609E-02  0.8886585E-01
       -2   -1    0    0    0  501  0.00000000000E+00  0.00000000000E+00  0.70545666011E+03  0.70545666011E+03  0.25500000920E-02 0. -1.
        2   -1    0    0  501    0  0.00000000000E+00  0.00000000000E+00 -0.79395528333E+03  0.79395528334E+03  0.25500000920E-02 0.  1.
    10030    2    1    2    0    0  0.00000000000E+00  0.00000000000E+00 -0.88498623227E+02  0.14994119434E+04  0.14967979723E+04 0.  0.
        4    1    3    3  502    0 -0.29432893462E+03 -0.67581332187E+03  0.85384030462E+02  0.74205472395E+03  0.12699999809E+01 0. -1.
       -4    1    3    3    0  502  0.29432893462E+03  0.67581332187E+03 -0.17388265369E+03  0.75735721950E+03  0.12699999809E+01 0.  1.
</event>
<event>
 5   0  0.1078787E-03  0.1552873E+04  0.7818609E-02  0.8850035E-01
        1   -1    0    0  501    0  0.00000000000E+00  0.00000000000E+00  0.69841614750E+03  0.69841614752E+03  0.50400001928E-02 0.  1.
       -1   -1    0    0    0  501  0.00000000000E+00  0.00000000000E+00 -0.86317276874E+03  0.86317276876E+03  0.50400001928E-02 0. -1.
    10030    2    1    2    0    0  0.00000000000E+00  0.00000000000E+00 -0.16475662124E+03  0.15615889163E+04  0.15528732077E+04 0.  0.
        5    1    3    3  502    0 -0.71558347799E+03 -0.24248142347E+03 -0.26219679561E+03  0.79976634358E+03  0.46999998093E+01 0. -1.
       -5    1    3    3    0  502  0.71558347799E+03  0.24248142347E+03  0.97440174368E+02  0.76182257270E+03  0.46999998093E+01 0.  1.
</event>
<event>
 5   0  0.2111533E-03  0.1089220E+04  0.7818609E-02  0.9215763E-01
       -2   -1    0    0    0  501  0.00000000000E+00  0.00000000000E+00  0.34453895597E+03  0.34453895598E+03  0.25500000920E-02 0.  1.
        2   -1    0    0  501    0  0.00000000000E+00  0.00000000000E+00 -0.86086038051E+03  0.86086038051E+03  0.25500000920E-02 0. -1.
    10030    2    1    2    0    0  0.00000000000E+00  0.00000000000E+00 -0.51632142454E+03  0.12053993365E+04  0.10892197882E+04 0.  0.
        5    1    3    3  502    0 -0.10333264868E+03  0.18565744014E+03  0.29675278766E+03  0.36500770998E+03  0.46999998093E+01 0.  1.
       -5    1    3    3    0  502  0.10333264868E+03 -0.18565744014E+03 -0.81307421221E+03  0.84039162651E+03  0.46999998093E+01 0. -1.
</event>
<event>
 5   0  0.1078787E-03  0.1487245E+04  0.7818609E-02  0.8892980E-01
       -1   -1    0    0    0  501  0.00000000000E+00  0.00000000000E+00  0.83918388317E+03  0.83918388318E+03  0.50400001928E-02 0.  1.
        1   -1    0    0  501    0  0.00000000000E+00  0.00000000000E+00 -0.65894287756E+03  0.65894287758E+03  0.50400001928E-02 0. -1.
    10030    2    1    2    0    0  0.00000000000E+00  0.00000000000E+00  0.18024100560E+03  0.14981267608E+04  0.14872447583E+04 0.  0.
        5    1    3    3  502    0  0.19404617126E+03  0.62018756853E+03  0.45424238170E+03  0.79287121783E+03  0.46999998093E+01 0.  1.
       -5    1    3    3    0  502 -0.19404617126E+03 -0.62018756853E+03 -0.27400137610E+03  0.70525554293E+03  0.46999998093E+01 0. -1.
</event>
<event>
 5   0  0.1087761E-03  0.1499526E+04  0.7818609E-02  0.8884768E-01
       -1   -1    0    0    0  501  0.00000000000E+00  0.00000000000E+00  0.47647075932E+03  0.47647075935E+03  0.50400001928E-02 0.  1.
        1   -1    0    0  501    0  0.00000000000E+00  0.00000000000E+00 -0.11798085795E+04  0.11798085795E+04  0.50400001928E-02 0. -1.
    10030    2    1    2    0    0  0.00000000000E+00  0.00000000000E+00 -0.70333782013E+03  0.16562793388E+04  0.14995256447E+04 0.  0.
        3    1    3    3  502    0 -0.58218099638E+03  0.39925180931E+03 -0.63067633114E+03  0.94661996844E+03  0.10100000352E+00 0. -1.
       -3    1    3    3    0  502  0.58218099638E+03 -0.39925180931E+03 -0.72661488990E+02  0.70965937038E+03  0.10100000352E+00 0.  1.
</event>
<event>
 5   0  0.2111533E-03  0.1532974E+04  0.7818609E-02  0.8862817E-01
        2   -1    0    0  501    0  0.00000000000E+00  0.00000000000E+00  0.80570095589E+03  0.80570095589E+03  0.25500000920E-02 0.  1.
       -2   -1    0    0    0  501  0.00000000000E+00  0.00000000000E+00 -0.72918199174E+03  0.72918199175E+03  0.25500000920E-02 0. -1.
    10030    2    1    2    0    0  0.00000000000E+00  0.00000000000E+00  0.76518964142E+02  0.15348829476E+04  0.15329744000E+04 0.  0.
        5    1    3    3  502    0  0.33540268690E+03 -0.26973377717E+02  0.72778079896E+03  0.80181637974E+03  0.46999998093E+01 0.  1.
       -5    1    3    3    0  502 -0.33540268690E+03  0.26973377717E+02 -0.65126183482E+03  0.73306656790E+03  0.46999998093E+01 0. -1.
</event>
<event>
 5   0  0.1077140E-03  0.1472807E+04  0.7818609E-02  0.8902740E-01
        1   -1    0    0  501    0  0.00000000000E+00  0.00000000000E+00  0.15930208553E+04  0.15930208553E+04  0.50400001928E-02 0.  1.
       -1   -1    0    0    0  501  0.00000000000E+00  0.00000000000E+00 -0.34041628754E+03  0.34041628758E+03  0.50400001928E-02 0. -1.
    10030    2    1    2    0    0  0.00000000000E+00  0.00000000000E+00  0.12526045678E+04  0.19334371429E+04  0.14728071776E+04 0.  0.
        1    1    3    3  502    0  0.29664868292E+03 -0.43097160439E+03 -0.53996033144E+02  0.52597769581E+03  0.50400001928E-02 0. -1.
       -1    1    3    3    0  502 -0.29664868292E+03  0.43097160439E+03  0.13066006009E+04  0.14074594471E+04  0.50400001928E-02 0.  1.
</event>
<event>
 5   0  0.1078018E-03  0.1087416E+04  0.7818609E-02  0.9217544E-01
        1   -1    0    0  501    0  0.00000000000E+00  0.00000000000E+00  0.17328320031E+04  0.17328320031E+04  0.50400001928E-02 0.  1.
       -1   -1    0    0    0  501  0.00000000000E+00  0.00000000000E+00 -0.17059848882E+03  0.17059848889E+03  0.50400001928E-02 0. -1.
    10030    2    1    2    0    0  0.00000000000E+00  0.00000000000E+00  0.15622335142E+04  0.19034304920E+04  0.10874162426E+04 0.  0.
        4    1    3    3  502    0  0.42026045100E+03  0.72304639747E+01  0.17742432802E+03  0.45623692459E+03  0.12699999809E+01 0. -1.
       -4    1    3    3    0  502 -0.42026045100E+03 -0.72304639747E+01  0.13848091862E+04  0.14471935674E+04  0.12699999809E+01 0.  1.
</event>
<event>
 5   0  0.1078787E-03  0.1446404E+04  0.7818609E-02  0.8920898E-01
        1   -1    0    0  501    0  0.00000000000E+00  0.00000000000E+00  0.87494507903E+03  0.87494507904E+03  0.50400001928E-02 0. -1.
       -1   -1    0    0    0  501  0.00000000000E+00  0.00000000000E+00 -0.59777558238E+03  0.59777558240E+03  0.50400001928E-02 0.  1.
    10030    2    1    2    0    0  0.00000000000E+00  0.00000000000E+00  0.27716949665E+03  0.14727206614E+04  0.14464035456E+04 0.  0.
        5    1    3    3  502    0  0.53191261424E+02  0.17359551983E+03  0.85134587986E+03  0.87050365419E+03  0.46999998093E+01 0. -1.
       -5    1    3    3    0  502 -0.53191261424E+02 -0.17359551983E+03 -0.57417638321E+03  0.60221700726E+03  0.46999998093E+01 0.  1.
</event>
<event>
 5   0  0.1077140E-03  0.1469790E+04  0.7818609E-02  0.8904794E-01
       -1   -1    0    0    0  501  0.00000000000E+00  0.00000000000E+00  0.28224147659E+03  0.28224147664E+03  0.50400001928E-02 0. -1.
        1   -1    0    0  501    0  0.00000000000E+00  0.00000000000E+00 -0.19135060124E+04  0.19135060124E+04  0.50400001928E-02 0.  1.
    10030    2    1    2    0    0  0.00000000000E+00  0.00000000000E+00 -0.16312645358E+04  0.21957474891E+04  0.14697901381E+04 0.  0.
        1    1    3    3  502    0 -0.50521170367E+03  0.28412540389E+03 -0.14905541629E+04  0.15992866608E+04  0.50400001928E-02 0. -1.
       -1    1    3    3    0  502  0.50521170367E+03 -0.28412540389E+03 -0.14071037293E+03  0.59646082833E+03  0.50400001928E-02 0.  1.
</event>
<event>
 5   0  0.1077140E-03  0.1555071E+04  0.7818609E-02  0.8848635E-01
       -1   -1    0    0    0  501  0.00000000000E+00  0.00000000000E+00  0.52669430628E+03  0.52669430630E+03  0.50400001928E-02 0. -1.
        1   -1    0    0  501    0  0.00000000000E+00  0.00000000000E+00 -0.11478409954E+04  0.11478409954E+04  0.50400001928E-02 0.  1.
    10030    2    1    2    0    0  0.00000000000E+00  0.00000000000E+00 -0.62114668910E+03  0.16745353017E+04  0.15550708239E+04 0.  0.
        1    1    3    3  502    0  0.39045197287E+03  0.62717834037E+03 -0.57159100157E+03  0.93408869325E+03  0.50400001928E-02 0.  1.
       -1    1    3    3    0  502 -0.39045197287E+03 -0.62717834037E+03 -0.49555687528E+02  0.74044660844E+03  0.50400001928E-02 0. -1.
</event>
<event>
 5   0  0.1993623E-03  0.1480356E+04  0.7818609E-02  0.8897622E-01
       -2   -1    0    0    0  501  0.00000000000E+00  0.00000000000E+00  0.55836916729E+03  0.55836916730E+03  0.25500000920E-02 0.  1.
        2   -1    0    0  501    0  0.00000000000E+00  0.00000000000E+00 -0.98118469686E+03  0.98118469686E+03  0.25500000920E-02 0. -1.
    10030    2    1    2    0    0  0.00000000000E+00  0.00000000000E+00 -0.42281552957E+03  0.15395538642E+04  0.14803557439E+04 0.  0.
        4    1    3    3  502    0  0.36165502816E+02 -0.45623080072E+03 -0.81639830057E+03  0.93592856843E+03  0.12699999809E+01 0. -1.
       -4    1    3    3    0  502 -0.36165502816E+02  0.45623080072E+03  0.39358277101E+03  0.60362529574E+03  0.12699999809E+01 0.  1.
</event>
<event>
 5   0  0.1078018E-03  0.1480586E+04  0.7818609E-02  0.8897466E-01
        1   -1    0    0  501    0  0.00000000000E+00  0.00000000000E+00  0.10186337264E+04  0.10186337264E+04  0.50400001928E-02 0.  1.
       -1   -1    0    0    0  501  0.00000000000E+00  0.00000000000E+00 -0.53800898017E+03  0.53800898019E+03  0.50400001928E-02 0. -1.
    10030    2    1    2    0    0  0.00000000000E+00  0.00000000000E+00  0.48062474624E+03  0.15566427066E+04  0.14805864951E+04 0.  0.
        4    1    3    3  502    0 -0.41831548677E+03 -0.35863579709E+03 -0.27947768381E+03  0.61783239643E+03  0.12699999809E+01 0. -1.
       -4    1    3    3    0  502  0.41831548677E+03  0.35863579709E+03  0.76010243005E+03  0.93881031018E+03  0.12699999809E+01 0.  1.
</event>
<event>
 5   0  0.1077140E-03  0.1472403E+04  0.7818609E-02  0.8903015E-01
       -1   -1    0    0    0  501  0.00000000000E+00  0.00000000000E+00  0.50854167618E+03  0.50854167620E+03  0.50400001928E-02 0.  1.
        1   -1    0    0  501    0  0.00000000000E+00  0.00000000000E+00 -0.10657786146E+04  0.10657786146E+04  0.50400001928E-02 0. -1.
    10030    2    1    2    0    0  0.00000000000E+00  0.00000000000E+00 -0.55723693842E+03  0.15743202908E+04  0.14724032642E+04 0.  0.
        1    1    3    3  502    0  0.67817870200E+03  0.28647213061E+03 -0.27910803424E+03  0.78733342890E+03  0.50400001928E-02 0. -1.
       -1    1    3    3    0  502 -0.67817870200E+03 -0.28647213061E+03 -0.27812890418E+03  0.78698686191E+03  0.50400001928E-02 0.  1.
</event>
<event>
 5   0  0.1087761E-03  0.1007766E+04  0.7818609E-02  0.9300067E-01
       -1   -1    0    0    0  501  0.00000000000E+00  0.00000000000E+00  0.50568470426E+03  0.50568470429E+03  0.50400001928E-02 0. -1.
        1   -1    0    0  501    0  0.00000000000E+00  0.00000000000E+00 -0.50208815609E+03  0.50208815612E+03  0.50400001928E-02 0.  1.
    10030    2    1    2    0    0  0.00000000000E+00  0.00000000000E+00  0.35965481714E+01  0.10077728604E+04  0.10077664427E+04 0.  0.
        3    1    3    3  502    0 -0.32640290036E+03  0.38302818209E+03 -0.23674400935E+02  0.50379552311E+03  0.10100000352E+00 0.  1.
       -3    1    3    3    0  502  0.32640290036E+03 -0.38302818209E+03  0.27270949106E+02  0.50397733730E+03  0.10100000352E+00 0. -1.
</event>
<event>
 5   0  0.1078787E-03  0.1440332E+04  0.7818609E-02  0.8925131E-01
        1   -1    0    0  501    0  0.00000000000E+00  0.00000000000E+00  0.54687374060E+03  0.54687374063E+03  0.50400001928E-02 0. -1.
       -1   -1    0    0    0  501  0.00000000000E+00  0.00000000000E+00 -0.94837031128E+03  0.94837031129E+03  0.50400001928E-02 0.  1.
    10030    2    1    2    0    0  0.00000000000E+00  0.00000000000E+00 -0.40149657068E+03  0.14952440519E+04  0.14403316557E+04 0.  0.
        5    1    3    3  502    0  0.34279977501E+03 -0.54504055702E+03 -0.53559115596E+03  0.83753260885E+03  0.46999998093E+01 0.  1.
       -5    1    3    3    0  502 -0.34279977501E+03  0.54504055702E+03  0.13409458528E+03  0.65771144307E+03  0.46999998093E+01 0. -1.
</event>
<event>
 5   0  0.1993623E-03  0.1514413E+04  0.7818609E-02  0.8874924E-01
       -2   -1    0    0    0  501  0.00000000000E+00  0.00000000000E+00  0.60221258261E+03  0.60221258262E+03  0.25500000920E-02 0.  1.
        2   -1    0    0  501    0  0.00000000000E+00  0.00000000000E+00 -0.95209238532E+03  0.95209238532E+03  0.25500000920E-02 0. -1.
    10030    2    1    2    0    0  0.00000000000E+00  0.00000000000E+00 -0.34987980271E+03  0.15543049679E+04  0.15144134366E+04 0.  0.
        4    1    3    3  502    0 -0.60768972377E+02 -0.40078361830E+01  0.59969380849E+03  0.60277956800E+03  0.12699999809E+01 0.  1.
       -4    1    3    3    0  502  0.60768972377E+02  0.40078361830E+01 -0.94957361120E+03  0.95152539994E+03  0.12699999809E+01 0. -1.
</event>
<event>
 5   0  0.1069697E-03  0.1315181E+04  0.7818609E-02  0.9017612E-01
        1   -1    0    0  501    0  0.00000000000E+00  0.00000000000E+00  0.45194690197E+03  0.45194690199E+03  0.50400001928E-02 0. -1.
       -1   -1    0    0    0  501  0.00000000000E+00  0.00000000000E+00 -0.95680531232E+03  0.95680531233E+03  0.50400001928E-02 0.  1.
    10030    2    1    2    0    0  0.00000000000E+00  0.00000000000E+00 -0.50485841036E+03  0.14087522143E+04  0.13151808951E+04 0.  0.
        2    1    3    3  502    0 -0.39610890433E+02 -0.53527926672E+03 -0.65936965173E+03  0.85021247560E+03  0.25500000920E-02 0.  1.
       -2    1    3    3    0  502  0.39610890433E+02  0.53527926672E+03  0.15451124138E+03  0.55853973873E+03  0.25500000920E-02 0. -1.
</event>
<event>
 5   0  0.1078018E-03  0.1337235E+04  0.7818609E-02  0.9000548E-01
       -1   -1    0    0    0  501  0.00000000000E+00  0.00000000000E+00  0.66691601001E+03  0.66691601003E+03  0.50400001928E-02 0.  1.
        1   -1    0    0  501    0  0.00000000000E+00  0.00000000000E+00 -0.67032309956E+03  0.67032309958E+03  0.50400001928E-02 0. -1.
    10030    2    1    2    0    0  0.00000000000E+00  0.00000000000E+00 -0.34070895556E+01  0.13372391096E+04  0.13372347692E+04 0.  0.
        4    1    3    3  502    0  0.29585442068E+03 -0.37542372707E+02  0.59671992636E+03  0.66709485937E+03  0.12699999809E+01 0.  1.
       -4    1    3    3    0  502 -0.29585442068E+03  0.37542372707E+02 -0.60012701592E+03  0.67014425023E+03  0.12699999809E+01 0. -1.
</event>
<event>
 5   0  0.1993623E-03  0.1494575E+04  0.7818609E-02  0.8888068E-01
        2   -1    0    0  501    0  0.00000000000E+00  0.00000000000E+00  0.82062843069E+03  0.82062843070E+03  0.25500000920E-02 0. -1.
       -2   -1    0    0    0  501  0.00000000000E+00  0.00000000000E+00 -0.68050130567E+03  0.68050130567E+03  0.25500000920E-02 0.  1.
    10030    2    1    2    0    0  0.00000000000E+00  0.00000000000E+00  0.14012712502E+03  0.15011297364E+04  0.14945751484E+04 0.  0.
        4    1    3    3  502    0 -0.20585956517E+03  0.36681364904E+03 -0.55030752845E+03  0.69265460546E+03  0.12699999809E+01 0.  1.
       -4    1    3    3    0  502  0.20585956517E+03 -0.36681364904E+03  0.69043465347E+03  0.80847513091E+03  0.12699999809E+01 0. -1.
</event>
<event>
 5   0  0.2111533E-03  0.1494492E+04  0.7818609E-02  0.8888124E-01
        2   -1    0    0  501    0  0.00000000000E+00  0.00000000000E+00  0.13119460432E+04  0.13119460432E+04  0.25500000920E-02 0. -1.
       -2   -1    0    0    0  501  0.00000000000E+00  0.00000000000E+00 -0.42560913805E+03  0.42560913806E+03  0.25500000920E-02 0.  1.
    10030    2    1    2    0    0  0.00000000000E+00  0.00000000000E+00  0.88633690518E+03  0.17375551813E+04  0.14944915184E+04 0.  0.
        5    1    3    3  502    0 -0.28329387226E+03  0.19817871971E+03 -0.32700810107E+03  0.47590609491E+03  0.46999998093E+01 0.  1.
       -5    1    3    3    0  502  0.28329387226E+03 -0.19817871971E+03  0.12133450062E+04  0.12616490864E+04  0.46999998093E+01 0. -1.
</event>
<event>
 5   0  0.1078018E-03  0.1341776E+04  0.7818609E-02  0.8997077E-01
       -1   -1    0    0    0  501  0.00000000000E+00  0.00000000000E+00  0.62612212313E+03  0.62612212315E+03  0.50400001928E-02 0. -1.
        1   -1    0    0  501    0  0.00000000000E+00  0.00000000000E+00 -0.71885473417E+03  0.71885473419E+03  0.50400001928E-02 0.  1.
    10030    2    1    2    0    0  0.00000000000E+00  0.00000000000E+00 -0.92732611048E+02  0.13449768573E+04  0.13417762144E+04 0.  0.
        4    1    3    3  502    0  0.25729172417E+03 -0.89277525372E+02 -0.66095176877E+03  0.71486247727E+03  0.12699999809E+01 0.  1.
       -4    1    3    3    0  502 -0.25729172417E+03  0.89277525372E+02  0.56821915773E+03  0.63011438007E+03  0.12699999809E+01 0. -1.
</event>
<event>
 5   0  0.1993623E-03  0.1490388E+04  0.7818609E-02  0.8890870E-01
       -2   -1    0    0    0  501  0.00000000000E+00  0.00000000000E+00  0.34903613384E+03  0.34903613384E+03  0.25500000920E-02 0. -1.
        2   -1    0    0  501    0  0.00000000000E+00  0.00000000000E+00 -0.15909927348E+04  0.15909927348E+04  0.25500000920E-02 0.  1.
    10030    2    1    2    0    0  0.00000000000E+00  0.00000000000E+00 -0.12419566009E+04  0.19400288686E+04  0.14903878061E+04 0.  0.
        4    1    3    3  502    0 -0.12709078808E+03 -0.67965512669E+02  0.33072023036E+03  0.36076150432E+03  0.12699999809E+01 0. -1.
       -4    1    3    3    0  502  0.12709078808E+03  0.67965512669E+02 -0.15726768313E+04  0.15792673643E+04  0.12699999809E+01 0.  1.
</event>
<event>
 5   0  0.2150197E-03  0.1609518E+04  0.7818609E-02  0.8814722E-01
       -2   -1    0    0    0  501  0.00000000000E+00  0.00000000000E+00  0.82588361610E+03  0.82588361610E+03  0.25500000920E-02 0.  1.
        2   -1    0    0  501    0  0.00000000000E+00  0.00000000000E+00 -0.78417442469E+03  0.78417442469E+03  0.25500000920E-02 0. -1.
    10030    2    1    2    0    0  0.00000000000E+00  0.00000000000E+00  0.41709191412E+02  0.16100580408E+04  0.16095177036E+04 0.  0.
        3    1    3    3  502    0  0.74399095843E+01 -0.73799921035E+03 -0.30009359327E+03  0.79671473041E+03  0.10100000352E+00 0. -1.
       -3    1    3    3    0  502 -0.74399095843E+01  0.73799921035E+03  0.34180278469E+03  0.81334331038E+03  0.10100000352E+00 0.  1.
</event>
<event>
 5   0  0.1078787E-03  0.1494635E+04  0.7818609E-02  0.8888028E-01
       -1   -1    0    0    0  501  0.00000000000E+00  0.00000000000E+00  0.59964406098E+03  0.59964406100E+03  0.50400001928E-02 0.  1.
        1   -1    0    0  501    0  0.00000000000E+00  0.00000000000E+00 -0.93135820225E+03  0.93135820226E+03  0.50400001928E-02 0. -1.
    10030    2    1    2    0    0  0.00000000000E+00  0.00000000000E+00 -0.33171414127E+03  0.15310022633E+04  0.14946349583E+04 0.  0.
        5    1    3    3  502    0 -0.65277044124E+03 -0.31752351148E+03 -0.34774708130E+03  0.80491027565E+03  0.46999998093E+01 0. -1.
       -5    1    3    3    0  502  0.65277044124E+03  0.31752351148E+03  0.16032940025E+02  0.72609198761E+03  0.46999998093E+01 0.  1.
</event>
<event>
 5   0  0.1961098E-03  0.1508480E+04  0.7818609E-02  0.8878833E-01
       -2   -1    0    0    0  501  0.00000000000E+00  0.00000000000E+00  0.25938982490E+03  0.25938982491E+03  0.25500000920E-02 0.  1.
        2   -1    0    0  501    0  0.00000000000E+00  0.00000000000E+00 -0.21931399731E+04  0.21931399731E+04  0.25500000920E-02 0. -1.
    10030    2    1    2    0    0  0.00000000000E+00  0.00000000000E+00 -0.19337501482E+04  0.24525297980E+04  0.15084802864E+04 0.  0.
        2    1    3    3  502    0  0.62769785177E+03 -0.41676549168E+03 -0.10227270750E+04  0.12703026168E+04  0.25500000920E-02 0. -1.
       -2    1    3    3    0  502 -0.62769785177E+03  0.41676549168E+03 -0.91102307313E+03  0.11822271812E+04  0.25500000920E-02 0.  1.
</event>
<event>
 5   0  0.7468375E-04  0.1440702E+04  0.7818609E-02  0.8924872E-01
       -3   -1    0    0    0  501  0.00000000000E+00  0.00000000000E+00  0.14333540165E+04  0.14333540200E+04  0.10100000352E+00 0.  1.
        3   -1    0    0  501    0  0.00000000000E+00  0.00000000000E+00 -0.36202196562E+03  0.36202197971E+03  0.10100000352E+00 0. -1.
    10030    2    1    2    0    0  0.00000000000E+00  0.00000000000E+00  0.10713320509E+04  0.17953759997E+04  0.14407021265E+04 0.  0.
        4    1    3    3  502    0 -0.41320260717E+03 -0.44508398070E+03  0.10184191755E+04  0.11857551916E+04  0.12699999809E+01 0.  1.
       -4    1    3    3    0  502  0.41320260717E+03  0.44508398070E+03  0.52912875342E+02  0.60962080814E+03  0.12699999809E+01 0. -1.
</event>
<event>
 5   0  0.1961098E-03  0.1450764E+04  0.7818609E-02  0.8917871E-01
        2   -1    0    0  501    0  0.00000000000E+00  0.00000000000E+00  0.10107445874E+04  0.10107445874E+04  0.25500000920E-02 0.  1.
       -2   -1    0    0    0  501  0.00000000000E+00  0.00000000000E+00 -0.52058568934E+03  0.52058568935E+03  0.25500000920E-02 0. -1.
    10030    2    1    2    0    0  0.00000000000E+00  0.00000000000E+00  0.49015889807E+03  0.15313302768E+04  0.14507641680E+04 0.  0.
        2    1    3    3  502    0 -0.49517621086E+01  0.31974440270E+03 -0.44216788203E+03  0.54568620920E+03  0.25500000920E-02 0. -1.
       -2    1    3    3    0  502  0.49517621086E+01 -0.31974440270E+03  0.93232678010E+03  0.98564406755E+03  0.25500000920E-02 0.  1.
</event>
<event>
 5   0  0.1087761E-03  0.1517047E+04  0.7818609E-02  0.8873195E-01
       -1   -1    0    0    0  501  0.00000000000E+00  0.00000000000E+00  0.51025690911E+03  0.51025690914E+03  0.50400001928E-02 0. -1.
        1   -1    0    0  501    0  0.00000000000E+00  0.00000000000E+00 -0.11275851685E+04  0.11275851685E+04  0.50400001928E-02 0.  1.
    10030    2    1    2    0    0  0.00000000000E+00  0.00000000000E+00 -0.61732825941E+03  0.16378420777E+04  0.15170472938E+04 0.  0.
        3    1    3    3  502    0 -0.78983547617E+02 -0.66923602426E+03 -0.68458893441E+03  0.96061296904E+03  0.10100000352E+00 0.  1.
       -3    1    3    3    0  502  0.78983547617E+02  0.66923602426E+03  0.67260675004E+02  0.67722910863E+03  0.10100000352E+00 0. -1.
</event>
<event>
 5   0  0.2150197E-03  0.1460272E+04  0.7818609E-02  0.8911310E-01
        2   -1    0    0  501    0  0.00000000000E+00  0.00000000000E+00  0.20190230692E+04  0.20190230692E+04  0.25500000920E-02 0. -1.
       -2   -1    0    0    0  501  0.00000000000E+00  0.00000000000E+00 -0.26403804882E+03  0.26403804883E+03  0.25500000920E-02 0.  1.
    10030    2    1    2    0    0  0.00000000000E+00  0.00000000000E+00  0.17549850204E+04  0.22830611180E+04  0.14602724564E+04 0.  0.
        3    1    3    3  502    0  0.45922155475E+03  0.36222175168E+03  0.19419231285E+03  0.61627891276E+03  0.10100000352E+00 0.  1.
       -3    1    3    3    0  502 -0.45922155475E+03 -0.36222175168E+03  0.15607927075E+04  0.16667822053E+04  0.10100000352E+00 0. -1.
</event>
<event>
 5   0  0.1078018E-03  0.1486579E+04  0.7818609E-02  0.8893427E-01
       -1   -1    0    0    0  501  0.00000000000E+00  0.00000000000E+00  0.41501768420E+03  0.41501768423E+03  0.50400001928E-02 0. -1.
        1   -1    0    0  501    0  0.00000000000E+00  0.00000000000E+00 -0.13312179488E+04  0.13312179488E+04  0.50400001928E-02 0.  1.
    10030    2    1    2    0    0  0.00000000000E+00  0.00000000000E+00 -0.91620026458E+03  0.17462356330E+04  0.14865786092E+04 0.  0.
        4    1    3    3  502    0 -0.16305624399E+03 -0.52567668012E+03  0.12870957888E+03  0.56523541938E+03  0.12699999809E+01 0. -1.
       -4    1    3    3    0  502  0.16305624399E+03  0.52567668012E+03 -0.10449098435E+04  0.11810002136E+04  0.12699999809E+01 0.  1.
</event>
<event>
 5   0  0.1077140E-03  0.1519518E+04  0.7818609E-02  0.8871576E-01
       -1   -1    0    0    0  501  0.00000000000E+00  0.00000000000E+00  0.11699315539E+04  0.11699315540E+04  0.50400001928E-02 0.  1.
        1   -1    0    0  501    0  0.00000000000E+00  0.00000000000E+00 -0.49339101418E+03  0.49339101421E+03  0.50400001928E-02 0. -1.
    10030    2    1    2    0    0  0.00000000000E+00  0.00000000000E+00  0.67654053976E+03  0.16633225682E+04  0.15195179709E+04 0.  0.
        1    1    3    3  502    0 -0.31405427560E+03  0.30907875890E+03 -0.33923386266E+03  0.55609296060E+03  0.50400001928E-02 0. -1.
       -1    1    3    3    0  502  0.31405427560E+03 -0.30907875890E+03  0.10157744024E+04  0.11072296076E+04  0.50400001928E-02 0.  1.
</event>
<event>
 5   0  0.1961098E-03  0.1514498E+04  0.7818609E-02  0.8874869E-01
        2   -1    0    0  501    0  0.00000000000E+00  0.00000000000E+00  0.12755332396E+04  0.12755332396E+04  0.25500000920E-02 0.  1.
       -2   -1    0    0    0  501  0.00000000000E+00  0.00000000000E+00 -0.44955796006E+03  0.44955796006E+03  0.25500000920E-02 0. -1.
    10030    2    1    2    0    0  0.00000000000E+00  0.00000000000E+00  0.82597527958E+03  0.17250911997E+04  0.15144980967E+04 0.  0.
        2    1    3    3  502    0 -0.23769938602E+03  0.70092925671E+03  0.23065649450E+03  0.77524527699E+03  0.25500000920E-02 0. -1.
       -2    1    3    3    0  502  0.23769938602E+03 -0.70092925671E+03  0.59531878508E+03  0.94984592272E+03  0.25500000920E-02 0.  1.
</event>
<event>
 5   0  0.1078787E-03  0.1491083E+04  0.7818609E-02  0.8890404E-01
       -1   -1    0    0    0  501  0.00000000000E+00  0.00000000000E+00  0.10167901880E+04  0.10167901880E+04  0.50400001928E-02 0. -1.
        1   -1    0    0  501    0  0.00000000000E+00  0.00000000000E+00 -0.54665392576E+03  0.54665392578E+03  0.50400001928E-02 0.  1.
    10030    2    1    2    0    0  0.00000000000E+00  0.00000000000E+00  0.47013626222E+03  0.15634441138E+04  0.14910832947E+04 0.  0.
        5    1    3    3  502    0 -0.97852974160E+02 -0.69106699602E+03  0.50981767200E+03  0.86434075816E+03  0.46999998093E+01 0. -1.
       -5    1    3    3    0  502  0.97852974160E+02  0.69106699602E+03 -0.39681409779E+02  0.69910335561E+03  0.46999998093E+01 0.  1.
</event>
<event>
 5   0  0.1993623E-03  0.1530821E+04  0.7818609E-02  0.8864212E-01
       -2   -1    0    0    0  501  0.00000000000E+00  0.00000000000E+00  0.12551172061E+04  0.12551172061E+04  0.25500000920E-02 0.  1.
        2   -1    0    0  501    0  0.00000000000E+00  0.00000000000E+00 -0.46677169904E+03  0.46677169905E+03  0.25500000920E-02 0. -1.
    10030    2    1    2    0    0  0.00000000000E+00  0.00000000000E+00  0.78834550708E+03  0.17218889052E+04  0.15308209442E+04 0.  0.
        4    1    3    3  502    0  0.37236835092E+03 -0.21410929127E+03 -0.31842211528E+03  0.53469171845E+03  0.12699999809E+01 0.  1.
       -4    1    3    3    0  502 -0.37236835092E+03  0.21410929127E+03  0.11067676224E+04  0.11871971867E+04  0.12699999809E+01 0. -1.
</event>
<event>
 5   0  0.2150197E-03  0.1501749E+04  0.7818609E-02  0.8883290E-01
        2   -1    0    0  501    0  0.00000000000E+00  0.00000000000E+00  0.17369751684E+04  0.17369751684E+04  0.25500000920E-02 0. -1.
       -2   -1    0    0    0  501  0.00000000000E+00  0.00000000000E+00 -0.32459464786E+03  0.32459464787E+03  0.25500000920E-02 0.  1.
    10030    2    1    2    0    0  0.00000000000E+00  0.00000000000E+00  0.14123805206E+04  0.20615698163E+04  0.15017494373E+04 0.  0.
        3    1    3    3  502    0 -0.53741909147E+03 -0.23458060621E+03  0.13500301000E+04  0.14718792823E+04  0.10100000352E+00 0. -1.
       -3    1    3    3    0  502  0.53741909147E+03  0.23458060621E+03  0.62350420574E+02  0.58969053395E+03  0.10100000352E+00 0.  1.
</event>
<event>
 5   0  0.7468375E-04  0.1478770E+04  0.7818609E-02  0.8898695E-01
        4   -1    0    0  501    0  0.00000000000E+00  0.00000000000E+00  0.77882681221E+03  0.77882784768E+03  0.12699999809E+01 0.  1.
       -4   -1    0    0    0  501  0.00000000000E+00  0.00000000000E+00 -0.70193870982E+03  0.70193985871E+03  0.12699999809E+01 0. -1.
    10030    2    1    2    0    0  0.00000000000E+00  0.00000000000E+00  0.76888102392E+02  0.14807677064E+04  0.14787701715E+04 0.  0.
        3    1    3    3  502    0 -0.21284936929E+03 -0.53435989824E+03  0.50366277828E+03  0.76454009658E+03  0.10100000352E+00 0.  1.
       -3    1    3    3    0  502  0.21284936929E+03  0.53435989824E+03 -0.42677467589E+03  0.71622760980E+03  0.10100000352E+00 0. -1.
</event>
<event>
 5   0  0.1078018E-03  0.1506657E+04  0.7818609E-02  0.8880038E-01
        1   -1    0    0  501    0  0.00000000000E+00  0.00000000000E+00  0.14605611468E+04  0.14605611468E+04  0.50400001928E-02 0.  1.
       -1   -1    0    0    0  501  0.00000000000E+00  0.00000000000E+00 -0.38855176264E+03  0.38855176267E+03  0.50400001928E-02 0. -1.
    10030    2    1    2    0    0  0.00000000000E+00  0.00000000000E+00  0.10720093842E+04  0.18491129095E+04  0.15066567068E+04 0.  0.
        4    1    3    3  502    0  0.56918830566E+02 -0.74124967599E+03  0.68536790753E+03  0.10111486622E+04  0.12699999809E+01 0. -1.
       -4    1    3    3    0  502 -0.56918830566E+02  0.74124967599E+03  0.38664147663E+03  0.83796424732E+03  0.12699999809E+01 0.  1.
</event>
<event>
 5   0  0.1087761E-03  0.1494132E+04  0.7818609E-02  0.8888364E-01
       -1   -1    0    0    0  501  0.00000000000E+00  0.00000000000E+00  0.12344972570E+04  0.12344972570E+04  0.50400001928E-02 0.  1.
        1   -1    0    0  501    0  0.00000000000E+00  0.00000000000E+00 -0.45209313998E+03  0.45209314001E+03  0.50400001928E-02 0. -1.
    10030    2    1    2    0    0  0.00000000000E+00  0.00000000000E+00  0.78240411706E+03  0.16865903971E+04  0.14941321779E+04 0.  0.
        3    1    3    3  502    0  0.41308755723E+02  0.74493288798E+03  0.43457405458E+03  0.86341533459E+03  0.10100000352E+00 0. -1.
       -3    1    3    3    0  502 -0.41308755723E+02 -0.74493288798E+03  0.34783006248E+03  0.82317506246E+03  0.10100000352E+00 0.  1.
</event>
<event>
 5   0  0.1078787E-03  0.1427600E+04  0.7818609E-02  0.8934079E-01
       -1   -1    0    0    0  501  0.00000000000E+00  0.00000000000E+00  0.80162410499E+03  0.80162410501E+03  0.50400001928E-02 0. -1.
        1   -1    0    0  501    0  0.00000000000E+00  0.00000000000E+00 -0.63559778203E+03  0.63559778205E+03  0.50400001928E-02 0.  1.
    10030    2    1    2    0    0  0.00000000000E+00  0.00000000000E+00  0.16602632297E+03  0.14372218871E+04  0.14276000885E+04 0.  0.
        5    1    3    3  502    0 -0.61274866485E+03  0.33814859508E+03  0.22425490267E+03  0.73492703720E+03  0.46999998093E+01 0. -1.
       -5    1    3    3    0  502  0.61274866485E+03 -0.33814859508E+03 -0.58228579706E+02  0.70229484985E+03  0.46999998093E+01 0.  1.
</event>
<event>
 5   0  0.1993623E-03  0.1488581E+04  0.7818609E-02  0.8892082E-01
       -2   -1    0    0    0  501  0.00000000000E+00  0.00000000000E+00  0.22017062939E+03  0.22017062941E+03  0.25500000920E-02 0.  1.
        2   -1    0    0  501    0  0.00000000000E+00  0.00000000000E+00 -0.25160875619E+04  0.25160875619E+04  0.25500000920E-02 0. -1.
    10030    2    1    2    0    0  0.00000000000E+00  0.00000000000E+00 -0.22959169325E+04  0.27362581913E+04  0.14885813140E+04 0.  0.
        4    1    3    3  502    0 -0.70516309587E+03  0.77121043682E+02 -0.73380260971E+03  0.10206226188E+04  0.12699999809E+01 0. -1.
       -4    1    3    3    0  502  0.70516309587E+03 -0.77121043682E+02 -0.15621143228E+04  0.17156355725E+04  0.12699999809E+01 0.  1.
</event>
<event>
 5   0  0.2094566E-03  0.1457171E+04  0.7818609E-02  0.8913444E-01
        2   -1    0    0  501    0  0.00000000000E+00  0.00000000000E+00  0.81877597451E+03  0.81877597452E+03  0.25500000920E-02 0. -1.
       -2   -1    0    0    0  501  0.00000000000E+00  0.00000000000E+00 -0.64832988276E+03  0.64832988277E+03  0.25500000920E-02 0.  1.
    10030    2    1    2    0    0  0.00000000000E+00  0.00000000000E+00  0.17044609175E+03  0.14671058573E+04  0.14571711383E+04 0.  0.
        1    1    3    3  502    0  0.97569595862E+02 -0.20213176207E+03  0.78310094300E+03  0.81463130448E+03  0.50400001928E-02 0. -1.
       -1    1    3    3    0  502 -0.97569595862E+02  0.20213176207E+03 -0.61265485126E+03  0.65247455281E+03  0.50400001928E-02 0.  1.
</event>
<event>
 5   0  0.2111533E-03  0.8316928E+03  0.7818609E-02  0.9515243E-01
        2   -1    0    0  501    0  0.00000000000E+00  0.00000000000E+00  0.10637108045E+04  0.10637108045E+04  0.25500000920E-02 0. -1.
       -2   -1    0    0    0  501  0.00000000000E+00  0.00000000000E+00 -0.16257072621E+03  0.16257072623E+03  0.25500000920E-02 0.  1.
    10030    2    1    2    0    0  0.00000000000E+00  0.00000000000E+00  0.90114007830E+03  0.12262815308E+04  0.83169282307E+03 0.  0.
        5    1    3    3  502    0 -0.33107595613E+03 -0.11118396941E+03  0.78332672851E+03  0.85766894393E+03  0.46999998093E+01 0. -1.
       -5    1    3    3    0  502  0.33107595613E+03  0.11118396941E+03  0.11781334979E+03  0.36861258683E+03  0.46999998093E+01 0.  1.
</event>
<event>
 5   0  0.1993623E-03  0.1479611E+04  0.7818609E-02  0.8898126E-01
       -2   -1    0    0    0  501  0.00000000000E+00  0.00000000000E+00  0.51630407822E+03  0.51630407822E+03  0.25500000920E-02 0. -1.
        2   -1    0    0  501    0  0.00000000000E+00  0.00000000000E+00 -0.10600575812E+04  0.10600575812E+04  0.25500000920E-02 0.  1.
    10030    2    1    2    0    0  0.00000000000E+00  0.00000000000E+00 -0.54375350297E+03  0.15763616594E+04  0.14796108303E+04 0.  0.
        4    1    3    3  502    0  0.36439133345E+03 -0.13094847914E+03 -0.94347939666E+03  0.10198448573E+04  0.12699999809E+01 0.  1.
       -4    1    3    3    0  502 -0.36439133345E+03  0.13094847914E+03  0.39972589369E+03  0.55651680214E+03  0.12699999809E+01 0. -1.
</event>
<event>
 5   0  0.1961098E-03  0.1391026E+04  0.7818609E-02  0.8960340E-01
       -2   -1    0    0    0  501  0.00000000000E+00  0.00000000000E+00  0.86475078096E+03  0.86475078096E+03  0.25500000920E-02 0.  1.
        2   -1    0    0  501    0  0.00000000000E+00  0.00000000000E+00 -0.55939661164E+03  0.55939661165E+03  0.25500000920E-02 0. -1.
    10030    2    1    2    0    0  0.00000000000E+00  0.00000000000E+00  0.30535416931E+03  0.14241473926E+04  0.13910264653E+04 0.  0.
        2    1    3    3  502    0  0.35551555775E+03 -0.54966788612E+02 -0.45674902282E+03  0.58140547771E+03  0.25500000920E-02 0. -1.
       -2    1    3    3    0  502 -0.35551555775E+03  0.54966788612E+02  0.76210319214E+03  0.84274191490E+03  0.25500000920E-02 0.  1.
</event>
<event>
 5   0  0.2111533E-03  0.1472030E+04  0.7818609E-02  0.8903269E-01
       -2   -1    0    0    0  501  0.00000000000E+00  0.00000000000E+00  0.55649960902E+03  0.55649960902E+03  0.25500000920E-02 0. -1.
        2   -1    0    0  501    0  0.00000000000E+00  0.00000000000E+00 -0.97343861524E+03  0.97343861525E+03  0.25500000920E-02 0.  1.
    10030    2    1    2    0    0  0.00000000000E+00  0.00000000000E+00 -0.41693900623E+03  0.15299382243E+04  0.14720301747E+04 0.  0.
        5    1    3    3  502    0  0.11441322556E+02  0.68910291110E+03  0.59958542647E+02  0.69181705876E+03  0.46999998093E+01 0. -1.
       -5    1    3    3    0  502 -0.11441322556E+02 -0.68910291110E+03 -0.47689754888E+03  0.83812116551E+03  0.46999998093E+01 0.  1.
</event>
<event>
 5   0  0.2111533E-03  0.1486169E+04  0.7818609E-02  0.8893703E-01
        2   -1    0    0  501    0  0.00000000000E+00  0.00000000000E+00  0.99506965051E+03  0.99506965051E+03  0.25500000920E-02 0.  1.
       -2   -1    0    0    0  501  0.00000000000E+00  0.00000000000E+00 -0.55491036732E+03  0.55491036733E+03  0.25500000920E-02 0. -1.
    10030    2    1    2    0    0  0.00000000000E+00  0.00000000000E+00  0.44015928319E+03  0.15499800178E+04  0.14861688535E+04 0.  0.
        5    1    3    3  502    0  0.18796276462E+03 -0.47695981982E+02 -0.52803932733E+03  0.56254113519E+03  0.46999998093E+01 0. -1.
       -5    1    3    3    0  502 -0.18796276462E+03  0.47695981982E+02  0.96819861051E+03  0.98743888265E+03  0.46999998093E+01 0.  1.
</event>
<event>
 5   0  0.1069697E-03  0.1502369E+04  0.7818609E-02  0.8882879E-01
       -1   -1    0    0    0  501  0.00000000000E+00  0.00000000000E+00  0.52092458799E+03  0.52092458801E+03  0.50400001928E-02 0.  1.
        1   -1    0    0  501    0  0.00000000000E+00  0.00000000000E+00 -0.10832248925E+04  0.10832248926E+04  0.50400001928E-02 0. -1.
    10030    2    1    2    0    0  0.00000000000E+00  0.00000000000E+00 -0.56230030455E+03  0.16041494806E+04  0.15023694364E+04 0.  0.
        2    1    3    3  502    0 -0.40000272040E+03 -0.62580902235E+03 -0.16110880956E+03  0.75999681402E+03  0.25500000920E-02 0. -1.
       -2    1    3    3    0  502  0.40000272040E+03  0.62580902235E+03 -0.40119149499E+03  0.84415266655E+03  0.25500000920E-02 0.  1.
</event>
<event>
 5   0  0.1069697E-03  0.1507843E+04  0.7818609E-02  0.8879254E-01
        1   -1    0    0  501    0  0.00000000000E+00  0.00000000000E+00  0.15584242815E+04  0.15584242815E+04  0.50400001928E-02 0. -1.
       -1   -1    0    0    0  501  0.00000000000E+00  0.00000000000E+00 -0.36472569689E+03  0.36472569692E+03  0.50400001928E-02 0.  1.
    10030    2    1    2    0    0  0.00000000000E+00  0.00000000000E+00  0.11936985846E+04  0.19231499785E+04  0.15078426737E+04 0.  0.
        2    1    3    3  502    0  0.38427739101E+03  0.34351923005E+03  0.12985948877E+04  0.13971482588E+04  0.25500000920E-02 0. -1.
       -2    1    3    3    0  502 -0.38427739101E+03 -0.34351923005E+03 -0.10489630309E+03  0.52600171964E+03  0.25500000920E-02 0.  1.
</event>
<event>
 5   0  0.1069697E-03  0.1484392E+04  0.7818609E-02  0.8894899E-01
        1   -1    0    0  501    0  0.00000000000E+00  0.00000000000E+00  0.20143498435E+04  0.20143498435E+04  0.50400001928E-02 0.  1.
       -1   -1    0    0    0  501  0.00000000000E+00  0.00000000000E+00 -0.27346535744E+03  0.27346535748E+03  0.50400001928E-02 0. -1.
    10030    2    1    2    0    0  0.00000000000E+00  0.00000000000E+00  0.17408844861E+04  0.22878152010E+04  0.14843919968E+04 0.  0.
        2    1    3    3  502    0 -0.54549755987E+03 -0.23214785430E+03  0.15586651552E+04  0.16676022548E+04  0.25500000920E-02 0. -1.
       -2    1    3    3    0  502  0.54549755987E+03  0.23214785430E+03  0.18221933083E+03  0.62021294618E+03  0.25500000920E-02 0.  1.
</event>
<event>
 5   0  0.1078787E-03  0.1495984E+04  0.7818609E-02  0.8887128E-01
       -1   -1    0    0    0  501  0.00000000000E+00  0.00000000000E+00  0.31518189823E+03  0.31518189827E+03  0.50400001928E-02 0.  1.
        1   -1    0    0  501    0  0.00000000000E+00  0.00000000000E+00 -0.17751392104E+04  0.17751392104E+04  0.50400001928E-02 0. -1.
    10030    2    1    2    0    0  0.00000000000E+00  0.00000000000E+00 -0.14599573122E+04  0.20903211087E+04  0.14959836176E+04 0.  0.
        5    1    3    3  502    0  0.43341759435E+03  0.17756238757E+03  0.84882062892E+02  0.47603179219E+03  0.46999998093E+01 0.  1.
       -5    1    3    3    0  502 -0.43341759435E+03 -0.17756238757E+03 -0.15448393751E+04  0.16142893165E+04  0.46999998093E+01 0. -1.
</event>
<event>
 5   0  0.2111533E-03  0.1509252E+04  0.7818609E-02  0.8878324E-01
       -2   -1    0    0    0  501  0.00000000000E+00  0.00000000000E+00  0.57026645127E+03  0.57026645128E+03  0.25500000920E-02 0. -1.
        2   -1    0    0  501    0  0.00000000000E+00  0.00000000000E+00 -0.99858659657E+03  0.99858659658E+03  0.25500000920E-02 0.  1.
    10030    2    1    2    0    0  0.00000000000E+00  0.00000000000E+00 -0.42832014530E+03  0.15688530479E+04  0.15092520462E+04 0.  0.
        5    1    3    3  502    0 -0.37530831478E+03  0.51439339698E+03 -0.63509779739E+03  0.89934876452E+03  0.46999998093E+01 0. -1.
       -5    1    3    3    0  502  0.37530831478E+03 -0.51439339698E+03  0.20677765209E+03  0.66950428333E+03  0.46999998093E+01 0.  1.
</event>
<event>
 5   0  0.1087761E-03  0.1505059E+04  0.7818609E-02  0.8881096E-01
        1   -1    0    0  501    0  0.00000000000E+00  0.00000000000E+00  0.11781010899E+04  0.11781010899E+04  0.50400001928E-02 0. -1.
       -1   -1    0    0    0  501  0.00000000000E+00  0.00000000000E+00 -0.48068945246E+03  0.48068945249E+03  0.50400001928E-02 0.  1.
    10030    2    1    2    0    0  0.00000000000E+00  0.00000000000E+00  0.69741163739E+03  0.16587905424E+04  0.15050591588E+04 0.  0.
        3    1    3    3  502    0 -0.47711724082E+03 -0.40512099416E+02  0.98853634619E+03  0.10984016613E+04  0.10100000352E+00 0. -1.
       -3    1    3    3    0  502  0.47711724082E+03  0.40512099416E+02 -0.29112470880E+03  0.56038888101E+03  0.10100000352E+00 0.  1.
</event>
<event>
 5   0  0.1069697E-03  0.1444581E+04  0.7818609E-02  0.8922166E-01
       -1   -1    0    0    0  501  0.00000000000E+00  0.00000000000E+00  0.39541558882E+03  0.39541558885E+03  0.50400001928E-02 0. -1.
        1   -1    0    0  501    0  0.00000000000E+00  0.00000000000E+00 -0.13193812574E+04  0.13193812574E+04  0.50400001928E-02 0.  1.
    10030    2    1    2    0    0  0.00000000000E+00  0.00000000000E+00 -0.92396566859E+03  0.17147968463E+04  0.14445814851E+04 0.  0.
        2    1    3    3  502    0  0.19358151785E+03 -0.67568414231E+02  0.36014523424E+03  0.41441993727E+03  0.25500000920E-02 0. -1.
       -2    1    3    3    0  502 -0.19358151785E+03  0.67568414231E+02 -0.12841109028E+04  0.13003769090E+04  0.25500000920E-02 0.  1.
</event>
<event>
 5   0  0.1078787E-03  0.1455209E+04  0.7818609E-02  0.8914797E-01
        1   -1    0    0  501    0  0.00000000000E+00  0.00000000000E+00  0.15677629639E+04  0.15677629639E+04  0.50400001928E-02 0.  1.
       -1   -1    0    0    0  501  0.00000000000E+00  0.00000000000E+00 -0.33768399241E+03  0.33768399245E+03  0.50400001928E-02 0. -1.
    10030    2    1    2    0    0  0.00000000000E+00  0.00000000000E+00  0.12300789715E+04  0.19054469563E+04  0.14552092040E+04 0.  0.
        5    1    3    3  502    0  0.15429385464E+03  0.65713342294E+03  0.97064497225E+03  0.11822879012E+04  0.46999998093E+01 0.  1.
       -5    1    3    3    0  502 -0.15429385464E+03 -0.65713342294E+03  0.25943399923E+03  0.72315905517E+03  0.46999998093E+01 0. -1.
</event>
<event>
 5   0  0.1961098E-03  0.1406206E+04  0.7818609E-02  0.8949338E-01
       -2   -1    0    0    0  501  0.00000000000E+00  0.00000000000E+00  0.32811125536E+03  0.32811125537E+03  0.25500000920E-02 0. -1.
        2   -1    0    0  501    0  0.00000000000E+00  0.00000000000E+00 -0.15066659807E+04  0.15066659807E+04  0.25500000920E-02 0.  1.
    10030    2    1    2    0    0  0.00000000000E+00  0.00000000000E+00 -0.11785547253E+04  0.18347772360E+04  0.14062063381E+04 0.  0.
        2    1    3    3  502    0  0.43894675457E+03  0.37820449196E+03 -0.69589885966E+02  0.58357145520E+03  0.25500000920E-02 0. -1.
       -2    1    3    3    0  502 -0.43894675457E+03 -0.37820449196E+03 -0.11089648393E+04  0.12512057808E+04  0.25500000920E-02 0.  1.
</event>
<event>
 5   0  0.1993623E-03  0.1496495E+04  0.7818609E-02  0.8886787E-01
        2   -1    0    0  501    0  0.00000000000E+00  0.00000000000E+00  0.10645071314E+04  0.10645071314E+04  0.25500000920E-02 0.  1.
       -2   -1    0    0    0  501  0.00000000000E+00  0.00000000000E+00 -0.52594664131E+03  0.52594664132E+03  0.25500000920E-02 0. -1.
    10030    2    1    2    0    0  0.00000000000E+00  0.00000000000E+00  0.53856049009E+03  0.15904537727E+04  0.14964945044E+04 0.  0.
        4    1    3    3  502    0 -0.36472581615E+03 -0.44467205018E+02 -0.42346571341E+03  0.56064879972E+03  0.12699999809E+01 0. -1.
       -4    1    3    3    0  502  0.36472581615E+03  0.44467205018E+02  0.96202620350E+03  0.10298049730E+04  0.12699999809E+01 0.  1.
</event>
<event>
 5   0  0.1087761E-03  0.1501011E+04  0.7818609E-02  0.8883781E-01
       -1   -1    0    0    0  501  0.00000000000E+00  0.00000000000E+00  0.47212300115E+03  0.47212300117E+03  0.50400001928E-02 0. -1.
        1   -1    0    0  501    0  0.00000000000E+00  0.00000000000E+00 -0.11930326503E+04  0.11930326503E+04  0.50400001928E-02 0.  1.
    10030    2    1    2    0    0  0.00000000000E+00  0.00000000000E+00 -0.72090964915E+03  0.16651556515E+04  0.15010105334E+04 0.  0.
        3    1    3    3  502    0  0.63731591556E+03  0.39602599756E+03 -0.34291512475E+03  0.82498421800E+03  0.10100000352E+00 0. -1.
       -3    1    3    3    0  502 -0.63731591556E+03 -0.39602599756E+03 -0.37799452440E+03  0.84017143348E+03  0.10100000352E+00 0.  1.
</event>
<event>
 5   0  0.1961098E-03  0.1497281E+04  0.7818609E-02  0.8886263E-01
        2   -1    0    0  501    0  0.00000000000E+00  0.00000000000E+00  0.45089098863E+03  0.45089098863E+03  0.25500000920E-02 0. -1.
       -2   -1    0    0    0  501  0.00000000000E+00  0.00000000000E+00 -0.12430117666E+04  0.12430117666E+04  0.25500000920E-02 0.  1.
    10030    2    1    2    0    0  0.00000000000E+00  0.00000000000E+00 -0.79212077794E+03  0.16939027552E+04  0.14972812753E+04 0.  0.
        2    1    3    3  502    0 -0.42566069631E+03  0.18631202066E+03 -0.10601394450E+04  0.11574950713E+04  0.25500000920E-02 0.  1.
       -2    1    3    3    0  502  0.42566069631E+03 -0.18631202066E+03  0.26801866702E+03  0.53640768386E+03  0.25500000920E-02 0. -1.
</event>
<event>
 5   0  0.1078787E-03  0.1405679E+04  0.7818609E-02  0.8949718E-01
       -1   -1    0    0    0  501  0.00000000000E+00  0.00000000000E+00  0.57340716878E+03  0.57340716880E+03  0.50400001928E-02 0.  1.
        1   -1    0    0  501    0  0.00000000000E+00  0.00000000000E+00 -0.86148836004E+03  0.86148836006E+03  0.50400001928E-02 0. -1.
    10030    2    1    2    0    0  0.00000000000E+00  0.00000000000E+00 -0.28808119126E+03  0.14348955289E+04  0.14056793397E+04 0.  0.
        5    1    3    3  502    0  0.17968231334E+03  0.61660697108E+03  0.14732428224E+03  0.65895100322E+03  0.46999998093E+01 0.  1.
       -5    1    3    3    0  502 -0.17968231334E+03 -0.61660697108E+03 -0.43540547350E+03  0.77594452564E+03  0.46999998093E+01 0. -1.
</event>
<event>
 5   0  0.1078018E-03  0.1269919E+04  0.7818609E-02  0.9053766E-01
        1   -1    0    0  501    0  0.00000000000E+00  0.00000000000E+00  0.98142137387E+03  0.98142137388E+03  0.50400001928E-02 0.  1.
       -1   -1    0    0    0  501  0.00000000000E+00  0.00000000000E+00 -0.41080568491E+03  0.41080568494E+03  0.50400001928E-02 0. -1.
    10030    2    1    2    0    0  0.00000000000E+00  0.00000000000E+00  0.57061568896E+03  0.13922270588E+04  0.12699188631E+04 0.  0.
        4    1    3    3  502    0 -0.56192180310E+03  0.99219105106E+02 -0.20032854849E+02  0.57096713723E+03  0.12699999809E+01 0. -1.
       -4    1    3    3    0  502  0.56192180310E+03 -0.99219105106E+02  0.59064854381E+03  0.82125992160E+03  0.12699999809E+01 0.  1.
</event>
<event>
 5   0  0.1069697E-03  0.1555289E+04  0.7818609E-02  0.8848496E-01
       -1   -1    0    0    0  501  0.00000000000E+00  0.00000000000E+00  0.74830559798E+03  0.74830559799E+03  0.50400001928E-02 0.  1.
        1   -1    0    0  501    0  0.00000000000E+00  0.00000000000E+00 -0.80813420536E+03  0.80813420537E+03  0.50400001928E-02 0. -1.
    10030    2    1    2    0    0  0.00000000000E+00  0.00000000000E+00 -0.59828607378E+02  0.15564398034E+04  0.15552894905E+04 0.  0.
        2    1    3    3  502    0  0.25875686870E+03 -0.31707698555E+03  0.63181481904E+03  0.75278343328E+03  0.25500000920E-02 0.  1.
       -2    1    3    3    0  502 -0.25875686870E+03  0.31707698555E+03 -0.69164342642E+03  0.80365637008E+03  0.25500000920E-02 0. -1.
</event>
<event>
 5   0  0.1078787E-03  0.1488771E+04  0.7818609E-02  0.8891955E-01
        1   -1    0    0  501    0  0.00000000000E+00  0.00000000000E+00  0.15850547734E+04  0.15850547734E+04  0.50400001928E-02 0. -1.
       -1   -1    0    0    0  501  0.00000000000E+00  0.00000000000E+00 -0.34958384048E+03  0.34958384052E+03  0.50400001928E-02 0.  1.
    10030    2    1    2    0    0  0.00000000000E+00  0.00000000000E+00  0.12354709329E+04  0.19346386139E+04  0.14887706809E+04 0.  0.
        5    1    3    3  502    0 -0.21014781542E+03 -0.63016214800E+03  0.10542181634E+04  0.12460595744E+04  0.46999998093E+01 0. -1.
       -5    1    3    3    0  502  0.21014781542E+03  0.63016214800E+03  0.18125276951E+03  0.68857903944E+03  0.46999998093E+01 0.  1.
</event>
<event>
 5   0  0.1077140E-03  0.1441639E+04  0.7818609E-02  0.8924218E-01
       -1   -1    0    0    0  501  0.00000000000E+00  0.00000000000E+00  0.49913041863E+03  0.49913041865E+03  0.50400001928E-02 0. -1.
        1   -1    0    0  501    0  0.00000000000E+00  0.00000000000E+00 -0.10409717836E+04  0.10409717836E+04  0.50400001928E-02 0.  1.
    10030    2    1    2    0    0  0.00000000000E+00  0.00000000000E+00 -0.54184136495E+03  0.15401022022E+04  0.14416389037E+04 0.  0.
        1    1    3    3  502    0  0.40410857451E+03  0.28764392598E+03 -0.82965045475E+03  0.96662435581E+03  0.50400001928E-02 0.  1.
       -1    1    3    3    0  502 -0.40410857451E+03 -0.28764392598E+03  0.28780908980E+03  0.57347784643E+03  0.50400001928E-02 0. -1.
</event>
<event>
 5   0  0.2150197E-03  0.1448840E+04  0.7818609E-02  0.8919205E-01
        2   -1    0    0  501    0  0.00000000000E+00  0.00000000000E+00  0.12371298002E+04  0.12371298002E+04  0.25500000920E-02 0.  1.
       -2   -1    0    0    0  501  0.00000000000E+00  0.00000000000E+00 -0.42419519393E+03  0.42419519394E+03  0.25500000920E-02 0. -1.
    10030    2    1    2    0    0  0.00000000000E+00  0.00000000000E+00  0.81293460627E+03  0.16613249941E+04  0.14488402473E+04 0.  0.
        3    1    3    3  502    0 -0.46844582733E+03  0.18922721027E+03 -0.18884183239E+03  0.53936043432E+03  0.10100000352E+00 0. -1.
       -3    1    3    3    0  502  0.46844582733E+03 -0.18922721027E+03  0.10017764387E+04  0.11219645598E+04  0.10100000352E+00 0.  1.
</event>
<event>
 5   0  0.2150197E-03  0.1512763E+04  0.7818609E-02  0.8876009E-01
        2   -1    0    0  501    0  0.00000000000E+00  0.00000000000E+00  0.16866141649E+04  0.16866141649E+04  0.25500000920E-02 0.  1.
       -2   -1    0    0    0  501  0.00000000000E+00  0.00000000000E+00 -0.33920819297E+03  0.33920819298E+03  0.25500000920E-02 0. -1.
    10030    2    1    2    0    0  0.00000000000E+00  0.00000000000E+00  0.13474059719E+04  0.20258223579E+04  0.15127634886E+04 0.  0.
        3    1    3    3  502    0  0.72468657619E+03 -0.33650126504E+02  0.38707920736E+03  0.82227324393E+03  0.10100000352E+00 0.  1.
       -3    1    3    3    0  502 -0.72468657619E+03  0.33650126504E+02  0.96032676457E+03  0.12035491139E+04  0.10100000352E+00 0. -1.
</event>
<event>
 5   0  0.1078787E-03  0.1496694E+04  0.7818609E-02  0.8886654E-01
       -1   -1    0    0    0  501  0.00000000000E+00  0.00000000000E+00  0.10790064276E+04  0.10790064276E+04  0.50400001928E-02 0. -1.
        1   -1    0    0  501    0  0.00000000000E+00  0.00000000000E+00 -0.51901749696E+03  0.51901749698E+03  0.50400001928E-02 0.  1.
    10030    2    1    2    0    0  0.00000000000E+00  0.00000000000E+00  0.55998893064E+03  0.15980239246E+04  0.14966939771E+04 0.  0.
        5    1    3    3  502    0  0.31077879577E+02  0.64907841603E+03 -0.11625481101E+03  0.66015596327E+03  0.46999998093E+01 0.  1.
       -5    1    3    3    0  502 -0.31077879577E+02 -0.64907841603E+03  0.67624374166E+03  0.93786796133E+03  0.46999998093E+01 0. -1.
</event>
<event>
 5   0  0.1087761E-03  0.1638763E+04  0.7818609E-02  0.8797082E-01
        1   -1    0    0  501    0  0.00000000000E+00  0.00000000000E+00  0.16986724643E+04  0.16986724643E+04  0.50400001928E-02 0. -1.
       -1   -1    0    0    0  501  0.00000000000E+00  0.00000000000E+00 -0.39524164461E+03  0.39524164465E+03  0.50400001928E-02 0.  1.
    10030    2    1    2    0    0  0.00000000000E+00  0.00000000000E+00  0.13034308197E+04  0.20939141090E+04  0.16387630683E+04 0.  0.
        3    1    3    3  502    0  0.26039495997E+03 -0.15955876394E+03 -0.31980577661E+03  0.44219936600E+03  0.10100000352E+00 0.  1.
       -3    1    3    3    0  502 -0.26039495997E+03  0.15955876394E+03  0.16232365963E+04  0.16517147430E+04  0.10100000352E+00 0. -1.
</event>
<event>
 5   0  0.1087761E-03  0.1499058E+04  0.7818609E-02  0.8885080E-01
       -1   -1    0    0    0  501  0.00000000000E+00  0.00000000000E+00  0.49402310549E+03  0.49402310552E+03  0.50400001928E-02 0.  1.
        1   -1    0    0  501    0  0.00000000000E+00  0.00000000000E+00 -0.11371803804E+04  0.11371803804E+04  0.50400001928E-02 0. -1.
    10030    2    1    2    0    0  0.00000000000E+00  0.00000000000E+00 -0.64315727486E+03  0.16312034859E+04  0.14990575480E+04 0.  0.
        3    1    3    3  502    0 -0.31265899623E+02  0.43859448059E+03  0.33893156029E+03  0.55517320508E+03  0.10100000352E+00 0.  1.
       -3    1    3    3    0  502  0.31265899623E+02 -0.43859448059E+03 -0.98208883515E+03  0.10760302808E+04  0.10100000352E+00 0. -1.
</event>
<event>
 5   0  0.1961098E-03  0.1470357E+04  0.7818609E-02  0.8904408E-01
       -2   -1    0    0    0  501  0.00000000000E+00  0.00000000000E+00  0.70794965321E+03  0.70794965322E+03  0.25500000920E-02 0. -1.
        2   -1    0    0  501    0  0.00000000000E+00  0.00000000000E+00 -0.76345425855E+03  0.76345425856E+03  0.25500000920E-02 0.  1.
    10030    2    1    2    0    0  0.00000000000E+00  0.00000000000E+00 -0.55504605342E+02  0.14714039118E+04  0.14703566609E+04 0.  0.
        2    1    3    3  502    0 -0.13610146811E+03  0.56351977888E+03  0.42468587891E+03  0.71863498841E+03  0.25500000920E-02 0. -1.
       -2    1    3    3    0  502  0.13610146811E+03 -0.56351977888E+03 -0.48019048425E+03  0.75276892337E+03  0.25500000920E-02 0.  1.
</event>
<event>
 5   0  0.1961098E-03  0.1527253E+04  0.7818609E-02  0.8866529E-01
       -2   -1    0    0    0  501  0.00000000000E+00  0.00000000000E+00  0.65337331568E+03  0.65337331569E+03  0.25500000920E-02 0.  1.
        2   -1    0    0  501    0  0.00000000000E+00  0.00000000000E+00 -0.89248449120E+03  0.89248449121E+03  0.25500000920E-02 0. -1.
    10030    2    1    2    0    0  0.00000000000E+00  0.00000000000E+00 -0.23911117552E+03  0.15458578069E+04  0.15272531568E+04 0.  0.
        2    1    3    3  502    0 -0.39716874689E+03 -0.87196829343E+02 -0.77378783293E+03  0.87412465412E+03  0.25500000920E-02 0. -1.
       -2    1    3    3    0  502  0.39716874689E+03  0.87196829343E+02  0.53467665741E+03  0.67173315277E+03  0.25500000920E-02 0.  1.
</event>
<event>
 5   0  0.1078018E-03  0.1490569E+04  0.7818609E-02  0.8890749E-01
       -1   -1    0    0    0  501  0.00000000000E+00  0.00000000000E+00  0.26028530420E+03  0.26028530425E+03  0.50400001928E-02 0.  1.
        1   -1    0    0  501    0  0.00000000000E+00  0.00000000000E+00 -0.21339999409E+04  0.21339999409E+04  0.50400001928E-02 0. -1.
    10030    2    1    2    0    0  0.00000000000E+00  0.00000000000E+00 -0.18737146367E+04  0.23942852451E+04  0.14905687825E+04 0.  0.
        4    1    3    3  502    0  0.15111877208E+03 -0.68767646155E+03 -0.54434568051E+03  0.88997170283E+03  0.12699999809E+01 0.  1.
       -4    1    3    3    0  502 -0.15111877208E+03  0.68767646155E+03 -0.13293689561E+04  0.15043135423E+04  0.12699999809E+01 0. -1.
</event>
<event>
 5   0  0.2094566E-03  0.1461742E+04  0.7818609E-02  0.8910301E-01
       -2   -1    0    0    0  501  0.00000000000E+00  0.00000000000E+00  0.37822134100E+03  0.37822134101E+03  0.25500000920E-02 0.  1.
        2   -1    0    0  501    0  0.00000000000E+00  0.00000000000E+00 -0.14123265842E+04  0.14123265842E+04  0.25500000920E-02 0. -1.
    10030    2    1    2    0    0  0.00000000000E+00  0.00000000000E+00 -0.10341052432E+04  0.17905479252E+04  0.14617415019E+04 0.  0.
        1    1    3    3  502    0 -0.26300918201E+03 -0.41426969177E+03  0.14643033444E+03  0.51208890850E+03  0.50400001928E-02 0.  1.
       -1    1    3    3    0  502  0.26300918201E+03  0.41426969177E+03 -0.11805355777E+04  0.12784590167E+04  0.50400001928E-02 0. -1.
</event>
<event>
 5   0  0.7468375E-04  0.1489208E+04  0.7818609E-02  0.8891661E-01
        4   -1    0    0  501    0  0.00000000000E+00  0.00000000000E+00  0.55757468231E+03  0.55757612866E+03  0.12699999809E+01 0. -1.
       -4   -1    0    0    0  501  0.00000000000E+00  0.00000000000E+00 -0.99436618136E+03  0.99436699238E+03  0.12699999809E+01 0.  1.
    10030    2    1    2    0    0  0.00000000000E+00  0.00000000000E+00 -0.43679149905E+03  0.15519431210E+04  0.14892080571E+04 0.  0.
        1    1    3    3  502    0  0.57527495072E+03 -0.36966894417E+02  0.27276248554E+03  0.63773599064E+03  0.50400001928E-02 0. -1.
       -1    1    3    3    0  502 -0.57527495072E+03  0.36966894417E+02 -0.70955398459E+03  0.91420713041E+03  0.50400001928E-02 0.  1.
</event>
<event>
 5   0  0.7468375E-04  0.1498485E+04  0.7818609E-02  0.8885461E-01
       -4   -1    0    0    0  501  0.00000000000E+00  0.00000000000E+00  0.89970034374E+03  0.89970124010E+03  0.12699999809E+01 0.  1.
        4   -1    0    0  501    0  0.00000000000E+00  0.00000000000E+00 -0.62394439853E+03  0.62394569103E+03  0.12699999809E+01 0. -1.
    10030    2    1    2    0    0  0.00000000000E+00  0.00000000000E+00  0.27575594521E+03  0.15236469311E+04  0.14984854452E+04 0.  0.
        1    1    3    3  502    0  0.87335091750E+02  0.67628644230E+03  0.45353212016E+03  0.81895186325E+03  0.50400001928E-02 0.  1.
       -1    1    3    3    0  502 -0.87335091750E+02 -0.67628644230E+03 -0.17777617494E+03  0.70469506788E+03  0.50400001928E-02 0. -1.
</event>
<event>
 5   0  0.1961098E-03  0.1699005E+04  0.7818609E-02  0.8761932E-01
       -2   -1    0    0    0  501  0.00000000000E+00  0.00000000000E+00  0.57312148249E+03  0.57312148250E+03  0.25500000920E-02 0.  1.
        2   -1    0    0  501    0  0.00000000000E+00  0.00000000000E+00 -0.12591644281E+04  0.12591644281E+04  0.25500000920E-02 0. -1.
    10030    2    1    2    0    0  0.00000000000E+00  0.00000000000E+00 -0.68604294563E+03  0.18322859106E+04  0.16990046307E+04 0.  0.
        2    1    3    3  502    0 -0.42182735364E+03  0.71070630938E+03 -0.55493668332E+03  0.99548806973E+03  0.25500000920E-02 0. -1.
       -2    1    3    3    0  502  0.42182735364E+03 -0.71070630938E+03 -0.13110626231E+03  0.83679784088E+03  0.25500000920E-02 0.  1.
</event>
<event>
 5   0  0.7468375E-04  0.1500257E+04  0.7818609E-02  0.8884282E-01
        3   -1    0    0  501    0  0.00000000000E+00  0.00000000000E+00  0.20652484945E+04  0.20652484969E+04  0.10100000352E+00 0.  1.
       -3   -1    0    0    0  501  0.00000000000E+00  0.00000000000E+00 -0.27245780759E+03  0.27245782631E+03  0.10100000352E+00 0. -1.
    10030    2    1    2    0    0  0.00000000000E+00  0.00000000000E+00  0.17927906869E+04  0.23377063232E+04  0.15002574468E+04 0.  0.
        2    1    3    3  502    0 -0.72780227520E+02  0.68135382648E+03  0.42081617387E+03  0.80413074221E+03  0.25500000920E-02 0. -1.
       -2    1    3    3    0  502  0.72780227520E+02 -0.68135382648E+03  0.13719745130E+04  0.15335755810E+04  0.25500000920E-02 0.  1.
</event>
<event>
 5   0  0.2111533E-03  0.1500133E+04  0.7818609E-02  0.8884364E-01
       -2   -1    0    0    0  501  0.00000000000E+00  0.00000000000E+00  0.38100289652E+03  0.38100289653E+03  0.25500000920E-02 0. -1.
        2   -1    0    0  501    0  0.00000000000E+00  0.00000000000E+00 -0.14766294871E+04  0.14766294871E+04  0.25500000920E-02 0.  1.
    10030    2    1    2    0    0  0.00000000000E+00  0.00000000000E+00 -0.10956265906E+04  0.18576323836E+04  0.15001334763E+04 0.  0.
        5    1    3    3  502    0 -0.33758450679E+03  0.33209309889E+03 -0.12680900790E+04  0.13536335043E+04  0.46999998093E+01 0.  1.
       -5    1    3    3    0  502  0.33758450679E+03 -0.33209309889E+03  0.17246348839E+03  0.50399887934E+03  0.46999998093E+01 0. -1.
</event>
<event>
 5   0  0.1087761E-03  0.1511934E+04  0.7818609E-02  0.8876555E-01
       -1   -1    0    0    0  501  0.00000000000E+00  0.00000000000E+00  0.79168495970E+03  0.79168495972E+03  0.50400001928E-02 0. -1.
        1   -1    0    0  501    0  0.00000000000E+00  0.00000000000E+00 -0.72186087685E+03  0.72186087686E+03  0.50400001928E-02 0.  1.
    10030    2    1    2    0    0  0.00000000000E+00  0.00000000000E+00  0.69824082857E+02  0.15135458366E+04  0.15119343891E+04 0.  0.
        3    1    3    3  502    0  0.65271525513E+03  0.34405447789E+03 -0.12981029254E+03  0.74917381847E+03  0.10100000352E+00 0. -1.
       -3    1    3    3    0  502 -0.65271525513E+03 -0.34405447789E+03  0.19963437540E+03  0.76437201811E+03  0.10100000352E+00 0.  1.
</event>
<event>
 5   0  0.1993623E-03  0.1482413E+04  0.7818609E-02  0.8896233E-01
       -2   -1    0    0    0  501  0.00000000000E+00  0.00000000000E+00  0.25459680893E+03  0.25459680894E+03  0.25500000920E-02 0. -1.
        2   -1    0    0  501    0  0.00000000000E+00  0.00000000000E+00 -0.21578716069E+04  0.21578716069E+04  0.25500000920E-02 0.  1.
    10030    2    1    2    0    0  0.00000000000E+00  0.00000000000E+00 -0.19032747980E+04  0.24124684159E+04  0.14824132018E+04 0.  0.
        4    1    3    3  502    0 -0.72442201977E+03 -0.32112530187E+02 -0.70180672650E+03  0.10091346647E+04  0.12699999809E+01 0. -1.
       -4    1    3    3    0  502  0.72442201977E+03  0.32112530187E+02 -0.12014680715E+04  0.14033337511E+04  0.12699999809E+01 0.  1.
</event>
<event>
 5   0  0.1069697E-03  0.1236168E+04  0.7818609E-02  0.9081774E-01
       -1   -1    0    0    0  501  0.00000000000E+00  0.00000000000E+00  0.10441909889E+04  0.10441909889E+04  0.50400001928E-02 0. -1.
        1   -1    0    0  501    0  0.00000000000E+00  0.00000000000E+00 -0.36586037404E+03  0.36586037407E+03  0.50400001928E-02 0.  1.
    10030    2    1    2    0    0  0.00000000000E+00  0.00000000000E+00  0.67833061484E+03  0.14100513630E+04  0.12361684445E+04 0.  0.
        2    1    3    3  502    0  0.12695798284E+03 -0.58116912008E+03  0.14777775770E+03  0.61295525222E+03  0.25500000920E-02 0.  1.
       -2    1    3    3    0  502 -0.12695798284E+03  0.58116912008E+03  0.53055285714E+03  0.79709611075E+03  0.25500000920E-02 0. -1.
</event>
<event>
 5   0  0.1077140E-03  0.1252365E+04  0.7818609E-02  0.9068218E-01
        1   -1    0    0  501    0  0.00000000000E+00  0.00000000000E+00  0.14729884454E+04  0.14729884454E+04  0.50400001928E-02 0. -1.
       -1   -1    0    0    0  501  0.00000000000E+00  0.00000000000E+00 -0.26619641885E+03  0.26619641890E+03  0.50400001928E-02 0.  1.
    10030    2    1    2    0    0  0.00000000000E+00  0.00000000000E+00  0.12067920265E+04  0.17391848643E+04  0.12523645623E+04 0.  0.
        1    1    3    3  502    0  0.31174215031E+02  0.50934352417E+03  0.11073727490E+04  0.12192936737E+04  0.50400001928E-02 0. -1.
       -1    1    3    3    0  502 -0.31174215031E+02 -0.50934352417E+03  0.99419277462E+02  0.51989119059E+03  0.50400001928E-02 0.  1.
</event>
<event>
 5   0  0.2111533E-03  0.1555846E+04  0.7818609E-02  0.8848142E-01
        2   -1    0    0  501    0  0.00000000000E+00  0.00000000000E+00  0.11515165090E+04  0.11515165090E+04  0.25500000920E-02 0. -1.
       -2   -1    0    0    0  501  0.00000000000E+00  0.00000000000E+00 -0.52553695537E+03  0.52553695538E+03  0.25500000920E-02 0.  1.
    10030    2    1    2    0    0  0.00000000000E+00  0.00000000000E+00  0.62597955366E+03  0.16770534644E+04  0.15558463680E+04 0.  0.
        5    1    3    3  502    0 -0.31484316729E+03  0.22130257394E+03 -0.41572561109E+03  0.56652530652E+03  0.46999998093E+01 0.  1.
       -5    1    3    3    0  502  0.31484316729E+03 -0.22130257394E+03  0.10417051647E+04  0.11105281579E+04  0.46999998093E+01 0. -1.
</event>
<event>
 5   0  0.1078787E-03  0.1665527E+04  0.7818609E-02  0.8781274E-01
        1   -1    0    0  501    0  0.00000000000E+00  0.00000000000E+00  0.10019676702E+04  0.10019676703E+04  0.50400001928E-02 0.  1.
       -1   -1    0    0    0  501  0.00000000000E+00  0.00000000000E+00 -0.69213293812E+03  0.69213293814E+03  0.50400001928E-02 0. -1.
    10030    2    1    2    0    0  0.00000000000E+00  0.00000000000E+00  0.30983473212E+03  0.16941006084E+04  0.16655267365E+04 0.  0.
        5    1    3    3  502    0 -0.17349734730E+03  0.71664721315E+03  0.54858196474E+03  0.91904777877E+03  0.46999998093E+01 0.  1.
       -5    1    3    3    0  502  0.17349734730E+03 -0.71664721315E+03 -0.23874723261E+03  0.77505282963E+03  0.46999998093E+01 0. -1.
</event>
<event>
 5   0  0.2150197E-03  0.1489994E+04  0.7818609E-02  0.8891134E-01
       -2   -1    0    0    0  501  0.00000000000E+00  0.00000000000E+00  0.30479436487E+03  0.30479436488E+03  0.25500000920E-02 0.  1.
        2   -1    0    0  501    0  0.00000000000E+00  0.00000000000E+00 -0.18209661037E+04  0.18209661037E+04  0.25500000920E-02 0. -1.
    10030    2    1    2    0    0  0.00000000000E+00  0.00000000000E+00 -0.15161717389E+04  0.21257604686E+04  0.14899935665E+04 0.  0.
        3    1    3    3  502    0 -0.44763226903E+03  0.58570934797E+03 -0.60449207136E+03  0.95333140256E+03  0.10100000352E+00 0. -1.
       -3    1    3    3    0  502  0.44763226903E+03 -0.58570934797E+03 -0.91167966750E+03  0.11724290660E+04  0.10100000352E+00 0.  1.
</event>
<event>
 5   0  0.2094566E-03  0.1519088E+04  0.7818609E-02  0.8871858E-01
        2   -1    0    0  501    0  0.00000000000E+00  0.00000000000E+00  0.16386685288E+04  0.16386685288E+04  0.25500000920E-02 0. -1.
       -2   -1    0    0    0  501  0.00000000000E+00  0.00000000000E+00 -0.35205838455E+03  0.35205838456E+03  0.25500000920E-02 0.  1.
    10030    2    1    2    0    0  0.00000000000E+00  0.00000000000E+00  0.12866101442E+04  0.19907269133E+04  0.15190878777E+04 0.  0.
        1    1    3    3  502    0 -0.80782680765E+02  0.42161836061E+03 -0.17782982178E+03  0.46466259700E+03  0.50400001928E-02 0.  1.
       -1    1    3    3    0  502  0.80782680765E+02 -0.42161836061E+03  0.14644399660E+04  0.15260643163E+04  0.50400001928E-02 0. -1.
</event>
<event>
 5   0  0.1069697E-03  0.1216994E+04  0.7818609E-02  0.9098110E-01
        1   -1    0    0  501    0  0.00000000000E+00  0.00000000000E+00  0.11962203948E+04  0.11962203949E+04  0.50400001928E-02 0. -1.
       -1   -1    0    0    0  501  0.00000000000E+00  0.00000000000E+00 -0.30953206187E+03  0.30953206191E+03  0.50400001928E-02 0.  1.
    10030    2    1    2    0    0  0.00000000000E+00  0.00000000000E+00  0.88668833297E+03  0.15057524568E+04  0.12169939446E+04 0.  0.
        2    1    3    3  502    0  0.33768991434E+03  0.50401061027E+03  0.38521355728E+03  0.71864501545E+03  0.25500000920E-02 0.  1.
       -2    1    3    3    0  502 -0.33768991434E+03 -0.50401061027E+03  0.50147477569E+03  0.78710744132E+03  0.25500000920E-02 0. -1.
</event>
<event>
 5   0  0.1069697E-03  0.1492218E+04  0.7818609E-02  0.8889644E-01
       -1   -1    0    0    0  501  0.00000000000E+00  0.00000000000E+00  0.87294554121E+03  0.87294554122E+03  0.50400001928E-02 0.  1.
        1   -1    0    0  501    0  0.00000000000E+00  0.00000000000E+00 -0.63770177567E+03  0.63770177569E+03  0.50400001928E-02 0. -1.
    10030    2    1    2    0    0  0.00000000000E+00  0.00000000000E+00  0.23524376554E+03  0.15106473169E+04  0.14922183777E+04 0.  0.
        2    1    3    3  502    0 -0.19841654748E+03 -0.50016335120E+03  0.64086723168E+03  0.83680542114E+03  0.25500000920E-02 0.  1.
       -2    1    3    3    0  502  0.19841654748E+03  0.50016335120E+03 -0.40562346614E+03  0.67384189577E+03  0.25500000920E-02 0. -1.
</event>
<event>
 5   0  0.2150197E-03  0.1534299E+04  0.7818609E-02  0.8861960E-01
        2   -1    0    0  501    0  0.00000000000E+00  0.00000000000E+00  0.15123571284E+04  0.15123571284E+04  0.25500000920E-02 0.  1.
       -2   -1    0    0    0  501  0.00000000000E+00  0.00000000000E+00 -0.38913974024E+03  0.38913974025E+03  0.25500000920E-02 0. -1.
    10030    2    1    2    0    0  0.00000000000E+00  0.00000000000E+00  0.11232173882E+04  0.19014968686E+04  0.15342988758E+04 0.  0.
        3    1    3    3  502    0 -0.18906900015E+03 -0.70764299473E+03  0.84425267554E+03  0.11177067080E+04  0.10100000352E+00 0.  1.
       -3    1    3    3    0  502  0.18906900015E+03  0.70764299473E+03  0.27896471262E+03  0.78379016063E+03  0.10100000352E+00 0. -1.
</event>
<event>
 5   0  0.2111533E-03  0.1571519E+04  0.7818609E-02  0.8838239E-01
        2   -1    0    0  501    0  0.00000000000E+00  0.00000000000E+00  0.60507199005E+03  0.60507199006E+03  0.25500000920E-02 0.  1.
       -2   -1    0    0    0  501  0.00000000000E+00  0.00000000000E+00 -0.10204038263E+04  0.10204038263E+04  0.25500000920E-02 0. -1.
    10030    2    1    2    0    0  0.00000000000E+00  0.00000000000E+00 -0.41533183623E+03  0.16254758163E+04  0.15715187226E+04 0.  0.
        5    1    3    3  502    0 -0.50401565686E+03 -0.92049176605E+02  0.40851515547E+03  0.65529501412E+03  0.46999998093E+01 0.  1.
       -5    1    3    3    0  502  0.50401565686E+03  0.92049176605E+02 -0.82384699170E+03  0.97018080223E+03  0.46999998093E+01 0. -1.
</event>
<event>
 5   0  0.1078018E-03  0.1427143E+04  0.7818609E-02  0.8934402E-01
        1   -1    0    0  501    0  0.00000000000E+00  0.00000000000E+00  0.46520306943E+03  0.46520306945E+03  0.50400001928E-02 0. -1.
       -1   -1    0    0    0  501  0.00000000000E+00  0.00000000000E+00 -0.10945426630E+04  0.10945426630E+04  0.50400001928E-02 0.  1.
    10030    2    1    2    0    0  0.00000000000E+00  0.00000000000E+00 -0.62933959358E+03  0.15597457325E+04  0.14271434497E+04 0.  0.
        4    1    3    3  502    0 -0.21725432347E+02 -0.52178512222E+03 -0.84611319588E+03  0.99430420965E+03  0.12699999809E+01 0.  1.
       -4    1    3    3    0  502  0.21725432347E+02  0.52178512222E+03  0.21677360230E+03  0.56544152282E+03  0.12699999809E+01 0. -1.
</event>
<event>
 5   0  0.1078018E-03  0.1491658E+04  0.7818609E-02  0.8890019E-01
        1   -1    0    0  501    0  0.00000000000E+00  0.00000000000E+00  0.75226943721E+03  0.75226943722E+03  0.50400001928E-02 0. -1.
       -1   -1    0    0    0  501  0.00000000000E+00  0.00000000000E+00 -0.73944370683E+03  0.73944370685E+03  0.50400001928E-02 0.  1.
    10030    2    1    2    0    0  0.00000000000E+00  0.00000000000E+00  0.12825730375E+02  0.14917131441E+04  0.14916580053E+04 0.  0.
        4    1    3    3  502    0  0.13625567607E+03  0.49625883436E+03  0.54626691339E+03  0.75049823018E+03  0.12699999809E+01 0. -1.
       -4    1    3    3    0  502 -0.13625567607E+03 -0.49625883436E+03 -0.53344118301E+03  0.74121491389E+03  0.12699999809E+01 0.  1.
</event>
<event>
 5   0  0.1077140E-03  0.9831263E+03  0.7818609E-02  0.9327248E-01
        1   -1    0    0  501    0  0.00000000000E+00  0.00000000000E+00  0.42152719439E+03  0.42152719442E+03  0.50400001928E-02 0. -1.
       -1   -1    0    0    0  501  0.00000000000E+00  0.00000000000E+00 -0.57323544009E+03  0.57323544011E+03  0.50400001928E-02 0.  1.
    10030    2    1    2    0    0  0.00000000000E+00  0.00000000000E+00 -0.15170824570E+03  0.99476263453E+03  0.98312629262E+03 0.  0.
        1    1    3    3  502    0 -0.35463679240E+03  0.98884086209E+02  0.25371411561E+03  0.44711986035E+03  0.50400001928E-02 0. -1.
       -1    1    3    3    0  502  0.35463679240E+03 -0.98884086209E+02 -0.40542236131E+03  0.54764277418E+03  0.50400001928E-02 0.  1.
</event>
<event>
 5   0  0.1077140E-03  0.1502010E+04  0.7818609E-02  0.8883118E-01
       -1   -1    0    0    0  501  0.00000000000E+00  0.00000000000E+00  0.60312070751E+03  0.60312070753E+03  0.50400001928E-02 0. -1.
        1   -1    0    0  501    0  0.00000000000E+00  0.00000000000E+00 -0.93514987969E+03  0.93514987970E+03  0.50400001928E-02 0.  1.
    10030    2    1    2    0    0  0.00000000000E+00  0.00000000000E+00 -0.33202917217E+03  0.15382705872E+04  0.15020096632E+04 0.  0.
        1    1    3    3  502    0  0.71264031003E+03 -0.19506653813E+03 -0.30380290094E+03  0.79887631610E+03  0.50400001928E-02 0.  1.
       -1    1    3    3    0  502 -0.71264031003E+03  0.19506653813E+03 -0.28226271234E+02  0.73939427114E+03  0.50400001928E-02 0. -1.
</event>
<event>
 5   0  0.1069697E-03  0.1463096E+04  0.7818609E-02  0.8909371E-01
       -1   -1    0    0    0  501  0.00000000000E+00  0.00000000000E+00  0.88263690288E+03  0.88263690289E+03  0.50400001928E-02 0.  1.
        1   -1    0    0  501    0  0.00000000000E+00  0.00000000000E+00 -0.60632227899E+03  0.60632227901E+03  0.50400001928E-02 0. -1.
    10030    2    1    2    0    0  0.00000000000E+00  0.00000000000E+00  0.27631462388E+03  0.14889591819E+04  0.14630959210E+04 0.  0.
        2    1    3    3  502    0  0.40410372287E+03 -0.23658598304E+03 -0.43381855647E+03  0.63833477592E+03  0.25500000920E-02 0. -1.
       -2    1    3    3    0  502 -0.40410372287E+03  0.23658598304E+03  0.71013318035E+03  0.85062440598E+03  0.25500000920E-02 0.  1.
</event>
<event>
 5   0  0.1078787E-03  0.1612602E+04  0.7818609E-02  0.8812843E-01
       -1   -1    0    0    0  501  0.00000000000E+00  0.00000000000E+00  0.61064336214E+03  0.61064336216E+03  0.50400001928E-02 0. -1.
        1   -1    0    0  501    0  0.00000000000E+00  0.00000000000E+00 -0.10646496887E+04  0.10646496887E+04  0.50400001928E-02 0.  1.
    10030    2    1    2    0    0  0.00000000000E+00  0.00000000000E+00 -0.45400632656E+03  0.16752930509E+04  0.16126019539E+04 0.  0.
        5    1    3    3  502    0 -0.56182106129E+03  0.37066934675E+03 -0.68817566320E+03  0.96262479864E+03  0.46999998093E+01 0.  1.
       -5    1    3    3    0  502  0.56182106129E+03 -0.37066934675E+03  0.23416933664E+03  0.71266825224E+03  0.46999998093E+01 0. -1.
</event>
<event>
 5   0  0.1069697E-03  0.1502235E+04  0.7818609E-02  0.8882968E-01
        1   -1    0    0  501    0  0.00000000000E+00  0.00000000000E+00  0.11534872157E+04  0.11534872157E+04  0.50400001928E-02 0. -1.
       -1   -1    0    0    0  501  0.00000000000E+00  0.00000000000E+00 -0.48910590012E+03  0.48910590015E+03  0.50400001928E-02 0.  1.
    10030    2    1    2    0    0  0.00000000000E+00  0.00000000000E+00  0.66438131559E+03  0.16425931159E+04  0.15022348724E+04 0.  0.
        2    1    3    3  502    0 -0.45853080414E+03 -0.25773796664E+03  0.91847677028E+03  0.10584323008E+04  0.25500000920E-02 0. -1.
       -2    1    3    3    0  502  0.45853080414E+03  0.25773796664E+03 -0.25409545469E+03  0.58416081509E+03  0.25500000920E-02 0.  1.
</event>
<event>
 5   0  0.2094566E-03  0.1106163E+04  0.7818609E-02  0.9199206E-01
       -2   -1    0    0    0  501  0.00000000000E+00  0.00000000000E+00  0.13004482974E+03  0.13004482976E+03  0.25500000920E-02 0.  1.
        2   -1    0    0  501    0  0.00000000000E+00  0.00000000000E+00 -0.23522586099E+04  0.23522586099E+04  0.25500000920E-02 0. -1.
    10030    2    1    2    0    0  0.00000000000E+00  0.00000000000E+00 -0.22222137802E+04  0.24823034397E+04  0.11061628641E+04 0.  0.
        1    1    3    3  502    0 -0.43574715635E+03  0.17047464139E+03 -0.44934727245E+03  0.64872965009E+03  0.50400001928E-02 0.  1.
       -1    1    3    3    0  502  0.43574715635E+03 -0.17047464139E+03 -0.17728665077E+04  0.18335737896E+04  0.50400001928E-02 0. -1.
</event>
<event>
 5   0  0.2094566E-03  0.1491385E+04  0.7818609E-02  0.8890202E-01
        2   -1    0    0  501    0  0.00000000000E+00  0.00000000000E+00  0.90787615133E+03  0.90787615133E+03  0.25500000920E-02 0. -1.
       -2   -1    0    0    0  501  0.00000000000E+00  0.00000000000E+00 -0.61248157981E+03  0.61248157982E+03  0.25500000920E-02 0.  1.
    10030    2    1    2    0    0  0.00000000000E+00  0.00000000000E+00  0.29539457151E+03  0.15203577311E+04  0.14913851541E+04 0.  0.
        1    1    3    3  502    0  0.24349697536E+03 -0.36173406420E+03  0.76435780256E+03  0.87999156847E+03  0.50400001928E-02 0. -1.
       -1    1    3    3    0  502 -0.24349697536E+03  0.36173406420E+03 -0.46896323105E+03  0.64036616268E+03  0.50400001928E-02 0.  1.
</event>
<event>
 5   0  0.1961098E-03  0.1471742E+04  0.7818609E-02  0.8903465E-01
       -2   -1    0    0    0  501  0.00000000000E+00  0.00000000000E+00  0.66987832462E+03  0.66987832463E+03  0.25500000920E-02 0.  1.
        2   -1    0    0  501    0  0.00000000000E+00  0.00000000000E+00 -0.80836452847E+03  0.80836452847E+03  0.25500000920E-02 0. -1.
    10030    2    1    2    0    0  0.00000000000E+00  0.00000000000E+00 -0.13848620384E+03  0.14782428531E+04  0.14717416567E+04 0.  0.
        2    1    3    3  502    0 -0.25558994942E+03  0.55409231878E+03 -0.48235222351E+03  0.77782272242E+03  0.25500000920E-02 0. -1.
       -2    1    3    3    0  502  0.25558994942E+03 -0.55409231878E+03  0.34386601967E+03  0.70042013068E+03  0.25500000920E-02 0.  1.
</event>
<event>
 5   0  0.1078018E-03  0.1455295E+04  0.7818609E-02  0.8914738E-01
        1   -1    0    0  501    0  0.00000000000E+00  0.00000000000E+00  0.21663545960E+04  0.21663545960E+04  0.50400001928E-02 0.  1.
       -1   -1    0    0    0  501  0.00000000000E+00  0.00000000000E+00 -0.24440645148E+03  0.24440645153E+03  0.50400001928E-02 0. -1.
    10030    2    1    2    0    0  0.00000000000E+00  0.00000000000E+00  0.19219481445E+04  0.24107610475E+04  0.14552952134E+04 0.  0.
        4    1    3    3  502    0  0.72391938667E+03 -0.72968886656E+02  0.97630850170E+03  0.12176056998E+04  0.12699999809E+01 0.  1.
       -4    1    3    3    0  502 -0.72391938667E+03  0.72968886656E+02  0.94563964279E+03  0.11931553477E+04  0.12699999809E+01 0. -1.
</event>
<event>
 5   0  0.1078018E-03  0.1485377E+04  0.7818609E-02  0.8894236E-01
        1   -1    0    0  501    0  0.00000000000E+00  0.00000000000E+00  0.15998908769E+04  0.15998908769E+04  0.50400001928E-02 0.  1.
       -1   -1    0    0    0  501  0.00000000000E+00  0.00000000000E+00 -0.34476486212E+03  0.34476486216E+03  0.50400001928E-02 0. -1.
    10030    2    1    2    0    0  0.00000000000E+00  0.00000000000E+00  0.12551260148E+04  0.19446557391E+04  0.14853769321E+04 0.  0.
        4    1    3    3  502    0  0.11765458951E+03  0.68445314056E+03  0.97212360290E+03  0.11947152867E+04  0.12699999809E+01 0.  1.
       -4    1    3    3    0  502 -0.11765458951E+03 -0.68445314056E+03  0.28300241186E+03  0.74994045236E+03  0.12699999809E+01 0. -1.
</event>
<event>
 5   0  0.1077140E-03  0.1587535E+04  0.7818609E-02  0.8828243E-01
       -1   -1    0    0    0  501  0.00000000000E+00  0.00000000000E+00  0.31917210221E+03  0.31917210225E+03  0.50400001928E-02 0. -1.
        1   -1    0    0  501    0  0.00000000000E+00  0.00000000000E+00 -0.19740657934E+04  0.19740657934E+04  0.50400001928E-02 0.  1.
    10030    2    1    2    0    0  0.00000000000E+00  0.00000000000E+00 -0.16548936912E+04  0.22932378957E+04  0.15875348554E+04 0.  0.
        1    1    3    3  502    0 -0.27409377956E+03 -0.32734632831E+03  0.13918252306E+03  0.44905989957E+03  0.50400001928E-02 0. -1.
       -1    1    3    3    0  502  0.27409377956E+03  0.32734632831E+03 -0.17940762143E+04  0.18441779961E+04  0.50400001928E-02 0.  1.
</event>
<event>
 5   0  0.1069697E-03  0.1355486E+04  0.7818609E-02  0.8986686E-01
       -1   -1    0    0    0  501  0.00000000000E+00  0.00000000000E+00  0.11153464610E+04  0.11153464610E+04  0.50400001928E-02 0. -1.
        1   -1    0    0  501    0  0.00000000000E+00  0.00000000000E+00 -0.41183229063E+03  0.41183229066E+03  0.50400001928E-02 0.  1.
    10030    2    1    2    0    0  0.00000000000E+00  0.00000000000E+00  0.70351417032E+03  0.15271787516E+04  0.13554861680E+04 0.  0.
        2    1    3    3  502    0  0.15975425627E+02 -0.46101838476E+02  0.11133651676E+04  0.11144337532E+04  0.25500000920E-02 0. -1.
       -2    1    3    3    0  502 -0.15975425627E+02  0.46101838476E+02 -0.40985099731E+03  0.41274499844E+03  0.25500000920E-02 0.  1.
</event>
<event>
 5   0  0.1069697E-03  0.1464418E+04  0.7818609E-02  0.8908465E-01
        1   -1    0    0  501    0  0.00000000000E+00  0.00000000000E+00  0.44823718803E+03  0.44823718806E+03  0.50400001928E-02 0.  1.
       -1   -1    0    0    0  501  0.00000000000E+00  0.00000000000E+00 -0.11960855789E+04  0.11960855789E+04  0.50400001928E-02 0. -1.
    10030    2    1    2    0    0  0.00000000000E+00  0.00000000000E+00 -0.74784839088E+03  0.16443227670E+04  0.14644180231E+04 0.  0.
        2    1    3    3  502    0 -0.58658735695E+02 -0.23351802278E+03 -0.11503642923E+04  0.11752912487E+04  0.25500000920E-02 0. -1.
       -2    1    3    3    0  502  0.58658735695E+02  0.23351802278E+03  0.40251590142E+03  0.46903151828E+03  0.25500000920E-02 0.  1.
</event>
<event>
 5   0  0.2150197E-03  0.1475098E+04  0.7818609E-02  0.8901183E-01
       -2   -1    0    0    0  501  0.00000000000E+00  0.00000000000E+00  0.68793736153E+03  0.68793736153E+03  0.25500000920E-02 0. -1.
        2   -1    0    0  501    0  0.00000000000E+00  0.00000000000E+00 -0.79073841372E+03  0.79073841372E+03  0.25500000920E-02 0.  1.
    10030    2    1    2    0    0  0.00000000000E+00  0.00000000000E+00 -0.10280105219E+03  0.14786757753E+04  0.14750979601E+04 0.  0.
        3    1    3    3  502    0  0.17072830844E+03  0.59787974601E+03  0.34626071504E+03  0.71169153358E+03  0.10100000352E+00 0. -1.
       -3    1    3    3    0  502 -0.17072830844E+03 -0.59787974601E+03 -0.44906176723E+03  0.76698424167E+03  0.10100000352E+00 0.  1.
</event>
<event>
 5   0  0.2094566E-03  0.1513579E+04  0.7818609E-02  0.8875473E-01
       -2   -1    0    0    0  501  0.00000000000E+00  0.00000000000E+00  0.38567334664E+03  0.38567334665E+03  0.25500000920E-02 0. -1.
        2   -1    0    0  501    0  0.00000000000E+00  0.00000000000E+00 -0.14850150205E+04  0.14850150205E+04  0.25500000920E-02 0.  1.
    10030    2    1    2    0    0  0.00000000000E+00  0.00000000000E+00 -0.10993416739E+04  0.18706883672E+04  0.15135794829E+04 0.  0.
        1    1    3    3  502    0 -0.54411255477E+03  0.41315379907E+03 -0.95201744236E+03  0.11717899746E+04  0.50400001928E-02 0. -1.
       -1    1    3    3    0  502  0.54411255477E+03 -0.41315379907E+03 -0.14732423151E+03  0.69889839259E+03  0.50400001928E-02 0.  1.
</event>
<event>
 5   0  0.2150197E-03  0.7638006E+03  0.7818609E-02  0.9613945E-01
        2   -1    0    0  501    0  0.00000000000E+00  0.00000000000E+00  0.71738772886E+03  0.71738772886E+03  0.25500000920E-02 0.  1.
       -2   -1    0    0    0  501  0.00000000000E+00  0.00000000000E+00 -0.20330407606E+03  0.20330407608E+03  0.25500000920E-02 0. -1.
    10030    2    1    2    0    0  0.00000000000E+00  0.00000000000E+00  0.51408365280E+03  0.92069180494E+03  0.76380062687E+03 0.  0.
        3    1    3    3  502    0 -0.23745574450E+03 -0.74937708145E+02 -0.92000341896E+02  0.26545237578E+03  0.10100000352E+00 0. -1.
       -3    1    3    3    0  502  0.23745574450E+03  0.74937708145E+02  0.60608399469E+03  0.65523942916E+03  0.10100000352E+00 0.  1.
</event>
<event>
 5   0  0.1077140E-03  0.1490435E+04  0.7818609E-02  0.8890838E-01
       -1   -1    0    0    0  501  0.00000000000E+00  0.00000000000E+00  0.57917824250E+03  0.57917824253E+03  0.50400001928E-02 0.  1.
        1   -1    0    0  501    0  0.00000000000E+00  0.00000000000E+00 -0.95885738020E+03  0.95885738021E+03  0.50400001928E-02 0. -1.
    10030    2    1    2    0    0  0.00000000000E+00  0.00000000000E+00 -0.37967913769E+03  0.15380356227E+04  0.14904352818E+04 0.  0.
        1    1    3    3  502    0 -0.89911663050E+02 -0.46610143823E+03 -0.78265554265E+03  0.91536023310E+03  0.50400001928E-02 0. -1.
       -1    1    3    3    0  502  0.89911663050E+02  0.46610143823E+03  0.40297640496E+03  0.62267538963E+03  0.50400001928E-02 0.  1.
</event>
<event>
 5   0  0.1961098E-03  0.1522654E+04  0.7818609E-02  0.8869527E-01
       -2   -1    0    0    0  501  0.00000000000E+00  0.00000000000E+00  0.53573917044E+03  0.53573917045E+03  0.25500000920E-02 0. -1.
        2   -1    0    0  501    0  0.00000000000E+00  0.00000000000E+00 -0.10819044862E+04  0.10819044862E+04  0.25500000920E-02 0.  1.
    10030    2    1    2    0    0  0.00000000000E+00  0.00000000000E+00 -0.54616531572E+03  0.16176436566E+04  0.15226537517E+04 0.  0.
        2    1    3    3  502    0  0.55760220483E+02 -0.32880325289E+03  0.45400896274E+03  0.56333375503E+03  0.25500000920E-02 0. -1.
       -2    1    3    3    0  502 -0.55760220483E+02  0.32880325289E+03 -0.10001742785E+04  0.10543099016E+04  0.25500000920E-02 0.  1.
</event>
<event>
 5   0  0.1961098E-03  0.1408372E+04  0.7818609E-02  0.8947781E-01
       -2   -1    0    0    0  501  0.00000000000E+00  0.00000000000E+00  0.41815874772E+03  0.41815874772E+03  0.25500000920E-02 0.  1.
        2   -1    0    0  501    0  0.00000000000E+00  0.00000000000E+00 -0.11858603526E+04  0.11858603526E+04  0.25500000920E-02 0. -1.
    10030    2    1    2    0    0  0.00000000000E+00  0.00000000000E+00 -0.76770160487E+03  0.16040191003E+04  0.14083719395E+04 0.  0.
        2    1    3    3  502    0 -0.48211049718E+03  0.18690583306E+03 -0.92828846174E+03  0.10625835450E+04  0.25500000920E-02 0. -1.
       -2    1    3    3    0  502  0.48211049718E+03 -0.18690583306E+03  0.16058685688E+03  0.54143555529E+03  0.25500000920E-02 0.  1.
</event>
<event>
 5   0  0.1077140E-03  0.1486558E+04  0.7818609E-02  0.8893441E-01
       -1   -1    0    0    0  501  0.00000000000E+00  0.00000000000E+00  0.71807813186E+03  0.71807813188E+03  0.50400001928E-02 0.  1.
        1   -1    0    0  501    0  0.00000000000E+00  0.00000000000E+00 -0.76936419809E+03  0.76936419810E+03  0.50400001928E-02 0. -1.
    10030    2    1    2    0    0  0.00000000000E+00  0.00000000000E+00 -0.51286066227E+02  0.14874423300E+04  0.14865579116E+04 0.  0.
        1    1    3    3  502    0 -0.92583586268E+02 -0.17114359894E+01  0.71228400655E+03  0.71827790964E+03  0.50400001928E-02 0.  1.
       -1    1    3    3    0  502  0.92583586268E+02  0.17114359894E+01 -0.76357007278E+03  0.76916442035E+03  0.50400001928E-02 0. -1.
</event>
<event>
 5   0  0.1078018E-03  0.1504709E+04  0.7818609E-02  0.8881327E-01
       -1   -1    0    0    0  501  0.00000000000E+00  0.00000000000E+00  0.28364898290E+03  0.28364898295E+03  0.50400001928E-02 0.  1.
        1   -1    0    0  501    0  0.00000000000E+00  0.00000000000E+00 -0.19955556459E+04  0.19955556459E+04  0.50400001928E-02 0. -1.
    10030    2    1    2    0    0  0.00000000000E+00  0.00000000000E+00 -0.17119066630E+04  0.22792046288E+04  0.15047090474E+04 0.  0.
        4    1    3    3  502    0 -0.32563195829E+03  0.52918347455E+03 -0.14985287099E+04  0.16222395721E+04  0.12699999809E+01 0. -1.
       -4    1    3    3    0  502  0.32563195829E+03 -0.52918347455E+03 -0.21337795308E+03  0.65696505673E+03  0.12699999809E+01 0.  1.
</event>
<event>
 5   0  0.1078787E-03  0.1497773E+04  0.7818609E-02  0.8885935E-01
        1   -1    0    0  501    0  0.00000000000E+00  0.00000000000E+00  0.58634893242E+03  0.58634893244E+03  0.50400001928E-02 0. -1.
       -1   -1    0    0    0  501  0.00000000000E+00  0.00000000000E+00 -0.95648036629E+03  0.95648036631E+03  0.50400001928E-02 0.  1.
    10030    2    1    2    0    0  0.00000000000E+00  0.00000000000E+00 -0.37013143387E+03  0.15428292988E+04  0.14977733362E+04 0.  0.
        5    1    3    3  502    0 -0.30992606210E+03 -0.26716313123E+02  0.51663200351E+03  0.60307432577E+03  0.46999998093E+01 0. -1.
       -5    1    3    3    0  502  0.30992606210E+03  0.26716313123E+02 -0.88676343738E+03  0.93975497298E+03  0.46999998093E+01 0.  1.
</event>
<event>
 5   0  0.1993623E-03  0.1570089E+04  0.7818609E-02  0.8839137E-01
       -2   -1    0    0    0  501  0.00000000000E+00  0.00000000000E+00  0.53694982123E+03  0.53694982124E+03  0.25500000920E-02 0.  1.
        2   -1    0    0  501    0  0.00000000000E+00  0.00000000000E+00 -0.11477702307E+04  0.11477702307E+04  0.25500000920E-02 0. -1.
    10030    2    1    2    0    0  0.00000000000E+00  0.00000000000E+00 -0.61082040950E+03  0.16847200520E+04  0.15700891952E+04 0.  0.
        4    1    3    3  502    0  0.28153985584E+03 -0.36902337499E+03  0.37394141659E+03  0.59605095223E+03  0.12699999809E+01 0.  1.
       -4    1    3    3    0  502 -0.28153985584E+03  0.36902337499E+03 -0.98476182609E+03  0.10886690997E+04  0.12699999809E+01 0. -1.
</event>
<event>
 5   0  0.1078787E-03  0.1540300E+04  0.7818609E-02  0.8858088E-01
       -1   -1    0    0    0  501  0.00000000000E+00  0.00000000000E+00  0.38290192287E+03  0.38290192290E+03  0.50400001928E-02 0.  1.
        1   -1    0    0  501    0  0.00000000000E+00  0.00000000000E+00 -0.15490409469E+04  0.15490409469E+04  0.50400001928E-02 0. -1.
    10030    2    1    2    0    0  0.00000000000E+00  0.00000000000E+00 -0.11661390241E+04  0.19319428699E+04  0.15402996556E+04 0.  0.
        5    1    3    3  502    0  0.59260875751E+03  0.10195872862E+03  0.20449242140E+02  0.60168179573E+03  0.46999998093E+01 0.  1.
       -5    1    3    3    0  502 -0.59260875751E+03 -0.10195872862E+03 -0.11865882662E+04  0.13302610741E+04  0.46999998093E+01 0. -1.
</event>
<event>
 5   0  0.2150197E-03  0.1499570E+04  0.7818609E-02  0.8884739E-01
       -2   -1    0    0    0  501  0.00000000000E+00  0.00000000000E+00  0.32445464029E+03  0.32445464030E+03  0.25500000920E-02 0. -1.
        2   -1    0    0  501    0  0.00000000000E+00  0.00000000000E+00 -0.17326847809E+04  0.17326847809E+04  0.25500000920E-02 0.  1.
    10030    2    1    2    0    0  0.00000000000E+00  0.00000000000E+00 -0.14082301406E+04  0.20571394212E+04  0.14995700949E+04 0.  0.
        3    1    3    3  502    0  0.16527370379E+03 -0.11978282385E+03  0.28560706218E+03  0.35104803977E+03  0.10100000352E+00 0. -1.
       -3    1    3    3    0  502 -0.16527370379E+03  0.11978282385E+03 -0.16938372028E+04  0.17060913815E+04  0.10100000352E+00 0.  1.
</event>
<event>
 5   0  0.1078787E-03  0.1529707E+04  0.7818609E-02  0.8864935E-01
       -1   -1    0    0    0  501  0.00000000000E+00  0.00000000000E+00  0.32468647538E+03  0.32468647542E+03  0.50400001928E-02 0. -1.
        1   -1    0    0  501    0  0.00000000000E+00  0.00000000000E+00 -0.18017417712E+04  0.18017417712E+04  0.50400001928E-02 0.  1.
    10030    2    1    2    0    0  0.00000000000E+00  0.00000000000E+00 -0.14770552958E+04  0.21264282466E+04  0.15297074037E+04 0.  0.
        5    1    3    3  502    0 -0.54589649685E+01  0.31262197636E+03 -0.17088219681E+04  0.17371980052E+04  0.46999998093E+01 0.  1.
       -5    1    3    3    0  502  0.54589649685E+01 -0.31262197636E+03  0.23176667237E+03  0.38923024140E+03  0.46999998093E+01 0. -1.
</event>
<event>
 5   0  0.1087761E-03  0.7438776E+03  0.7818609E-02  0.9645005E-01
        1   -1    0    0  501    0  0.00000000000E+00  0.00000000000E+00  0.85083754536E+03  0.85083754538E+03  0.50400001928E-02 0. -1.
       -1   -1    0    0    0  501  0.00000000000E+00  0.00000000000E+00 -0.16259092196E+03  0.16259092204E+03  0.50400001928E-02 0.  1.
    10030    2    1    2    0    0  0.00000000000E+00  0.00000000000E+00  0.68824662340E+03  0.10134284674E+04  0.74387757322E+03 0.  0.
        3    1    3    3  502    0  0.28741437499E+03 -0.47178410111E+02  0.65925447780E+03  0.72072831360E+03  0.10100000352E+00 0. -1.
       -3    1    3    3    0  502 -0.28741437499E+03  0.47178410111E+02  0.28992145609E+02  0.29270015381E+03  0.10100000352E+00 0.  1.
</event>
<event>
 5   0  0.1087761E-03  0.1480687E+04  0.7818609E-02  0.8897398E-01
       -1   -1    0    0    0  501  0.00000000000E+00  0.00000000000E+00  0.31988911353E+03  0.31988911357E+03  0.50400001928E-02 0. -1.
        1   -1    0    0  501    0  0.00000000000E+00  0.00000000000E+00 -0.17134330998E+04  0.17134330998E+04  0.50400001928E-02 0.  1.
    10030    2    1    2    0    0  0.00000000000E+00  0.00000000000E+00 -0.13935439863E+04  0.20333222134E+04  0.14806871316E+04 0.  0.
        3    1    3    3  502    0  0.49521175329E+03 -0.55019185127E+03 -0.67924884831E+03  0.10046515624E+04  0.10100000352E+00 0.  1.
       -3    1    3    3    0  502 -0.49521175329E+03  0.55019185127E+03 -0.71429513798E+03  0.10286706510E+04  0.10100000352E+00 0. -1.
</event>
<event>
 5   0  0.1078787E-03  0.1487164E+04  0.7818609E-02  0.8893034E-01
       -1   -1    0    0    0  501  0.00000000000E+00  0.00000000000E+00  0.57286223706E+03  0.57286223708E+03  0.50400001928E-02 0.  1.
        1   -1    0    0  501    0  0.00000000000E+00  0.00000000000E+00 -0.96517868005E+03  0.96517868007E+03  0.50400001928E-02 0. -1.
    10030    2    1    2    0    0  0.00000000000E+00  0.00000000000E+00 -0.39231644299E+03  0.15380409171E+04  0.14871643054E+04 0.  0.
        5    1    3    3  502    0 -0.45229020522E+03  0.17798735387E+03 -0.77812234670E+03  0.91746520605E+03  0.46999998093E+01 0. -1.
       -5    1    3    3    0  502  0.45229020522E+03 -0.17798735387E+03  0.38580590371E+03  0.62057571110E+03  0.46999998093E+01 0.  1.
</event>
<event>
 5   0  0.1993623E-03  0.1500026E+04  0.7818609E-02  0.8884435E-01
       -2   -1    0    0    0  501  0.00000000000E+00  0.00000000000E+00  0.38169184520E+03  0.38169184521E+03  0.25500000920E-02 0.  1.
        2   -1    0    0  501    0  0.00000000000E+00  0.00000000000E+00 -0.14737536653E+04  0.14737536653E+04  0.25500000920E-02 0. -1.
    10030    2    1    2    0    0  0.00000000000E+00  0.00000000000E+00 -0.10920618201E+04  0.18554455105E+04  0.15000263409E+04 0.  0.
        4    1    3    3  502    0  0.40398636909E+03  0.15660903810E+03 -0.13032846777E+04  0.13734205260E+04  0.12699999809E+01 0. -1.
       -4    1    3    3    0  502 -0.40398636909E+03 -0.15660903810E+03  0.21122285759E+03  0.48202498451E+03  0.12699999809E+01 0.  1.
</event>
<event>
 5   0  0.2150197E-03  0.1448366E+04  0.7818609E-02  0.8919534E-01
       -2   -1    0    0    0  501  0.00000000000E+00  0.00000000000E+00  0.91677580596E+03  0.91677580596E+03  0.25500000920E-02 0.  1.
        2   -1    0    0  501    0  0.00000000000E+00  0.00000000000E+00 -0.57204958744E+03  0.57204958745E+03  0.25500000920E-02 0. -1.
    10030    2    1    2    0    0  0.00000000000E+00  0.00000000000E+00  0.34472621852E+03  0.14888253934E+04  0.14483662818E+04 0.  0.
        3    1    3    3  502    0  0.13804485257E+03  0.51517784943E+02  0.90120459677E+03  0.91317041067E+03  0.10100000352E+00 0.  1.
       -3    1    3    3    0  502 -0.13804485257E+03 -0.51517784943E+02 -0.55647837825E+03  0.57565498274E+03  0.10100000352E+00 0. -1.
</event>
<event>
 5   0  0.1961098E-03  0.1534074E+04  0.7818609E-02  0.8862105E-01
        2   -1    0    0  501    0  0.00000000000E+00  0.00000000000E+00  0.10522970669E+04  0.10522970669E+04  0.25500000920E-02 0.  1.
       -2   -1    0    0    0  501  0.00000000000E+00  0.00000000000E+00 -0.55910584747E+03  0.55910584748E+03  0.25500000920E-02 0. -1.
    10030    2    1    2    0    0  0.00000000000E+00  0.00000000000E+00  0.49319121947E+03  0.16114029144E+04  0.15340735881E+04 0.  0.
        2    1    3    3  502    0 -0.39343185861E+03 -0.55294655879E+03  0.62211739335E+03  0.92063487625E+03  0.25500000920E-02 0.  1.
       -2    1    3    3    0  502  0.39343185861E+03  0.55294655879E+03 -0.12892617388E+03  0.69076803818E+03  0.25500000920E-02 0. -1.
</event>
<event>
 5   0  0.2094566E-03  0.1494142E+04  0.7818609E-02  0.8888358E-01
        2   -1    0    0  501    0  0.00000000000E+00  0.00000000000E+00  0.12237795529E+04  0.12237795529E+04  0.25500000920E-02 0. -1.
       -2   -1    0    0    0  501  0.00000000000E+00  0.00000000000E+00 -0.45605860640E+03  0.45605860640E+03  0.25500000920E-02 0.  1.
    10030    2    1    2    0    0  0.00000000000E+00  0.00000000000E+00  0.76772094655E+03  0.16798381594E+04  0.14941421585E+04 0.  0.
        1    1    3    3  502    0 -0.52042774464E+02 -0.29707621399E+03 -0.38457047464E+03  0.48873016817E+03  0.50400001928E-02 0.  1.
       -1    1    3    3    0  502  0.52042774464E+02  0.29707621399E+03  0.11522914212E+04  0.11911079912E+04  0.50400001928E-02 0. -1.
</event>
<event>
 5   0  0.2111533E-03  0.1479866E+04  0.7818609E-02  0.8897953E-01
        2   -1    0    0  501    0  0.00000000000E+00  0.00000000000E+00  0.41648556007E+03  0.41648556007E+03  0.25500000920E-02 0.  1.
       -2   -1    0    0    0  501  0.00000000000E+00  0.00000000000E+00 -0.13145740913E+04  0.13145740913E+04  0.25500000920E-02 0. -1.
    10030    2    1    2    0    0  0.00000000000E+00  0.00000000000E+00 -0.89808853128E+03  0.17310596514E+04  0.14798663814E+04 0.  0.
        5    1    3    3  502    0 -0.59482491859E+03 -0.39781036712E+03 -0.22893010459E+03  0.75133271907E+03  0.46999998093E+01 0.  1.
       -5    1    3    3    0  502  0.59482491859E+03  0.39781036712E+03 -0.66915842669E+03  0.97972693235E+03  0.46999998093E+01 0. -1.
</event>
<event>
 5   0  0.2150197E-03  0.1507859E+04  0.7818609E-02  0.8879243E-01
        2   -1    0    0  501    0  0.00000000000E+00  0.00000000000E+00  0.15020806485E+04  0.15020806485E+04  0.25500000920E-02 0.  1.
       -2   -1    0    0    0  501  0.00000000000E+00  0.00000000000E+00 -0.37841514344E+03  0.37841514345E+03  0.25500000920E-02 0. -1.
    10030    2    1    2    0    0  0.00000000000E+00  0.00000000000E+00  0.11236655050E+04  0.18804957919E+04  0.15078594949E+04 0.  0.
        3    1    3    3  502    0  0.31314025248E+03  0.30543474626E+03  0.13276380475E+04  0.13978447687E+04  0.10100000352E+00 0.  1.
       -3    1    3    3    0  502 -0.31314025248E+03 -0.30543474626E+03 -0.20397254248E+03  0.48265102323E+03  0.10100000352E+00 0. -1.
</event>
<event>
 5   0  0.1087761E-03  0.1399089E+04  0.7818609E-02  0.8954478E-01
        1   -1    0    0  501    0  0.00000000000E+00  0.00000000000E+00  0.16333221971E+04  0.16333221971E+04  0.50400001928E-02 0. -1.
       -1   -1    0    0    0  501  0.00000000000E+00  0.00000000000E+00 -0.29961175451E+03  0.29961175456E+03  0.50400001928E-02 0.  1.
    10030    2    1    2    0    0  0.00000000000E+00  0.00000000000E+00  0.13337104425E+04  0.19329339516E+04  0.13990890310E+04 0.  0.
        3    1    3    3  502    0 -0.60082870232E+03  0.33565336626E+03  0.83998814808E+03  0.10859274428E+04  0.10100000352E+00 0.  1.
       -3    1    3    3    0  502  0.60082870232E+03 -0.33565336626E+03  0.49372229446E+03  0.84700650886E+03  0.10100000352E+00 0. -1.
</event>
<event>
 5   0  0.1087761E-03  0.1490102E+04  0.7818609E-02  0.8891062E-01
        1   -1    0    0  501    0  0.00000000000E+00  0.00000000000E+00  0.81636832096E+03  0.81636832098E+03  0.50400001928E-02 0.  1.
       -1   -1    0    0    0  501  0.00000000000E+00  0.00000000000E+00 -0.67996345086E+03  0.67996345088E+03  0.50400001928E-02 0. -1.
    10030    2    1    2    0    0  0.00000000000E+00  0.00000000000E+00  0.13640487011E+03  0.14963317719E+04  0.14901015009E+04 0.  0.
        3    1    3    3  502    0  0.72026574322E+03  0.16150301689E+03  0.16979184577E+03  0.75742672676E+03  0.10100000352E+00 0. -1.
       -3    1    3    3    0  502 -0.72026574322E+03 -0.16150301689E+03 -0.33386975664E+02  0.73890504509E+03  0.10100000352E+00 0.  1.
</event>
<event>
 5   0  0.1078787E-03  0.1504114E+04  0.7818609E-02  0.8881722E-01
       -1   -1    0    0    0  501  0.00000000000E+00  0.00000000000E+00  0.14249227147E+04  0.14249227147E+04  0.50400001928E-02 0. -1.
        1   -1    0    0  501    0  0.00000000000E+00  0.00000000000E+00 -0.39692652996E+03  0.39692652999E+03  0.50400001928E-02 0.  1.
    10030    2    1    2    0    0  0.00000000000E+00  0.00000000000E+00  0.10279961848E+04  0.18218492447E+04  0.15041138636E+04 0.  0.
        5    1    3    3  502    0  0.40251509153E+03 -0.63293453045E+03  0.57970761659E+03  0.94800186153E+03  0.46999998093E+01 0. -1.
       -5    1    3    3    0  502 -0.40251509153E+03  0.63293453045E+03  0.44828856817E+03  0.87384738318E+03  0.46999998093E+01 0.  1.
</event>
<event>
 5   0  0.1087761E-03  0.1462377E+04  0.7818609E-02  0.8909865E-01
       -1   -1    0    0    0  501  0.00000000000E+00  0.00000000000E+00  0.10230151006E+04  0.10230151006E+04  0.50400001928E-02 0.  1.
        1   -1    0    0  501    0  0.00000000000E+00  0.00000000000E+00 -0.52260838553E+03  0.52260838555E+03  0.50400001928E-02 0. -1.
    10030    2    1    2    0    0  0.00000000000E+00  0.00000000000E+00  0.50040671507E+03  0.15456234862E+04  0.14623765180E+04 0.  0.
        3    1    3    3  502    0  0.28809597479E+03  0.25876535990E+03 -0.40532709590E+03  0.56057904620E+03  0.10100000352E+00 0. -1.
       -3    1    3    3    0  502 -0.28809597479E+03 -0.25876535990E+03  0.90573381097E+03  0.98504443996E+03  0.10100000352E+00 0.  1.
</event>
<event>
 5   0  0.1961098E-03  0.1499435E+04  0.7818609E-02  0.8884828E-01
       -2   -1    0    0    0  501  0.00000000000E+00  0.00000000000E+00  0.10371778802E+04  0.10371778802E+04  0.25500000920E-02 0. -1.
        2   -1    0    0  501    0  0.00000000000E+00  0.00000000000E+00 -0.54192889892E+03  0.54192889892E+03  0.25500000920E-02 0.  1.
    10030    2    1    2    0    0  0.00000000000E+00  0.00000000000E+00  0.49524898131E+03  0.15791067792E+04  0.14994354493E+04 0.  0.
        2    1    3    3  502    0  0.76594154970E+02 -0.16951073846E+02  0.10328436963E+04  0.10358185674E+04  0.25500000920E-02 0. -1.
       -2    1    3    3    0  502 -0.76594154970E+02  0.16951073846E+02 -0.53759471499E+03  0.54328821180E+03  0.25500000920E-02 0.  1.
</event>
<event>
 5   0  0.2150197E-03  0.1503963E+04  0.7818609E-02  0.8881822E-01
        2   -1    0    0  501    0  0.00000000000E+00  0.00000000000E+00  0.12035124840E+04  0.12035124840E+04  0.25500000920E-02 0.  1.
       -2   -1    0    0    0  501  0.00000000000E+00  0.00000000000E+00 -0.46985498176E+03  0.46985498177E+03  0.25500000920E-02 0. -1.
    10030    2    1    2    0    0  0.00000000000E+00  0.00000000000E+00  0.73365750223E+03  0.16733674658E+04  0.15039632126E+04 0.  0.
        3    1    3    3  502    0  0.59510679915E+03  0.85183943610E+02  0.86945073020E+03  0.10570491895E+04  0.10100000352E+00 0.  1.
       -3    1    3    3    0  502 -0.59510679915E+03 -0.85183943610E+02 -0.13579322797E+03  0.61631827622E+03  0.10100000352E+00 0. -1.
</event>
<event>
 5   0  0.1087761E-03  0.1474861E+04  0.7818609E-02  0.8901345E-01
        1   -1    0    0  501    0  0.00000000000E+00  0.00000000000E+00  0.72851856269E+03  0.72851856271E+03  0.50400001928E-02 0. -1.
       -1   -1    0    0    0  501  0.00000000000E+00  0.00000000000E+00 -0.74645106965E+03  0.74645106967E+03  0.50400001928E-02 0.  1.
    10030    2    1    2    0    0  0.00000000000E+00  0.00000000000E+00 -0.17932506956E+02  0.14749696324E+04  0.14748606177E+04 0.  0.
        3    1    3    3  502    0  0.31269235974E+03 -0.15449487923E+03 -0.65875135705E+03  0.74538482690E+03  0.10100000352E+00 0.  1.
       -3    1    3    3    0  502 -0.31269235974E+03  0.15449487923E+03  0.64081885010E+03  0.72958480548E+03  0.10100000352E+00 0. -1.
</event>
<event>
 5   0  0.1069697E-03  0.1411461E+04  0.7818609E-02  0.8945564E-01
        1   -1    0    0  501    0  0.00000000000E+00  0.00000000000E+00  0.24304577338E+04  0.24304577338E+04  0.50400001928E-02 0. -1.
       -1   -1    0    0    0  501  0.00000000000E+00  0.00000000000E+00 -0.20492242733E+03  0.20492242739E+03  0.50400001928E-02 0.  1.
    10030    2    1    2    0    0  0.00000000000E+00  0.00000000000E+00  0.22255353064E+04  0.26353801612E+04  0.14114606596E+04 0.  0.
        2    1    3    3  502    0  0.76476951650E+02 -0.64609626502E+02 -0.19159609437E+03  0.21617629693E+03  0.25500000920E-02 0.  1.
       -2    1    3    3    0  502 -0.76476951650E+02  0.64609626502E+02  0.24171314008E+04  0.24192038642E+04  0.25500000920E-02 0. -1.
</event>
<event>
 5   0  0.1961098E-03  0.1528460E+04  0.7818609E-02  0.8865745E-01
        2   -1    0    0  501    0  0.00000000000E+00  0.00000000000E+00  0.23619479980E+04  0.23619479980E+04  0.25500000920E-02 0.  1.
       -2   -1    0    0    0  501  0.00000000000E+00  0.00000000000E+00 -0.24727379614E+03  0.24727379615E+03  0.25500000920E-02 0. -1.
    10030    2    1    2    0    0  0.00000000000E+00  0.00000000000E+00  0.21146742018E+04  0.26092217941E+04  0.15284604643E+04 0.  0.
        2    1    3    3  502    0 -0.44064159030E+03 -0.58050083774E+03  0.66470007708E+03  0.98639364667E+03  0.25500000920E-02 0.  1.
       -2    1    3    3    0  502  0.44064159030E+03  0.58050083774E+03  0.14499741247E+04  0.16228281474E+04  0.25500000920E-02 0. -1.
</event>
<event>
 5   0  0.1078018E-03  0.1510920E+04  0.7818609E-02  0.8877224E-01
       -1   -1    0    0    0  501  0.00000000000E+00  0.00000000000E+00  0.97552369256E+03  0.97552369258E+03  0.50400001928E-02 0.  1.
        1   -1    0    0  501    0  0.00000000000E+00  0.00000000000E+00 -0.58503945218E+03  0.58503945220E+03  0.50400001928E-02 0. -1.
    10030    2    1    2    0    0  0.00000000000E+00  0.00000000000E+00  0.39048424039E+03  0.15605631448E+04  0.15109200465E+04 0.  0.
        4    1    3    3  502    0  0.14459846188E+02  0.24237041037E+03 -0.54364052041E+03  0.59539829636E+03  0.12699999809E+01 0. -1.
       -4    1    3    3    0  502 -0.14459846188E+02 -0.24237041037E+03  0.93412476080E+03  0.96516484841E+03  0.12699999809E+01 0.  1.
</event>
<event>
 5   0  0.2094566E-03  0.9308175E+03  0.7818609E-02  0.9387857E-01
       -2   -1    0    0    0  501  0.00000000000E+00  0.00000000000E+00  0.32533034253E+03  0.32533034254E+03  0.25500000920E-02 0. -1.
        2   -1    0    0  501    0  0.00000000000E+00  0.00000000000E+00 -0.66580114388E+03  0.66580114388E+03  0.25500000920E-02 0.  1.
    10030    2    1    2    0    0  0.00000000000E+00  0.00000000000E+00 -0.34047080134E+03  0.99113148642E+03  0.93081752068E+03 0.  0.
        1    1    3    3  502    0 -0.10069388968E+03  0.41135585884E+03  0.35279787658E+02  0.42496772285E+03  0.50400001928E-02 0. -1.
       -1    1    3    3    0  502  0.10069388968E+03 -0.41135585884E+03 -0.37575058900E+03  0.56616376357E+03  0.50400001928E-02 0.  1.
</event>
<event>
 5   0  0.1078018E-03  0.1496222E+04  0.7818609E-02  0.8886969E-01
        1   -1    0    0  501    0  0.00000000000E+00  0.00000000000E+00  0.17712074316E+04  0.17712074316E+04  0.50400001928E-02 0.  1.
       -1   -1    0    0    0  501  0.00000000000E+00  0.00000000000E+00 -0.31598205290E+03  0.31598205294E+03  0.50400001928E-02 0. -1.
    10030    2    1    2    0    0  0.00000000000E+00  0.00000000000E+00  0.14552253787E+04  0.20871894846E+04  0.14962215884E+04 0.  0.
        4    1    3    3  502    0  0.23275950549E+03 -0.70558972645E+02 -0.25928802914E+03  0.35551012780E+03  0.12699999809E+01 0. -1.
       -4    1    3    3    0  502 -0.23275950549E+03  0.70558972645E+02  0.17145134079E+04  0.17316793568E+04  0.12699999809E+01 0.  1.
</event>
<event>
 5   0  0.1087761E-03  0.1591982E+04  0.7818609E-02  0.8825489E-01
        1   -1    0    0  501    0  0.00000000000E+00  0.00000000000E+00  0.97586952193E+03  0.97586952194E+03  0.50400001928E-02 0.  1.
       -1   -1    0    0    0  501  0.00000000000E+00  0.00000000000E+00 -0.64926897570E+03  0.64926897572E+03  0.50400001928E-02 0. -1.
    10030    2    1    2    0    0  0.00000000000E+00  0.00000000000E+00  0.32660054623E+03  0.16251384977E+04  0.15919821669E+04 0.  0.
        3    1    3    3  502    0 -0.56108936610E+03  0.18222191617E+03 -0.38222239077E+03  0.70293674658E+03  0.10100000352E+00 0. -1.
       -3    1    3    3    0  502  0.56108936610E+03 -0.18222191617E+03  0.70882293700E+03  0.92220175108E+03  0.10100000352E+00 0.  1.
</event>
<event>
 5   0  0.1069697E-03  0.1695434E+04  0.7818609E-02  0.8763973E-01
       -1   -1    0    0    0  501  0.00000000000E+00  0.00000000000E+00  0.71385934929E+03  0.71385934931E+03  0.50400001928E-02 0.  1.
        1   -1    0    0  501    0  0.00000000000E+00  0.00000000000E+00 -0.10066742804E+04  0.10066742804E+04  0.50400001928E-02 0. -1.
    10030    2    1    2    0    0  0.00000000000E+00  0.00000000000E+00 -0.29281493108E+03  0.17205336297E+04  0.16954336870E+04 0.  0.
        2    1    3    3  502    0  0.84396201454E+02  0.33345253515E+03  0.63986006250E+03  0.72645317235E+03  0.25500000920E-02 0.  1.
       -2    1    3    3    0  502 -0.84396201454E+02 -0.33345253515E+03 -0.93267499358E+03  0.99408045735E+03  0.25500000920E-02 0. -1.
</event>
<event>
 5   0  0.2094566E-03  0.1542692E+04  0.7818609E-02  0.8856549E-01
        2   -1    0    0  501    0  0.00000000000E+00  0.00000000000E+00  0.46508688687E+03  0.46508688687E+03  0.25500000920E-02 0. -1.
       -2   -1    0    0    0  501  0.00000000000E+00  0.00000000000E+00 -0.12792757003E+04  0.12792757003E+04  0.25500000920E-02 0.  1.
    10030    2    1    2    0    0  0.00000000000E+00  0.00000000000E+00 -0.81418881347E+03  0.17443625872E+04  0.15426916126E+04 0.  0.
        1    1    3    3  502    0 -0.39924532545E+03 -0.46317848584E+03 -0.93870819639E+03  0.11203143388E+04  0.50400001928E-02 0.  1.
       -1    1    3    3    0  502  0.39924532545E+03  0.46317848584E+03  0.12451938292E+03  0.62404824845E+03  0.50400001928E-02 0. -1.
</event>
<event>
 5   0  0.2111533E-03  0.1225869E+04  0.7818609E-02  0.9090510E-01
        2   -1    0    0  501    0  0.00000000000E+00  0.00000000000E+00  0.12413187145E+04  0.12413187145E+04  0.25500000920E-02 0.  1.
       -2   -1    0    0    0  501  0.00000000000E+00  0.00000000000E+00 -0.30265289686E+03  0.30265289687E+03  0.25500000920E-02 0. -1.
    10030    2    1    2    0    0  0.00000000000E+00  0.00000000000E+00  0.93866581764E+03  0.15439716114E+04  0.12258690059E+04 0.  0.
        5    1    3    3  502    0  0.49542696223E+03  0.14139001028E+03  0.88749092973E+03  0.10262072160E+04  0.46999998093E+01 0.  1.
       -5    1    3    3    0  502 -0.49542696223E+03 -0.14139001028E+03  0.51174887909E+02  0.51776439532E+03  0.46999998093E+01 0. -1.
</event>
<event>
 5   0  0.1078787E-03  0.1535084E+04  0.7818609E-02  0.8861452E-01
        1   -1    0    0  501    0  0.00000000000E+00  0.00000000000E+00  0.88272802803E+03  0.88272802804E+03  0.50400001928E-02 0.  1.
       -1   -1    0    0    0  501  0.00000000000E+00  0.00000000000E+00 -0.66738685742E+03  0.66738685744E+03  0.50400001928E-02 0. -1.
    10030    2    1    2    0    0  0.00000000000E+00  0.00000000000E+00  0.21534117061E+03  0.15501148855E+04  0.15350844727E+04 0.  0.
        5    1    3    3  502    0 -0.20426902618E+03 -0.24005471610E+03  0.81434188343E+03  0.87322785966E+03  0.46999998093E+01 0.  1.
       -5    1    3    3    0  502  0.20426902618E+03  0.24005471610E+03 -0.59900071282E+03  0.67688702583E+03  0.46999998093E+01 0. -1.
</event>
<event>
 5   0  0.1993623E-03  0.1523276E+04  0.7818609E-02  0.8869120E-01
       -2   -1    0    0    0  501  0.00000000000E+00  0.00000000000E+00  0.28427885705E+03  0.28427885706E+03  0.25500000920E-02 0.  1.
        2   -1    0    0  501    0  0.00000000000E+00  0.00000000000E+00 -0.20405762770E+04  0.20405762770E+04  0.25500000920E-02 0. -1.
    10030    2    1    2    0    0  0.00000000000E+00  0.00000000000E+00 -0.17562974200E+04  0.23248551341E+04  0.15232763266E+04 0.  0.
        4    1    3    3  502    0 -0.15839376133E+03 -0.29590719637E+03 -0.19216207173E+04  0.19507120358E+04  0.12699999809E+01 0. -1.
       -4    1    3    3    0  502  0.15839376133E+03  0.29590719637E+03  0.16532329731E+03  0.37414309832E+03  0.12699999809E+01 0.  1.
</event>
<event>
 5   0  0.1077140E-03  0.1560644E+04  0.7818609E-02  0.8845097E-01
        1   -1    0    0  501    0  0.00000000000E+00  0.00000000000E+00  0.89732618297E+03  0.89732618299E+03  0.50400001928E-02 0. -1.
       -1   -1    0    0    0  501  0.00000000000E+00  0.00000000000E+00 -0.67857448007E+03  0.67857448009E+03  0.50400001928E-02 0.  1.
    10030    2    1    2    0    0  0.00000000000E+00  0.00000000000E+00  0.21875170290E+03  0.15759006631E+04  0.15606442876E+04 0.  0.
        1    1    3    3  502    0  0.28710080174E+03 -0.64106400648E+01 -0.62327516689E+03  0.68625061045E+03  0.50400001928E-02 0.  1.
       -1    1    3    3    0  502 -0.28710080174E+03  0.64106400648E+01  0.84202686979E+03  0.88965005263E+03  0.50400001928E-02 0. -1.
</event>
<event>
 5   0  0.1078787E-03  0.1519548E+04  0.7818609E-02  0.8871557E-01
        1   -1    0    0  501    0  0.00000000000E+00  0.00000000000E+00  0.10820109701E+04  0.10820109702E+04  0.50400001928E-02 0. -1.
       -1   -1    0    0    0  501  0.00000000000E+00  0.00000000000E+00 -0.53350362928E+03  0.53350362930E+03  0.50400001928E-02 0.  1.
    10030    2    1    2    0    0  0.00000000000E+00  0.00000000000E+00  0.54850734087E+03  0.16155145995E+04  0.15195483270E+04 0.  0.
        5    1    3    3  502    0  0.30683126256E+03  0.32262193105E+03  0.92876696253E+03  0.10299808225E+04  0.46999998093E+01 0. -1.
       -5    1    3    3    0  502 -0.30683126256E+03 -0.32262193105E+03 -0.38025962166E+03  0.58553377694E+03  0.46999998093E+01 0.  1.
</event>
<event>
 5   0  0.1069697E-03  0.1489881E+04  0.7818609E-02  0.8891210E-01
        1   -1    0    0  501    0  0.00000000000E+00  0.00000000000E+00  0.10962959173E+04  0.10962959173E+04  0.50400001928E-02 0. -1.
       -1   -1    0    0    0  501  0.00000000000E+00  0.00000000000E+00 -0.50619184894E+03  0.50619184896E+03  0.50400001928E-02 0.  1.
    10030    2    1    2    0    0  0.00000000000E+00  0.00000000000E+00  0.59010406839E+03  0.16024877663E+04  0.14898806092E+04 0.  0.
        2    1    3    3  502    0  0.12731835333E+03 -0.24632772285E+03  0.10387204672E+04  0.10750941908E+04  0.25500000920E-02 0. -1.
       -2    1    3    3    0  502 -0.12731835333E+03  0.24632772285E+03 -0.44861639883E+03  0.52739357546E+03  0.25500000920E-02 0.  1.
</event>
<event>
 5   0  0.1069697E-03  0.1493384E+04  0.7818609E-02  0.8888864E-01
        1   -1    0    0  501    0  0.00000000000E+00  0.00000000000E+00  0.20644956982E+03  0.20644956988E+03  0.50400001928E-02 0. -1.
       -1   -1    0    0    0  501  0.00000000000E+00  0.00000000000E+00 -0.27006552145E+04  0.27006552145E+04  0.50400001928E-02 0.  1.
    10030    2    1    2    0    0  0.00000000000E+00  0.00000000000E+00 -0.24942056447E+04  0.29071047844E+04  0.14933842203E+04 0.  0.
        2    1    3    3  502    0 -0.20965206719E+03 -0.23533281223E+03  0.70617089387E+02  0.32298962074E+03  0.25500000920E-02 0. -1.
       -2    1    3    3    0  502  0.20965206719E+03  0.23533281223E+03 -0.25648227341E+04  0.25841151636E+04  0.25500000920E-02 0.  1.
</event>
<event>
 5   0  0.7468375E-04  0.1451893E+04  0.7818609E-02  0.8917089E-01
        3   -1    0    0  501    0  0.00000000000E+00  0.00000000000E+00  0.83296169762E+03  0.83296170374E+03  0.10100000352E+00 0.  1.
       -3   -1    0    0    0  501  0.00000000000E+00  0.00000000000E+00 -0.63267996697E+03  0.63267997503E+03  0.10100000352E+00 0. -1.
    10030    2    1    2    0    0  0.00000000000E+00  0.00000000000E+00  0.20028173065E+03  0.14656416788E+04  0.14518928194E+04 0.  0.
        2    1    3    3  502    0 -0.66090515448E+01  0.50142051983E+03  0.63002296661E+03  0.80522987757E+03  0.25500000920E-02 0.  1.
       -2    1    3    3    0  502  0.66090515448E+01 -0.50142051983E+03 -0.42974123596E+03  0.66041180120E+03  0.25500000920E-02 0. -1.
</event>
<event>
 5   0  0.1078787E-03  0.1501629E+04  0.7818609E-02  0.8883370E-01
        1   -1    0    0  501    0  0.00000000000E+00  0.00000000000E+00  0.13385695287E+04  0.13385695287E+04  0.50400001928E-02 0.  1.
       -1   -1    0    0    0  501  0.00000000000E+00  0.00000000000E+00 -0.42113787675E+03  0.42113787678E+03  0.50400001928E-02 0. -1.
    10030    2    1    2    0    0  0.00000000000E+00  0.00000000000E+00  0.91743165192E+03  0.17597074054E+04  0.15016288879E+04 0.  0.
        5    1    3    3  502    0 -0.21141426680E+03  0.58534069091E+03 -0.33440599687E+02  0.62326565793E+03  0.46999998093E+01 0. -1.
       -5    1    3    3    0  502  0.21141426680E+03 -0.58534069091E+03  0.95087225160E+03  0.11364417475E+04  0.46999998093E+01 0.  1.
</event>
<event>
 5   0  0.1069697E-03  0.1611153E+04  0.7818609E-02  0.8813726E-01
       -1   -1    0    0    0  501  0.00000000000E+00  0.00000000000E+00  0.13223026575E+04  0.13223026575E+04  0.50400001928E-02 0. -1.
        1   -1    0    0  501    0  0.00000000000E+00  0.00000000000E+00 -0.49077517326E+03  0.49077517329E+03  0.50400001928E-02 0.  1.
    10030    2    1    2    0    0  0.00000000000E+00  0.00000000000E+00  0.83152748426E+03  0.18130778308E+04  0.16111527747E+04 0.  0.
        2    1    3    3  502    0 -0.13760818443E+03  0.56206004990E+03 -0.21492881309E+03  0.61728591983E+03  0.25500000920E-02 0.  1.
       -2    1    3    3    0  502  0.13760818443E+03 -0.56206004990E+03  0.10464562974E+04  0.11957919110E+04  0.25500000920E-02 0. -1.
</event>
<event>
 5   0  0.1069697E-03  0.1478756E+04  0.7818609E-02  0.8898704E-01
        1   -1    0    0  501    0  0.00000000000E+00  0.00000000000E+00  0.94341685661E+03  0.94341685663E+03  0.50400001928E-02 0.  1.
       -1   -1    0    0    0  501  0.00000000000E+00  0.00000000000E+00 -0.57946784633E+03  0.57946784635E+03  0.50400001928E-02 0. -1.
    10030    2    1    2    0    0  0.00000000000E+00  0.00000000000E+00  0.36394901029E+03  0.15228847030E+04  0.14787558745E+04 0.  0.
        2    1    3    3  502    0 -0.10465666145E+03 -0.69861373138E+02  0.93230890797E+03  0.94076220595E+03  0.25500000920E-02 0.  1.
       -2    1    3    3    0  502  0.10465666145E+03  0.69861373138E+02 -0.56835989769E+03  0.58212249703E+03  0.25500000920E-02 0. -1.
</event>
<event>
 5   0  0.1069697E-03  0.1462489E+04  0.7818609E-02  0.8909788E-01
        1   -1    0    0  501    0  0.00000000000E+00  0.00000000000E+00  0.10955691654E+04  0.10955691654E+04  0.50400001928E-02 0. -1.
       -1   -1    0    0    0  501  0.00000000000E+00  0.00000000000E+00 -0.48807342002E+03  0.48807342005E+03  0.50400001928E-02 0.  1.
    10030    2    1    2    0    0  0.00000000000E+00  0.00000000000E+00  0.60749574537E+03  0.15836425855E+04  0.14624885496E+04 0.  0.
        2    1    3    3  502    0 -0.33571582196E+03 -0.90813373916E+02 -0.39278577621E+03  0.52462638896E+03  0.25500000920E-02 0.  1.
       -2    1    3    3    0  502  0.33571582196E+03  0.90813373916E+02  0.10002815216E+04  0.10590161965E+04  0.25500000920E-02 0. -1.
</event>
<event>
 5   0  0.2094566E-03  0.1490815E+04  0.7818609E-02  0.8890584E-01
       -2   -1    0    0    0  501  0.00000000000E+00  0.00000000000E+00  0.73521456456E+03  0.73521456456E+03  0.25500000920E-02 0.  1.
        2   -1    0    0  501    0  0.00000000000E+00  0.00000000000E+00 -0.75574144049E+03  0.75574144049E+03  0.25500000920E-02 0. -1.
    10030    2    1    2    0    0  0.00000000000E+00  0.00000000000E+00 -0.20526875932E+02  0.14909560051E+04  0.14908146955E+04 0.  0.
        1    1    3    3  502    0 -0.24317931566E+03 -0.62472228762E+03  0.31567848161E+03  0.74099056673E+03  0.50400001928E-02 0. -1.
       -1    1    3    3    0  502  0.24317931566E+03  0.62472228762E+03 -0.33620535754E+03  0.74996543832E+03  0.50400001928E-02 0.  1.
</event>
<event>
 5   0  0.1078787E-03  0.1469721E+04  0.7818609E-02  0.8904841E-01
       -1   -1    0    0    0  501  0.00000000000E+00  0.00000000000E+00  0.58281280651E+03  0.58281280653E+03  0.50400001928E-02 0.  1.
        1   -1    0    0  501    0  0.00000000000E+00  0.00000000000E+00 -0.92657563434E+03  0.92657563435E+03  0.50400001928E-02 0. -1.
    10030    2    1    2    0    0  0.00000000000E+00  0.00000000000E+00 -0.34376282783E+03  0.15093884409E+04  0.14697212605E+04 0.  0.
        5    1    3    3  502    0 -0.36797282829E+03 -0.57651809497E+03 -0.44787412383E+03  0.81755148889E+03  0.46999998093E+01 0. -1.
       -5    1    3    3    0  502  0.36797282829E+03  0.57651809497E+03  0.10411129600E+03  0.69183695199E+03  0.46999998093E+01 0.  1.
</event>
<event>
 5   0  0.1069697E-03  0.1443965E+04  0.7818609E-02  0.8922595E-01
        1   -1    0    0  501    0  0.00000000000E+00  0.00000000000E+00  0.10085820966E+04  0.10085820966E+04  0.50400001928E-02 0. -1.
       -1   -1    0    0    0  501  0.00000000000E+00  0.00000000000E+00 -0.51682341446E+03  0.51682341449E+03  0.50400001928E-02 0.  1.
    10030    2    1    2    0    0  0.00000000000E+00  0.00000000000E+00  0.49175868216E+03  0.15254055111E+04  0.14439651561E+04 0.  0.
        2    1    3    3  502    0 -0.31830536493E+03  0.64695099156E+03  0.28533490480E+03  0.77542240019E+03  0.25500000920E-02 0.  1.
       -2    1    3    3    0  502  0.31830536493E+03 -0.64695099156E+03  0.20642377736E+03  0.74998311093E+03  0.25500000920E-02 0. -1.
</event>
<event>
 5   0  0.1077140E-03  0.1701252E+04  0.7818609E-02  0.8760651E-01
        1   -1    0    0  501    0  0.00000000000E+00  0.00000000000E+00  0.13040533456E+04  0.13040533457E+04  0.50400001928E-02 0. -1.
       -1   -1    0    0    0  501  0.00000000000E+00  0.00000000000E+00 -0.55485810658E+03  0.55485810660E+03  0.50400001928E-02 0.  1.
    10030    2    1    2    0    0  0.00000000000E+00  0.00000000000E+00  0.74919523907E+03  0.18589114523E+04  0.17012519746E+04 0.  0.
        1    1    3    3  502    0 -0.73400559202E+03  0.19999924892E+03  0.79038885807E+03  0.10970316566E+04  0.50400001928E-02 0.  1.
       -1    1    3    3    0  502  0.73400559202E+03 -0.19999924892E+03 -0.41193619002E+02  0.76187979561E+03  0.50400001928E-02 0. -1.
</event>
<event>
 5   0  0.2111533E-03  0.1272878E+04  0.7818609E-02  0.9051354E-01
       -2   -1    0    0    0  501  0.00000000000E+00  0.00000000000E+00  0.22370862552E+03  0.22370862554E+03  0.25500000920E-02 0.  1.
        2   -1    0    0  501    0  0.00000000000E+00  0.00000000000E+00 -0.18106357381E+04  0.18106357381E+04  0.25500000920E-02 0. -1.
    10030    2    1    2    0    0  0.00000000000E+00  0.00000000000E+00 -0.15869271126E+04  0.20343443637E+04  0.12728783639E+04 0.  0.
        5    1    3    3  502    0  0.56345312138E+03 -0.22872848835E+03 -0.49345435863E+03  0.78314458143E+03  0.46999998093E+01 0. -1.
       -5    1    3    3    0  502 -0.56345312138E+03  0.22872848835E+03 -0.10934727540E+04  0.12511997822E+04  0.46999998093E+01 0.  1.
</event>
<event>
 5   0  0.2111533E-03  0.1530890E+04  0.7818609E-02  0.8864168E-01
        2   -1    0    0  501    0  0.00000000000E+00  0.00000000000E+00  0.11459244000E+04  0.11459244000E+04  0.25500000920E-02 0.  1.
       -2   -1    0    0    0  501  0.00000000000E+00  0.00000000000E+00 -0.51129536924E+03  0.51129536925E+03  0.25500000920E-02 0. -1.
    10030    2    1    2    0    0  0.00000000000E+00  0.00000000000E+00  0.63462903074E+03  0.16572197692E+04  0.15308897272E+04 0.  0.
        5    1    3    3  502    0  0.64150538581E+03  0.15374327748E+03  0.73757462810E+03  0.98954766303E+03  0.46999998093E+01 0.  1.
       -5    1    3    3    0  502 -0.64150538581E+03 -0.15374327748E+03 -0.10294559736E+03  0.66767210621E+03  0.46999998093E+01 0. -1.
</event>
<event>
 5   0  0.1993623E-03  0.1620242E+04  0.7818609E-02  0.8808208E-01
       -2   -1    0    0    0  501  0.00000000000E+00  0.00000000000E+00  0.41970608347E+03  0.41970608347E+03  0.25500000920E-02 0. -1.
        2   -1    0    0  501    0  0.00000000000E+00  0.00000000000E+00 -0.15637041073E+04  0.15637041073E+04  0.25500000920E-02 0.  1.
    10030    2    1    2    0    0  0.00000000000E+00  0.00000000000E+00 -0.11439980238E+04  0.19834101907E+04  0.16202421135E+04 0.  0.
        4    1    3    3  502    0 -0.12354106980E+03 -0.72451588575E+03 -0.15487491047E+03  0.75111484836E+03  0.12699999809E+01 0. -1.
       -4    1    3    3    0  502  0.12354106980E+03  0.72451588575E+03 -0.98912311332E+03  0.12322953424E+04  0.12699999809E+01 0.  1.
</event>
<event>
 5   0  0.1078787E-03  0.1591635E+04  0.7818609E-02  0.8825704E-01
       -1   -1    0    0    0  501  0.00000000000E+00  0.00000000000E+00  0.40503116533E+03  0.40503116536E+03  0.50400001928E-02 0. -1.
        1   -1    0    0  501    0  0.00000000000E+00  0.00000000000E+00 -0.15636456495E+04  0.15636456495E+04  0.50400001928E-02 0.  1.
    10030    2    1    2    0    0  0.00000000000E+00  0.00000000000E+00 -0.11586144842E+04  0.19686768149E+04  0.15916346561E+04 0.  0.
        5    1    3    3  502    0  0.62804252104E+03  0.86511602476E+02 -0.11742775903E+04  0.13344930178E+04  0.46999998093E+01 0.  1.
       -5    1    3    3    0  502 -0.62804252104E+03 -0.86511602476E+02  0.15663106069E+02  0.63418379709E+03  0.46999998093E+01 0. -1.
</event>
<event>
 5   0  0.1961098E-03  0.1474773E+04  0.7818609E-02  0.8901404E-01
       -2   -1    0    0    0  501  0.00000000000E+00  0.00000000000E+00  0.33645916912E+03  0.33645916913E+03  0.25500000920E-02 0.  1.
        2   -1    0    0  501    0  0.00000000000E+00  0.00000000000E+00 -0.16160608475E+04  0.16160608475E+04  0.25500000920E-02 0. -1.
    10030    2    1    2    0    0  0.00000000000E+00  0.00000000000E+00 -0.12796016784E+04  0.19525200167E+04  0.14747725113E+04 0.  0.
        2    1    3    3  502    0 -0.52830526913E+03  0.45175654183E+03 -0.31402372236E+03  0.76275902400E+03  0.25500000920E-02 0.  1.
       -2    1    3    3    0  502  0.52830526913E+03 -0.45175654183E+03 -0.96557795604E+03  0.11897609927E+04  0.25500000920E-02 0. -1.
</event>
<event>
 5   0  0.1069697E-03  0.1449181E+04  0.7818609E-02  0.8918969E-01
        1   -1    0    0  501    0  0.00000000000E+00  0.00000000000E+00  0.27694618736E+04  0.27694618736E+04  0.50400001928E-02 0.  1.
       -1   -1    0    0    0  501  0.00000000000E+00  0.00000000000E+00 -0.18957878478E+03  0.18957878484E+03  0.50400001928E-02 0. -1.
    10030    2    1    2    0    0  0.00000000000E+00  0.00000000000E+00  0.25798830888E+04  0.29590406584E+04  0.14491807570E+04 0.  0.
        2    1    3    3  502    0 -0.41783769378E+02 -0.52808168748E+03  0.28047400311E+03  0.59940121660E+03  0.25500000920E-02 0. -1.
       -2    1    3    3    0  502  0.41783769378E+02  0.52808168748E+03  0.22994090857E+04  0.23596394418E+04  0.25500000920E-02 0.  1.
</event>
<event>
 5   0  0.1961098E-03  0.1027363E+04  0.7818609E-02  0.9279033E-01
       -2   -1    0    0    0  501  0.00000000000E+00  0.00000000000E+00  0.20114966319E+04  0.20114966319E+04  0.25500000920E-02 0.  1.
        2   -1    0    0  501    0  0.00000000000E+00  0.00000000000E+00 -0.13118024500E+03  0.13118024502E+03  0.25500000920E-02 0. -1.
    10030    2    1    2    0    0  0.00000000000E+00  0.00000000000E+00  0.18803163869E+04  0.21426768769E+04  0.10273628785E+04 0.  0.
        2    1    3    3  502    0 -0.11509863268E+03  0.25934615232E+03  0.18332286126E+04  0.18550566752E+04  0.25500000920E-02 0.  1.
       -2    1    3    3    0  502  0.11509863268E+03 -0.25934615232E+03  0.47087774288E+02  0.28762020176E+03  0.25500000920E-02 0. -1.
</event>
<event>
 5   0  0.1078787E-03  0.1489938E+04  0.7818609E-02  0.8891171E-01
       -1   -1    0    0    0  501  0.00000000000E+00  0.00000000000E+00  0.77281153448E+03  0.77281153450E+03  0.50400001928E-02 0. -1.
        1   -1    0    0  501    0  0.00000000000E+00  0.00000000000E+00 -0.71812992473E+03  0.71812992475E+03  0.50400001928E-02 0.  1.
    10030    2    1    2    0    0  0.00000000000E+00  0.00000000000E+00  0.54681609754E+02  0.14909414592E+04  0.14899383734E+04 0.  0.
        5    1    3    3  502    0 -0.21088414258E+03  0.70650488442E+03 -0.79200240174E+02  0.74156324163E+03  0.46999998093E+01 0.  1.
       -5    1    3    3    0  502  0.21088414258E+03 -0.70650488442E+03  0.13388184993E+03  0.74937821761E+03  0.46999998093E+01 0. -1.
</event>
<event>
 5   0  0.1993623E-03  0.1510434E+04  0.7818609E-02  0.8877544E-01
       -2   -1    0    0    0  501  0.00000000000E+00  0.00000000000E+00  0.41106324141E+03  0.41106324142E+03  0.25500000920E-02 0. -1.
        2   -1    0    0  501    0  0.00000000000E+00  0.00000000000E+00 -0.13875054213E+04  0.13875054213E+04  0.25500000920E-02 0.  1.
    10030    2    1    2    0    0  0.00000000000E+00  0.00000000000E+00 -0.97644217990E+03  0.17985686627E+04  0.15104336807E+04 0.  0.
        4    1    3    3  502    0 -0.47443348810E+03  0.30612635883E+03  0.10900373327E+03  0.57505122291E+03  0.12699999809E+01 0. -1.
       -4    1    3    3    0  502  0.47443348810E+03 -0.30612635883E+03 -0.10854459132E+04  0.12235174398E+04  0.12699999809E+01 0.  1.
</event>
<event>
 5   0  0.1077140E-03  0.1490865E+04  0.7818609E-02  0.8890551E-01
       -1   -1    0    0    0  501  0.00000000000E+00  0.00000000000E+00  0.99283342184E+03  0.99283342185E+03  0.50400001928E-02 0. -1.
        1   -1    0    0  501    0  0.00000000000E+00  0.00000000000E+00 -0.55968024573E+03  0.55968024575E+03  0.50400001928E-02 0.  1.
    10030    2    1    2    0    0  0.00000000000E+00  0.00000000000E+00  0.43315317611E+03  0.15525136676E+04  0.14908645190E+04 0.  0.
        1    1    3    3  502    0 -0.52188389903E+03  0.16043027236E+03  0.74507500710E+03  0.92370852685E+03  0.50400001928E-02 0. -1.
       -1    1    3    3    0  502  0.52188389903E+03 -0.16043027236E+03 -0.31192183099E+03  0.62880514075E+03  0.50400001928E-02 0.  1.
</event>
<event>
 5   0  0.1078787E-03  0.1513947E+04  0.7818609E-02  0.8875231E-01
       -1   -1    0    0    0  501  0.00000000000E+00  0.00000000000E+00  0.24767023491E+03  0.24767023496E+03  0.50400001928E-02 0. -1.
        1   -1    0    0  501    0  0.00000000000E+00  0.00000000000E+00 -0.23135957565E+04  0.23135957565E+04  0.50400001928E-02 0.  1.
    10030    2    1    2    0    0  0.00000000000E+00  0.00000000000E+00 -0.20659255215E+04  0.25612659914E+04  0.15139469007E+04 0.  0.
        5    1    3    3  502    0 -0.35678029674E+03  0.28000661892E+03 -0.20582583315E+04  0.21076397548E+04  0.46999998093E+01 0.  1.
       -5    1    3    3    0  502  0.35678029674E+03 -0.28000661892E+03 -0.76671900816E+01  0.45362623666E+03  0.46999998093E+01 0. -1.
</event>
<event>
 5   0  0.1077140E-03  0.1468496E+04  0.7818609E-02  0.8905677E-01
       -1   -1    0    0    0  501  0.00000000000E+00  0.00000000000E+00  0.39148254279E+03  0.39148254282E+03  0.50400001928E-02 0.  1.
        1   -1    0    0  501    0  0.00000000000E+00  0.00000000000E+00 -0.13771239596E+04  0.13771239596E+04  0.50400001928E-02 0. -1.
    10030    2    1    2    0    0  0.00000000000E+00  0.00000000000E+00 -0.98564141683E+03  0.17686065024E+04  0.14684958147E+04 0.  0.
        1    1    3    3  502    0 -0.52870583605E+03  0.44331494754E+03 -0.79526286422E+03  0.10528537539E+04  0.50400001928E-02 0. -1.
       -1    1    3    3    0  502  0.52870583605E+03 -0.44331494754E+03 -0.19037855261E+03  0.71575274859E+03  0.50400001928E-02 0.  1.
</event>
<event>
 5   0  0.1961098E-03  0.1518724E+04  0.7818609E-02  0.8872096E-01
       -2   -1    0    0    0  501  0.00000000000E+00  0.00000000000E+00  0.10095188659E+04  0.10095188659E+04  0.25500000920E-02 0.  1.
        2   -1    0    0  501    0  0.00000000000E+00  0.00000000000E+00 -0.57119388278E+03  0.57119388278E+03  0.25500000920E-02 0. -1.
    10030    2    1    2    0    0  0.00000000000E+00  0.00000000000E+00  0.43832498309E+03  0.15807127487E+04  0.15187244658E+04 0.  0.
        2    1    3    3  502    0  0.14777604337E+02 -0.23224818019E+03  0.97148847500E+03  0.99897319877E+03  0.25500000920E-02 0.  1.
       -2    1    3    3    0  502 -0.14777604337E+02  0.23224818019E+03 -0.53316349191E+03  0.58173954989E+03  0.25500000920E-02 0. -1.
</event>
<event>
 5   0  0.2150197E-03  0.1729333E+04  0.7818609E-02  0.8744809E-01
        2   -1    0    0  501    0  0.00000000000E+00  0.00000000000E+00  0.77038564099E+03  0.77038564099E+03  0.25500000920E-02 0. -1.
       -2   -1    0    0    0  501  0.00000000000E+00  0.00000000000E+00 -0.97048582370E+03  0.97048582371E+03  0.25500000920E-02 0.  1.
    10030    2    1    2    0    0  0.00000000000E+00  0.00000000000E+00 -0.20010018272E+03  0.17408714647E+04  0.17293332164E+04 0.  0.
        3    1    3    3  502    0 -0.57947680350E+03 -0.12270957158E+03  0.53407128420E+03  0.79754821269E+03  0.10100000352E+00 0. -1.
       -3    1    3    3    0  502  0.57947680350E+03  0.12270957158E+03 -0.73417146692E+03  0.94332325201E+03  0.10100000352E+00 0.  1.
</event>
<event>
 5   0  0.1078787E-03  0.1399205E+04  0.7818609E-02  0.8954394E-01
        1   -1    0    0  501    0  0.00000000000E+00  0.00000000000E+00  0.13220314106E+04  0.13220314106E+04  0.50400001928E-02 0. -1.
       -1   -1    0    0    0  501  0.00000000000E+00  0.00000000000E+00 -0.37022098367E+03  0.37022098370E+03  0.50400001928E-02 0.  1.
    10030    2    1    2    0    0  0.00000000000E+00  0.00000000000E+00  0.95181042689E+03  0.16922523943E+04  0.13992051591E+04 0.  0.
        5    1    3    3  502    0  0.60864522631E+03  0.18593296654E+03  0.12453974419E+03  0.64850005199E+03  0.46999998093E+01 0.  1.
       -5    1    3    3    0  502 -0.60864522631E+03 -0.18593296654E+03  0.82727068271E+03  0.10437523423E+04  0.46999998093E+01 0. -1.
</event>
<event>
 5   0  0.7468375E-04  0.1514021E+04  0.7818609E-02  0.8875182E-01
       -4   -1    0    0    0  501  0.00000000000E+00  0.00000000000E+00  0.10630169500E+04  0.10630177086E+04  0.12699999809E+01 0.  1.
        4   -1    0    0  501    0  0.00000000000E+00  0.00000000000E+00 -0.53909108042E+03  0.53909257636E+03  0.12699999809E+01 0. -1.
    10030    2    1    2    0    0  0.00000000000E+00  0.00000000000E+00  0.52392586957E+03  0.16021102850E+04  0.15140208217E+04 0.  0.
        4    1    3    3  502    0  0.16120959954E+03 -0.11372796175E+03 -0.51140888169E+03  0.54814527403E+03  0.12699999809E+01 0. -1.
       -4    1    3    3    0  502 -0.16120959954E+03  0.11372796175E+03  0.10353347513E+04  0.10539650110E+04  0.12699999809E+01 0.  1.
</event>
<event>
 5   0  0.2111533E-03  0.1471998E+04  0.7818609E-02  0.8903290E-01
        2   -1    0    0  501    0  0.00000000000E+00  0.00000000000E+00  0.14143255295E+04  0.14143255295E+04  0.25500000920E-02 0. -1.
       -2   -1    0    0    0  501  0.00000000000E+00  0.00000000000E+00 -0.38300564010E+03  0.38300564011E+03  0.25500000920E-02 0.  1.
    10030    2    1    2    0    0  0.00000000000E+00  0.00000000000E+00  0.10313198894E+04  0.17973311696E+04  0.14719981722E+04 0.  0.
        5    1    3    3  502    0  0.17457583407E+03  0.38850231722E+02  0.13873706943E+04  0.13988586761E+04  0.46999998093E+01 0. -1.
       -5    1    3    3    0  502 -0.17457583407E+03 -0.38850231722E+02 -0.35605080494E+03  0.39847249346E+03  0.46999998093E+01 0.  1.
</event>
<event>
 5   0  0.2111533E-03  0.1433917E+04  0.7818609E-02  0.8929627E-01
       -2   -1    0    0    0  501  0.00000000000E+00  0.00000000000E+00  0.38072129949E+03  0.38072129949E+03  0.25500000920E-02 0. -1.
        2   -1    0    0  501    0  0.00000000000E+00  0.00000000000E+00 -0.13501464249E+04  0.13501464249E+04  0.25500000920E-02 0.  1.
    10030    2    1    2    0    0  0.00000000000E+00  0.00000000000E+00 -0.96942512539E+03  0.17308677244E+04  0.14339170149E+04 0.  0.
        5    1    3    3  502    0 -0.30175321028E+03 -0.58715529780E+03 -0.14715627427E+03  0.67637519374E+03  0.46999998093E+01 0.  1.
       -5    1    3    3    0  502  0.30175321028E+03  0.58715529780E+03 -0.82226885112E+03  0.10544925306E+04  0.46999998093E+01 0. -1.
</event>
<event>
 5   0  0.1077140E-03  0.1534865E+04  0.7818609E-02  0.8861594E-01
        1   -1    0    0  501    0  0.00000000000E+00  0.00000000000E+00  0.10471989748E+04  0.10471989748E+04  0.50400001928E-02 0.  1.
       -1   -1    0    0    0  501  0.00000000000E+00  0.00000000000E+00 -0.56240724472E+03  0.56240724474E+03  0.50400001928E-02 0. -1.
    10030    2    1    2    0    0  0.00000000000E+00  0.00000000000E+00  0.48479173007E+03  0.16096062195E+04  0.15348645414E+04 0.  0.
        1    1    3    3  502    0  0.19604865422E+03  0.26705903955E+03  0.96834549926E+03  0.10234493692E+04  0.50400001928E-02 0.  1.
       -1    1    3    3    0  502 -0.19604865422E+03 -0.26705903955E+03 -0.48355376920E+03  0.58615685030E+03  0.50400001928E-02 0. -1.
</event>
<event>
 5   0  0.1993623E-03  0.1508887E+04  0.7818609E-02  0.8878565E-01
        2   -1    0    0  501    0  0.00000000000E+00  0.00000000000E+00  0.93994190480E+03  0.93994190480E+03  0.25500000920E-02 0. -1.
       -2   -1    0    0    0  501  0.00000000000E+00  0.00000000000E+00 -0.60555301948E+03  0.60555301948E+03  0.25500000920E-02 0.  1.
    10030    2    1    2    0    0  0.00000000000E+00  0.00000000000E+00  0.33438888532E+03  0.15454949243E+04  0.15088865545E+04 0.  0.
        4    1    3    3  502    0  0.21035483557E+03 -0.51950662341E+02  0.90738576467E+03  0.93289794028E+03  0.12699999809E+01 0. -1.
       -4    1    3    3    0  502 -0.21035483557E+03  0.51950662341E+02 -0.57299687935E+03  0.61259698400E+03  0.12699999809E+01 0.  1.
</event>
<event>
 5   0  0.1077140E-03  0.1413966E+04  0.7818609E-02  0.8943771E-01
       -1   -1    0    0    0  501  0.00000000000E+00  0.00000000000E+00  0.76302244480E+03  0.76302244482E+03  0.50400001928E-02 0.  1.
        1   -1    0    0  501    0  0.00000000000E+00  0.00000000000E+00 -0.65505974747E+03  0.65505974749E+03  0.50400001928E-02 0. -1.
    10030    2    1    2    0    0  0.00000000000E+00  0.00000000000E+00  0.10796269733E+03  0.14180821923E+04  0.14139664636E+04 0.  0.
        1    1    3    3  502    0  0.26815617434E+03  0.28419874245E+03  0.64488955698E+03  0.75402864652E+03  0.50400001928E-02 0.  1.
       -1    1    3    3    0  502 -0.26815617434E+03 -0.28419874245E+03 -0.53692685965E+03  0.66405354580E+03  0.50400001928E-02 0. -1.
</event>
<event>
 5   0  0.1087761E-03  0.1463770E+04  0.7818609E-02  0.8908910E-01
       -1   -1    0    0    0  501  0.00000000000E+00  0.00000000000E+00  0.58461446324E+03  0.58461446326E+03  0.50400001928E-02 0. -1.
        1   -1    0    0  501    0  0.00000000000E+00  0.00000000000E+00 -0.91625429554E+03  0.91625429556E+03  0.50400001928E-02 0.  1.
    10030    2    1    2    0    0  0.00000000000E+00  0.00000000000E+00 -0.33163983231E+03  0.15008687588E+04  0.14637698087E+04 0.  0.
        3    1    3    3  502    0  0.42793217440E+03  0.86041971236E+01  0.44290642300E+03  0.61592701502E+03  0.10100000352E+00 0. -1.
       -3    1    3    3    0  502 -0.42793217440E+03 -0.86041971236E+01 -0.77454625531E+03  0.88494174380E+03  0.10100000352E+00 0.  1.
</event>
<event>
 5   0  0.1078018E-03  0.1491732E+04  0.7818609E-02  0.8889970E-01
        1   -1    0    0  501    0  0.00000000000E+00  0.00000000000E+00  0.11371593962E+04  0.11371593962E+04  0.50400001928E-02 0. -1.
       -1   -1    0    0    0  501  0.00000000000E+00  0.00000000000E+00 -0.48921539621E+03  0.48921539623E+03  0.50400001928E-02 0.  1.
    10030    2    1    2    0    0  0.00000000000E+00  0.00000000000E+00  0.64794399995E+03  0.16263747924E+04  0.14917317246E+04 0.  0.
        4    1    3    3  502    0 -0.70560114964E+03  0.82895420359E+02  0.76385504613E+02  0.71454950235E+03  0.12699999809E+01 0.  1.
       -4    1    3    3    0  502  0.70560114964E+03 -0.82895420359E+02  0.57155849534E+03  0.91182529005E+03  0.12699999809E+01 0. -1.
</event>
<event>
 5   0  0.1993623E-03  0.1476790E+04  0.7818609E-02  0.8900036E-01
        2   -1    0    0  501    0  0.00000000000E+00  0.00000000000E+00  0.69152045668E+03  0.69152045669E+03  0.25500000920E-02 0.  1.
       -2   -1    0    0    0  501  0.00000000000E+00  0.00000000000E+00 -0.78844687847E+03  0.78844687847E+03  0.25500000920E-02 0. -1.
    10030    2    1    2    0    0  0.00000000000E+00  0.00000000000E+00 -0.96926421784E+02  0.14799673352E+04  0.14767899586E+04 0.  0.
        4    1    3    3  502    0 -0.62284804384E+03 -0.24788878325E+03 -0.35870478840E+03  0.76030209305E+03  0.12699999809E+01 0. -1.
       -4    1    3    3    0  502  0.62284804384E+03  0.24788878325E+03  0.26177836662E+03  0.71966524211E+03  0.12699999809E+01 0.  1.
</event>
<event>
 5   0  0.1078018E-03  0.1423489E+04  0.7818609E-02  0.8936989E-01
        1   -1    0    0  501    0  0.00000000000E+00  0.00000000000E+00  0.66972263351E+03  0.66972263353E+03  0.50400001928E-02 0. -1.
       -1   -1    0    0    0  501  0.00000000000E+00  0.00000000000E+00 -0.75640355163E+03  0.75640355164E+03  0.50400001928E-02 0.  1.
    10030    2    1    2    0    0  0.00000000000E+00  0.00000000000E+00 -0.86680918121E+02  0.14261261852E+04  0.14234894852E+04 0.  0.
        4    1    3    3  502    0 -0.35397585005E+03 -0.31594107955E+02 -0.66115269331E+03  0.75061413978E+03  0.12699999809E+01 0.  1.
       -4    1    3    3    0  502  0.35397585005E+03  0.31594107955E+02  0.57447177519E+03  0.67551204539E+03  0.12699999809E+01 0. -1.
</event>
<event>
 5   0  0.1087761E-03  0.1491260E+04  0.7818609E-02  0.8890286E-01
        1   -1    0    0  501    0  0.00000000000E+00  0.00000000000E+00  0.11501522502E+04  0.11501522502E+04  0.50400001928E-02 0.  1.
       -1   -1    0    0    0  501  0.00000000000E+00  0.00000000000E+00 -0.48338289217E+03  0.48338289220E+03  0.50400001928E-02 0. -1.
    10030    2    1    2    0    0  0.00000000000E+00  0.00000000000E+00  0.66676935799E+03  0.16335351424E+04  0.14912597643E+04 0.  0.
        3    1    3    3  502    0 -0.52704005351E+03 -0.39807857302E+03 -0.45641909821E+02  0.66205812617E+03  0.10100000352E+00 0. -1.
       -3    1    3    3    0  502  0.52704005351E+03  0.39807857302E+03  0.71241126781E+03  0.97147701620E+03  0.10100000352E+00 0.  1.
</event>
<event>
 5   0  0.2094566E-03  0.1016103E+04  0.7818609E-02  0.9291057E-01
       -2   -1    0    0    0  501  0.00000000000E+00  0.00000000000E+00  0.36431467783E+03  0.36431467784E+03  0.25500000920E-02 0. -1.
        2   -1    0    0  501    0  0.00000000000E+00  0.00000000000E+00 -0.70849887888E+03  0.70849887889E+03  0.25500000920E-02 0.  1.
    10030    2    1    2    0    0  0.00000000000E+00  0.00000000000E+00 -0.34418420105E+03  0.10728135567E+04  0.10161034215E+04 0.  0.
        1    1    3    3  502    0  0.10239616454E+03 -0.12820718554E+03 -0.67975458758E+03  0.69927702400E+03  0.50400001928E-02 0.  1.
       -1    1    3    3    0  502 -0.10239616454E+03  0.12820718554E+03  0.33557038653E+03  0.37353653272E+03  0.50400001928E-02 0. -1.
</event>
<event>
 5   0  0.2111533E-03  0.1485524E+04  0.7818609E-02  0.8894137E-01
        2   -1    0    0  501    0  0.00000000000E+00  0.00000000000E+00  0.12371218572E+04  0.12371218572E+04  0.25500000920E-02 0. -1.
       -2   -1    0    0    0  501  0.00000000000E+00  0.00000000000E+00 -0.44595080792E+03  0.44595080793E+03  0.25500000920E-02 0.  1.
    10030    2    1    2    0    0  0.00000000000E+00  0.00000000000E+00  0.79117104931E+03  0.16830726652E+04  0.14855241388E+04 0.  0.
        5    1    3    3  502    0  0.63514167116E+03 -0.10942509484E+03  0.81386108604E+03  0.10381573827E+04  0.46999998093E+01 0.  1.
       -5    1    3    3    0  502 -0.63514167116E+03  0.10942509484E+03 -0.22690036731E+02  0.64491528249E+03  0.46999998093E+01 0. -1.
</event>
<event>
 5   0  0.1078018E-03  0.1508338E+04  0.7818609E-02  0.8878927E-01
        1   -1    0    0  501    0  0.00000000000E+00  0.00000000000E+00  0.50319610110E+03  0.50319610113E+03  0.50400001928E-02 0. -1.
       -1   -1    0    0    0  501  0.00000000000E+00  0.00000000000E+00 -0.11303166487E+04  0.11303166488E+04  0.50400001928E-02 0.  1.
    10030    2    1    2    0    0  0.00000000000E+00  0.00000000000E+00 -0.62712054765E+03  0.16335127499E+04  0.15083380665E+04 0.  0.
        4    1    3    3  502    0  0.11706739748E+03 -0.46869483817E+03 -0.94074964750E+03  0.10575401359E+04  0.12699999809E+01 0.  1.
       -4    1    3    3    0  502 -0.11706739748E+03  0.46869483817E+03  0.31362909985E+03  0.57597261398E+03  0.12699999809E+01 0. -1.
</event>
<event>
 5   0  0.1993623E-03  0.1442389E+04  0.7818609E-02  0.8923694E-01
       -2   -1    0    0    0  501  0.00000000000E+00  0.00000000000E+00  0.34711513837E+03  0.34711513838E+03  0.25500000920E-02 0. -1.
        2   -1    0    0  501    0  0.00000000000E+00  0.00000000000E+00 -0.14984124482E+04  0.14984124482E+04  0.25500000920E-02 0.  1.
    10030    2    1    2    0    0  0.00000000000E+00  0.00000000000E+00 -0.11512973098E+04  0.18455275866E+04  0.14423891906E+04 0.  0.
        4    1    3    3  502    0 -0.44193464902E+03  0.53716113871E+03 -0.33196741926E+03  0.77074788569E+03  0.12699999809E+01 0. -1.
       -4    1    3    3    0  502  0.44193464902E+03 -0.53716113871E+03 -0.81932989058E+03  0.10747797009E+04  0.12699999809E+01 0.  1.
</event>
<event>
 5   0  0.1961098E-03  0.1519226E+04  0.7818609E-02  0.8871768E-01
       -2   -1    0    0    0  501  0.00000000000E+00  0.00000000000E+00  0.41496193306E+03  0.41496193307E+03  0.25500000920E-02 0.  1.
        2   -1    0    0  501    0  0.00000000000E+00  0.00000000000E+00 -0.13905175048E+04  0.13905175048E+04  0.25500000920E-02 0. -1.
    10030    2    1    2    0    0  0.00000000000E+00  0.00000000000E+00 -0.97555557171E+03  0.18054794378E+04  0.15192258973E+04 0.  0.
        2    1    3    3  502    0 -0.36481034871E+03  0.48154995172E+03 -0.10350127674E+04  0.11984274593E+04  0.25500000920E-02 0. -1.
       -2    1    3    3    0  502  0.36481034871E+03 -0.48154995172E+03  0.59457195677E+02  0.60705197855E+03  0.25500000920E-02 0.  1.
</event>
<event>
 5   0  0.1077140E-03  0.1473201E+04  0.7818609E-02  0.8902472E-01
       -1   -1    0    0    0  501  0.00000000000E+00  0.00000000000E+00  0.51463662698E+03  0.51463662700E+03  0.50400001928E-02 0.  1.
        1   -1    0    0  501    0  0.00000000000E+00  0.00000000000E+00 -0.10542973182E+04  0.10542973182E+04  0.50400001928E-02 0. -1.
    10030    2    1    2    0    0  0.00000000000E+00  0.00000000000E+00 -0.53966069124E+03  0.15689339452E+04  0.14732006187E+04 0.  0.
        1    1    3    3  502    0 -0.37699371870E+03 -0.43085022970E+02 -0.94220464526E+03  0.10157411957E+04  0.50400001928E-02 0. -1.
       -1    1    3    3    0  502  0.37699371870E+03  0.43085022970E+02  0.40254395402E+03  0.55319274949E+03  0.50400001928E-02 0.  1.
</event>
<event>
 5   0  0.1961098E-03  0.1561922E+04  0.7818609E-02  0.8844288E-01
        2   -1    0    0  501    0  0.00000000000E+00  0.00000000000E+00  0.67255313032E+03  0.67255313032E+03  0.25500000920E-02 0.  1.
       -2   -1    0    0    0  501  0.00000000000E+00  0.00000000000E+00 -0.90684296207E+03  0.90684296207E+03  0.25500000920E-02 0. -1.
    10030    2    1    2    0    0  0.00000000000E+00  0.00000000000E+00 -0.23428983175E+03  0.15793960924E+04  0.15619219863E+04 0.  0.
        2    1    3    3  502    0  0.30542083521E+03 -0.21819608169E+03  0.57535886688E+03  0.68697106369E+03  0.25500000920E-02 0.  1.
       -2    1    3    3    0  502 -0.30542083521E+03  0.21819608169E+03 -0.80964869863E+03  0.89242502870E+03  0.25500000920E-02 0. -1.
</event>
<event>
 5   0  0.1069697E-03  0.1520405E+04  0.7818609E-02  0.8870996E-01
       -1   -1    0    0    0  501  0.00000000000E+00  0.00000000000E+00  0.70219910052E+03  0.70219910054E+03  0.50400001928E-02 0.  1.
        1   -1    0    0  501    0  0.00000000000E+00  0.00000000000E+00 -0.82299690145E+03  0.82299690147E+03  0.50400001928E-02 0. -1.
    10030    2    1    2    0    0  0.00000000000E+00  0.00000000000E+00 -0.12079780093E+03  0.15251960020E+04  0.15204047934E+04 0.  0.
        2    1    3    3  502    0 -0.66313768430E+03 -0.25404357660E+03  0.21178241454E+03  0.74104083441E+03  0.25500000920E-02 0. -1.
       -2    1    3    3    0  502  0.66313768430E+03  0.25404357660E+03 -0.33258021547E+03  0.78415516760E+03  0.25500000920E-02 0.  1.
</event>
<event>
 5   0  0.1077140E-03  0.1478166E+04  0.7818609E-02  0.8899103E-01
        1   -1    0    0  501    0  0.00000000000E+00  0.00000000000E+00  0.12910836275E+04  0.12910836275E+04  0.50400001928E-02 0. -1.
       -1   -1    0    0    0  501  0.00000000000E+00  0.00000000000E+00 -0.42308935323E+03  0.42308935326E+03  0.50400001928E-02 0.  1.
    10030    2    1    2    0    0  0.00000000000E+00  0.00000000000E+00  0.86799427424E+03  0.17141729807E+04  0.14781660759E+04 0.  0.
        1    1    3    3  502    0 -0.57399372315E+03  0.43870719232E+03  0.25318303089E+03  0.76552886423E+03  0.50400001928E-02 0.  1.
       -1    1    3    3    0  502  0.57399372315E+03 -0.43870719232E+03  0.61481124336E+03  0.94864411651E+03  0.50400001928E-02 0. -1.
</event>
<event>
 5   0  0.2094566E-03  0.1512958E+04  0.7818609E-02  0.8875882E-01
       -2   -1    0    0    0  501  0.00000000000E+00  0.00000000000E+00  0.60356128834E+03  0.60356128834E+03  0.25500000920E-02 0.  1.
        2   -1    0    0  501    0  0.00000000000E+00  0.00000000000E+00 -0.94813927264E+03  0.94813927264E+03  0.25500000920E-02 0. -1.
    10030    2    1    2    0    0  0.00000000000E+00  0.00000000000E+00 -0.34457798430E+03  0.15517005610E+04  0.15129575816E+04 0.  0.
        1    1    3    3  502    0  0.36279895665E+03  0.46737319343E+02 -0.85140276766E+03  0.92665750565E+03  0.50400001928E-02 0. -1.
       -1    1    3    3    0  502 -0.36279895665E+03 -0.46737319343E+02  0.50682478336E+03  0.62504305533E+03  0.50400001928E-02 0.  1.
</event>
<event>
 5   0  0.1961098E-03  0.1492133E+04  0.7818609E-02  0.8889701E-01
       -2   -1    0    0    0  501  0.00000000000E+00  0.00000000000E+00  0.31993728197E+03  0.31993728198E+03  0.25500000920E-02 0. -1.
        2   -1    0    0  501    0  0.00000000000E+00  0.00000000000E+00 -0.17397637998E+04  0.17397637998E+04  0.25500000920E-02 0.  1.
    10030    2    1    2    0    0  0.00000000000E+00  0.00000000000E+00 -0.14198265178E+04  0.20597010818E+04  0.14921331058E+04 0.  0.
        2    1    3    3  502    0 -0.52391983325E+03  0.40459383129E+03 -0.11849445892E+04  0.13573068332E+04  0.25500000920E-02 0. -1.
       -2    1    3    3    0  502  0.52391983325E+03 -0.40459383129E+03 -0.23488192859E+03  0.70239424853E+03  0.25500000920E-02 0.  1.
</event>
<event>
 5   0  0.1077140E-03  0.1521075E+04  0.7818609E-02  0.8870558E-01
        1   -1    0    0  501    0  0.00000000000E+00  0.00000000000E+00  0.90777913614E+03  0.90777913615E+03  0.50400001928E-02 0. -1.
       -1   -1    0    0    0  501  0.00000000000E+00  0.00000000000E+00 -0.63717837100E+03  0.63717837102E+03  0.50400001928E-02 0.  1.
    10030    2    1    2    0    0  0.00000000000E+00  0.00000000000E+00  0.27060076514E+03  0.15449575072E+04  0.15210749241E+04 0.  0.
        1    1    3    3  502    0  0.66371138323E+03 -0.34474947163E+03  0.27549743135E+03  0.79703439896E+03  0.50400001928E-02 0. -1.
       -1    1    3    3    0  502 -0.66371138323E+03  0.34474947163E+03 -0.48966662050E+01  0.74792310821E+03  0.50400001928E-02 0.  1.
</event>
<event>
 5   0  0.1069697E-03  0.1428590E+04  0.7818609E-02  0.8933380E-01
        1   -1    0    0  501    0  0.00000000000E+00  0.00000000000E+00  0.11290478670E+04  0.11290478670E+04  0.50400001928E-02 0. -1.
       -1   -1    0    0    0  501  0.00000000000E+00  0.00000000000E+00 -0.45190055701E+03  0.45190055704E+03  0.50400001928E-02 0.  1.
    10030    2    1    2    0    0  0.00000000000E+00  0.00000000000E+00  0.67714731000E+03  0.15809484241E+04  0.14285900182E+04 0.  0.
        2    1    3    3  502    0  0.28578771117E+03  0.32606578097E+03  0.96676063714E+03  0.10595374646E+04  0.25500000920E-02 0. -1.
       -2    1    3    3    0  502 -0.28578771117E+03 -0.32606578097E+03 -0.28961332714E+03  0.52141095945E+03  0.25500000920E-02 0.  1.
</event>
<event>
 5   0  0.2094566E-03  0.1461105E+04  0.7818609E-02  0.8910738E-01
       -2   -1    0    0    0  501  0.00000000000E+00  0.00000000000E+00  0.14421123327E+04  0.14421123327E+04  0.25500000920E-02 0.  1.
        2   -1    0    0  501    0  0.00000000000E+00  0.00000000000E+00 -0.37008690904E+03  0.37008690905E+03  0.25500000920E-02 0. -1.
    10030    2    1    2    0    0  0.00000000000E+00  0.00000000000E+00  0.10720254236E+04  0.18121992417E+04  0.14611049185E+04 0.  0.
        1    1    3    3  502    0 -0.23661046995E+03  0.67508129478E+03  0.35209916570E+03  0.79730363825E+03  0.50400001928E-02 0. -1.
       -1    1    3    3    0  502  0.23661046995E+03 -0.67508129478E+03  0.71992625795E+03  0.10148956035E+04  0.50400001928E-02 0.  1.
</event>
<event>
 5   0  0.1069697E-03  0.1497802E+04  0.7818609E-02  0.8885916E-01
       -1   -1    0    0    0  501  0.00000000000E+00  0.00000000000E+00  0.60185028048E+03  0.60185028050E+03  0.50400001928E-02 0. -1.
        1   -1    0    0  501    0  0.00000000000E+00  0.00000000000E+00 -0.93188131343E+03  0.93188131345E+03  0.50400001928E-02 0.  1.
    10030    2    1    2    0    0  0.00000000000E+00  0.00000000000E+00 -0.33003103295E+03  0.15337315939E+04  0.14978024301E+04 0.  0.
        2    1    3    3  502    0  0.32282081142E+03  0.51276375594E+03 -0.61570176909E+03  0.86384524897E+03  0.25500000920E-02 0.  1.
       -2    1    3    3    0  502 -0.32282081142E+03 -0.51276375594E+03  0.28567073614E+03  0.66988634498E+03  0.25500000920E-02 0. -1.
</event>
<event>
 5   0  0.1087761E-03  0.1442215E+04  0.7818609E-02  0.8923816E-01
        1   -1    0    0  501    0  0.00000000000E+00  0.00000000000E+00  0.78741125387E+03  0.78741125389E+03  0.50400001928E-02 0. -1.
       -1   -1    0    0    0  501  0.00000000000E+00  0.00000000000E+00 -0.66038675286E+03  0.66038675287E+03  0.50400001928E-02 0.  1.
    10030    2    1    2    0    0  0.00000000000E+00  0.00000000000E+00  0.12702450101E+03  0.14477980068E+04  0.14422149093E+04 0.  0.
        3    1    3    3  502    0 -0.99107312907E+01  0.71870054413E+03  0.52595485798E+01  0.71878812440E+03  0.10100000352E+00 0. -1.
       -3    1    3    3    0  502  0.99107312907E+01 -0.71870054413E+03  0.12176495244E+03  0.72900988236E+03  0.10100000352E+00 0.  1.
</event>
<event>
 5   0  0.1993623E-03  0.1487432E+04  0.7818609E-02  0.8892854E-01
       -2   -1    0    0    0  501  0.00000000000E+00  0.00000000000E+00  0.45335255439E+03  0.45335255439E+03  0.25500000920E-02 0. -1.
        2   -1    0    0  501    0  0.00000000000E+00  0.00000000000E+00 -0.12200510839E+04  0.12200510839E+04  0.25500000920E-02 0.  1.
    10030    2    1    2    0    0  0.00000000000E+00  0.00000000000E+00 -0.76669852953E+03  0.16734036383E+04  0.14874317132E+04 0.  0.
        4    1    3    3  502    0  0.46901288244E+03  0.23908820178E+03  0.20766622866E+03  0.56591795126E+03  0.12699999809E+01 0. -1.
       -4    1    3    3    0  502 -0.46901288244E+03 -0.23908820178E+03 -0.97436475819E+03  0.11074856871E+04  0.12699999809E+01 0.  1.
</event>
<event>
 5   0  0.1993623E-03  0.1465989E+04  0.7818609E-02  0.8907390E-01
        2   -1    0    0  501    0  0.00000000000E+00  0.00000000000E+00  0.11072420389E+04  0.11072420389E+04  0.25500000920E-02 0.  1.
       -2   -1    0    0    0  501  0.00000000000E+00  0.00000000000E+00 -0.48524273704E+03  0.48524273704E+03  0.25500000920E-02 0. -1.
    10030    2    1    2    0    0  0.00000000000E+00  0.00000000000E+00  0.62199930190E+03  0.15924847760E+04  0.14659893008E+04 0.  0.
        4    1    3    3  502    0  0.14644779379E+03 -0.60182354517E+03 -0.11479290408E+03  0.62993456768E+03  0.12699999809E+01 0. -1.
       -4    1    3    3    0  502 -0.14644779379E+03  0.60182354517E+03  0.73679220598E+03  0.96255020831E+03  0.12699999809E+01 0.  1.
</event>
<event>
 5   0  0.1993623E-03  0.1477603E+04  0.7818609E-02  0.8899484E-01
        2   -1    0    0  501    0  0.00000000000E+00  0.00000000000E+00  0.15897776614E+04  0.15897776614E+04  0.25500000920E-02 0. -1.
       -2   -1    0    0    0  501  0.00000000000E+00  0.00000000000E+00 -0.34333604688E+03  0.34333604689E+03  0.25500000920E-02 0.  1.
    10030    2    1    2    0    0  0.00000000000E+00  0.00000000000E+00  0.12464416145E+04  0.19331137083E+04  0.14776034349E+04 0.  0.
        4    1    3    3  502    0  0.75121450201E+02  0.18918526819E+03 -0.30592448801E+03  0.36745843744E+03  0.12699999809E+01 0.  1.
       -4    1    3    3    0  502 -0.75121450201E+02 -0.18918526819E+03  0.15523661026E+04  0.15656552709E+04  0.12699999809E+01 0. -1.
</event>
<event>
 5   0  0.2150197E-03  0.1516595E+04  0.7818609E-02  0.8873492E-01
        2   -1    0    0  501    0  0.00000000000E+00  0.00000000000E+00  0.96252904904E+03  0.96252904904E+03  0.25500000920E-02 0.  1.
       -2   -1    0    0    0  501  0.00000000000E+00  0.00000000000E+00 -0.59740035683E+03  0.59740035683E+03  0.25500000920E-02 0. -1.
    10030    2    1    2    0    0  0.00000000000E+00  0.00000000000E+00  0.36512869221E+03  0.15599294059E+04  0.15165951304E+04 0.  0.
        3    1    3    3  502    0 -0.31078033740E+03 -0.68071548838E+03  0.30877827771E+03  0.80950727558E+03  0.10100000352E+00 0.  1.
       -3    1    3    3    0  502  0.31078033740E+03  0.68071548838E+03  0.56350414505E+02  0.75042213030E+03  0.10100000352E+00 0. -1.
</event>
<event>
 5   0  0.1077140E-03  0.1185579E+04  0.7818609E-02  0.9125573E-01
       -1   -1    0    0    0  501  0.00000000000E+00  0.00000000000E+00  0.38189891111E+03  0.38189891114E+03  0.50400001928E-02 0.  1.
        1   -1    0    0  501    0  0.00000000000E+00  0.00000000000E+00 -0.92013753389E+03  0.92013753390E+03  0.50400001928E-02 0. -1.
    10030    2    1    2    0    0  0.00000000000E+00  0.00000000000E+00 -0.53823862278E+03  0.13020364450E+04  0.11855792210E+04 0.  0.
        1    1    3    3  502    0 -0.43793164577E+03 -0.32739735504E+03 -0.52057846339E+03  0.75496694698E+03  0.50400001928E-02 0.  1.
       -1    1    3    3    0  502  0.43793164577E+03  0.32739735504E+03 -0.17660159385E+02  0.54706949806E+03  0.50400001928E-02 0. -1.
</event>
<event>
 5   0  0.1961098E-03  0.1545014E+04  0.7818609E-02  0.8855059E-01
       -2   -1    0    0    0  501  0.00000000000E+00  0.00000000000E+00  0.65380587828E+03  0.65380587828E+03  0.25500000920E-02 0. -1.
        2   -1    0    0  501    0  0.00000000000E+00  0.00000000000E+00 -0.91275864333E+03  0.91275864333E+03  0.25500000920E-02 0.  1.
    10030    2    1    2    0    0  0.00000000000E+00  0.00000000000E+00 -0.25895276506E+03  0.15665645216E+04  0.15450138724E+04 0.  0.
        2    1    3    3  502    0 -0.44685984234E+03  0.38877566047E+03 -0.63231381924E+03  0.86640117663E+03  0.25500000920E-02 0.  1.
       -2    1    3    3    0  502  0.44685984234E+03 -0.38877566047E+03  0.37336105418E+03  0.70016334498E+03  0.25500000920E-02 0. -1.
</event>
<event>
 5   0  0.2094566E-03  0.1356999E+04  0.7818609E-02  0.8985547E-01
        2   -1    0    0  501    0  0.00000000000E+00  0.00000000000E+00  0.10856302415E+04  0.10856302415E+04  0.25500000920E-02 0.  1.
       -2   -1    0    0    0  501  0.00000000000E+00  0.00000000000E+00 -0.42405028590E+03  0.42405028590E+03  0.25500000920E-02 0. -1.
    10030    2    1    2    0    0  0.00000000000E+00  0.00000000000E+00  0.66157995557E+03  0.15096805274E+04  0.13569993578E+04 0.  0.
        1    1    3    3  502    0  0.50739138898E+03  0.16807625448E+03 -0.13416382496E+03  0.55108581989E+03  0.50400001928E-02 0. -1.
       -1    1    3    3    0  502 -0.50739138898E+03 -0.16807625448E+03  0.79574378053E+03  0.95859470748E+03  0.50400001928E-02 0.  1.
</event>
<event>
 5   0  0.1069697E-03  0.1477081E+04  0.7818609E-02  0.8899838E-01
        1   -1    0    0  501    0  0.00000000000E+00  0.00000000000E+00  0.65083757821E+03  0.65083757823E+03  0.50400001928E-02 0.  1.
       -1   -1    0    0    0  501  0.00000000000E+00  0.00000000000E+00 -0.83806225112E+03  0.83806225114E+03  0.50400001928E-02 0. -1.
    10030    2    1    2    0    0  0.00000000000E+00  0.00000000000E+00 -0.18722467291E+03  0.14888998294E+04  0.14770814547E+04 0.  0.
        2    1    3    3  502    0 -0.48679956889E+03 -0.55065388391E+03 -0.16664120903E+03  0.75363307564E+03  0.25500000920E-02 0. -1.
       -2    1    3    3    0  502  0.48679956889E+03  0.55065388391E+03 -0.20583463884E+02  0.73526675373E+03  0.25500000920E-02 0.  1.
</event>
<event>
 5   0  0.1069697E-03  0.1503786E+04  0.7818609E-02  0.8881939E-01
        1   -1    0    0  501    0  0.00000000000E+00  0.00000000000E+00  0.35556844483E+03  0.35556844486E+03  0.50400001928E-02 0.  1.
       -1   -1    0    0    0  501  0.00000000000E+00  0.00000000000E+00 -0.15899688198E+04  0.15899688198E+04  0.50400001928E-02 0. -1.
    10030    2    1    2    0    0  0.00000000000E+00  0.00000000000E+00 -0.12344003750E+04  0.19455372647E+04  0.15037855441E+04 0.  0.
        2    1    3    3  502    0  0.85287668417E+02  0.70575087702E+03 -0.30033611297E+03  0.77172538351E+03  0.25500000920E-02 0.  1.
       -2    1    3    3    0  502 -0.85287668417E+02 -0.70575087702E+03 -0.93406426199E+03  0.11738118812E+04  0.25500000920E-02 0. -1.
</event>
<event>
 5   0  0.1993623E-03  0.1739419E+04  0.7818609E-02  0.8739196E-01
       -2   -1    0    0    0  501  0.00000000000E+00  0.00000000000E+00  0.60643851748E+03  0.60643851748E+03  0.25500000920E-02 0.  1.
        2   -1    0    0  501    0  0.00000000000E+00  0.00000000000E+00 -0.12472734187E+04  0.12472734187E+04  0.25500000920E-02 0. -1.
    10030    2    1    2    0    0  0.00000000000E+00  0.00000000000E+00 -0.64083490118E+03  0.18537119361E+04  0.17394190328E+04 0.  0.
        4    1    3    3  502    0 -0.52654716641E+03 -0.54363220885E+02  0.41498695420E+03  0.67262401332E+03  0.12699999809E+01 0.  1.
       -4    1    3    3    0  502  0.52654716641E+03  0.54363220885E+02 -0.10558218554E+04  0.11810879228E+04  0.12699999809E+01 0. -1.
</event>
<event>
 5   0  0.1993623E-03  0.1520884E+04  0.7818609E-02  0.8870683E-01
       -2   -1    0    0    0  501  0.00000000000E+00  0.00000000000E+00  0.43842044688E+03  0.43842044688E+03  0.25500000920E-02 0.  1.
        2   -1    0    0  501    0  0.00000000000E+00  0.00000000000E+00 -0.13189893619E+04  0.13189893619E+04  0.25500000920E-02 0. -1.
    10030    2    1    2    0    0  0.00000000000E+00  0.00000000000E+00 -0.88056891498E+03  0.17574098087E+04  0.15208838292E+04 0.  0.
        4    1    3    3  502    0  0.33757924495E+03 -0.68062076126E+02 -0.12237211543E+04  0.12712542111E+04  0.12699999809E+01 0. -1.
       -4    1    3    3    0  502 -0.33757924495E+03  0.68062076126E+02  0.34315223935E+03  0.48615559762E+03  0.12699999809E+01 0.  1.
</event>
<event>
 5   0  0.1993623E-03  0.1533152E+04  0.7818609E-02  0.8862702E-01
        2   -1    0    0  501    0  0.00000000000E+00  0.00000000000E+00  0.11053369942E+04  0.11053369943E+04  0.25500000920E-02 0.  1.
       -2   -1    0    0    0  501  0.00000000000E+00  0.00000000000E+00 -0.53163761155E+03  0.53163761156E+03  0.25500000920E-02 0. -1.
    10030    2    1    2    0    0  0.00000000000E+00  0.00000000000E+00  0.57369938270E+03  0.16369746058E+04  0.15331519424E+04 0.  0.
        4    1    3    3  502    0 -0.45024635218E+03  0.16902871992E+03  0.92422002946E+03  0.10418621605E+04  0.12699999809E+01 0.  1.
       -4    1    3    3    0  502  0.45024635218E+03 -0.16902871992E+03 -0.35052064677E+03  0.59511244527E+03  0.12699999809E+01 0. -1.
</event>
<event>
 5   0  0.1087761E-03  0.1568302E+04  0.7818609E-02  0.8840261E-01
       -1   -1    0    0    0  501  0.00000000000E+00  0.00000000000E+00  0.10184193644E+04  0.10184193644E+04  0.50400001928E-02 0.  1.
        1   -1    0    0  501    0  0.00000000000E+00  0.00000000000E+00 -0.60377190840E+03  0.60377190842E+03  0.50400001928E-02 0. -1.
    10030    2    1    2    0    0  0.00000000000E+00  0.00000000000E+00  0.41464745596E+03  0.16221912728E+04  0.15683022709E+04 0.  0.
        3    1    3    3  502    0 -0.10155970104E+03  0.57399694791E+03  0.74985205422E+03  0.94977101583E+03  0.10100000352E+00 0.  1.
       -3    1    3    3    0  502  0.10155970104E+03 -0.57399694791E+03 -0.33520459826E+03  0.67242025697E+03  0.10100000352E+00 0. -1.
</event>
<event>
 5   0  0.1078787E-03  0.1537793E+04  0.7818609E-02  0.8859703E-01
        1   -1    0    0  501    0  0.00000000000E+00  0.00000000000E+00  0.11808178980E+04  0.11808178980E+04  0.50400001928E-02 0. -1.
       -1   -1    0    0    0  501  0.00000000000E+00  0.00000000000E+00 -0.50067127191E+03  0.50067127194E+03  0.50400001928E-02 0.  1.
    10030    2    1    2    0    0  0.00000000000E+00  0.00000000000E+00  0.68014662606E+03  0.16814891699E+04  0.15377927024E+04 0.  0.
        5    1    3    3  502    0 -0.41925438612E+03 -0.76066958258E+02  0.10398933473E+04  0.11238152367E+04  0.46999998093E+01 0. -1.
       -5    1    3    3    0  502  0.41925438612E+03  0.76066958258E+02 -0.35974672122E+03  0.55767393327E+03  0.46999998093E+01 0.  1.
</event>
<event>
 5   0  0.1961098E-03  0.1502645E+04  0.7818609E-02  0.8882696E-01
        2   -1    0    0  501    0  0.00000000000E+00  0.00000000000E+00  0.12770729082E+04  0.12770729082E+04  0.25500000920E-02 0. -1.
       -2   -1    0    0    0  501  0.00000000000E+00  0.00000000000E+00 -0.44201512986E+03  0.44201512987E+03  0.25500000920E-02 0.  1.
    10030    2    1    2    0    0  0.00000000000E+00  0.00000000000E+00  0.83505777829E+03  0.17190880380E+04  0.15026450643E+04 0.  0.
        2    1    3    3  502    0  0.55662056922E+03  0.48022777068E+03  0.24014574402E+03  0.77337904561E+03  0.25500000920E-02 0.  1.
       -2    1    3    3    0  502 -0.55662056922E+03 -0.48022777068E+03  0.59491203427E+03  0.94570899242E+03  0.25500000920E-02 0. -1.
</event>
<event>
 5   0  0.1069697E-03  0.1484545E+04  0.7818609E-02  0.8894796E-01
        1   -1    0    0  501    0  0.00000000000E+00  0.00000000000E+00  0.19312252101E+04  0.19312252101E+04  0.50400001928E-02 0. -1.
       -1   -1    0    0    0  501  0.00000000000E+00  0.00000000000E+00 -0.28529459633E+03  0.28529459638E+03  0.50400001928E-02 0.  1.
    10030    2    1    2    0    0  0.00000000000E+00  0.00000000000E+00  0.16459306137E+04  0.22165198064E+04  0.14845445319E+04 0.  0.
        2    1    3    3  502    0  0.21977630732E+03  0.37912462212E+03 -0.71541971686E+02  0.44402179910E+03  0.25500000920E-02 0.  1.
       -2    1    3    3    0  502 -0.21977630732E+03 -0.37912462212E+03  0.17174725854E+04  0.17724980073E+04  0.25500000920E-02 0. -1.
</event>
<event>
 5   0  0.1069697E-03  0.1465892E+04  0.7818609E-02  0.8907457E-01
       -1   -1    0    0    0  501  0.00000000000E+00  0.00000000000E+00  0.35789953627E+03  0.35789953630E+03  0.50400001928E-02 0. -1.
        1   -1    0    0  501    0  0.00000000000E+00  0.00000000000E+00 -0.15010072084E+04  0.15010072084E+04  0.50400001928E-02 0.  1.
    10030    2    1    2    0    0  0.00000000000E+00  0.00000000000E+00 -0.11431076722E+04  0.18589067447E+04  0.14658919249E+04 0.  0.
        2    1    3    3  502    0 -0.30399606494E+03 -0.36922806202E+03 -0.12758573823E+04  0.13625545968E+04  0.25500000920E-02 0.  1.
       -2    1    3    3    0  502  0.30399606494E+03  0.36922806202E+03  0.13274971008E+03  0.49635214799E+03  0.25500000920E-02 0. -1.
</event>
<event>
 5   0  0.1077140E-03  0.1586984E+04  0.7818609E-02  0.8828584E-01
       -1   -1    0    0    0  501  0.00000000000E+00  0.00000000000E+00  0.66364623396E+03  0.66364623398E+03  0.50400001928E-02 0.  1.
        1   -1    0    0  501    0  0.00000000000E+00  0.00000000000E+00 -0.94874276020E+03  0.94874276022E+03  0.50400001928E-02 0. -1.
    10030    2    1    2    0    0  0.00000000000E+00  0.00000000000E+00 -0.28509652624E+03  0.16123889942E+04  0.15869840073E+04 0.  0.
        1    1    3    3  502    0 -0.71508237169E+03  0.26010424202E+03  0.86070648403E+02  0.76577096547E+03  0.50400001928E-02 0. -1.
       -1    1    3    3    0  502  0.71508237169E+03 -0.26010424202E+03 -0.37116717464E+03  0.84661802873E+03  0.50400001928E-02 0.  1.
</event>
<event>
 5   0  0.1961098E-03  0.8567062E+03  0.7818609E-02  0.9481380E-01
        2   -1    0    0  501    0  0.00000000000E+00  0.00000000000E+00  0.85405687685E+03  0.85405687685E+03  0.25500000920E-02 0. -1.
       -2   -1    0    0    0  501  0.00000000000E+00  0.00000000000E+00 -0.21484091427E+03  0.21484091428E+03  0.25500000920E-02 0.  1.
    10030    2    1    2    0    0  0.00000000000E+00  0.00000000000E+00  0.63921596258E+03  0.10688977911E+04  0.85670615795E+03 0.  0.
        2    1    3    3  502    0  0.11290893680E+03 -0.29778953113E+03 -0.37803309115E+02  0.32071190038E+03  0.25500000920E-02 0.  1.
       -2    1    3    3    0  502 -0.11290893680E+03  0.29778953113E+03  0.67701927170E+03  0.74818589075E+03  0.25500000920E-02 0. -1.
</event>
<event>
 5   0  0.1993623E-03  0.1488664E+04  0.7818609E-02  0.8892026E-01
        2   -1    0    0  501    0  0.00000000000E+00  0.00000000000E+00  0.55388634849E+03  0.55388634849E+03  0.25500000920E-02 0.  1.
       -2   -1    0    0    0  501  0.00000000000E+00  0.00000000000E+00 -0.10002601118E+04  0.10002601118E+04  0.25500000920E-02 0. -1.
    10030    2    1    2    0    0  0.00000000000E+00  0.00000000000E+00 -0.44637376333E+03  0.15541464603E+04  0.14886643959E+04 0.  0.
        4    1    3    3  502    0  0.72538792146E+03  0.14219409001E+03 -0.13204248791E+03  0.75089521728E+03  0.12699999809E+01 0. -1.
       -4    1    3    3    0  502 -0.72538792146E+03 -0.14219409001E+03 -0.31433127542E+03  0.80325124303E+03  0.12699999809E+01 0.  1.
</event>
<event>
 5   0  0.1087761E-03  0.1360626E+04  0.7818609E-02  0.8982823E-01
       -1   -1    0    0    0  501  0.00000000000E+00  0.00000000000E+00  0.65120787960E+03  0.65120787962E+03  0.50400001928E-02 0. -1.
        1   -1    0    0  501    0  0.00000000000E+00  0.00000000000E+00 -0.71071908934E+03  0.71071908935E+03  0.50400001928E-02 0.  1.
    10030    2    1    2    0    0  0.00000000000E+00  0.00000000000E+00 -0.59511209734E+02  0.13619269690E+04  0.13606261370E+04 0.  0.
        3    1    3    3  502    0  0.28977665424E+02 -0.16947438451E+02  0.65037833812E+03  0.65124412754E+03  0.10100000352E+00 0. -1.
       -3    1    3    3    0  502 -0.28977665424E+02  0.16947438451E+02 -0.70988954785E+03  0.71068284144E+03  0.10100000352E+00 0.  1.
</event>
<event>
 5   0  0.2094566E-03  0.1478411E+04  0.7818609E-02  0.8898938E-01
        2   -1    0    0  501    0  0.00000000000E+00  0.00000000000E+00  0.29475576129E+04  0.29475576129E+04  0.25500000920E-02 0.  1.
       -2   -1    0    0    0  501  0.00000000000E+00  0.00000000000E+00 -0.18538213256E+03  0.18538213258E+03  0.25500000920E-02 0. -1.
    10030    2    1    2    0    0  0.00000000000E+00  0.00000000000E+00  0.27621754803E+04  0.31329397455E+04  0.14784106549E+04 0.  0.
        1    1    3    3  502    0 -0.59402805128E+03  0.18781951315E+03  0.53800803289E+03  0.82316349452E+03  0.50400001928E-02 0. -1.
       -1    1    3    3    0  502  0.59402805128E+03 -0.18781951315E+03  0.22241674474E+04  0.23097762510E+04  0.50400001928E-02 0.  1.
</event>
<event>
 5   0  0.1069697E-03  0.1507957E+04  0.7818609E-02  0.8879179E-01
        1   -1    0    0  501    0  0.00000000000E+00  0.00000000000E+00  0.11985089009E+04  0.11985089009E+04  0.50400001928E-02 0. -1.
       -1   -1    0    0    0  501  0.00000000000E+00  0.00000000000E+00 -0.47432579223E+03  0.47432579225E+03  0.50400001928E-02 0.  1.
    10030    2    1    2    0    0  0.00000000000E+00  0.00000000000E+00  0.72418310867E+03  0.16728346932E+04  0.15079571399E+04 0.  0.
        2    1    3    3  502    0  0.68715597578E+03  0.30971125348E+03  0.34048682747E+03  0.82706449281E+03  0.25500000920E-02 0. -1.
       -2    1    3    3    0  502 -0.68715597578E+03 -0.30971125348E+03  0.38369628120E+03  0.84577020035E+03  0.25500000920E-02 0.  1.
</event>
<event>
 5   0  0.1077140E-03  0.1610064E+04  0.7818609E-02  0.8814389E-01
       -1   -1    0    0    0  501  0.00000000000E+00  0.00000000000E+00  0.90831577719E+03  0.90831577721E+03  0.50400001928E-02 0. -1.
        1   -1    0    0  501    0  0.00000000000E+00  0.00000000000E+00 -0.71349226049E+03  0.71349226051E+03  0.50400001928E-02 0.  1.
    10030    2    1    2    0    0  0.00000000000E+00  0.00000000000E+00  0.19482351670E+03  0.16218080377E+04  0.16100636970E+04 0.  0.
        1    1    3    3  502    0 -0.42687903333E+03 -0.23915352980E+03 -0.54651343050E+03  0.73355098640E+03  0.50400001928E-02 0.  1.
       -1    1    3    3    0  502  0.42687903333E+03  0.23915352980E+03  0.74133694720E+03  0.88825705132E+03  0.50400001928E-02 0. -1.
</event>
<event>
 5   0  0.1087761E-03  0.1513877E+04  0.7818609E-02  0.8875277E-01
        1   -1    0    0  501    0  0.00000000000E+00  0.00000000000E+00  0.10497120383E+04  0.10497120383E+04  0.50400001928E-02 0. -1.
       -1   -1    0    0    0  501  0.00000000000E+00  0.00000000000E+00 -0.54582191695E+03  0.54582191698E+03  0.50400001928E-02 0.  1.
    10030    2    1    2    0    0  0.00000000000E+00  0.00000000000E+00  0.50389012133E+03  0.15955339553E+04  0.15138769263E+04 0.  0.
        3    1    3    3  502    0 -0.74388412309E+03 -0.11940021758E+03  0.17495825123E+03  0.77345355414E+03  0.10100000352E+00 0.  1.
       -3    1    3    3    0  502  0.74388412309E+03  0.11940021758E+03  0.32893187010E+03  0.82208040113E+03  0.10100000352E+00 0. -1.
</event>
<event>
 5   0  0.1077140E-03  0.1523645E+04  0.7818609E-02  0.8868880E-01
       -1   -1    0    0    0  501  0.00000000000E+00  0.00000000000E+00  0.60171061559E+03  0.60171061562E+03  0.50400001928E-02 0. -1.
        1   -1    0    0  501    0  0.00000000000E+00  0.00000000000E+00 -0.96453905799E+03  0.96453905801E+03  0.50400001928E-02 0.  1.
    10030    2    1    2    0    0  0.00000000000E+00  0.00000000000E+00 -0.36282844240E+03  0.15662496736E+04  0.15236448279E+04 0.  0.
        1    1    3    3  502    0 -0.55194708782E+03 -0.15309554097E+03  0.33491522040E+03  0.66351491113E+03  0.50400001928E-02 0. -1.
       -1    1    3    3    0  502  0.55194708782E+03  0.15309554097E+03 -0.69774366280E+03  0.90273476249E+03  0.50400001928E-02 0.  1.
</event>
<event>
 5   0  0.1077140E-03  0.1571813E+04  0.7818609E-02  0.8838054E-01
        1   -1    0    0  501    0  0.00000000000E+00  0.00000000000E+00  0.45338957896E+03  0.45338957899E+03  0.50400001928E-02 0.  1.
       -1   -1    0    0    0  501  0.00000000000E+00  0.00000000000E+00 -0.13622912157E+04  0.13622912157E+04  0.50400001928E-02 0. -1.
    10030    2    1    2    0    0  0.00000000000E+00  0.00000000000E+00 -0.90890163676E+03  0.18156807947E+04  0.15718125089E+04 0.  0.
        1    1    3    3  502    0  0.95014622558E+02  0.48230877194E+03 -0.11627751624E+04  0.12624165748E+04  0.50400001928E-02 0. -1.
       -1    1    3    3    0  502 -0.95014622558E+02 -0.48230877194E+03  0.25387352565E+03  0.55326421992E+03  0.50400001928E-02 0.  1.
</event>
<event>
 5   0  0.1069697E-03  0.1542223E+04  0.7818609E-02  0.8856850E-01
        1   -1    0    0  501    0  0.00000000000E+00  0.00000000000E+00  0.54515295633E+03  0.54515295635E+03  0.50400001928E-02 0.  1.
       -1   -1    0    0    0  501  0.00000000000E+00  0.00000000000E+00 -0.10907274568E+04  0.10907274568E+04  0.50400001928E-02 0. -1.
    10030    2    1    2    0    0  0.00000000000E+00  0.00000000000E+00 -0.54557450047E+03  0.16358804132E+04  0.15422234568E+04 0.  0.
        2    1    3    3  502    0  0.11870529883E+03  0.21158255335E+03  0.50361616061E+03  0.55900569057E+03  0.25500000920E-02 0.  1.
       -2    1    3    3    0  502 -0.11870529883E+03 -0.21158255335E+03 -0.10491906611E+04  0.10768747226E+04  0.25500000920E-02 0. -1.
</event>
<event>
 5   0  0.1077140E-03  0.1489564E+04  0.7818609E-02  0.8891423E-01
        1   -1    0    0  501    0  0.00000000000E+00  0.00000000000E+00  0.99649861780E+03  0.99649861782E+03  0.50400001928E-02 0.  1.
       -1   -1    0    0    0  501  0.00000000000E+00  0.00000000000E+00 -0.55664891610E+03  0.55664891613E+03  0.50400001928E-02 0. -1.
    10030    2    1    2    0    0  0.00000000000E+00  0.00000000000E+00  0.43984970170E+03  0.15531475339E+04  0.14895635274E+04 0.  0.
        1    1    3    3  502    0  0.61248504542E+03  0.37691892536E+03  0.18025480329E+02  0.71939608362E+03  0.50400001928E-02 0.  1.
       -1    1    3    3    0  502 -0.61248504542E+03 -0.37691892536E+03  0.42182422137E+03  0.83375145033E+03  0.50400001928E-02 0. -1.
</event>
<event>
 5   0  0.1961098E-03  0.1510735E+04  0.7818609E-02  0.8877345E-01
        2   -1    0    0  501    0  0.00000000000E+00  0.00000000000E+00  0.72119687272E+03  0.72119687272E+03  0.25500000920E-02 0.  1.
       -2   -1    0    0    0  501  0.00000000000E+00  0.00000000000E+00 -0.79115718285E+03  0.79115718285E+03  0.25500000920E-02 0. -1.
    10030    2    1    2    0    0  0.00000000000E+00  0.00000000000E+00 -0.69960310128E+02  0.15123540556E+04  0.15107350345E+04 0.  0.
        2    1    3    3  502    0  0.12190906547E+02  0.12844500698E+03 -0.78004475651E+03  0.79064313074E+03  0.25500000920E-02 0. -1.
       -2    1    3    3    0  502 -0.12190906547E+02 -0.12844500698E+03  0.71008444638E+03  0.72171092483E+03  0.25500000920E-02 0.  1.
</event>
<event>
 5   0  0.1069697E-03  0.1010872E+04  0.7818609E-02  0.9296700E-01
        1   -1    0    0  501    0  0.00000000000E+00  0.00000000000E+00  0.53392389345E+03  0.53392389348E+03  0.50400001928E-02 0.  1.
       -1   -1    0    0    0  501  0.00000000000E+00  0.00000000000E+00 -0.47846811404E+03  0.47846811406E+03  0.50400001928E-02 0. -1.
    10030    2    1    2    0    0  0.00000000000E+00  0.00000000000E+00  0.55455779416E+02  0.10123920075E+04  0.10108720164E+04 0.  0.
        2    1    3    3  502    0  0.71044948103E+02 -0.96323452368E+02  0.51952631238E+03  0.53313523743E+03  0.25500000920E-02 0.  1.
       -2    1    3    3    0  502 -0.71044948103E+02  0.96323452368E+02 -0.46407053296E+03  0.47925677011E+03  0.25500000920E-02 0. -1.
</event>
<event>
 5   0  0.1078787E-03  0.1500022E+04  0.7818609E-02  0.8884438E-01
        1   -1    0    0  501    0  0.00000000000E+00  0.00000000000E+00  0.69467926351E+03  0.69467926353E+03  0.50400001928E-02 0. -1.
       -1   -1    0    0    0  501  0.00000000000E+00  0.00000000000E+00 -0.80975041977E+03  0.80975041978E+03  0.50400001928E-02 0.  1.
    10030    2    1    2    0    0  0.00000000000E+00  0.00000000000E+00 -0.11507115626E+03  0.15044296833E+04  0.15000224335E+04 0.  0.
        5    1    3    3  502    0 -0.93058765467E+02  0.20667613378E+03 -0.77456253338E+03  0.80705896081E+03  0.46999998093E+01 0.  1.
       -5    1    3    3    0  502  0.93058765467E+02 -0.20667613378E+03  0.65949137712E+03  0.69737072250E+03  0.46999998093E+01 0. -1.
</event>
<event>
 5   0  0.2094566E-03  0.1501192E+04  0.7818609E-02  0.8883661E-01
       -2   -1    0    0    0  501  0.00000000000E+00  0.00000000000E+00  0.82109612016E+03  0.82109612017E+03  0.25500000920E-02 0.  1.
        2   -1    0    0  501    0  0.00000000000E+00  0.00000000000E+00 -0.68614900847E+03  0.68614900847E+03  0.25500000920E-02 0. -1.
    10030    2    1    2    0    0  0.00000000000E+00  0.00000000000E+00  0.13494711170E+03  0.15072451286E+04  0.15011919114E+04 0.  0.
        1    1    3    3  502    0 -0.72369182900E+03 -0.17511195564E+03  0.16272562896E+03  0.76215070079E+03  0.50400001928E-02 0.  1.
       -1    1    3    3    0  502  0.72369182900E+03  0.17511195564E+03 -0.27778517260E+02  0.74509442785E+03  0.50400001928E-02 0. -1.
</event>
<event>
 5   0  0.2094566E-03  0.1512379E+04  0.7818609E-02  0.8876262E-01
        2   -1    0    0  501    0  0.00000000000E+00  0.00000000000E+00  0.70841749949E+03  0.70841749949E+03  0.25500000920E-02 0.  1.
       -2   -1    0    0    0  501  0.00000000000E+00  0.00000000000E+00 -0.80718323679E+03  0.80718323680E+03  0.25500000920E-02 0. -1.
    10030    2    1    2    0    0  0.00000000000E+00  0.00000000000E+00 -0.98765737306E+02  0.15156007363E+04  0.15123792252E+04 0.  0.
        1    1    3    3  502    0  0.49910855060E+03  0.40446639676E+03  0.35036570672E+03  0.73175032618E+03  0.50400001928E-02 0.  1.
       -1    1    3    3    0  502 -0.49910855060E+03 -0.40446639676E+03 -0.44913144403E+03  0.78385041011E+03  0.50400001928E-02 0. -1.
</event>
<event>
 5   0  0.1961098E-03  0.1491784E+04  0.7818609E-02  0.8889935E-01
       -2   -1    0    0    0  501  0.00000000000E+00  0.00000000000E+00  0.43518447153E+03  0.43518447153E+03  0.25500000920E-02 0. -1.
        2   -1    0    0  501    0  0.00000000000E+00  0.00000000000E+00 -0.12784343818E+04  0.12784343818E+04  0.25500000920E-02 0.  1.
    10030    2    1    2    0    0  0.00000000000E+00  0.00000000000E+00 -0.84324991024E+03  0.17136188533E+04  0.14917838862E+04 0.  0.
        2    1    3    3  502    0 -0.47107582963E+02  0.64863529345E+03 -0.84118983748E+03  0.10632719365E+04  0.25500000920E-02 0.  1.
       -2    1    3    3    0  502  0.47107582963E+02 -0.64863529345E+03 -0.20600727644E+01  0.65034691680E+03  0.25500000920E-02 0. -1.
</event>
<event>
 5   0  0.2111533E-03  0.1497783E+04  0.7818609E-02  0.8885929E-01
        2   -1    0    0  501    0  0.00000000000E+00  0.00000000000E+00  0.30784326928E+04  0.30784326928E+04  0.25500000920E-02 0.  1.
       -2   -1    0    0    0  501  0.00000000000E+00  0.00000000000E+00 -0.18218300122E+03  0.18218300124E+03  0.25500000920E-02 0. -1.
    10030    2    1    2    0    0  0.00000000000E+00  0.00000000000E+00  0.28962496915E+04  0.32606156940E+04  0.14977825036E+04 0.  0.
        5    1    3    3  502    0  0.18365821813E+03  0.33814094349E+03  0.49528152508E+02  0.38800098793E+03  0.46999998093E+01 0. -1.
       -5    1    3    3    0  502 -0.18365821813E+03 -0.33814094349E+03  0.28467215390E+04  0.28726147061E+04  0.46999998093E+01 0.  1.
</event>
<event>
 5   0  0.1078018E-03  0.8672772E+03  0.7818609E-02  0.9467437E-01
       -1   -1    0    0    0  501  0.00000000000E+00  0.00000000000E+00  0.17376428619E+03  0.17376428626E+03  0.50400001928E-02 0.  1.
        1   -1    0    0  501    0  0.00000000000E+00  0.00000000000E+00 -0.10821697441E+04  0.10821697442E+04  0.50400001928E-02 0. -1.
    10030    2    1    2    0    0  0.00000000000E+00  0.00000000000E+00 -0.90840545796E+03  0.12559340304E+04  0.86727724098E+03 0.  0.
        4    1    3    3  502    0  0.74116596752E+02 -0.41906351765E+03 -0.33362139572E+03  0.54075165309E+03  0.12699999809E+01 0. -1.
       -4    1    3    3    0  502 -0.74116596752E+02  0.41906351765E+03 -0.57478406224E+03  0.71518237733E+03  0.12699999809E+01 0.  1.
</event>
<event>
 5   0  0.2094566E-03  0.1473959E+04  0.7818609E-02  0.8901957E-01
        2   -1    0    0  501    0  0.00000000000E+00  0.00000000000E+00  0.91668825695E+03  0.91668825695E+03  0.25500000920E-02 0.  1.
       -2   -1    0    0    0  501  0.00000000000E+00  0.00000000000E+00 -0.59250105860E+03  0.59250105861E+03  0.25500000920E-02 0. -1.
    10030    2    1    2    0    0  0.00000000000E+00  0.00000000000E+00  0.32418719835E+03  0.15091893156E+04  0.14739589718E+04 0.  0.
        1    1    3    3  502    0 -0.35042047954E+03  0.61925597629E+03 -0.34501650955E+02  0.71236426117E+03  0.50400001928E-02 0.  1.
       -1    1    3    3    0  502  0.35042047954E+03 -0.61925597629E+03  0.35868884930E+03  0.79682505438E+03  0.50400001928E-02 0. -1.
</event>
<event>
 5   0  0.1077140E-03  0.1520094E+04  0.7818609E-02  0.8871199E-01
       -1   -1    0    0    0  501  0.00000000000E+00  0.00000000000E+00  0.45880199563E+03  0.45880199566E+03  0.50400001928E-02 0.  1.
        1   -1    0    0  501    0  0.00000000000E+00  0.00000000000E+00 -0.12590873139E+04  0.12590873139E+04  0.50400001928E-02 0. -1.
    10030    2    1    2    0    0  0.00000000000E+00  0.00000000000E+00 -0.80028531829E+03  0.17178893096E+04  0.15200944344E+04 0.  0.
        1    1    3    3  502    0  0.18470307690E+03  0.83824719369E+02  0.42765005212E+03  0.47331424793E+03  0.50400001928E-02 0.  1.
       -1    1    3    3    0  502 -0.18470307690E+03 -0.83824719369E+02 -0.12279353704E+04  0.12445750617E+04  0.50400001928E-02 0. -1.
</event>
<event>
 5   0  0.1069697E-03  0.1533230E+04  0.7818609E-02  0.8862651E-01
       -1   -1    0    0    0  501  0.00000000000E+00  0.00000000000E+00  0.69166179445E+03  0.69166179447E+03  0.50400001928E-02 0.  1.
        1   -1    0    0  501    0  0.00000000000E+00  0.00000000000E+00 -0.84969026432E+03  0.84969026433E+03  0.50400001928E-02 0. -1.
    10030    2    1    2    0    0  0.00000000000E+00  0.00000000000E+00 -0.15802846987E+03  0.15413520588E+04  0.15332296540E+04 0.  0.
        2    1    3    3  502    0  0.69272169315E+03  0.12562136297E+03 -0.38402593041E+03  0.80194762063E+03  0.25500000920E-02 0. -1.
       -2    1    3    3    0  502 -0.69272169315E+03 -0.12562136297E+03  0.22599746055E+03  0.73940443817E+03  0.25500000920E-02 0.  1.
</event>
<event>
 5   0  0.1087761E-03  0.1510919E+04  0.7818609E-02  0.8877224E-01
       -1   -1    0    0    0  501  0.00000000000E+00  0.00000000000E+00  0.58869518860E+03  0.58869518862E+03  0.50400001928E-02 0. -1.
        1   -1    0    0  501    0  0.00000000000E+00  0.00000000000E+00 -0.96946502772E+03  0.96946502773E+03  0.50400001928E-02 0.  1.
    10030    2    1    2    0    0  0.00000000000E+00  0.00000000000E+00 -0.38076983912E+03  0.15581602163E+04  0.15109194517E+04 0.  0.
        3    1    3    3  502    0  0.69427214479E+03  0.10672754617E+03  0.96364229169E+02  0.70900680885E+03  0.10100000352E+00 0. -1.
       -3    1    3    3    0  502 -0.69427214479E+03 -0.10672754617E+03 -0.47713406829E+03  0.84915340750E+03  0.10100000352E+00 0.  1.
</event>
<event>
 5   0  0.1078787E-03  0.1493131E+04  0.7818609E-02  0.8889034E-01
       -1   -1    0    0    0  501  0.00000000000E+00  0.00000000000E+00  0.48489254258E+03  0.48489254260E+03  0.50400001928E-02 0.  1.
        1   -1    0    0  501    0  0.00000000000E+00  0.00000000000E+00 -0.11494506755E+04  0.11494506756E+04  0.50400001928E-02 0. -1.
    10030    2    1    2    0    0  0.00000000000E+00  0.00000000000E+00 -0.66455813297E+03  0.16343432182E+04  0.14931310199E+04 0.  0.
        5    1    3    3  502    0  0.11647875141E+02  0.66018508185E+03  0.49032055291E+02  0.66212253227E+03  0.46999998093E+01 0.  1.
       -5    1    3    3    0  502 -0.11647875141E+02 -0.66018508185E+03 -0.71359018826E+03  0.97222068589E+03  0.46999998093E+01 0. -1.
</event>
<event>
 5   0  0.1069697E-03  0.1535448E+04  0.7818609E-02  0.8861217E-01
       -1   -1    0    0    0  501  0.00000000000E+00  0.00000000000E+00  0.96059538704E+03  0.96059538705E+03  0.50400001928E-02 0. -1.
        1   -1    0    0  501    0  0.00000000000E+00  0.00000000000E+00 -0.61357772475E+03  0.61357772477E+03  0.50400001928E-02 0.  1.
    10030    2    1    2    0    0  0.00000000000E+00  0.00000000000E+00  0.34701766228E+03  0.15741731118E+04  0.15354477289E+04 0.  0.
        2    1    3    3  502    0  0.45146024179E+02 -0.19644042422E+03 -0.58596671187E+03  0.61966441821E+03  0.25500000920E-02 0.  1.
       -2    1    3    3    0  502 -0.45146024179E+02  0.19644042422E+03  0.93298437415E+03  0.95450869361E+03  0.25500000920E-02 0. -1.
</event>
<event>
 5   0  0.2094566E-03  0.1179037E+04  0.7818609E-02  0.9131406E-01
       -2   -1    0    0    0  501  0.00000000000E+00  0.00000000000E+00  0.39052999280E+03  0.39052999281E+03  0.25500000920E-02 0. -1.
        2   -1    0    0  501    0  0.00000000000E+00  0.00000000000E+00 -0.88989783738E+03  0.88989783738E+03  0.25500000920E-02 0.  1.
    10030    2    1    2    0    0  0.00000000000E+00  0.00000000000E+00 -0.49936784458E+03  0.12804278302E+04  0.11790365491E+04 0.  0.
        1    1    3    3  502    0 -0.42390349923E+03 -0.27668996241E+03 -0.57779155119E+03  0.76817614426E+03  0.50400001928E-02 0.  1.
       -1    1    3    3    0  502  0.42390349923E+03  0.27668996241E+03  0.78423706609E+02  0.51225168593E+03  0.50400001928E-02 0. -1.
</event>
<event>
 5   0  0.2150197E-03  0.1556843E+04  0.7818609E-02  0.8847509E-01
       -2   -1    0    0    0  501  0.00000000000E+00  0.00000000000E+00  0.33647637249E+03  0.33647637250E+03  0.25500000920E-02 0.  1.
        2   -1    0    0  501    0  0.00000000000E+00  0.00000000000E+00 -0.18008400079E+04  0.18008400079E+04  0.25500000920E-02 0. -1.
    10030    2    1    2    0    0  0.00000000000E+00  0.00000000000E+00 -0.14643636355E+04  0.21373163805E+04  0.15568431049E+04 0.  0.
        3    1    3    3  502    0  0.57215706374E+03  0.35245117685E+03 -0.12715479916E+04  0.14382002096E+04  0.10100000352E+00 0. -1.
       -3    1    3    3    0  502 -0.57215706374E+03 -0.35245117685E+03 -0.19281564383E+03  0.69911617086E+03  0.10100000352E+00 0.  1.
</event>
<event>
 5   0  0.1077140E-03  0.1499666E+04  0.7818609E-02  0.8884675E-01
        1   -1    0    0  501    0  0.00000000000E+00  0.00000000000E+00  0.14481967366E+04  0.14481967366E+04  0.50400001928E-02 0.  1.
       -1   -1    0    0    0  501  0.00000000000E+00  0.00000000000E+00 -0.38824115580E+03  0.38824115584E+03  0.50400001928E-02 0. -1.
    10030    2    1    2    0    0  0.00000000000E+00  0.00000000000E+00  0.10599555808E+04  0.18364378925E+04  0.14996660627E+04 0.  0.
        1    1    3    3  502    0  0.23450020509E+03 -0.48256148453E+03 -0.11148091588E+03  0.54798168507E+03  0.50400001928E-02 0. -1.
       -1    1    3    3    0  502 -0.23450020509E+03  0.48256148453E+03  0.11714364967E+04  0.12884562074E+04  0.50400001928E-02 0.  1.
</event>
<event>
 5   0  0.1069697E-03  0.1441458E+04  0.7818609E-02  0.8924344E-01
       -1   -1    0    0    0  501  0.00000000000E+00  0.00000000000E+00  0.36083641008E+03  0.36083641012E+03  0.50400001928E-02 0. -1.
        1   -1    0    0  501    0  0.00000000000E+00  0.00000000000E+00 -0.14395731683E+04  0.14395731683E+04  0.50400001928E-02 0.  1.
    10030    2    1    2    0    0  0.00000000000E+00  0.00000000000E+00 -0.10787367582E+04  0.18004095784E+04  0.14414581702E+04 0.  0.
        2    1    3    3  502    0  0.44328627897E+03 -0.21788416507E+03  0.11618750503E+03  0.50742070399E+03  0.25500000920E-02 0. -1.
       -2    1    3    3    0  502 -0.44328627897E+03  0.21788416507E+03 -0.11949242633E+04  0.12929888744E+04  0.25500000920E-02 0.  1.
</event>
<event>
 5   0  0.1077140E-03  0.1525465E+04  0.7818609E-02  0.8867693E-01
       -1   -1    0    0    0  501  0.00000000000E+00  0.00000000000E+00  0.32864716431E+04  0.32864716431E+04  0.50400001928E-02 0. -1.
        1   -1    0    0  501    0  0.00000000000E+00  0.00000000000E+00 -0.17701692295E+03  0.17701692302E+03  0.50400001928E-02 0.  1.
    10030    2    1    2    0    0  0.00000000000E+00  0.00000000000E+00  0.31094547201E+04  0.34634885661E+04  0.15254653031E+04 0.  0.
        1    1    3    3  502    0  0.66173615776E+03  0.10221686447E+03  0.23840408841E+04  0.24762863257E+04  0.50400001928E-02 0. -1.
       -1    1    3    3    0  502 -0.66173615776E+03 -0.10221686447E+03  0.72541383602E+03  0.98720224037E+03  0.50400001928E-02 0.  1.
</event>
<event>
 5   0  0.1078018E-03  0.1426773E+04  0.7818609E-02  0.8934664E-01
        1   -1    0    0  501    0  0.00000000000E+00  0.00000000000E+00  0.99808998950E+03  0.99808998951E+03  0.50400001928E-02 0. -1.
       -1   -1    0    0    0  501  0.00000000000E+00  0.00000000000E+00 -0.50989405904E+03  0.50989405906E+03  0.50400001928E-02 0.  1.
    10030    2    1    2    0    0  0.00000000000E+00  0.00000000000E+00  0.48819593046E+03  0.15079840486E+04  0.14267728005E+04 0.  0.
        4    1    3    3  502    0 -0.66426214027E+03  0.50100570376E+02  0.51390094594E+03  0.84133825141E+03  0.12699999809E+01 0. -1.
       -4    1    3    3    0  502  0.66426214027E+03 -0.50100570376E+02 -0.25705015481E+02  0.66664579716E+03  0.12699999809E+01 0.  1.
</event>
<event>
 5   0  0.1087761E-03  0.1709184E+04  0.7818609E-02  0.8756144E-01
        1   -1    0    0  501    0  0.00000000000E+00  0.00000000000E+00  0.86352138174E+03  0.86352138176E+03  0.50400001928E-02 0. -1.
       -1   -1    0    0    0  501  0.00000000000E+00  0.00000000000E+00 -0.84575476895E+03  0.84575476897E+03  0.50400001928E-02 0.  1.
    10030    2    1    2    0    0  0.00000000000E+00  0.00000000000E+00  0.17766612789E+02  0.17092761507E+04  0.17091838131E+04 0.  0.
        3    1    3    3  502    0 -0.62208074453E+03 -0.44203700461E+03 -0.37577516056E+03  0.85063984603E+03  0.10100000352E+00 0.  1.
       -3    1    3    3    0  502  0.62208074453E+03  0.44203700461E+03  0.39354177335E+03  0.85863630469E+03  0.10100000352E+00 0. -1.
</event>
<event>
 5   0  0.2094566E-03  0.1540233E+04  0.7818609E-02  0.8858130E-01
        2   -1    0    0  501    0  0.00000000000E+00  0.00000000000E+00  0.22212804873E+04  0.22212804873E+04  0.25500000920E-02 0.  1.
       -2   -1    0    0    0  501  0.00000000000E+00  0.00000000000E+00 -0.26699895254E+03  0.26699895255E+03  0.25500000920E-02 0. -1.
    10030    2    1    2    0    0  0.00000000000E+00  0.00000000000E+00  0.19542815348E+04  0.24882794399E+04  0.15402331816E+04 0.  0.
        1    1    3    3  502    0 -0.62895442397E+03 -0.38558234631E+03  0.13341020612E+04  0.15244952354E+04  0.50400001928E-02 0.  1.
       -1    1    3    3    0  502  0.62895442397E+03  0.38558234631E+03  0.62017947359E+03  0.96378420443E+03  0.50400001928E-02 0. -1.
</event>
<event>
 5   0  0.1078787E-03  0.1337100E+04  0.7818609E-02  0.9000651E-01
        1   -1    0    0  501    0  0.00000000000E+00  0.00000000000E+00  0.75547932987E+03  0.75547932989E+03  0.50400001928E-02 0.  1.
       -1   -1    0    0    0  501  0.00000000000E+00  0.00000000000E+00 -0.59162288204E+03  0.59162288206E+03  0.50400001928E-02 0. -1.
    10030    2    1    2    0    0  0.00000000000E+00  0.00000000000E+00  0.16385644783E+03  0.13471022120E+04  0.13370996350E+04 0.  0.
        5    1    3    3  502    0  0.63762526582E+03 -0.18624611772E+03  0.59774508686E+01  0.66431273952E+03  0.46999998093E+01 0.  1.
       -5    1    3    3    0  502 -0.63762526582E+03  0.18624611772E+03  0.15787899696E+03  0.68278947243E+03  0.46999998093E+01 0. -1.
</event>
<event>
 5   0  0.1961098E-03  0.1491045E+04  0.7818609E-02  0.8890430E-01
        2   -1    0    0  501    0  0.00000000000E+00  0.00000000000E+00  0.42835156486E+03  0.42835156487E+03  0.25500000920E-02 0. -1.
       -2   -1    0    0    0  501  0.00000000000E+00  0.00000000000E+00 -0.12975419486E+04  0.12975419486E+04  0.25500000920E-02 0.  1.
    10030    2    1    2    0    0  0.00000000000E+00  0.00000000000E+00 -0.86919038374E+03  0.17258935135E+04  0.14910454375E+04 0.  0.
        2    1    3    3  502    0  0.51995124161E+03 -0.26092663002E+03  0.10507079018E+03  0.59116145922E+03  0.25500000920E-02 0. -1.
       -2    1    3    3    0  502 -0.51995124161E+03  0.26092663002E+03 -0.97426117392E+03  0.11347320542E+04  0.25500000920E-02 0.  1.
</event>
<event>
 5   0  0.1078018E-03  0.1662683E+04  0.7818609E-02  0.8782938E-01
        1   -1    0    0  501    0  0.00000000000E+00  0.00000000000E+00  0.62926450896E+03  0.62926450898E+03  0.50400001928E-02 0. -1.
       -1   -1    0    0    0  501  0.00000000000E+00  0.00000000000E+00 -0.10983121519E+04  0.10983121519E+04  0.50400001928E-02 0.  1.
    10030    2    1    2    0    0  0.00000000000E+00  0.00000000000E+00 -0.46904764294E+03  0.17275766609E+04  0.16626832013E+04 0.  0.
        4    1    3    3  502    0 -0.64515683811E+03 -0.42456792790E+03 -0.55417014357E+03  0.95057426438E+03  0.12699999809E+01 0.  1.
       -4    1    3    3    0  502  0.64515683811E+03  0.42456792790E+03  0.85122500632E+02  0.77700239651E+03  0.12699999809E+01 0. -1.
</event>
<event>
 5   0  0.2150197E-03  0.9164698E+03  0.7818609E-02  0.9405224E-01
        2   -1    0    0  501    0  0.00000000000E+00  0.00000000000E+00  0.77371538949E+03  0.77371538950E+03  0.25500000920E-02 0.  1.
       -2   -1    0    0    0  501  0.00000000000E+00  0.00000000000E+00 -0.27139080519E+03  0.27139080521E+03  0.25500000920E-02 0. -1.
    10030    2    1    2    0    0  0.00000000000E+00  0.00000000000E+00  0.50232458430E+03  0.10451061947E+04  0.91646984141E+03 0.  0.
        3    1    3    3  502    0 -0.25297175602E+03  0.27263780505E+03  0.55641525533E+03  0.66927126686E+03  0.10100000352E+00 0.  1.
       -3    1    3    3    0  502  0.25297175602E+03 -0.27263780505E+03 -0.54090671031E+02  0.37583492784E+03  0.10100000352E+00 0. -1.
</event>
<event>
 5   0  0.1077140E-03  0.1503006E+04  0.7818609E-02  0.8882456E-01
        1   -1    0    0  501    0  0.00000000000E+00  0.00000000000E+00  0.12890943278E+04  0.12890943278E+04  0.50400001928E-02 0. -1.
       -1   -1    0    0    0  501  0.00000000000E+00  0.00000000000E+00 -0.43810370455E+03  0.43810370458E+03  0.50400001928E-02 0.  1.
    10030    2    1    2    0    0  0.00000000000E+00  0.00000000000E+00  0.85099062324E+03  0.17271980324E+04  0.15030063214E+04 0.  0.
        1    1    3    3  502    0 -0.13287823936E+03 -0.19326754692E+03 -0.39496788577E+03  0.45935672631E+03  0.50400001928E-02 0.  1.
       -1    1    3    3    0  502  0.13287823936E+03  0.19326754692E+03  0.12459585090E+04  0.12678413061E+04  0.50400001928E-02 0. -1.
</event>
<event>
 5   0  0.2150197E-03  0.1484948E+04  0.7818609E-02  0.8894524E-01
       -2   -1    0    0    0  501  0.00000000000E+00  0.00000000000E+00  0.73693187950E+03  0.73693187950E+03  0.25500000920E-02 0.  1.
        2   -1    0    0  501    0  0.00000000000E+00  0.00000000000E+00 -0.74805812244E+03  0.74805812244E+03  0.25500000920E-02 0. -1.
    10030    2    1    2    0    0  0.00000000000E+00  0.00000000000E+00 -0.11126242938E+02  0.14849900019E+04  0.14849483198E+04 0.  0.
        3    1    3    3  502    0  0.11376639425E+03  0.63437227235E+03 -0.37421543035E+03  0.74525711731E+03  0.10100000352E+00 0. -1.
       -3    1    3    3    0  502 -0.11376639425E+03 -0.63437227235E+03  0.36308918742E+03  0.73973288463E+03  0.10100000352E+00 0.  1.
</event>
<event>
 5   0  0.1078787E-03  0.1494943E+04  0.7818609E-02  0.8887823E-01
        1   -1    0    0  501    0  0.00000000000E+00  0.00000000000E+00  0.15366179244E+04  0.15366179244E+04  0.50400001928E-02 0. -1.
       -1   -1    0    0    0  501  0.00000000000E+00  0.00000000000E+00 -0.36359971629E+03  0.36359971632E+03  0.50400001928E-02 0.  1.
    10030    2    1    2    0    0  0.00000000000E+00  0.00000000000E+00  0.11730182082E+04  0.19002176408E+04  0.14949432650E+04 0.  0.
        5    1    3    3  502    0  0.21387264678E+03 -0.50821567733E+02  0.14945807223E+04  0.15106680530E+04  0.46999998093E+01 0. -1.
       -5    1    3    3    0  502 -0.21387264678E+03  0.50821567733E+02 -0.32156251419E+03  0.38954958775E+03  0.46999998093E+01 0.  1.
</event>
<event>
 5   0  0.1078787E-03  0.1506175E+04  0.7818609E-02  0.8880357E-01
        1   -1    0    0  501    0  0.00000000000E+00  0.00000000000E+00  0.87718211756E+03  0.87718211758E+03  0.50400001928E-02 0. -1.
       -1   -1    0    0    0  501  0.00000000000E+00  0.00000000000E+00 -0.64654885147E+03  0.64654885149E+03  0.50400001928E-02 0.  1.
    10030    2    1    2    0    0  0.00000000000E+00  0.00000000000E+00  0.23063326609E+03  0.15237309691E+04  0.15061754090E+04 0.  0.
        5    1    3    3  502    0  0.13032072480E+03 -0.30084419442E+02 -0.63442225917E+03  0.64838434322E+03  0.46999998093E+01 0.  1.
       -5    1    3    3    0  502 -0.13032072480E+03  0.30084419442E+02  0.86505552526E+03  0.87534662585E+03  0.46999998093E+01 0. -1.
</event>
<event>
 5   0  0.1087761E-03  0.1493818E+04  0.7818609E-02  0.8888574E-01
        1   -1    0    0  501    0  0.00000000000E+00  0.00000000000E+00  0.50094859742E+03  0.50094859745E+03  0.50400001928E-02 0. -1.
       -1   -1    0    0    0  501  0.00000000000E+00  0.00000000000E+00 -0.11136334807E+04  0.11136334807E+04  0.50400001928E-02 0.  1.
    10030    2    1    2    0    0  0.00000000000E+00  0.00000000000E+00 -0.61268488329E+03  0.16145820782E+04  0.14938181017E+04 0.  0.
        3    1    3    3  502    0  0.28811560401E+03  0.56519004012E+03 -0.73245044016E+03  0.96898608876E+03  0.10100000352E+00 0. -1.
       -3    1    3    3    0  502 -0.28811560401E+03 -0.56519004012E+03  0.11976555687E+03  0.64559598941E+03  0.10100000352E+00 0.  1.
</event>
<event>
 5   0  0.2111533E-03  0.1483831E+04  0.7818609E-02  0.8895277E-01
       -2   -1    0    0    0  501  0.00000000000E+00  0.00000000000E+00  0.45522332968E+03  0.45522332969E+03  0.25500000920E-02 0. -1.
        2   -1    0    0  501    0  0.00000000000E+00  0.00000000000E+00 -0.12091623131E+04  0.12091623131E+04  0.25500000920E-02 0.  1.
    10030    2    1    2    0    0  0.00000000000E+00  0.00000000000E+00 -0.75393898345E+03  0.16643856428E+04  0.14838313844E+04 0.  0.
        5    1    3    3  502    0 -0.68014447131E+02  0.61826973127E+02  0.44879525227E+03  0.45813514173E+03  0.46999998093E+01 0. -1.
       -5    1    3    3    0  502  0.68014447131E+02 -0.61826973127E+02 -0.12027342357E+04  0.12062505011E+04  0.46999998093E+01 0.  1.
</event>
<event>
 5   0  0.2094566E-03  0.1471769E+04  0.7818609E-02  0.8903446E-01
        2   -1    0    0  501    0  0.00000000000E+00  0.00000000000E+00  0.16707043009E+04  0.16707043009E+04  0.25500000920E-02 0.  1.
       -2   -1    0    0    0  501  0.00000000000E+00  0.00000000000E+00 -0.32413042374E+03  0.32413042375E+03  0.25500000920E-02 0. -1.
    10030    2    1    2    0    0  0.00000000000E+00  0.00000000000E+00  0.13465738771E+04  0.19948347246E+04  0.14717691300E+04 0.  0.
        1    1    3    3  502    0 -0.65368734315E+03 -0.64076333583E+02  0.11230531959E+04  0.13010232127E+04  0.50400001928E-02 0.  1.
       -1    1    3    3    0  502  0.65368734315E+03  0.64076333583E+02  0.22352068124E+03  0.69381151193E+03  0.50400001928E-02 0. -1.
</event>
<event>
 5   0  0.2094566E-03  0.1545010E+04  0.7818609E-02  0.8855061E-01
        2   -1    0    0  501    0  0.00000000000E+00  0.00000000000E+00  0.88313779669E+03  0.88313779669E+03  0.25500000920E-02 0.  1.
       -2   -1    0    0    0  501  0.00000000000E+00  0.00000000000E+00 -0.67573137863E+03  0.67573137863E+03  0.25500000920E-02 0. -1.
    10030    2    1    2    0    0  0.00000000000E+00  0.00000000000E+00  0.20740641806E+03  0.15588691753E+04  0.15450099299E+04 0.  0.
        1    1    3    3  502    0 -0.66588489412E+03  0.18576127493E+03 -0.24414138188E+03  0.73315411603E+03  0.50400001928E-02 0. -1.
       -1    1    3    3    0  502  0.66588489412E+03 -0.18576127493E+03  0.45154779995E+03  0.82571505929E+03  0.50400001928E-02 0.  1.
</event>
<event>
 5   0  0.1069697E-03  0.1492921E+04  0.7818609E-02  0.8889174E-01
        1   -1    0    0  501    0  0.00000000000E+00  0.00000000000E+00  0.13471427334E+04  0.13471427334E+04  0.50400001928E-02 0. -1.
       -1   -1    0    0    0  501  0.00000000000E+00  0.00000000000E+00 -0.41361832121E+03  0.41361832124E+03  0.50400001928E-02 0.  1.
    10030    2    1    2    0    0  0.00000000000E+00  0.00000000000E+00  0.93352441218E+03  0.17607610546E+04  0.14929205148E+04 0.  0.
        2    1    3    3  502    0  0.17721521665E+03  0.15978318083E+03 -0.36742720638E+03  0.43810803449E+03  0.25500000920E-02 0.  1.
       -2    1    3    3    0  502 -0.17721521665E+03 -0.15978318083E+03  0.13009516186E+04  0.13226530202E+04  0.25500000920E-02 0. -1.
</event>
<event>
 5   0  0.1069697E-03  0.1494650E+04  0.7818609E-02  0.8888019E-01
       -1   -1    0    0    0  501  0.00000000000E+00  0.00000000000E+00  0.47299254545E+03  0.47299254547E+03  0.50400001928E-02 0.  1.
        1   -1    0    0  501    0  0.00000000000E+00  0.00000000000E+00 -0.11807680034E+04  0.11807680034E+04  0.50400001928E-02 0. -1.
    10030    2    1    2    0    0  0.00000000000E+00  0.00000000000E+00 -0.70777545797E+03  0.16537605489E+04  0.14946497430E+04 0.  0.
        2    1    3    3  502    0  0.53435751281E+03  0.42296744901E+03 -0.69321928842E+03  0.97210719381E+03  0.25500000920E-02 0. -1.
       -2    1    3    3    0  502 -0.53435751281E+03 -0.42296744901E+03 -0.14556169555E+02  0.68165335509E+03  0.25500000920E-02 0.  1.
</event>
<event>
 5   0  0.1961098E-03  0.1485728E+04  0.7818609E-02  0.8893999E-01
        2   -1    0    0  501    0  0.00000000000E+00  0.00000000000E+00  0.16942813517E+04  0.16942813517E+04  0.25500000920E-02 0.  1.
       -2   -1    0    0    0  501  0.00000000000E+00  0.00000000000E+00 -0.32571162873E+03  0.32571162874E+03  0.25500000920E-02 0. -1.
    10030    2    1    2    0    0  0.00000000000E+00  0.00000000000E+00  0.13685697229E+04  0.20199929804E+04  0.14857282909E+04 0.  0.
        2    1    3    3  502    0  0.21077764484E+03  0.43644087016E+03  0.14497025728E+04  0.15285762651E+04  0.25500000920E-02 0.  1.
       -2    1    3    3    0  502 -0.21077764484E+03 -0.43644087016E+03 -0.81132849882E+02  0.49141671527E+03  0.25500000920E-02 0. -1.
</event>
<event>
 5   0  0.1078787E-03  0.1500713E+04  0.7818609E-02  0.8883979E-01
       -1   -1    0    0    0  501  0.00000000000E+00  0.00000000000E+00  0.38242505213E+03  0.38242505216E+03  0.50400001928E-02 0.  1.
        1   -1    0    0  501    0  0.00000000000E+00  0.00000000000E+00 -0.14722747082E+04  0.14722747082E+04  0.50400001928E-02 0. -1.
    10030    2    1    2    0    0  0.00000000000E+00  0.00000000000E+00 -0.10898496561E+04  0.18546997604E+04  0.15007128067E+04 0.  0.
        5    1    3    3  502    0  0.46067734868E+02  0.27946941281E+03 -0.14036494682E+04  0.14319494783E+04  0.46999998093E+01 0. -1.
       -5    1    3    3    0  502 -0.46067734868E+02 -0.27946941281E+03  0.31379981212E+03  0.42275028206E+03  0.46999998093E+01 0.  1.
</event>
<event>
 5   0  0.1078018E-03  0.1490471E+04  0.7818609E-02  0.8890815E-01
       -1   -1    0    0    0  501  0.00000000000E+00  0.00000000000E+00  0.33149154209E+03  0.33149154213E+03  0.50400001928E-02 0. -1.
        1   -1    0    0  501    0  0.00000000000E+00  0.00000000000E+00 -0.16753841887E+04  0.16753841887E+04  0.50400001928E-02 0.  1.
    10030    2    1    2    0    0  0.00000000000E+00  0.00000000000E+00 -0.13438926466E+04  0.20068757308E+04  0.14904706483E+04 0.  0.
        4    1    3    3  502    0 -0.17932007082E+03 -0.69423960897E+03 -0.94541508828E+03  0.11865646314E+04  0.12699999809E+01 0.  1.
       -4    1    3    3    0  502  0.17932007082E+03  0.69423960897E+03 -0.39847755835E+03  0.82031109944E+03  0.12699999809E+01 0. -1.
</event>
<event>
 5   0  0.1087761E-03  0.1489417E+04  0.7818609E-02  0.8891521E-01
       -1   -1    0    0    0  501  0.00000000000E+00  0.00000000000E+00  0.54889847904E+03  0.54889847907E+03  0.50400001928E-02 0.  1.
        1   -1    0    0  501    0  0.00000000000E+00  0.00000000000E+00 -0.10103697352E+04  0.10103697352E+04  0.50400001928E-02 0. -1.
    10030    2    1    2    0    0  0.00000000000E+00  0.00000000000E+00 -0.46147125619E+03  0.15592682143E+04  0.14894165448E+04 0.  0.
        3    1    3    3  502    0 -0.36856736941E+02  0.64039425568E+03  0.16532868071E+03  0.66241739457E+03  0.10100000352E+00 0.  1.
       -3    1    3    3    0  502  0.36856736941E+02 -0.64039425568E+03 -0.62679993690E+03  0.89685081974E+03  0.10100000352E+00 0. -1.
</event>
<event>
 5   0  0.1078787E-03  0.1556863E+04  0.7818609E-02  0.8847496E-01
        1   -1    0    0  501    0  0.00000000000E+00  0.00000000000E+00  0.16109288811E+04  0.16109288811E+04  0.50400001928E-02 0. -1.
       -1   -1    0    0    0  501  0.00000000000E+00  0.00000000000E+00 -0.37615279155E+03  0.37615279159E+03  0.50400001928E-02 0.  1.
    10030    2    1    2    0    0  0.00000000000E+00  0.00000000000E+00  0.12347760896E+04  0.19870816727E+04  0.15568627373E+04 0.  0.
        5    1    3    3  502    0 -0.39408153492E+03 -0.63904556283E+03  0.35502759126E+03  0.83050958338E+03  0.46999998093E+01 0. -1.
       -5    1    3    3    0  502  0.39408153492E+03  0.63904556283E+03  0.87974849832E+03  0.11565720893E+04  0.46999998093E+01 0.  1.
</event>
<event>
 5   0  0.1961098E-03  0.1432336E+04  0.7818609E-02  0.8930739E-01
       -2   -1    0    0    0  501  0.00000000000E+00  0.00000000000E+00  0.10923642374E+04  0.10923642374E+04  0.25500000920E-02 0. -1.
        2   -1    0    0  501    0  0.00000000000E+00  0.00000000000E+00 -0.46952916217E+03  0.46952916218E+03  0.25500000920E-02 0.  1.
    10030    2    1    2    0    0  0.00000000000E+00  0.00000000000E+00  0.62283507522E+03  0.15618933996E+04  0.14323363644E+04 0.  0.
        2    1    3    3  502    0 -0.44638042779E+03  0.14111580687E+03  0.90240576505E+03  0.10166146379E+04  0.25500000920E-02 0. -1.
       -2    1    3    3    0  502  0.44638042779E+03 -0.14111580687E+03 -0.27957068983E+03  0.54527876163E+03  0.25500000920E-02 0.  1.
</event>
<event>
 5   0  0.1961098E-03  0.1533216E+04  0.7818609E-02  0.8862661E-01
       -2   -1    0    0    0  501  0.00000000000E+00  0.00000000000E+00  0.69205831499E+03  0.69205831499E+03  0.25500000920E-02 0.  1.
        2   -1    0    0  501    0  0.00000000000E+00  0.00000000000E+00 -0.84918780003E+03  0.84918780004E+03  0.25500000920E-02 0. -1.
    10030    2    1    2    0    0  0.00000000000E+00  0.00000000000E+00 -0.15712948505E+03  0.15412461150E+04  0.15332155465E+04 0.  0.
        2    1    3    3  502    0  0.21038729495E+03  0.70954434819E+03 -0.27954060744E+03  0.79111247439E+03  0.25500000920E-02 0. -1.
       -2    1    3    3    0  502 -0.21038729495E+03 -0.70954434819E+03  0.12241112239E+03  0.75013364064E+03  0.25500000920E-02 0.  1.
</event>
<event>
 5   0  0.1078018E-03  0.1470509E+04  0.7818609E-02  0.8904304E-01
        1   -1    0    0  501    0  0.00000000000E+00  0.00000000000E+00  0.13776859020E+04  0.13776859020E+04  0.50400001928E-02 0.  1.
       -1   -1    0    0    0  501  0.00000000000E+00  0.00000000000E+00 -0.39239655415E+03  0.39239655418E+03  0.50400001928E-02 0. -1.
    10030    2    1    2    0    0  0.00000000000E+00  0.00000000000E+00  0.98528934782E+03  0.17700824562E+04  0.14705090284E+04 0.  0.
        4    1    3    3  502    0  0.77692574106E+02  0.78157494720E+02 -0.38239738479E+03  0.39796243899E+03  0.12699999809E+01 0. -1.
       -4    1    3    3    0  502 -0.77692574106E+02 -0.78157494720E+02  0.13676867326E+04  0.13721200172E+04  0.12699999809E+01 0.  1.
</event>
<event>
 5   0  0.1077140E-03  0.1503586E+04  0.7818609E-02  0.8882072E-01
        1   -1    0    0  501    0  0.00000000000E+00  0.00000000000E+00  0.14430839356E+04  0.14430839356E+04  0.50400001928E-02 0.  1.
       -1   -1    0    0    0  501  0.00000000000E+00  0.00000000000E+00 -0.39165605806E+03  0.39165605809E+03  0.50400001928E-02 0. -1.
    10030    2    1    2    0    0  0.00000000000E+00  0.00000000000E+00  0.10514278775E+04  0.18347399937E+04  0.15035858016E+04 0.  0.
        1    1    3    3  502    0 -0.97784233365E+02  0.12363169561E+03  0.14226929637E+04  0.14313985543E+04  0.50400001928E-02 0.  1.
       -1    1    3    3    0  502  0.97784233365E+02 -0.12363169561E+03 -0.37126508616E+03  0.40334143933E+03  0.50400001928E-02 0. -1.
</event>
<event>
 5   0  0.1077140E-03  0.1545022E+04  0.7818609E-02  0.8855054E-01
        1   -1    0    0  501    0  0.00000000000E+00  0.00000000000E+00  0.12705429235E+04  0.12705429235E+04  0.50400001928E-02 0.  1.
       -1   -1    0    0    0  501  0.00000000000E+00  0.00000000000E+00 -0.46969942770E+03  0.46969942773E+03  0.50400001928E-02 0. -1.
    10030    2    1    2    0    0  0.00000000000E+00  0.00000000000E+00  0.80084349580E+03  0.17402423512E+04  0.15450220504E+04 0.  0.
        1    1    3    3  502    0 -0.11413370735E+03  0.54763787848E+03 -0.19966148874E+03  0.59396839916E+03  0.50400001928E-02 0. -1.
       -1    1    3    3    0  502  0.11413370735E+03 -0.54763787848E+03  0.10005049845E+04  0.11462739521E+04  0.50400001928E-02 0.  1.
</event>
<event>
 5   0  0.1078787E-03  0.1550970E+04  0.7818609E-02  0.8851248E-01
       -1   -1    0    0    0  501  0.00000000000E+00  0.00000000000E+00  0.43391611937E+03  0.43391611940E+03  0.50400001928E-02 0.  1.
        1   -1    0    0  501    0  0.00000000000E+00  0.00000000000E+00 -0.13859291079E+04  0.13859291079E+04  0.50400001928E-02 0. -1.
    10030    2    1    2    0    0  0.00000000000E+00  0.00000000000E+00 -0.95201298856E+03  0.18198452273E+04  0.15509699936E+04 0.  0.
        5    1    3    3  502    0  0.61499567701E+03  0.43500647552E+03 -0.69205944548E+03  0.10229460800E+04  0.46999998093E+01 0. -1.
       -5    1    3    3    0  502 -0.61499567701E+03 -0.43500647552E+03 -0.25995354308E+03  0.79689914735E+03  0.46999998093E+01 0.  1.
</event>
<event>
 5   0  0.1993623E-03  0.1480770E+04  0.7818609E-02  0.8897342E-01
       -2   -1    0    0    0  501  0.00000000000E+00  0.00000000000E+00  0.29407070906E+03  0.29407070907E+03  0.25500000920E-02 0.  1.
        2   -1    0    0  501    0  0.00000000000E+00  0.00000000000E+00 -0.18640746776E+04  0.18640746776E+04  0.25500000920E-02 0. -1.
    10030    2    1    2    0    0  0.00000000000E+00  0.00000000000E+00 -0.15700039685E+04  0.21581453866E+04  0.14807697487E+04 0.  0.
        4    1    3    3  502    0 -0.23362454321E+03 -0.19807972639E+03  0.19740050828E+03  0.36439618380E+03  0.12699999809E+01 0.  1.
       -4    1    3    3    0  502  0.23362454321E+03  0.19807972639E+03 -0.17674044768E+04  0.17937492028E+04  0.12699999809E+01 0. -1.
</event>
<event>
 5   0  0.2150197E-03  0.1451066E+04  0.7818609E-02  0.8917662E-01
        2   -1    0    0  501    0  0.00000000000E+00  0.00000000000E+00  0.51931412103E+03  0.51931412104E+03  0.25500000920E-02 0. -1.
       -2   -1    0    0    0  501  0.00000000000E+00  0.00000000000E+00 -0.10136414437E+04  0.10136414437E+04  0.25500000920E-02 0.  1.
    10030    2    1    2    0    0  0.00000000000E+00  0.00000000000E+00 -0.49432732266E+03  0.15329555647E+04  0.14510662499E+04 0.  0.
        3    1    3    3  502    0  0.51171898007E+03  0.49774663547E+03 -0.11027380676E+03  0.72233534480E+03  0.10100000352E+00 0. -1.
       -3    1    3    3    0  502 -0.51171898007E+03 -0.49774663547E+03 -0.38405351590E+03  0.81062021993E+03  0.10100000352E+00 0.  1.
</event>
<event>
 5   0  0.2094566E-03  0.1441011E+04  0.7818609E-02  0.8924656E-01
       -2   -1    0    0    0  501  0.00000000000E+00  0.00000000000E+00  0.29987609057E+03  0.29987609058E+03  0.25500000920E-02 0. -1.
        2   -1    0    0  501    0  0.00000000000E+00  0.00000000000E+00 -0.17311431529E+04  0.17311431529E+04  0.25500000920E-02 0.  1.
    10030    2    1    2    0    0  0.00000000000E+00  0.00000000000E+00 -0.14312670623E+04  0.20310192435E+04  0.14410113683E+04 0.  0.
        1    1    3    3  502    0  0.20176711624E+03 -0.24975231451E+03 -0.16247412623E+04  0.16561613319E+04  0.50400001928E-02 0.  1.
       -1    1    3    3    0  502 -0.20176711624E+03  0.24975231451E+03  0.19347419997E+03  0.37485791159E+03  0.50400001928E-02 0. -1.
</event>
<event>
 5   0  0.2150197E-03  0.1516479E+04  0.7818609E-02  0.8873568E-01
        2   -1    0    0  501    0  0.00000000000E+00  0.00000000000E+00  0.18487306100E+04  0.18487306100E+04  0.25500000920E-02 0. -1.
       -2   -1    0    0    0  501  0.00000000000E+00  0.00000000000E+00 -0.31098483629E+03  0.31098483630E+03  0.25500000920E-02 0.  1.
    10030    2    1    2    0    0  0.00000000000E+00  0.00000000000E+00  0.15377457737E+04  0.21597154463E+04  0.15164790617E+04 0.  0.
        3    1    3    3  502    0  0.66128025824E+03 -0.44077826302E+02  0.12934851328E+04  0.14533885350E+04  0.10100000352E+00 0. -1.
       -3    1    3    3    0  502 -0.66128025824E+03  0.44077826302E+02  0.24426064089E+03  0.70632691128E+03  0.10100000352E+00 0.  1.
</event>
<event>
 5   0  0.2111533E-03  0.1509858E+04  0.7818609E-02  0.8877924E-01
       -2   -1    0    0    0  501  0.00000000000E+00  0.00000000000E+00  0.11533946152E+04  0.11533946152E+04  0.25500000920E-02 0. -1.
        2   -1    0    0  501    0  0.00000000000E+00  0.00000000000E+00 -0.49412186395E+03  0.49412186396E+03  0.25500000920E-02 0.  1.
    10030    2    1    2    0    0  0.00000000000E+00  0.00000000000E+00  0.65927275126E+03  0.16475164792E+04  0.15098576054E+04 0.  0.
        5    1    3    3  502    0  0.11026639296E+03 -0.67926665817E+03 -0.90381483562E+01  0.68823371644E+03  0.46999998093E+01 0.  1.
       -5    1    3    3    0  502 -0.11026639296E+03  0.67926665817E+03  0.66831089961E+03  0.95928276273E+03  0.46999998093E+01 0. -1.
</event>
<event>
 5   0  0.1069697E-03  0.1330469E+04  0.7818609E-02  0.9005746E-01
       -1   -1    0    0    0  501  0.00000000000E+00  0.00000000000E+00  0.48740176490E+03  0.48740176493E+03  0.50400001928E-02 0. -1.
        1   -1    0    0  501    0  0.00000000000E+00  0.00000000000E+00 -0.90795048278E+03  0.90795048279E+03  0.50400001928E-02 0.  1.
    10030    2    1    2    0    0  0.00000000000E+00  0.00000000000E+00 -0.42054871788E+03  0.13953522477E+04  0.13304685908E+04 0.  0.
        2    1    3    3  502    0 -0.54677886215E+03 -0.11400724900E+03  0.16869498213E+03  0.58345760251E+03  0.25500000920E-02 0. -1.
       -2    1    3    3    0  502  0.54677886215E+03  0.11400724900E+03 -0.58924370000E+03  0.81189464521E+03  0.25500000920E-02 0.  1.
</event>
<event>
 5   0  0.1087761E-03  0.1493101E+04  0.7818609E-02  0.8889054E-01
       -1   -1    0    0    0  501  0.00000000000E+00  0.00000000000E+00  0.10015804312E+04  0.10015804312E+04  0.50400001928E-02 0. -1.
        1   -1    0    0  501    0  0.00000000000E+00  0.00000000000E+00 -0.55645800623E+03  0.55645800625E+03  0.50400001928E-02 0.  1.
    10030    2    1    2    0    0  0.00000000000E+00  0.00000000000E+00  0.44512242496E+03  0.15580384375E+04  0.14931007332E+04 0.  0.
        3    1    3    3  502    0 -0.49440854004E+03  0.28169748871E+03  0.72684332664E+03  0.92308965507E+03  0.10100000352E+00 0.  1.
       -3    1    3    3    0  502  0.49440854004E+03 -0.28169748871E+03 -0.28172090168E+03  0.63494878239E+03  0.10100000352E+00 0. -1.
</event>
<event>
 5   0  0.2094566E-03  0.1488230E+04  0.7818609E-02  0.8892318E-01
        2   -1    0    0  501    0  0.00000000000E+00  0.00000000000E+00  0.16035542959E+04  0.16035542959E+04  0.25500000920E-02 0. -1.
       -2   -1    0    0    0  501  0.00000000000E+00  0.00000000000E+00 -0.34530001912E+03  0.34530001913E+03  0.25500000920E-02 0.  1.
    10030    2    1    2    0    0  0.00000000000E+00  0.00000000000E+00  0.12582542767E+04  0.19488543150E+04  0.14882302631E+04 0.  0.
        1    1    3    3  502    0 -0.41714795143E+02 -0.30723288713E+03  0.15149369012E+04  0.15463395441E+04  0.50400001928E-02 0. -1.
       -1    1    3    3    0  502  0.41714795143E+02  0.30723288713E+03 -0.25668262444E+03  0.40251477089E+03  0.50400001928E-02 0.  1.
</event>
<event>
 5   0  0.1087761E-03  0.1498281E+04  0.7818609E-02  0.8885597E-01
       -1   -1    0    0    0  501  0.00000000000E+00  0.00000000000E+00  0.78821795639E+03  0.78821795641E+03  0.50400001928E-02 0.  1.
        1   -1    0    0  501    0  0.00000000000E+00  0.00000000000E+00 -0.71199996773E+03  0.71199996775E+03  0.50400001928E-02 0. -1.
    10030    2    1    2    0    0  0.00000000000E+00  0.00000000000E+00  0.76217988661E+02  0.15002179242E+04  0.14982805606E+04 0.  0.
        3    1    3    3  502    0  0.26477435452E+03  0.12583398554E+03  0.72839980294E+03  0.78517891837E+03  0.10100000352E+00 0.  1.
       -3    1    3    3    0  502 -0.26477435452E+03 -0.12583398554E+03 -0.65218181428E+03  0.71503900579E+03  0.10100000352E+00 0. -1.
</event>
<event>
 5   0  0.1069697E-03  0.1478263E+04  0.7818609E-02  0.8899038E-01
        1   -1    0    0  501    0  0.00000000000E+00  0.00000000000E+00  0.16828597677E+04  0.16828597677E+04  0.50400001928E-02 0.  1.
       -1   -1    0    0    0  501  0.00000000000E+00  0.00000000000E+00 -0.32463492947E+03  0.32463492951E+03  0.50400001928E-02 0. -1.
    10030    2    1    2    0    0  0.00000000000E+00  0.00000000000E+00  0.13582248382E+04  0.20074946972E+04  0.14782625775E+04 0.  0.
        2    1    3    3  502    0  0.50844676162E+03 -0.12848754033E+03  0.13864358414E+04  0.14823061423E+04  0.25500000920E-02 0.  1.
       -2    1    3    3    0  502 -0.50844676162E+03  0.12848754033E+03 -0.28211003170E+02  0.52518855483E+03  0.25500000920E-02 0. -1.
</event>
<event>
 5   0  0.1078018E-03  0.1476117E+04  0.7818609E-02  0.8900492E-01
        1   -1    0    0  501    0  0.00000000000E+00  0.00000000000E+00  0.84547760152E+03  0.84547760154E+03  0.50400001928E-02 0.  1.
       -1   -1    0    0    0  501  0.00000000000E+00  0.00000000000E+00 -0.64428676776E+03  0.64428676778E+03  0.50400001928E-02 0. -1.
    10030    2    1    2    0    0  0.00000000000E+00  0.00000000000E+00  0.20119083376E+03  0.14897643693E+04  0.14761165687E+04 0.  0.
        4    1    3    3  502    0  0.20300327456E+03  0.12664468975E+03  0.80524788581E+03  0.84004462823E+03  0.12699999809E+01 0.  1.
       -4    1    3    3    0  502 -0.20300327456E+03 -0.12664468975E+03 -0.60405705204E+03  0.64971974108E+03  0.12699999809E+01 0. -1.
</event>
<event>
 5   0  0.1993623E-03  0.1480033E+04  0.7818609E-02  0.8897840E-01
       -2   -1    0    0    0  501  0.00000000000E+00  0.00000000000E+00  0.29267795087E+03  0.29267795088E+03  0.25500000920E-02 0.  1.
        2   -1    0    0  501    0  0.00000000000E+00  0.00000000000E+00 -0.18710820394E+04  0.18710820394E+04  0.25500000920E-02 0. -1.
    10030    2    1    2    0    0  0.00000000000E+00  0.00000000000E+00 -0.15784040885E+04  0.21637599903E+04  0.14800330499E+04 0.  0.
        4    1    3    3  502    0 -0.13197922368E+03  0.33080937874E+03 -0.17375327007E+04  0.17736614275E+04  0.12699999809E+01 0. -1.
       -4    1    3    3    0  502  0.13197922368E+03 -0.33080937874E+03  0.15912861218E+03  0.39009856275E+03  0.12699999809E+01 0.  1.
</event>
<event>
 5   0  0.7468375E-04  0.1568768E+04  0.7818609E-02  0.8839968E-01
        3   -1    0    0  501    0  0.00000000000E+00  0.00000000000E+00  0.11961434578E+04  0.11961434620E+04  0.10100000352E+00 0. -1.
       -3   -1    0    0    0  501  0.00000000000E+00  0.00000000000E+00 -0.51436834294E+03  0.51436835285E+03  0.10100000352E+00 0.  1.
    10030    2    1    2    0    0  0.00000000000E+00  0.00000000000E+00  0.68177511483E+03  0.17105118149E+04  0.15687681032E+04 0.  0.
        2    1    3    3  502    0 -0.47198353054E+03  0.54420162977E+03  0.24658659620E+01  0.72036792506E+03  0.25500000920E-02 0. -1.
       -2    1    3    3    0  502  0.47198353054E+03 -0.54420162977E+03  0.67930924886E+03  0.99014388982E+03  0.25500000920E-02 0.  1.
</event>
<event>
 5   0  0.1078787E-03  0.1504461E+04  0.7818609E-02  0.8881492E-01
       -1   -1    0    0    0  501  0.00000000000E+00  0.00000000000E+00  0.50689906760E+03  0.50689906762E+03  0.50400001928E-02 0. -1.
        1   -1    0    0  501    0  0.00000000000E+00  0.00000000000E+00 -0.11162984515E+04  0.11162984515E+04  0.50400001928E-02 0.  1.
    10030    2    1    2    0    0  0.00000000000E+00  0.00000000000E+00 -0.60939938386E+03  0.16231975191E+04  0.15044608925E+04 0.  0.
        5    1    3    3  502    0  0.20743615821E+03  0.37871297675E+03  0.35984620251E+03  0.56210733668E+03  0.46999998093E+01 0. -1.
       -5    1    3    3    0  502 -0.20743615821E+03 -0.37871297675E+03 -0.96924558637E+03  0.10610901824E+04  0.46999998093E+01 0.  1.
</event>
<event>
 5   0  0.1078787E-03  0.1226855E+04  0.7818609E-02  0.9089669E-01
       -1   -1    0    0    0  501  0.00000000000E+00  0.00000000000E+00  0.76217755619E+03  0.76217755621E+03  0.50400001928E-02 0. -1.
        1   -1    0    0  501    0  0.00000000000E+00  0.00000000000E+00 -0.49370854386E+03  0.49370854389E+03  0.50400001928E-02 0.  1.
    10030    2    1    2    0    0  0.00000000000E+00  0.00000000000E+00  0.26846901233E+03  0.12558861001E+04  0.12268554462E+04 0.  0.
        5    1    3    3  502    0  0.24559435076E+03 -0.23363377430E+03 -0.38910661087E+03  0.51606915257E+03  0.46999998093E+01 0.  1.
       -5    1    3    3    0  502 -0.24559435076E+03  0.23363377430E+03  0.65757562319E+03  0.73981694752E+03  0.46999998093E+01 0. -1.
</event>
<event>
 5   0  0.2111533E-03  0.1479225E+04  0.7818609E-02  0.8898387E-01
       -2   -1    0    0    0  501  0.00000000000E+00  0.00000000000E+00  0.39013041543E+03  0.39013041544E+03  0.25500000920E-02 0.  1.
        2   -1    0    0  501    0  0.00000000000E+00  0.00000000000E+00 -0.14021642032E+04  0.14021642032E+04  0.25500000920E-02 0. -1.
    10030    2    1    2    0    0  0.00000000000E+00  0.00000000000E+00 -0.10120337878E+04  0.17922946186E+04  0.14792253420E+04 0.  0.
        5    1    3    3  502    0  0.29967264899E+03 -0.23997503871E+03 -0.12719571915E+04  0.13286417511E+04  0.46999998093E+01 0. -1.
       -5    1    3    3    0  502 -0.29967264899E+03  0.23997503871E+03  0.25992340375E+03  0.46365286753E+03  0.46999998093E+01 0.  1.
</event>
<event>
 5   0  0.2094566E-03  0.1844609E+04  0.7818609E-02  0.8682930E-01
        2   -1    0    0  501    0  0.00000000000E+00  0.00000000000E+00  0.99900773994E+03  0.99900773994E+03  0.25500000920E-02 0.  1.
       -2   -1    0    0    0  501  0.00000000000E+00  0.00000000000E+00 -0.85149079617E+03  0.85149079617E+03  0.25500000920E-02 0. -1.
    10030    2    1    2    0    0  0.00000000000E+00  0.00000000000E+00  0.14751694377E+03  0.18504985361E+04  0.18446093308E+04 0.  0.
        1    1    3    3  502    0 -0.41189758737E+03 -0.73709878508E+03  0.44598439049E+03  0.95492215287E+03  0.50400001928E-02 0. -1.
       -1    1    3    3    0  502  0.41189758737E+03  0.73709878508E+03 -0.29846744672E+03  0.89557638325E+03  0.50400001928E-02 0.  1.
</event>
<event>
 5   0  0.1069697E-03  0.1521982E+04  0.7818609E-02  0.8869966E-01
        1   -1    0    0  501    0  0.00000000000E+00  0.00000000000E+00  0.19458623101E+04  0.19458623101E+04  0.50400001928E-02 0.  1.
       -1   -1    0    0    0  501  0.00000000000E+00  0.00000000000E+00 -0.29760947359E+03  0.29760947363E+03  0.50400001928E-02 0. -1.
    10030    2    1    2    0    0  0.00000000000E+00  0.00000000000E+00  0.16482528365E+04  0.22434717838E+04  0.15219816791E+04 0.  0.
        2    1    3    3  502    0 -0.57198864934E+01  0.43876849341E+03  0.17405952622E+04  0.17950549782E+04  0.25500000920E-02 0.  1.
       -2    1    3    3    0  502  0.57198864934E+01 -0.43876849341E+03 -0.92342425695E+02  0.44841680555E+03  0.25500000920E-02 0. -1.
</event>
<event>
 5   0  0.1069697E-03  0.1486978E+04  0.7818609E-02  0.8893159E-01
        1   -1    0    0  501    0  0.00000000000E+00  0.00000000000E+00  0.71104358864E+03  0.71104358865E+03  0.50400001928E-02 0.  1.
       -1   -1    0    0    0  501  0.00000000000E+00  0.00000000000E+00 -0.77741476234E+03  0.77741476236E+03  0.50400001928E-02 0. -1.
    10030    2    1    2    0    0  0.00000000000E+00  0.00000000000E+00 -0.66371173707E+02  0.14884583510E+04  0.14869778512E+04 0.  0.
        2    1    3    3  502    0  0.72859129962E+02  0.33809012972E+03  0.62562043458E+03  0.71485265391E+03  0.25500000920E-02 0.  1.
       -2    1    3    3    0  502 -0.72859129962E+02 -0.33809012972E+03 -0.69199160829E+03  0.77360569710E+03  0.25500000920E-02 0. -1.
</event>
<event>
 5   0  0.2094566E-03  0.1459389E+04  0.7818609E-02  0.8911917E-01
        2   -1    0    0  501    0  0.00000000000E+00  0.00000000000E+00  0.12477658056E+04  0.12477658056E+04  0.25500000920E-02 0.  1.
       -2   -1    0    0    0  501  0.00000000000E+00  0.00000000000E+00 -0.42672599175E+03  0.42672599176E+03  0.25500000920E-02 0. -1.
    10030    2    1    2    0    0  0.00000000000E+00  0.00000000000E+00  0.82103981383E+03  0.16744917973E+04  0.14593890514E+04 0.  0.
        1    1    3    3  502    0 -0.10933708677E+03 -0.37737198004E+03 -0.29500032692E+03  0.49131395540E+03  0.50400001928E-02 0. -1.
       -1    1    3    3    0  502  0.10933708677E+03  0.37737198004E+03  0.11160401408E+04  0.11831778419E+04  0.50400001928E-02 0.  1.
</event>
<event>
 5   0  0.2094566E-03  0.1512149E+04  0.7818609E-02  0.8876414E-01
        2   -1    0    0  501    0  0.00000000000E+00  0.00000000000E+00  0.89484822577E+03  0.89484822577E+03  0.25500000920E-02 0. -1.
       -2   -1    0    0    0  501  0.00000000000E+00  0.00000000000E+00 -0.63882158024E+03  0.63882158025E+03  0.25500000920E-02 0.  1.
    10030    2    1    2    0    0  0.00000000000E+00  0.00000000000E+00  0.25602664552E+03  0.15336698060E+04  0.15121486140E+04 0.  0.
        1    1    3    3  502    0 -0.26904119087E+03 -0.27227953358E+03 -0.53328555147E+03  0.65643947644E+03  0.50400001928E-02 0.  1.
       -1    1    3    3    0  502  0.26904119087E+03  0.27227953358E+03  0.78931219699E+03  0.87723032958E+03  0.50400001928E-02 0. -1.
</event>
<event>
 5   0  0.2150197E-03  0.1407093E+04  0.7818609E-02  0.8948700E-01
       -2   -1    0    0    0  501  0.00000000000E+00  0.00000000000E+00  0.45714992770E+03  0.45714992771E+03  0.25500000920E-02 0.  1.
        2   -1    0    0  501    0  0.00000000000E+00  0.00000000000E+00 -0.10827463379E+04  0.10827463379E+04  0.25500000920E-02 0. -1.
    10030    2    1    2    0    0  0.00000000000E+00  0.00000000000E+00 -0.62559641022E+03  0.15398962656E+04  0.14070926197E+04 0.  0.
        3    1    3    3  502    0  0.39178766385E+03  0.55153846721E+03 -0.52411630747E+03  0.85579797167E+03  0.10100000352E+00 0.  1.
       -3    1    3    3    0  502 -0.39178766385E+03 -0.55153846721E+03 -0.10148010275E+03  0.68409829397E+03  0.10100000352E+00 0. -1.
</event>
<event>
 5   0  0.1078018E-03  0.1562662E+04  0.7818609E-02  0.8843820E-01
       -1   -1    0    0    0  501  0.00000000000E+00  0.00000000000E+00  0.64763692432E+03  0.64763692434E+03  0.50400001928E-02 0. -1.
        1   -1    0    0  501    0  0.00000000000E+00  0.00000000000E+00 -0.94262456047E+03  0.94262456048E+03  0.50400001928E-02 0.  1.
    10030    2    1    2    0    0  0.00000000000E+00  0.00000000000E+00 -0.29498763615E+03  0.15902614848E+04  0.15626624346E+04 0.  0.
        4    1    3    3  502    0  0.38432170483E+03  0.63234630306E+03  0.10775841895E+03  0.74778239452E+03  0.12699999809E+01 0. -1.
       -4    1    3    3    0  502 -0.38432170483E+03 -0.63234630306E+03 -0.40274605510E+03  0.84247909030E+03  0.12699999809E+01 0.  1.
</event>
<event>
 5   0  0.1078018E-03  0.1492930E+04  0.7818609E-02  0.8889168E-01
        1   -1    0    0  501    0  0.00000000000E+00  0.00000000000E+00  0.57381430826E+03  0.57381430829E+03  0.50400001928E-02 0. -1.
       -1   -1    0    0    0  501  0.00000000000E+00  0.00000000000E+00 -0.97106378541E+03  0.97106378542E+03  0.50400001928E-02 0.  1.
    10030    2    1    2    0    0  0.00000000000E+00  0.00000000000E+00 -0.39724947714E+03  0.15448780937E+04  0.14929303994E+04 0.  0.
        4    1    3    3  502    0  0.51519269118E+03  0.51142282173E+03 -0.18701542185E+02  0.72617365156E+03  0.12699999809E+01 0.  1.
       -4    1    3    3    0  502 -0.51519269118E+03 -0.51142282173E+03 -0.37854793496E+03  0.81870444215E+03  0.12699999809E+01 0. -1.
</event>
<event>
 5   0  0.1077140E-03  0.1480627E+04  0.7818609E-02  0.8897439E-01
       -1   -1    0    0    0  501  0.00000000000E+00  0.00000000000E+00  0.64589438423E+03  0.64589438425E+03  0.50400001928E-02 0. -1.
        1   -1    0    0  501    0  0.00000000000E+00  0.00000000000E+00 -0.84853544575E+03  0.84853544577E+03  0.50400001928E-02 0.  1.
    10030    2    1    2    0    0  0.00000000000E+00  0.00000000000E+00 -0.20264106152E+03  0.14944298300E+04  0.14806272715E+04 0.  0.
        1    1    3    3  502    0 -0.30369505610E+03 -0.23667320407E+03  0.53688668152E+03  0.66067556444E+03  0.50400001928E-02 0. -1.
       -1    1    3    3    0  502  0.30369505610E+03  0.23667320407E+03 -0.73952774304E+03  0.83375426558E+03  0.50400001928E-02 0.  1.
</event>
<event>
 5   0  0.2111533E-03  0.1459319E+04  0.7818609E-02  0.8911965E-01
       -2   -1    0    0    0  501  0.00000000000E+00  0.00000000000E+00  0.47982770447E+03  0.47982770448E+03  0.25500000920E-02 0.  1.
        2   -1    0    0  501    0  0.00000000000E+00  0.00000000000E+00 -0.11095714910E+04  0.11095714910E+04  0.25500000920E-02 0. -1.
    10030    2    1    2    0    0  0.00000000000E+00  0.00000000000E+00 -0.62974378652E+03  0.15893991955E+04  0.14593192132E+04 0.  0.
        5    1    3    3  502    0 -0.90726700280E+02 -0.67766031094E+03 -0.37352875920E+02  0.68474240303E+03  0.46999998093E+01 0.  1.
       -5    1    3    3    0  502  0.90726700280E+02  0.67766031094E+03 -0.59239091060E+03  0.90465679245E+03  0.46999998093E+01 0. -1.
</event>
<event>
 5   0  0.1087761E-03  0.1533409E+04  0.7818609E-02  0.8862535E-01
       -1   -1    0    0    0  501  0.00000000000E+00  0.00000000000E+00  0.35624881634E+03  0.35624881637E+03  0.50400001928E-02 0.  1.
        1   -1    0    0  501    0  0.00000000000E+00  0.00000000000E+00 -0.16500719139E+04  0.16500719139E+04  0.50400001928E-02 0. -1.
    10030    2    1    2    0    0  0.00000000000E+00  0.00000000000E+00 -0.12938230975E+04  0.20063207302E+04  0.15334094903E+04 0.  0.
        3    1    3    3  502    0  0.67126634021E+03  0.30553351425E+03 -0.37281106264E+03  0.82640022172E+03  0.10100000352E+00 0. -1.
       -3    1    3    3    0  502 -0.67126634021E+03 -0.30553351425E+03 -0.92101203489E+03  0.11799205085E+04  0.10100000352E+00 0.  1.
</event>
<event>
 5   0  0.7468375E-04  0.1523817E+04  0.7818609E-02  0.8868768E-01
       -4   -1    0    0    0  501  0.00000000000E+00  0.00000000000E+00  0.14063823729E+04  0.14063829464E+04  0.12699999809E+01 0. -1.
        4   -1    0    0  501    0  0.00000000000E+00  0.00000000000E+00 -0.41276256944E+03  0.41276452322E+03  0.12699999809E+01 0.  1.
    10030    2    1    2    0    0  0.00000000000E+00  0.00000000000E+00  0.99361980350E+03  0.18191474696E+04  0.15238166563E+04 0.  0.
        1    1    3    3  502    0  0.18669077902E+03 -0.40185049818E+03  0.12367477387E+04  0.13137283734E+04  0.50400001928E-02 0. -1.
       -1    1    3    3    0  502 -0.18669077902E+03  0.40185049818E+03 -0.24312793521E+03  0.50541909617E+03  0.50400001928E-02 0.  1.
</event>
<event>
 5   0  0.2094566E-03  0.1476898E+04  0.7818609E-02  0.8899963E-01
       -2   -1    0    0    0  501  0.00000000000E+00  0.00000000000E+00  0.11473761662E+04  0.11473761662E+04  0.25500000920E-02 0.  1.
        2   -1    0    0  501    0  0.00000000000E+00  0.00000000000E+00 -0.47526419850E+03  0.47526419850E+03  0.25500000920E-02 0. -1.
    10030    2    1    2    0    0  0.00000000000E+00  0.00000000000E+00  0.67211196773E+03  0.16226403647E+04  0.14768978489E+04 0.  0.
        1    1    3    3  502    0  0.50205023186E+03 -0.21081743712E+03  0.88408597380E+03  0.10383190436E+04  0.50400001928E-02 0.  1.
       -1    1    3    3    0  502 -0.50205023186E+03  0.21081743712E+03 -0.21197400608E+03  0.58432132118E+03  0.50400001928E-02 0. -1.
</event>
<event>
 5   0  0.1993623E-03  0.8648298E+03  0.7818609E-02  0.9470646E-01
       -2   -1    0    0    0  501  0.00000000000E+00  0.00000000000E+00  0.28897574702E+03  0.28897574703E+03  0.25500000920E-02 0. -1.
        2   -1    0    0  501    0  0.00000000000E+00  0.00000000000E+00 -0.64705304534E+03  0.64705304535E+03  0.25500000920E-02 0.  1.
    10030    2    1    2    0    0  0.00000000000E+00  0.00000000000E+00 -0.35807729832E+03  0.93602879238E+03  0.86482978012E+03 0.  0.
        4    1    3    3  502    0 -0.17290218842E+03 -0.61986203570E+01 -0.60795637550E+03  0.63209663586E+03  0.12699999809E+01 0.  1.
       -4    1    3    3    0  502  0.17290218842E+03  0.61986203570E+01  0.24987907718E+03  0.30393215652E+03  0.12699999809E+01 0. -1.
</event>
<event>
 5   0  0.2111533E-03  0.1495741E+04  0.7818609E-02  0.8887290E-01
        2   -1    0    0  501    0  0.00000000000E+00  0.00000000000E+00  0.11636197022E+04  0.11636197022E+04  0.25500000920E-02 0.  1.
       -2   -1    0    0    0  501  0.00000000000E+00  0.00000000000E+00 -0.48066429696E+03  0.48066429697E+03  0.25500000920E-02 0. -1.
    10030    2    1    2    0    0  0.00000000000E+00  0.00000000000E+00  0.68295540523E+03  0.16442839992E+04  0.14957412157E+04 0.  0.
        5    1    3    3  502    0 -0.27909290979E+03 -0.69018428894E+03  0.41952991662E+03  0.85456108380E+03  0.46999998093E+01 0.  1.
       -5    1    3    3    0  502  0.27909290979E+03  0.69018428894E+03  0.26342548861E+03  0.78972291536E+03  0.46999998093E+01 0. -1.
</event>
<event>
 5   0  0.1078018E-03  0.1530931E+04  0.7818609E-02  0.8864141E-01
       -1   -1    0    0    0  501  0.00000000000E+00  0.00000000000E+00  0.89512288083E+03  0.89512288085E+03  0.50400001928E-02 0.  1.
        1   -1    0    0  501    0  0.00000000000E+00  0.00000000000E+00 -0.65458882038E+03  0.65458882040E+03  0.50400001928E-02 0. -1.
    10030    2    1    2    0    0  0.00000000000E+00  0.00000000000E+00  0.24053406045E+03  0.15497117012E+04  0.15309309987E+04 0.  0.
        4    1    3    3  502    0  0.40857166849E+03  0.33036114146E+03 -0.44321831642E+03  0.68739608742E+03  0.12699999809E+01 0. -1.
       -4    1    3    3    0  502 -0.40857166849E+03 -0.33036114146E+03  0.68375237687E+03  0.86231561383E+03  0.12699999809E+01 0.  1.
</event>
<event>
 5   0  0.2094566E-03  0.1478661E+04  0.7818609E-02  0.8898768E-01
       -2   -1    0    0    0  501  0.00000000000E+00  0.00000000000E+00  0.39814391905E+03  0.39814391906E+03  0.25500000920E-02 0.  1.
        2   -1    0    0  501    0  0.00000000000E+00  0.00000000000E+00 -0.13728944935E+04  0.13728944935E+04  0.25500000920E-02 0. -1.
    10030    2    1    2    0    0  0.00000000000E+00  0.00000000000E+00 -0.97475057444E+03  0.17710384125E+04  0.14786610079E+04 0.  0.
        1    1    3    3  502    0  0.54611346220E+03  0.38762179596E+03 -0.11219849197E+03  0.67902803471E+03  0.50400001928E-02 0.  1.
       -1    1    3    3    0  502 -0.54611346220E+03 -0.38762179596E+03 -0.86255208247E+03  0.10920103778E+04  0.50400001928E-02 0. -1.
</event>
<event>
 5   0  0.1077140E-03  0.1500387E+04  0.7818609E-02  0.8884196E-01
       -1   -1    0    0    0  501  0.00000000000E+00  0.00000000000E+00  0.11435872876E+04  0.11435872876E+04  0.50400001928E-02 0. -1.
        1   -1    0    0  501    0  0.00000000000E+00  0.00000000000E+00 -0.49212718972E+03  0.49212718975E+03  0.50400001928E-02 0.  1.
    10030    2    1    2    0    0  0.00000000000E+00  0.00000000000E+00  0.65146009788E+03  0.16357144774E+04  0.15003871475E+04 0.  0.
        1    1    3    3  502    0 -0.51836577372E+03 -0.43098227893E+03  0.68457081956E+03  0.96077365031E+03  0.50400001928E-02 0.  1.
       -1    1    3    3    0  502  0.51836577372E+03  0.43098227893E+03 -0.33110721680E+02  0.67494082706E+03  0.50400001928E-02 0. -1.
</event>
<event>
 5   0  0.1069697E-03  0.1538302E+04  0.7818609E-02  0.8859375E-01
       -1   -1    0    0    0  501  0.00000000000E+00  0.00000000000E+00  0.36382839068E+03  0.36382839072E+03  0.50400001928E-02 0.  1.
        1   -1    0    0  501    0  0.00000000000E+00  0.00000000000E+00 -0.16260222047E+04  0.16260222047E+04  0.50400001928E-02 0. -1.
    10030    2    1    2    0    0  0.00000000000E+00  0.00000000000E+00 -0.12621938140E+04  0.19898505954E+04  0.15383017155E+04 0.  0.
        2    1    3    3  502    0 -0.66260499795E+03 -0.11964893131E+03 -0.15016574971E+03  0.68986303167E+03  0.25500000920E-02 0.  1.
       -2    1    3    3    0  502  0.66260499795E+03  0.11964893131E+03 -0.11120280643E+04  0.12999875637E+04  0.25500000920E-02 0. -1.
</event>
<event>
 5   0  0.1069697E-03  0.1502020E+04  0.7818609E-02  0.8883111E-01
        1   -1    0    0  501    0  0.00000000000E+00  0.00000000000E+00  0.64958036133E+03  0.64958036135E+03  0.50400001928E-02 0.  1.
       -1   -1    0    0    0  501  0.00000000000E+00  0.00000000000E+00 -0.86827741593E+03  0.86827741595E+03  0.50400001928E-02 0. -1.
    10030    2    1    2    0    0  0.00000000000E+00  0.00000000000E+00 -0.21869705461E+03  0.15178577773E+04  0.15020199168E+04 0.  0.
        2    1    3    3  502    0  0.27732243579E+03 -0.53296419136E+03 -0.56471892386E+03  0.82453988723E+03  0.25500000920E-02 0. -1.
       -2    1    3    3    0  502 -0.27732243579E+03  0.53296419136E+03  0.34602186925E+03  0.69331789006E+03  0.25500000920E-02 0.  1.
</event>
<event>
 5   0  0.1077140E-03  0.1399624E+04  0.7818609E-02  0.8954091E-01
       -1   -1    0    0    0  501  0.00000000000E+00  0.00000000000E+00  0.11469007551E+04  0.11469007551E+04  0.50400001928E-02 0.  1.
        1   -1    0    0  501    0  0.00000000000E+00  0.00000000000E+00 -0.42700862194E+03  0.42700862197E+03  0.50400001928E-02 0. -1.
    10030    2    1    2    0    0  0.00000000000E+00  0.00000000000E+00  0.71989213318E+03  0.15739093771E+04  0.13996235365E+04 0.  0.
        1    1    3    3  502    0  0.11147598405E+03  0.28027677724E+03 -0.35015686946E+03  0.46215992918E+03  0.50400001928E-02 0. -1.
       -1    1    3    3    0  502 -0.11147598405E+03 -0.28027677724E+03  0.10700490026E+04  0.11117494479E+04  0.50400001928E-02 0.  1.
</event>
<event>
 5   0  0.1078018E-03  0.1510454E+04  0.7818609E-02  0.8877531E-01
        1   -1    0    0  501    0  0.00000000000E+00  0.00000000000E+00  0.97422409663E+03  0.97422409664E+03  0.50400001928E-02 0.  1.
       -1   -1    0    0    0  501  0.00000000000E+00  0.00000000000E+00 -0.58545832747E+03  0.58545832749E+03  0.50400001928E-02 0. -1.
    10030    2    1    2    0    0  0.00000000000E+00  0.00000000000E+00  0.38876576915E+03  0.15596824241E+04  0.15104537202E+04 0.  0.
        4    1    3    3  502    0 -0.20611945509E+03 -0.57722471480E+03  0.65000337807E+03  0.89340898000E+03  0.12699999809E+01 0.  1.
       -4    1    3    3    0  502  0.20611945509E+03  0.57722471480E+03 -0.26123760892E+03  0.66627344413E+03  0.12699999809E+01 0. -1.
</event>
<event>
 5   0  0.1993623E-03  0.1480906E+04  0.7818609E-02  0.8897251E-01
        2   -1    0    0  501    0  0.00000000000E+00  0.00000000000E+00  0.40934378812E+03  0.40934378813E+03  0.25500000920E-02 0.  1.
       -2   -1    0    0    0  501  0.00000000000E+00  0.00000000000E+00 -0.13393889291E+04  0.13393889291E+04  0.25500000920E-02 0. -1.
    10030    2    1    2    0    0  0.00000000000E+00  0.00000000000E+00 -0.93004514098E+03  0.17487327172E+04  0.14809058552E+04 0.  0.
        4    1    3    3  502    0 -0.50706238147E+03  0.42912718667E+03 -0.78743556985E+02  0.66892791966E+03  0.12699999809E+01 0.  1.
       -4    1    3    3    0  502  0.50706238147E+03 -0.42912718667E+03 -0.85130158399E+03  0.10798047976E+04  0.12699999809E+01 0. -1.
</event>
<event>
 5   0  0.1961098E-03  0.1575613E+04  0.7818609E-02  0.8835672E-01
       -2   -1    0    0    0  501  0.00000000000E+00  0.00000000000E+00  0.88599733451E+03  0.88599733451E+03  0.25500000920E-02 0.  1.
        2   -1    0    0  501    0  0.00000000000E+00  0.00000000000E+00 -0.70049763469E+03  0.70049763470E+03  0.25500000920E-02 0. -1.
    10030    2    1    2    0    0  0.00000000000E+00  0.00000000000E+00  0.18549969981E+03  0.15864949692E+04  0.15756129438E+04 0.  0.
        2    1    3    3  502    0 -0.52162951116E+03 -0.26489860944E+03  0.62400199829E+03  0.85536373203E+03  0.25500000920E-02 0.  1.
       -2    1    3    3    0  502  0.52162951116E+03  0.26489860944E+03 -0.43850229848E+03  0.73113123718E+03  0.25500000920E-02 0. -1.
</event>
<event>
 5   0  0.1078787E-03  0.1360333E+04  0.7818609E-02  0.8983042E-01
       -1   -1    0    0    0  501  0.00000000000E+00  0.00000000000E+00  0.33893014167E+03  0.33893014171E+03  0.50400001928E-02 0. -1.
        1   -1    0    0  501    0  0.00000000000E+00  0.00000000000E+00 -0.13649620299E+04  0.13649620299E+04  0.50400001928E-02 0.  1.
    10030    2    1    2    0    0  0.00000000000E+00  0.00000000000E+00 -0.10260318882E+04  0.17038921716E+04  0.13603334506E+04 0.  0.
        5    1    3    3  502    0  0.23174243668E+03  0.20226713471E+03  0.24680915814E+03  0.39440258782E+03  0.46999998093E+01 0. -1.
       -5    1    3    3    0  502 -0.23174243668E+03 -0.20226713471E+03 -0.12728410463E+04  0.13094895838E+04  0.46999998093E+01 0.  1.
</event>
<event>
 5   0  0.1961098E-03  0.1466286E+04  0.7818609E-02  0.8907187E-01
       -2   -1    0    0    0  501  0.00000000000E+00  0.00000000000E+00  0.27186013004E+03  0.27186013005E+03  0.25500000920E-02 0. -1.
        2   -1    0    0  501    0  0.00000000000E+00  0.00000000000E+00 -0.19771137349E+04  0.19771137349E+04  0.25500000920E-02 0.  1.
    10030    2    1    2    0    0  0.00000000000E+00  0.00000000000E+00 -0.17052536048E+04  0.22489738649E+04  0.14662856435E+04 0.  0.
        2    1    3    3  502    0 -0.60822931366E+03 -0.15844242393E+03 -0.14315211853E+04  0.15634256630E+04  0.25500000920E-02 0.  1.
       -2    1    3    3    0  502  0.60822931366E+03  0.15844242393E+03 -0.27373241955E+03  0.68554820196E+03  0.25500000920E-02 0. -1.
</event>
<event>
 5   0  0.1078787E-03  0.1451291E+04  0.7818609E-02  0.8917506E-01
       -1   -1    0    0    0  501  0.00000000000E+00  0.00000000000E+00  0.34301275955E+03  0.34301275958E+03  0.50400001928E-02 0. -1.
        1   -1    0    0  501    0  0.00000000000E+00  0.00000000000E+00 -0.15351066483E+04  0.15351066483E+04  0.50400001928E-02 0.  1.
    10030    2    1    2    0    0  0.00000000000E+00  0.00000000000E+00 -0.11920938887E+04  0.18781194079E+04  0.14512906913E+04 0.  0.
        5    1    3    3  502    0  0.30434942217E+03  0.65571692137E+03 -0.51475682671E+03  0.88746263718E+03  0.46999998093E+01 0.  1.
       -5    1    3    3    0  502 -0.30434942217E+03 -0.65571692137E+03 -0.67733706203E+03  0.99065677071E+03  0.46999998093E+01 0. -1.
</event>
<event>
 5   0  0.2094566E-03  0.1468989E+04  0.7818609E-02  0.8905341E-01
        2   -1    0    0  501    0  0.00000000000E+00  0.00000000000E+00  0.11764305334E+04  0.11764305334E+04  0.25500000920E-02 0. -1.
       -2   -1    0    0    0  501  0.00000000000E+00  0.00000000000E+00 -0.45857528701E+03  0.45857528702E+03  0.25500000920E-02 0.  1.
    10030    2    1    2    0    0  0.00000000000E+00  0.00000000000E+00  0.71785524635E+03  0.16350058204E+04  0.14689887263E+04 0.  0.
        1    1    3    3  502    0 -0.29176914592E+03 -0.65550291981E+03  0.53374057014E+03  0.89425516976E+03  0.50400001928E-02 0.  1.
       -1    1    3    3    0  502  0.29176914592E+03  0.65550291981E+03  0.18411467621E+03  0.74075065063E+03  0.50400001928E-02 0. -1.
</event>
<event>
 5   0  0.1993623E-03  0.1502611E+04  0.7818609E-02  0.8882719E-01
       -2   -1    0    0    0  501  0.00000000000E+00  0.00000000000E+00  0.96009374111E+03  0.96009374111E+03  0.25500000920E-02 0. -1.
        2   -1    0    0  501    0  0.00000000000E+00  0.00000000000E+00 -0.58792135348E+03  0.58792135349E+03  0.25500000920E-02 0.  1.
    10030    2    1    2    0    0  0.00000000000E+00  0.00000000000E+00  0.37217238763E+03  0.15480150946E+04  0.15026105440E+04 0.  0.
        4    1    3    3  502    0  0.69048897544E+03  0.25837075895E+03  0.33512099390E+03  0.80983835902E+03  0.12699999809E+01 0.  1.
       -4    1    3    3    0  502 -0.69048897544E+03 -0.25837075895E+03  0.37051393723E+02  0.73817673558E+03  0.12699999809E+01 0. -1.
</event>
<event>
 5   0  0.1078787E-03  0.1502022E+04  0.7818609E-02  0.8883110E-01
        1   -1    0    0  501    0  0.00000000000E+00  0.00000000000E+00  0.83527590571E+03  0.83527590573E+03  0.50400001928E-02 0.  1.
       -1   -1    0    0    0  501  0.00000000000E+00  0.00000000000E+00 -0.67524682826E+03  0.67524682828E+03  0.50400001928E-02 0. -1.
    10030    2    1    2    0    0  0.00000000000E+00  0.00000000000E+00  0.16002907745E+03  0.15105227340E+04  0.15020218455E+04 0.  0.
        5    1    3    3  502    0 -0.35081910395E+03  0.42381096217E+03  0.59408816797E+03  0.80972379036E+03  0.46999998093E+01 0.  1.
       -5    1    3    3    0  502  0.35081910395E+03 -0.42381096217E+03 -0.43405909052E+03  0.70079894365E+03  0.46999998093E+01 0. -1.
</event>
<event>
 5   0  0.1993623E-03  0.1476707E+04  0.7818609E-02  0.8900092E-01
        2   -1    0    0  501    0  0.00000000000E+00  0.00000000000E+00  0.89351475818E+03  0.89351475819E+03  0.25500000920E-02 0.  1.
       -2   -1    0    0    0  501  0.00000000000E+00  0.00000000000E+00 -0.61013610061E+03  0.61013610061E+03  0.25500000920E-02 0. -1.
    10030    2    1    2    0    0  0.00000000000E+00  0.00000000000E+00  0.28337865757E+03  0.15036508588E+04  0.14767066200E+04 0.  0.
        4    1    3    3  502    0  0.47651980008E+03  0.51398258190E+03 -0.94742921770E+02  0.70726731049E+03  0.12699999809E+01 0. -1.
       -4    1    3    3    0  502 -0.47651980008E+03 -0.51398258190E+03  0.37812157935E+03  0.79638354831E+03  0.12699999809E+01 0.  1.
</event>
<event>
 5   0  0.2111533E-03  0.1496158E+04  0.7818609E-02  0.8887012E-01
        2   -1    0    0  501    0  0.00000000000E+00  0.00000000000E+00  0.68346547620E+03  0.68346547621E+03  0.25500000920E-02 0. -1.
       -2   -1    0    0    0  501  0.00000000000E+00  0.00000000000E+00 -0.81880058018E+03  0.81880058019E+03  0.25500000920E-02 0.  1.
    10030    2    1    2    0    0  0.00000000000E+00  0.00000000000E+00 -0.13533510398E+03  0.15022660564E+04  0.14961576501E+04 0.  0.
        5    1    3    3  502    0  0.34642312292E+03  0.54172221149E+03  0.31615993659E+03  0.71655504325E+03  0.46999998093E+01 0. -1.
       -5    1    3    3    0  502 -0.34642312292E+03 -0.54172221149E+03 -0.45149504057E+03  0.78571101314E+03  0.46999998093E+01 0.  1.
</event>
<event>
 5   0  0.2094566E-03  0.1489959E+04  0.7818609E-02  0.8891158E-01
       -2   -1    0    0    0  501  0.00000000000E+00  0.00000000000E+00  0.62517508158E+03  0.62517508158E+03  0.25500000920E-02 0.  1.
        2   -1    0    0  501    0  0.00000000000E+00  0.00000000000E+00 -0.88774227693E+03  0.88774227693E+03  0.25500000920E-02 0. -1.
    10030    2    1    2    0    0  0.00000000000E+00  0.00000000000E+00 -0.26256719535E+03  0.15129173585E+04  0.14899588590E+04 0.  0.
        1    1    3    3  502    0 -0.13188622047E+03 -0.65249257433E+02  0.61027281006E+03  0.62776137463E+03  0.50400001928E-02 0.  1.
       -1    1    3    3    0  502  0.13188622047E+03  0.65249257433E+02 -0.87284000541E+03  0.88515598389E+03  0.50400001928E-02 0. -1.
</event>
<event>
 5   0  0.1078018E-03  0.1410622E+04  0.7818609E-02  0.8946166E-01
        1   -1    0    0  501    0  0.00000000000E+00  0.00000000000E+00  0.53684347724E+03  0.53684347726E+03  0.50400001928E-02 0. -1.
       -1   -1    0    0    0  501  0.00000000000E+00  0.00000000000E+00 -0.92664525990E+03  0.92664525991E+03  0.50400001928E-02 0.  1.
    10030    2    1    2    0    0  0.00000000000E+00  0.00000000000E+00 -0.38980178265E+03  0.14634887372E+04  0.14106217970E+04 0.  0.
        4    1    3    3  502    0 -0.15298730063E+03  0.50576268941E+03  0.28979205980E+03  0.60264588522E+03  0.12699999809E+01 0. -1.
       -4    1    3    3    0  502  0.15298730063E+03 -0.50576268941E+03 -0.67959384246E+03  0.86084285195E+03  0.12699999809E+01 0.  1.
</event>
<event>
 5   0  0.2094566E-03  0.1776532E+04  0.7818609E-02  0.8718880E-01
       -2   -1    0    0    0  501  0.00000000000E+00  0.00000000000E+00  0.19517661976E+04  0.19517661976E+04  0.25500000920E-02 0. -1.
        2   -1    0    0  501    0  0.00000000000E+00  0.00000000000E+00 -0.40425757709E+03  0.40425757710E+03  0.25500000920E-02 0.  1.
    10030    2    1    2    0    0  0.00000000000E+00  0.00000000000E+00  0.15475086205E+04  0.23560237747E+04  0.17765317606E+04 0.  0.
        1    1    3    3  502    0  0.37281513756E+03  0.64213537500E+03  0.14203155829E+04  0.16026931465E+04  0.50400001928E-02 0. -1.
       -1    1    3    3    0  502 -0.37281513756E+03 -0.64213537500E+03  0.12719303762E+03  0.75333062826E+03  0.50400001928E-02 0.  1.
</event>
<event>
 5   0  0.1069697E-03  0.1507548E+04  0.7818609E-02  0.8879449E-01
       -1   -1    0    0    0  501  0.00000000000E+00  0.00000000000E+00  0.82733603064E+03  0.82733603066E+03  0.50400001928E-02 0.  1.
        1   -1    0    0  501    0  0.00000000000E+00  0.00000000000E+00 -0.68675307519E+03  0.68675307521E+03  0.50400001928E-02 0. -1.
    10030    2    1    2    0    0  0.00000000000E+00  0.00000000000E+00  0.14058295545E+03  0.15140891059E+04  0.15075484248E+04 0.  0.
        2    1    3    3  502    0  0.26941089545E+03  0.50835344101E+02  0.77548389108E+03  0.82252156696E+03  0.25500000920E-02 0.  1.
       -2    1    3    3    0  502 -0.26941089545E+03 -0.50835344101E+02 -0.63490093562E+03  0.69156753890E+03  0.25500000920E-02 0. -1.
</event>
<event>
 5   0  0.2150197E-03  0.1497157E+04  0.7818609E-02  0.8886346E-01
       -2   -1    0    0    0  501  0.00000000000E+00  0.00000000000E+00  0.98578486733E+03  0.98578486733E+03  0.25500000920E-02 0.  1.
        2   -1    0    0  501    0  0.00000000000E+00  0.00000000000E+00 -0.56845038202E+03  0.56845038202E+03  0.25500000920E-02 0. -1.
    10030    2    1    2    0    0  0.00000000000E+00  0.00000000000E+00  0.41733448531E+03  0.15542352494E+04  0.14971570184E+04 0.  0.
        3    1    3    3  502    0 -0.37167538136E+03 -0.49960082882E+03  0.63999037976E+03  0.89293408136E+03  0.10100000352E+00 0.  1.
       -3    1    3    3    0  502  0.37167538136E+03  0.49960082882E+03 -0.22265589444E+03  0.66130116800E+03  0.10100000352E+00 0. -1.
</event>
<event>
 5   0  0.1078018E-03  0.1451177E+04  0.7818609E-02  0.8917585E-01
        1   -1    0    0  501    0  0.00000000000E+00  0.00000000000E+00  0.90552764539E+03  0.90552764541E+03  0.50400001928E-02 0. -1.
       -1   -1    0    0    0  501  0.00000000000E+00  0.00000000000E+00 -0.58140516182E+03  0.58140516185E+03  0.50400001928E-02 0.  1.
    10030    2    1    2    0    0  0.00000000000E+00  0.00000000000E+00  0.32412248357E+03  0.14869328073E+04  0.14511766911E+04 0.  0.
        4    1    3    3  502    0  0.26378647330E+03 -0.43913625713E+03 -0.36446073445E+03  0.62869483509E+03  0.12699999809E+01 0.  1.
       -4    1    3    3    0  502 -0.26378647330E+03  0.43913625713E+03  0.68858321801E+03  0.85823797216E+03  0.12699999809E+01 0. -1.
</event>
<event>
 5   0  0.1077140E-03  0.1247619E+04  0.7818609E-02  0.9072167E-01
        1   -1    0    0  501    0  0.00000000000E+00  0.00000000000E+00  0.99020052802E+03  0.99020052803E+03  0.50400001928E-02 0. -1.
       -1   -1    0    0    0  501  0.00000000000E+00  0.00000000000E+00 -0.39298938624E+03  0.39298938627E+03  0.50400001928E-02 0.  1.
    10030    2    1    2    0    0  0.00000000000E+00  0.00000000000E+00  0.59721114178E+03  0.13831899143E+04  0.12476190088E+04 0.  0.
        1    1    3    3  502    0  0.80640019159E+02 -0.11931802718E+03  0.97151849747E+03  0.98213430612E+03  0.50400001928E-02 0. -1.
       -1    1    3    3    0  502 -0.80640019159E+02  0.11931802718E+03 -0.37430735569E+03  0.40105560818E+03  0.50400001928E-02 0.  1.
</event>
<event>
 5   0  0.2094566E-03  0.1330059E+04  0.7818609E-02  0.9006062E-01
        2   -1    0    0  501    0  0.00000000000E+00  0.00000000000E+00  0.65411638285E+03  0.65411638286E+03  0.25500000920E-02 0. -1.
       -2   -1    0    0    0  501  0.00000000000E+00  0.00000000000E+00 -0.67612420533E+03  0.67612420534E+03  0.25500000920E-02 0.  1.
    10030    2    1    2    0    0  0.00000000000E+00  0.00000000000E+00 -0.22007822478E+02  0.13302405882E+04  0.13300585244E+04 0.  0.
        1    1    3    3  502    0 -0.64865017737E+03  0.11024898745E+03  0.85766905083E+02  0.66351929427E+03  0.50400001928E-02 0. -1.
       -1    1    3    3    0  502  0.64865017737E+03 -0.11024898745E+03 -0.10777472756E+03  0.66672129392E+03  0.50400001928E-02 0.  1.
</event>
<event>
 5   0  0.1993623E-03  0.1510896E+04  0.7818609E-02  0.8877239E-01
        2   -1    0    0  501    0  0.00000000000E+00  0.00000000000E+00  0.12355412457E+04  0.12355412457E+04  0.25500000920E-02 0.  1.
       -2   -1    0    0    0  501  0.00000000000E+00  0.00000000000E+00 -0.46190423997E+03  0.46190423998E+03  0.25500000920E-02 0. -1.
    10030    2    1    2    0    0  0.00000000000E+00  0.00000000000E+00  0.77363700570E+03  0.16974454857E+04  0.15108960786E+04 0.  0.
        4    1    3    3  502    0  0.28768565312E+03  0.67697253332E+03  0.58025527171E+03  0.93688453884E+03  0.12699999809E+01 0. -1.
       -4    1    3    3    0  502 -0.28768565312E+03 -0.67697253332E+03  0.19338173399E+03  0.76056094681E+03  0.12699999809E+01 0.  1.
</event>
<event>
 5   0  0.7468375E-04  0.1547212E+04  0.7818609E-02  0.8853651E-01
       -3   -1    0    0    0  501  0.00000000000E+00  0.00000000000E+00  0.70203590635E+03  0.70203591361E+03  0.10100000352E+00 0.  1.
        3   -1    0    0  501    0  0.00000000000E+00  0.00000000000E+00 -0.85247226928E+03  0.85247227526E+03  0.10100000352E+00 0. -1.
    10030    2    1    2    0    0  0.00000000000E+00  0.00000000000E+00 -0.15043636293E+03  0.15545081889E+04  0.15472118827E+04 0.  0.
        2    1    3    3  502    0  0.17473866611E+03 -0.23199801901E+03 -0.79561373565E+03  0.84696983336E+03  0.25500000920E-02 0. -1.
       -2    1    3    3    0  502 -0.17473866611E+03  0.23199801901E+03  0.64517737271E+03  0.70753835552E+03  0.25500000920E-02 0.  1.
</event>
<event>
 5   0  0.2094566E-03  0.1507933E+04  0.7818609E-02  0.8879195E-01
       -2   -1    0    0    0  501  0.00000000000E+00  0.00000000000E+00  0.93840860716E+03  0.93840860716E+03  0.25500000920E-02 0.  1.
        2   -1    0    0  501    0  0.00000000000E+00  0.00000000000E+00 -0.60577606244E+03  0.60577606245E+03  0.25500000920E-02 0. -1.
    10030    2    1    2    0    0  0.00000000000E+00  0.00000000000E+00  0.33263254471E+03  0.15441846696E+04  0.15079329839E+04 0.  0.
        1    1    3    3  502    0  0.36896416795E+03 -0.50560253001E+03  0.59677525804E+03  0.86481742826E+03  0.50400001928E-02 0.  1.
       -1    1    3    3    0  502 -0.36896416795E+03  0.50560253001E+03 -0.26414271333E+03  0.67936724135E+03  0.50400001928E-02 0. -1.
</event>
<event>
 5   0  0.2150197E-03  0.1434311E+04  0.7818609E-02  0.8929351E-01
       -2   -1    0    0    0  501  0.00000000000E+00  0.00000000000E+00  0.32054977948E+03  0.32054977949E+03  0.25500000920E-02 0.  1.
        2   -1    0    0  501    0  0.00000000000E+00  0.00000000000E+00 -0.16044674326E+04  0.16044674326E+04  0.25500000920E-02 0. -1.
    10030    2    1    2    0    0  0.00000000000E+00  0.00000000000E+00 -0.12839176531E+04  0.19250172121E+04  0.14343105406E+04 0.  0.
        3    1    3    3  502    0 -0.60556905745E+03  0.24536629787E+03 -0.24519673729E+03  0.69788247839E+03  0.10100000352E+00 0. -1.
       -3    1    3    3    0  502  0.60556905745E+03 -0.24536629787E+03 -0.10387209158E+04  0.12271347337E+04  0.10100000352E+00 0.  1.
</event>
<event>
 5   0  0.1077140E-03  0.1524727E+04  0.7818609E-02  0.8868174E-01
        1   -1    0    0  501    0  0.00000000000E+00  0.00000000000E+00  0.42114514041E+03  0.42114514044E+03  0.50400001928E-02 0.  1.
       -1   -1    0    0    0  501  0.00000000000E+00  0.00000000000E+00 -0.13800422344E+04  0.13800422344E+04  0.50400001928E-02 0. -1.
    10030    2    1    2    0    0  0.00000000000E+00  0.00000000000E+00 -0.95889709399E+03  0.18011873749E+04  0.15247269665E+04 0.  0.
        1    1    3    3  502    0  0.48856136565E+03 -0.51998075764E+03 -0.79670640534E+03  0.10694920723E+04  0.50400001928E-02 0. -1.
       -1    1    3    3    0  502 -0.48856136565E+03  0.51998075764E+03 -0.16219068865E+03  0.73169530259E+03  0.50400001928E-02 0.  1.
</event>
<event>
 5   0  0.1077140E-03  0.1484224E+04  0.7818609E-02  0.8895012E-01
        1   -1    0    0  501    0  0.00000000000E+00  0.00000000000E+00  0.95657582664E+03  0.95657582665E+03  0.50400001928E-02 0.  1.
       -1   -1    0    0    0  501  0.00000000000E+00  0.00000000000E+00 -0.57573088665E+03  0.57573088667E+03  0.50400001928E-02 0. -1.
    10030    2    1    2    0    0  0.00000000000E+00  0.00000000000E+00  0.38084493999E+03  0.15323067133E+04  0.14842240381E+04 0.  0.
        1    1    3    3  502    0  0.22026255478E+03 -0.68613558001E+03  0.73864576341E+01  0.72066093759E+03  0.50400001928E-02 0. -1.
       -1    1    3    3    0  502 -0.22026255478E+03  0.68613558001E+03  0.37345848236E+03  0.81164577573E+03  0.50400001928E-02 0.  1.
</event>
<event>
 5   0  0.1087761E-03  0.1440682E+04  0.7818609E-02  0.8924886E-01
        1   -1    0    0  501    0  0.00000000000E+00  0.00000000000E+00  0.13125634200E+04  0.13125634200E+04  0.50400001928E-02 0.  1.
       -1   -1    0    0    0  501  0.00000000000E+00  0.00000000000E+00 -0.39532671722E+03  0.39532671725E+03  0.50400001928E-02 0. -1.
    10030    2    1    2    0    0  0.00000000000E+00  0.00000000000E+00  0.91723670281E+03  0.17078901373E+04  0.14406823217E+04 0.  0.
        3    1    3    3  502    0  0.69124874616E+03 -0.82892605332E+02  0.67783590340E+03  0.97167769102E+03  0.10100000352E+00 0.  1.
       -3    1    3    3    0  502 -0.69124874616E+03  0.82892605332E+02  0.23940079941E+03  0.73621244627E+03  0.10100000352E+00 0. -1.
</event>
<event>
 5   0  0.1078787E-03  0.1463911E+04  0.7818609E-02  0.8908813E-01
       -1   -1    0    0    0  501  0.00000000000E+00  0.00000000000E+00  0.46011486655E+03  0.46011486658E+03  0.50400001928E-02 0. -1.
        1   -1    0    0  501    0  0.00000000000E+00  0.00000000000E+00 -0.11644018640E+04  0.11644018640E+04  0.50400001928E-02 0.  1.
    10030    2    1    2    0    0  0.00000000000E+00  0.00000000000E+00 -0.70428699741E+03  0.16245167305E+04  0.14639106643E+04 0.  0.
        5    1    3    3  502    0 -0.51489463567E+03 -0.78614619121E+02  0.21851068105E+03  0.56485905490E+03  0.46999998093E+01 0. -1.
       -5    1    3    3    0  502  0.51489463567E+03  0.78614619121E+02 -0.92279767845E+03  0.10596576756E+04  0.46999998093E+01 0.  1.
</event>
<event>
 5   0  0.1078787E-03  0.1591044E+04  0.7818609E-02  0.8826069E-01
        1   -1    0    0  501    0  0.00000000000E+00  0.00000000000E+00  0.11767789975E+04  0.11767789975E+04  0.50400001928E-02 0. -1.
       -1   -1    0    0    0  501  0.00000000000E+00  0.00000000000E+00 -0.53778631505E+03  0.53778631507E+03  0.50400001928E-02 0.  1.
    10030    2    1    2    0    0  0.00000000000E+00  0.00000000000E+00  0.63899268248E+03  0.17145653126E+04  0.15910444880E+04 0.  0.
        5    1    3    3  502    0 -0.18024109594E+03  0.77340493094E+03  0.26904839110E+03  0.83848146468E+03  0.46999998093E+01 0. -1.
       -5    1    3    3    0  502  0.18024109594E+03 -0.77340493094E+03  0.36994429138E+03  0.87608384792E+03  0.46999998093E+01 0.  1.
</event>
<event>
 5   0  0.1993623E-03  0.8380670E+03  0.7818609E-02  0.9506495E-01
        2   -1    0    0  501    0  0.00000000000E+00  0.00000000000E+00  0.12774966712E+04  0.12774966712E+04  0.25500000920E-02 0. -1.
       -2   -1    0    0    0  501  0.00000000000E+00  0.00000000000E+00 -0.13744776111E+03  0.13744776113E+03  0.25500000920E-02 0.  1.
    10030    2    1    2    0    0  0.00000000000E+00  0.00000000000E+00  0.11400489101E+04  0.14149444323E+04  0.83806695986E+03 0.  0.
        4    1    3    3  502    0 -0.16773143233E+03 -0.82765625231E+02 -0.63055660383E+02  0.19738695833E+03  0.12699999809E+01 0.  1.
       -4    1    3    3    0  502  0.16773143233E+03  0.82765625231E+02  0.12031045705E+04  0.12175574740E+04  0.12699999809E+01 0. -1.
</event>
<event>
 5   0  0.2094566E-03  0.1491944E+04  0.7818609E-02  0.8889828E-01
       -2   -1    0    0    0  501  0.00000000000E+00  0.00000000000E+00  0.48024894558E+03  0.48024894558E+03  0.25500000920E-02 0. -1.
        2   -1    0    0  501    0  0.00000000000E+00  0.00000000000E+00 -0.11587202741E+04  0.11587202741E+04  0.25500000920E-02 0.  1.
    10030    2    1    2    0    0  0.00000000000E+00  0.00000000000E+00 -0.67847132855E+03  0.16389692197E+04  0.14919439532E+04 0.  0.
        1    1    3    3  502    0 -0.14343304705E+03 -0.22563875605E+03 -0.11042752734E+04  0.11361821010E+04  0.50400001928E-02 0.  1.
       -1    1    3    3    0  502  0.14343304705E+03  0.22563875605E+03  0.42580394486E+03  0.50278711868E+03  0.50400001928E-02 0. -1.
</event>
<event>
 5   0  0.1069697E-03  0.1504648E+04  0.7818609E-02  0.8881368E-01
        1   -1    0    0  501    0  0.00000000000E+00  0.00000000000E+00  0.70358427880E+03  0.70358427882E+03  0.50400001928E-02 0.  1.
       -1   -1    0    0    0  501  0.00000000000E+00  0.00000000000E+00 -0.80444047538E+03  0.80444047540E+03  0.50400001928E-02 0. -1.
    10030    2    1    2    0    0  0.00000000000E+00  0.00000000000E+00 -0.10085619659E+03  0.15080247542E+04  0.15046483599E+04 0.  0.
        2    1    3    3  502    0 -0.40604173947E+03 -0.34907183778E+03 -0.58007457364E+03  0.78943495813E+03  0.25500000920E-02 0. -1.
       -2    1    3    3    0  502  0.40604173947E+03  0.34907183778E+03  0.47921837706E+03  0.71858979609E+03  0.25500000920E-02 0.  1.
</event>
<event>
 5   0  0.2111533E-03  0.1403995E+04  0.7818609E-02  0.8950932E-01
        2   -1    0    0  501    0  0.00000000000E+00  0.00000000000E+00  0.89554977209E+03  0.89554977209E+03  0.25500000920E-02 0.  1.
       -2   -1    0    0    0  501  0.00000000000E+00  0.00000000000E+00 -0.55027695539E+03  0.55027695539E+03  0.25500000920E-02 0. -1.
    10030    2    1    2    0    0  0.00000000000E+00  0.00000000000E+00  0.34527281670E+03  0.14458267275E+04  0.14039948746E+04 0.  0.
        5    1    3    3  502    0 -0.54914834655E+03 -0.11564783132E+03 -0.26163919514E+03  0.61920552795E+03  0.46999998093E+01 0. -1.
       -5    1    3    3    0  502  0.54914834655E+03  0.11564783132E+03  0.60691201184E+03  0.82662119954E+03  0.46999998093E+01 0.  1.
</event>
<event>
 5   0  0.1069697E-03  0.1539343E+04  0.7818609E-02  0.8858704E-01
       -1   -1    0    0    0  501  0.00000000000E+00  0.00000000000E+00  0.43091733728E+03  0.43091733731E+03  0.50400001928E-02 0.  1.
        1   -1    0    0  501    0  0.00000000000E+00  0.00000000000E+00 -0.13747284516E+04  0.13747284516E+04  0.50400001928E-02 0. -1.
    10030    2    1    2    0    0  0.00000000000E+00  0.00000000000E+00 -0.94381111434E+03  0.18056457889E+04  0.15393431377E+04 0.  0.
        2    1    3    3  502    0 -0.76333675097E+03  0.81809643258E+02 -0.40745992555E+03  0.86913716066E+03  0.25500000920E-02 0.  1.
       -2    1    3    3    0  502  0.76333675097E+03 -0.81809643258E+02 -0.53635118879E+03  0.93650862828E+03  0.25500000920E-02 0. -1.
</event>
<event>
 5   0  0.1961098E-03  0.1483888E+04  0.7818609E-02  0.8895238E-01
       -2   -1    0    0    0  501  0.00000000000E+00  0.00000000000E+00  0.41612835860E+03  0.41612835861E+03  0.25500000920E-02 0.  1.
        2   -1    0    0  501    0  0.00000000000E+00  0.00000000000E+00 -0.13228631277E+04  0.13228631277E+04  0.25500000920E-02 0. -1.
    10030    2    1    2    0    0  0.00000000000E+00  0.00000000000E+00 -0.90673476911E+03  0.17389914863E+04  0.14838879500E+04 0.  0.
        2    1    3    3  502    0  0.55076857069E+03 -0.10301842440E+03  0.11657658506E+03  0.57231889224E+03  0.25500000920E-02 0.  1.
       -2    1    3    3    0  502 -0.55076857069E+03  0.10301842440E+03 -0.10233113542E+04  0.11666725941E+04  0.25500000920E-02 0. -1.
</event>
<event>
 5   0  0.2150197E-03  0.1057651E+04  0.7818609E-02  0.9247481E-01
        2   -1    0    0  501    0  0.00000000000E+00  0.00000000000E+00  0.94019494606E+03  0.94019494606E+03  0.25500000920E-02 0.  1.
       -2   -1    0    0    0  501  0.00000000000E+00  0.00000000000E+00 -0.29744486366E+03  0.29744486367E+03  0.25500000920E-02 0. -1.
    10030    2    1    2    0    0  0.00000000000E+00  0.00000000000E+00  0.64275008240E+03  0.12376398097E+04  0.10576505237E+04 0.  0.
        3    1    3    3  502    0 -0.24868786587E+02 -0.51729034002E+03  0.44658082260E+03  0.68384369101E+03  0.10100000352E+00 0. -1.
       -3    1    3    3    0  502  0.24868786587E+02  0.51729034002E+03  0.19616925980E+03  0.55379611873E+03  0.10100000352E+00 0.  1.
</event>
<event>
 5   0  0.2094566E-03  0.1521924E+04  0.7818609E-02  0.8870003E-01
        2   -1    0    0  501    0  0.00000000000E+00  0.00000000000E+00  0.99516167853E+03  0.99516167853E+03  0.25500000920E-02 0. -1.
       -2   -1    0    0    0  501  0.00000000000E+00  0.00000000000E+00 -0.58187833091E+03  0.58187833091E+03  0.25500000920E-02 0.  1.
    10030    2    1    2    0    0  0.00000000000E+00  0.00000000000E+00  0.41328334762E+03  0.15770400094E+04  0.15219238043E+04 0.  0.
        1    1    3    3  502    0  0.51369118954E+03  0.31829802657E+03 -0.27256790703E+03  0.66293705274E+03  0.50400001928E-02 0. -1.
       -1    1    3    3    0  502 -0.51369118954E+03 -0.31829802657E+03  0.68585125465E+03  0.91410295670E+03  0.50400001928E-02 0.  1.
</event>
<event>
 5   0  0.1993623E-03  0.1505367E+04  0.7818609E-02  0.8880892E-01
       -2   -1    0    0    0  501  0.00000000000E+00  0.00000000000E+00  0.14626443113E+04  0.14626443113E+04  0.25500000920E-02 0.  1.
        2   -1    0    0  501    0  0.00000000000E+00  0.00000000000E+00 -0.38733447745E+03  0.38733447746E+03  0.25500000920E-02 0. -1.
    10030    2    1    2    0    0  0.00000000000E+00  0.00000000000E+00  0.10753098338E+04  0.18499787887E+04  0.15053671579E+04 0.  0.
        4    1    3    3  502    0 -0.25818728459E+03 -0.57280515647E+03  0.28334527829E+02  0.62894425792E+03  0.12699999809E+01 0. -1.
       -4    1    3    3    0  502  0.25818728459E+03  0.57280515647E+03  0.10469753060E+04  0.12210345308E+04  0.12699999809E+01 0.  1.
</event>
<event>
 5   0  0.1078787E-03  0.1509219E+04  0.7818609E-02  0.8878346E-01
        1   -1    0    0  501    0  0.00000000000E+00  0.00000000000E+00  0.62660668239E+03  0.62660668241E+03  0.50400001928E-02 0. -1.
       -1   -1    0    0    0  501  0.00000000000E+00  0.00000000000E+00 -0.90876025649E+03  0.90876025651E+03  0.50400001928E-02 0.  1.
    10030    2    1    2    0    0  0.00000000000E+00  0.00000000000E+00 -0.28215357411E+03  0.15353669389E+04  0.15092186713E+04 0.  0.
        5    1    3    3  502    0  0.12105153786E+03 -0.63341258797E+03 -0.53971814085E+03  0.84094158119E+03  0.46999998093E+01 0.  1.
       -5    1    3    3    0  502 -0.12105153786E+03  0.63341258797E+03  0.25756456674E+03  0.69442535773E+03  0.46999998093E+01 0. -1.
</event>
<event>
 5   0  0.1078018E-03  0.1471413E+04  0.7818609E-02  0.8903689E-01
       -1   -1    0    0    0  501  0.00000000000E+00  0.00000000000E+00  0.54699429125E+03  0.54699429127E+03  0.50400001928E-02 0.  1.
        1   -1    0    0  501    0  0.00000000000E+00  0.00000000000E+00 -0.98952371764E+03  0.98952371766E+03  0.50400001928E-02 0. -1.
    10030    2    1    2    0    0  0.00000000000E+00  0.00000000000E+00 -0.44252942640E+03  0.15365180089E+04  0.14714126880E+04 0.  0.
        4    1    3    3  502    0 -0.71085724178E+03  0.61197098630E+02 -0.40864551068E+03  0.82222616681E+03  0.12699999809E+01 0.  1.
       -4    1    3    3    0  502  0.71085724178E+03 -0.61197098630E+02 -0.33883915710E+02  0.71429184212E+03  0.12699999809E+01 0. -1.
</event>
<event>
 5   0  0.7468375E-04  0.1466363E+04  0.7818609E-02  0.8907135E-01
        3   -1    0    0  501    0  0.00000000000E+00  0.00000000000E+00  0.14200713943E+04  0.14200713979E+04  0.10100000352E+00 0.  1.
       -3   -1    0    0    0  501  0.00000000000E+00  0.00000000000E+00 -0.37854081666E+03  0.37854083014E+03  0.10100000352E+00 0. -1.
    10030    2    1    2    0    0  0.00000000000E+00  0.00000000000E+00  0.10415305777E+04  0.17986122281E+04  0.14663628482E+04 0.  0.
        2    1    3    3  502    0  0.42053828412E+03 -0.19525224200E+03 -0.17588402777E+03  0.49589422022E+03  0.25500000920E-02 0. -1.
       -2    1    3    3    0  502 -0.42053828412E+03  0.19525224200E+03  0.12174146054E+04  0.13027180078E+04  0.25500000920E-02 0.  1.
</event>
<event>
 5   0  0.2150197E-03  0.1493006E+04  0.7818609E-02  0.8889117E-01
       -2   -1    0    0    0  501  0.00000000000E+00  0.00000000000E+00  0.89122548830E+03  0.89122548830E+03  0.25500000920E-02 0.  1.
        2   -1    0    0  501    0  0.00000000000E+00  0.00000000000E+00 -0.62528165366E+03  0.62528165367E+03  0.25500000920E-02 0. -1.
    10030    2    1    2    0    0  0.00000000000E+00  0.00000000000E+00  0.26594383463E+03  0.15165071420E+04  0.14930062922E+04 0.  0.
        3    1    3    3  502    0  0.11022345831E+02 -0.33478780506E+03 -0.54465922640E+03  0.63942008854E+03  0.10100000352E+00 0. -1.
       -3    1    3    3    0  502 -0.11022345831E+02  0.33478780506E+03  0.81060306104E+03  0.87708705343E+03  0.10100000352E+00 0.  1.
</event>
<event>
 5   0  0.1961098E-03  0.1514382E+04  0.7818609E-02  0.8874945E-01
       -2   -1    0    0    0  501  0.00000000000E+00  0.00000000000E+00  0.21323710201E+03  0.21323710203E+03  0.25500000920E-02 0. -1.
        2   -1    0    0  501    0  0.00000000000E+00  0.00000000000E+00 -0.26887345324E+04  0.26887345324E+04  0.25500000920E-02 0.  1.
    10030    2    1    2    0    0  0.00000000000E+00  0.00000000000E+00 -0.24754974304E+04  0.29019716344E+04  0.15143816689E+04 0.  0.
        2    1    3    3  502    0  0.45214846431E+03  0.33385427759E+03 -0.26545670744E+03  0.62158199457E+03  0.25500000920E-02 0. -1.
       -2    1    3    3    0  502 -0.45214846431E+03 -0.33385427759E+03 -0.22100407229E+04  0.22803896398E+04  0.25500000920E-02 0.  1.
</event>
<event>
 5   0  0.2111533E-03  0.1509715E+04  0.7818609E-02  0.8878018E-01
        2   -1    0    0  501    0  0.00000000000E+00  0.00000000000E+00  0.86131511062E+03  0.86131511062E+03  0.25500000920E-02 0. -1.
       -2   -1    0    0    0  501  0.00000000000E+00  0.00000000000E+00 -0.66155765959E+03  0.66155765959E+03  0.25500000920E-02 0.  1.
    10030    2    1    2    0    0  0.00000000000E+00  0.00000000000E+00  0.19975745103E+03  0.15228727702E+04  0.15097146866E+04 0.  0.
        5    1    3    3  502    0  0.34992211700E+03  0.13526396533E+03  0.76060338142E+03  0.84810460564E+03  0.46999998093E+01 0.  1.
       -5    1    3    3    0  502 -0.34992211700E+03 -0.13526396533E+03 -0.56084593039E+03  0.67476816457E+03  0.46999998093E+01 0. -1.
</event>
<event>
 5   0  0.1078018E-03  0.1505877E+04  0.7818609E-02  0.8880554E-01
       -1   -1    0    0    0  501  0.00000000000E+00  0.00000000000E+00  0.15515284679E+04  0.15515284679E+04  0.50400001928E-02 0.  1.
        1   -1    0    0  501    0  0.00000000000E+00  0.00000000000E+00 -0.36539198026E+03  0.36539198030E+03  0.50400001928E-02 0. -1.
    10030    2    1    2    0    0  0.00000000000E+00  0.00000000000E+00  0.11861364876E+04  0.19169204482E+04  0.15058765678E+04 0.  0.
        4    1    3    3  502    0 -0.22794056161E+03  0.42309527773E+03 -0.14475222802E+03  0.50191765668E+03  0.12699999809E+01 0. -1.
       -4    1    3    3    0  502  0.22794056161E+03 -0.42309527773E+03  0.13308887156E+04  0.14150027915E+04  0.12699999809E+01 0.  1.
</event>
<event>
 5   0  0.1077140E-03  0.1140290E+04  0.7818609E-02  0.9166789E-01
        1   -1    0    0  501    0  0.00000000000E+00  0.00000000000E+00  0.95037976224E+03  0.95037976226E+03  0.50400001928E-02 0. -1.
       -1   -1    0    0    0  501  0.00000000000E+00  0.00000000000E+00 -0.34203709511E+03  0.34203709515E+03  0.50400001928E-02 0.  1.
    10030    2    1    2    0    0  0.00000000000E+00  0.00000000000E+00  0.60834266713E+03  0.12924168574E+04  0.11402896705E+04 0.  0.
        1    1    3    3  502    0 -0.22832219178E+03 -0.23145428952E+03 -0.22667538093E+03  0.39633803721E+03  0.50400001928E-02 0.  1.
       -1    1    3    3    0  502  0.22832219178E+03  0.23145428952E+03  0.83501804806E+03  0.89607882020E+03  0.50400001928E-02 0. -1.
</event>
<event>
 5   0  0.1961098E-03  0.1541548E+04  0.7818609E-02  0.8857285E-01
       -2   -1    0    0    0  501  0.00000000000E+00  0.00000000000E+00  0.74163280465E+03  0.74163280466E+03  0.25500000920E-02 0.  1.
        2   -1    0    0  501    0  0.00000000000E+00  0.00000000000E+00 -0.80106017403E+03  0.80106017403E+03  0.25500000920E-02 0. -1.
    10030    2    1    2    0    0  0.00000000000E+00  0.00000000000E+00 -0.59427369380E+02  0.15426929787E+04  0.15415479280E+04 0.  0.
        2    1    3    3  502    0  0.67613979789E+03  0.21416446592E+03 -0.33170108186E+03  0.78297959901E+03  0.25500000920E-02 0.  1.
       -2    1    3    3    0  502 -0.67613979789E+03 -0.21416446592E+03  0.27227371248E+03  0.75971337968E+03  0.25500000920E-02 0. -1.
</event>
<event>
 5   0  0.7468375E-04  0.1522767E+04  0.7818609E-02  0.8869453E-01
        3   -1    0    0  501    0  0.00000000000E+00  0.00000000000E+00  0.19602071125E+04  0.19602071151E+04  0.10100000352E+00 0.  1.
       -3   -1    0    0    0  501  0.00000000000E+00  0.00000000000E+00 -0.29573654459E+03  0.29573656184E+03  0.10100000352E+00 0. -1.
    10030    2    1    2    0    0  0.00000000000E+00  0.00000000000E+00  0.16644705679E+04  0.22559436769E+04  0.15227670873E+04 0.  0.
        5    1    3    3  502    0 -0.54184931666E+03  0.31195157561E+01  0.16246139037E+04  0.17126011910E+04  0.46999998093E+01 0.  1.
       -5    1    3    3    0  502  0.54184931666E+03 -0.31195157561E+01  0.39856664206E+02  0.54334248594E+03  0.46999998093E+01 0. -1.
</event>
<event>
 5   0  0.1078018E-03  0.1392295E+04  0.7818609E-02  0.8959415E-01
        1   -1    0    0  501    0  0.00000000000E+00  0.00000000000E+00  0.17019430883E+04  0.17019430883E+04  0.50400001928E-02 0. -1.
       -1   -1    0    0    0  501  0.00000000000E+00  0.00000000000E+00 -0.28474595239E+03  0.28474595244E+03  0.50400001928E-02 0.  1.
    10030    2    1    2    0    0  0.00000000000E+00  0.00000000000E+00  0.14171971359E+04  0.19866890408E+04  0.13922950918E+04 0.  0.
        4    1    3    3  502    0 -0.60148615664E+03 -0.17310888922E+03  0.11434395835E+04  0.13035367191E+04  0.12699999809E+01 0.  1.
       -4    1    3    3    0  502  0.60148615664E+03  0.17310888922E+03  0.27375755248E+03  0.68315232166E+03  0.12699999809E+01 0. -1.
</event>
<event>
 5   0  0.1993623E-03  0.1568075E+04  0.7818609E-02  0.8840404E-01
        2   -1    0    0  501    0  0.00000000000E+00  0.00000000000E+00  0.26418046744E+04  0.26418046745E+04  0.25500000920E-02 0. -1.
       -2   -1    0    0    0  501  0.00000000000E+00  0.00000000000E+00 -0.23268745909E+03  0.23268745911E+03  0.25500000920E-02 0.  1.
    10030    2    1    2    0    0  0.00000000000E+00  0.00000000000E+00  0.24091172154E+04  0.28744921336E+04  0.15680750201E+04 0.  0.
        4    1    3    3  502    0  0.33442205508E+03  0.70376206250E+03  0.13643050119E+04  0.15711298260E+04  0.12699999809E+01 0. -1.
       -4    1    3    3    0  502 -0.33442205508E+03 -0.70376206250E+03  0.10448122034E+04  0.13033623076E+04  0.12699999809E+01 0.  1.
</event>
<event>
 5   0  0.1078787E-03  0.1309363E+04  0.7818609E-02  0.9022173E-01
        1   -1    0    0  501    0  0.00000000000E+00  0.00000000000E+00  0.82663241173E+03  0.82663241175E+03  0.50400001928E-02 0.  1.
       -1   -1    0    0    0  501  0.00000000000E+00  0.00000000000E+00 -0.51849866505E+03  0.51849866508E+03  0.50400001928E-02 0. -1.
    10030    2    1    2    0    0  0.00000000000E+00  0.00000000000E+00  0.30813374668E+03  0.13451310768E+04  0.13093629016E+04 0.  0.
        5    1    3    3  502    0 -0.60793537219E+03 -0.19333782393E+02 -0.94676522354E+02  0.61558504350E+03  0.46999998093E+01 0. -1.
       -5    1    3    3    0  502  0.60793537219E+03  0.19333782393E+02  0.40281026903E+03  0.72954603332E+03  0.46999998093E+01 0.  1.
</event>
<event>
 5   0  0.2111533E-03  0.1494132E+04  0.7818609E-02  0.8888364E-01
        2   -1    0    0  501    0  0.00000000000E+00  0.00000000000E+00  0.96727074476E+03  0.96727074476E+03  0.25500000920E-02 0. -1.
       -2   -1    0    0    0  501  0.00000000000E+00  0.00000000000E+00 -0.57699232187E+03  0.57699232188E+03  0.25500000920E-02 0.  1.
    10030    2    1    2    0    0  0.00000000000E+00  0.00000000000E+00  0.39027842289E+03  0.15442630666E+04  0.14941322470E+04 0.  0.
        5    1    3    3  502    0  0.57625802922E+03  0.14416204800E+03  0.66336177773E+03  0.89046445773E+03  0.46999998093E+01 0. -1.
       -5    1    3    3    0  502 -0.57625802922E+03 -0.14416204800E+03 -0.27308335484E+03  0.65379860891E+03  0.46999998093E+01 0.  1.
</event>
<event>
 5   0  0.2094566E-03  0.1548608E+04  0.7818609E-02  0.8852757E-01
       -2   -1    0    0    0  501  0.00000000000E+00  0.00000000000E+00  0.44361829866E+03  0.44361829867E+03  0.25500000920E-02 0. -1.
        2   -1    0    0  501    0  0.00000000000E+00  0.00000000000E+00 -0.13514927187E+04  0.13514927187E+04  0.25500000920E-02 0.  1.
    10030    2    1    2    0    0  0.00000000000E+00  0.00000000000E+00 -0.90787442001E+03  0.17951110173E+04  0.15486082791E+04 0.  0.
        1    1    3    3  502    0  0.65302821997E+03  0.11225447340E+03 -0.91833187697E+03  0.11324223413E+04  0.50400001928E-02 0. -1.
       -1    1    3    3    0  502 -0.65302821997E+03 -0.11225447340E+03  0.10457456967E+02  0.66268867601E+03  0.50400001928E-02 0.  1.
</event>
<event>
 5   0  0.1087761E-03  0.1516741E+04  0.7818609E-02  0.8873396E-01
       -1   -1    0    0    0  501  0.00000000000E+00  0.00000000000E+00  0.12048777181E+04  0.12048777181E+04  0.50400001928E-02 0. -1.
        1   -1    0    0  501    0  0.00000000000E+00  0.00000000000E+00 -0.47733136177E+03  0.47733136180E+03  0.50400001928E-02 0.  1.
    10030    2    1    2    0    0  0.00000000000E+00  0.00000000000E+00  0.72754635633E+03  0.16822090799E+04  0.15167411407E+04 0.  0.
        3    1    3    3  502    0  0.52571777843E+03  0.51721668450E+03  0.16776249607E+03  0.75633097687E+03  0.10100000352E+00 0. -1.
       -3    1    3    3    0  502 -0.52571777843E+03 -0.51721668450E+03  0.55978386026E+03  0.92587810304E+03  0.10100000352E+00 0.  1.
</event>
<event>
 5   0  0.1078018E-03  0.1493178E+04  0.7818609E-02  0.8889002E-01
       -1   -1    0    0    0  501  0.00000000000E+00  0.00000000000E+00  0.32090635086E+03  0.32090635090E+03  0.50400001928E-02 0. -1.
        1   -1    0    0  501    0  0.00000000000E+00  0.00000000000E+00 -0.17369399063E+04  0.17369399063E+04  0.50400001928E-02 0.  1.
    10030    2    1    2    0    0  0.00000000000E+00  0.00000000000E+00 -0.14160335554E+04  0.20578462572E+04  0.14931778823E+04 0.  0.
        4    1    3    3  502    0 -0.13447843462E+03  0.70668630365E+03 -0.43271652107E+03  0.83948506934E+03  0.12699999809E+01 0. -1.
       -4    1    3    3    0  502  0.13447843462E+03 -0.70668630365E+03 -0.98331703436E+03  0.12183611879E+04  0.12699999809E+01 0.  1.
</event>
<event>
 5   0  0.1078018E-03  0.1495737E+04  0.7818609E-02  0.8887293E-01
        1   -1    0    0  501    0  0.00000000000E+00  0.00000000000E+00  0.10265766641E+04  0.10265766641E+04  0.50400001928E-02 0. -1.
       -1   -1    0    0    0  501  0.00000000000E+00  0.00000000000E+00 -0.54482737378E+03  0.54482737380E+03  0.50400001928E-02 0.  1.
    10030    2    1    2    0    0  0.00000000000E+00  0.00000000000E+00  0.48174929036E+03  0.15714040379E+04  0.14957366987E+04 0.  0.
        4    1    3    3  502    0 -0.38176931987E+03 -0.42592990920E+03 -0.26531000572E+03  0.63051971673E+03  0.12699999809E+01 0.  1.
       -4    1    3    3    0  502  0.38176931987E+03  0.42592990920E+03  0.74705929609E+03  0.94088432122E+03  0.12699999809E+01 0. -1.
</event>
<event>
 5   0  0.1078018E-03  0.1513057E+04  0.7818609E-02  0.8875817E-01
        1   -1    0    0  501    0  0.00000000000E+00  0.00000000000E+00  0.47342673049E+03  0.47342673051E+03  0.50400001928E-02 0.  1.
       -1   -1    0    0    0  501  0.00000000000E+00  0.00000000000E+00 -0.12089201355E+04  0.12089201355E+04  0.50400001928E-02 0. -1.
    10030    2    1    2    0    0  0.00000000000E+00  0.00000000000E+00 -0.73549340499E+03  0.16823468660E+04  0.15130566509E+04 0.  0.
        4    1    3    3  502    0 -0.16750884549E+03 -0.29602115514E+03  0.38361675222E+03  0.51269012385E+03  0.12699999809E+01 0.  1.
       -4    1    3    3    0  502  0.16750884549E+03  0.29602115514E+03 -0.11191101572E+04  0.11696567422E+04  0.12699999809E+01 0. -1.
</event>
<event>
 5   0  0.1087761E-03  0.1122468E+04  0.7818609E-02  0.9183565E-01
        1   -1    0    0  501    0  0.00000000000E+00  0.00000000000E+00  0.15420364612E+04  0.15420364612E+04  0.50400001928E-02 0.  1.
       -1   -1    0    0    0  501  0.00000000000E+00  0.00000000000E+00 -0.20426480705E+03  0.20426480711E+03  0.50400001928E-02 0. -1.
    10030    2    1    2    0    0  0.00000000000E+00  0.00000000000E+00  0.13377716541E+04  0.17463012683E+04  0.11224683163E+04 0.  0.
        3    1    3    3  502    0 -0.20291491049E+03  0.45085353722E+03  0.25568229184E+03  0.55661190922E+03  0.10100000352E+00 0.  1.
       -3    1    3    3    0  502  0.20291491049E+03 -0.45085353722E+03  0.10820893623E+04  0.11896893591E+04  0.10100000352E+00 0. -1.
</event>
<event>
 5   0  0.2111533E-03  0.1449338E+04  0.7818609E-02  0.8918860E-01
        2   -1    0    0  501    0  0.00000000000E+00  0.00000000000E+00  0.44290397824E+03  0.44290397824E+03  0.25500000920E-02 0. -1.
       -2   -1    0    0    0  501  0.00000000000E+00  0.00000000000E+00 -0.11856862424E+04  0.11856862424E+04  0.25500000920E-02 0.  1.
    10030    2    1    2    0    0  0.00000000000E+00  0.00000000000E+00 -0.74278226420E+03  0.16285902207E+04  0.14493379919E+04 0.  0.
        5    1    3    3  502    0 -0.11222407064E+03  0.59228983469E+03  0.80491994485E+02  0.60819613734E+03  0.46999998093E+01 0. -1.
       -5    1    3    3    0  502  0.11222407064E+03 -0.59228983469E+03 -0.82327425869E+03  0.10203940833E+04  0.46999998093E+01 0.  1.
</event>
<event>
 5   0  0.1961098E-03  0.1470876E+04  0.7818609E-02  0.8904054E-01
       -2   -1    0    0    0  501  0.00000000000E+00  0.00000000000E+00  0.26956531913E+03  0.26956531914E+03  0.25500000920E-02 0. -1.
        2   -1    0    0  501    0  0.00000000000E+00  0.00000000000E+00 -0.20064496037E+04  0.20064496037E+04  0.25500000920E-02 0.  1.
    10030    2    1    2    0    0  0.00000000000E+00  0.00000000000E+00 -0.17368842845E+04  0.22760149228E+04  0.14708762392E+04 0.  0.
        2    1    3    3  502    0 -0.54585600561E+03  0.23430921805E+03 -0.19749388239E+03  0.62598995368E+03  0.25500000920E-02 0. -1.
       -2    1    3    3    0  502  0.54585600561E+03 -0.23430921805E+03 -0.15393904021E+04  0.16500249691E+04  0.25500000920E-02 0.  1.
</event>
<event>
 5   0  0.1069697E-03  0.1353355E+04  0.7818609E-02  0.8988292E-01
       -1   -1    0    0    0  501  0.00000000000E+00  0.00000000000E+00  0.42850303138E+03  0.42850303141E+03  0.50400001928E-02 0.  1.
        1   -1    0    0  501    0  0.00000000000E+00  0.00000000000E+00 -0.10685860724E+04  0.10685860724E+04  0.50400001928E-02 0. -1.
    10030    2    1    2    0    0  0.00000000000E+00  0.00000000000E+00 -0.64008304105E+03  0.14970891039E+04  0.13533549000E+04 0.  0.
        2    1    3    3  502    0  0.16923675874E+03 -0.18759988984E+03  0.37436819494E+03  0.45164847456E+03  0.25500000920E-02 0.  1.
       -2    1    3    3    0  502 -0.16923675874E+03  0.18759988984E+03 -0.10144512360E+04  0.10454406293E+04  0.25500000920E-02 0. -1.
</event>
<event>
 5   0  0.1077140E-03  0.1551993E+04  0.7818609E-02  0.8850596E-01
       -1   -1    0    0    0  501  0.00000000000E+00  0.00000000000E+00  0.56058133626E+03  0.56058133628E+03  0.50400001928E-02 0. -1.
        1   -1    0    0  501    0  0.00000000000E+00  0.00000000000E+00 -0.10741898120E+04  0.10741898120E+04  0.50400001928E-02 0.  1.
    10030    2    1    2    0    0  0.00000000000E+00  0.00000000000E+00 -0.51360847572E+03  0.16347711483E+04  0.15519932477E+04 0.  0.
        1    1    3    3  502    0 -0.61350960199E+03 -0.14872871758E+03  0.21854879772E+03  0.66804029832E+03  0.50400001928E-02 0. -1.
       -1    1    3    3    0  502  0.61350960199E+03  0.14872871758E+03 -0.73215727344E+03  0.96673084995E+03  0.50400001928E-02 0.  1.
</event>
<event>
 5   0  0.1087761E-03  0.1030022E+04  0.7818609E-02  0.9276217E-01
       -1   -1    0    0    0  501  0.00000000000E+00  0.00000000000E+00  0.22914258211E+03  0.22914258217E+03  0.50400001928E-02 0.  1.
        1   -1    0    0  501    0  0.00000000000E+00  0.00000000000E+00 -0.11575158878E+04  0.11575158878E+04  0.50400001928E-02 0. -1.
    10030    2    1    2    0    0  0.00000000000E+00  0.00000000000E+00 -0.92837330571E+03  0.13866584700E+04  0.10300217074E+04 0.  0.
        3    1    3    3  502    0 -0.27044547498E+03  0.42888453953E+03 -0.58574765299E+03  0.77471480324E+03  0.10100000352E+00 0.  1.
       -3    1    3    3    0  502  0.27044547498E+03 -0.42888453953E+03 -0.34262565273E+03  0.61194366676E+03  0.10100000352E+00 0. -1.
</event>
<event>
 5   0  0.1077140E-03  0.1501784E+04  0.7818609E-02  0.8883267E-01
        1   -1    0    0  501    0  0.00000000000E+00  0.00000000000E+00  0.16165570738E+04  0.16165570738E+04  0.50400001928E-02 0.  1.
       -1   -1    0    0    0  501  0.00000000000E+00  0.00000000000E+00 -0.34879006740E+03  0.34879006743E+03  0.50400001928E-02 0. -1.
    10030    2    1    2    0    0  0.00000000000E+00  0.00000000000E+00  0.12677670064E+04  0.19653471412E+04  0.15017843397E+04 0.  0.
        1    1    3    3  502    0 -0.36336834070E+02  0.65528850053E+03  0.15641328805E+03  0.67467659003E+03  0.50400001928E-02 0. -1.
       -1    1    3    3    0  502  0.36336834070E+02 -0.65528850053E+03  0.11113537184E+04  0.12906705512E+04  0.50400001928E-02 0.  1.
</event>
<event>
 5   0  0.1078018E-03  0.1477021E+04  0.7818609E-02  0.8899879E-01
       -1   -1    0    0    0  501  0.00000000000E+00  0.00000000000E+00  0.65019048525E+03  0.65019048527E+03  0.50400001928E-02 0.  1.
        1   -1    0    0  501    0  0.00000000000E+00  0.00000000000E+00 -0.83882760203E+03  0.83882760204E+03  0.50400001928E-02 0. -1.
    10030    2    1    2    0    0  0.00000000000E+00  0.00000000000E+00 -0.18863711678E+03  0.14890180873E+04  0.14770209553E+04 0.  0.
        4    1    3    3  502    0  0.71720610741E+03  0.76984331167E+02  0.65350115950E+02  0.72428132539E+03  0.12699999809E+01 0.  1.
       -4    1    3    3    0  502 -0.71720610741E+03 -0.76984331167E+02 -0.25398723273E+03  0.76473676192E+03  0.12699999809E+01 0. -1.
</event>
<event>
 5   0  0.1078018E-03  0.1465289E+04  0.7818609E-02  0.8907869E-01
        1   -1    0    0  501    0  0.00000000000E+00  0.00000000000E+00  0.71213576365E+03  0.71213576367E+03  0.50400001928E-02 0. -1.
       -1   -1    0    0    0  501  0.00000000000E+00  0.00000000000E+00 -0.75374343917E+03  0.75374343919E+03  0.50400001928E-02 0.  1.
    10030    2    1    2    0    0  0.00000000000E+00  0.00000000000E+00 -0.41607675520E+02  0.14658792029E+04  0.14652885855E+04 0.  0.
        4    1    3    3  502    0 -0.51241614225E+03 -0.52154958089E+03 -0.67532178146E+02  0.73426594375E+03  0.12699999809E+01 0. -1.
       -4    1    3    3    0  502  0.51241614225E+03  0.52154958089E+03  0.25924502627E+02  0.73161325911E+03  0.12699999809E+01 0.  1.
</event>
<event>
 5   0  0.1087761E-03  0.1446923E+04  0.7818609E-02  0.8920536E-01
        1   -1    0    0  501    0  0.00000000000E+00  0.00000000000E+00  0.12122229954E+04  0.12122229954E+04  0.50400001928E-02 0.  1.
       -1   -1    0    0    0  501  0.00000000000E+00  0.00000000000E+00 -0.43176607955E+03  0.43176607958E+03  0.50400001928E-02 0. -1.
    10030    2    1    2    0    0  0.00000000000E+00  0.00000000000E+00  0.78045691581E+03  0.16439890749E+04  0.14469233156E+04 0.  0.
        3    1    3    3  502    0 -0.21732950821E+03 -0.21077245815E+03  0.11367878485E+04  0.11764113936E+04  0.10100000352E+00 0.  1.
       -3    1    3    3    0  502  0.21732950821E+03  0.21077245815E+03 -0.35633093273E+03  0.46757768133E+03  0.10100000352E+00 0. -1.
</event>
<event>
 5   0  0.1961098E-03  0.1485982E+04  0.7818609E-02  0.8893829E-01
        2   -1    0    0  501    0  0.00000000000E+00  0.00000000000E+00  0.64816358921E+03  0.64816358922E+03  0.25500000920E-02 0.  1.
       -2   -1    0    0    0  501  0.00000000000E+00  0.00000000000E+00 -0.85169172312E+03  0.85169172313E+03  0.25500000920E-02 0. -1.
    10030    2    1    2    0    0  0.00000000000E+00  0.00000000000E+00 -0.20352813391E+03  0.14998553123E+04  0.14859819167E+04 0.  0.
        2    1    3    3  502    0 -0.11505381656E+03  0.26871501311E+03 -0.79121561728E+03  0.84348520556E+03  0.25500000920E-02 0. -1.
       -2    1    3    3    0  502  0.11505381656E+03 -0.26871501311E+03  0.58768748336E+03  0.65637010678E+03  0.25500000920E-02 0.  1.
</event>
<event>
 5   0  0.7468375E-04  0.1560169E+04  0.7818609E-02  0.8845398E-01
        3   -1    0    0  501    0  0.00000000000E+00  0.00000000000E+00  0.98164976429E+03  0.98164976949E+03  0.10100000352E+00 0.  1.
       -3   -1    0    0    0  501  0.00000000000E+00  0.00000000000E+00 -0.61990762069E+03  0.61990762892E+03  0.10100000352E+00 0. -1.
    10030    2    1    2    0    0  0.00000000000E+00  0.00000000000E+00  0.36174214361E+03  0.16015573984E+04  0.15601694530E+04 0.  0.
        2    1    3    3  502    0 -0.60865838661E+03 -0.30814897796E+03 -0.20746504750E+03  0.71306561419E+03  0.25500000920E-02 0. -1.
       -2    1    3    3    0  502  0.60865838661E+03  0.30814897796E+03  0.56920719110E+03  0.88849178421E+03  0.25500000920E-02 0.  1.
</event>
<event>
 5   0  0.2094566E-03  0.1449708E+04  0.7818609E-02  0.8918603E-01
       -2   -1    0    0    0  501  0.00000000000E+00  0.00000000000E+00  0.34875560361E+03  0.34875560362E+03  0.25500000920E-02 0. -1.
        2   -1    0    0  501    0  0.00000000000E+00  0.00000000000E+00 -0.15065374944E+04  0.15065374944E+04  0.25500000920E-02 0.  1.
    10030    2    1    2    0    0  0.00000000000E+00  0.00000000000E+00 -0.11577818908E+04  0.18552930981E+04  0.14497080992E+04 0.  0.
        1    1    3    3  502    0  0.57572686901E+03  0.41572301020E+03 -0.76490430664E+03  0.10437268068E+04  0.50400001928E-02 0. -1.
       -1    1    3    3    0  502 -0.57572686901E+03 -0.41572301020E+03 -0.39287758418E+03  0.81156629125E+03  0.50400001928E-02 0.  1.
</event>
<event>
 5   0  0.1087761E-03  0.1507392E+04  0.7818609E-02  0.8879552E-01
       -1   -1    0    0    0  501  0.00000000000E+00  0.00000000000E+00  0.55818390227E+03  0.55818390230E+03  0.50400001928E-02 0. -1.
        1   -1    0    0  501    0  0.00000000000E+00  0.00000000000E+00 -0.10176896732E+04  0.10176896732E+04  0.50400001928E-02 0.  1.
    10030    2    1    2    0    0  0.00000000000E+00  0.00000000000E+00 -0.45950577088E+03  0.15758735755E+04  0.15073924414E+04 0.  0.
        3    1    3    3  502    0 -0.45664571969E+03 -0.96964773511E+02 -0.84835302468E+03  0.96831314423E+03  0.10100000352E+00 0.  1.
       -3    1    3    3    0  502  0.45664571969E+03  0.96964773511E+02  0.38884725380E+03  0.60756043123E+03  0.10100000352E+00 0. -1.
</event>
<event>
 5   0  0.2094566E-03  0.1095583E+04  0.7818609E-02  0.9209508E-01
        2   -1    0    0  501    0  0.00000000000E+00  0.00000000000E+00  0.86220573755E+03  0.86220573755E+03  0.25500000920E-02 0. -1.
       -2   -1    0    0    0  501  0.00000000000E+00  0.00000000000E+00 -0.34803223209E+03  0.34803223209E+03  0.25500000920E-02 0.  1.
    10030    2    1    2    0    0  0.00000000000E+00  0.00000000000E+00  0.51417350546E+03  0.12102379696E+04  0.10955827442E+04 0.  0.
        1    1    3    3  502    0  0.15990678997E+03 -0.37225214746E+03 -0.15018933447E+03  0.43208642536E+03  0.50400001928E-02 0.  1.
       -1    1    3    3    0  502 -0.15990678997E+03  0.37225214746E+03  0.66436283993E+03  0.77815154429E+03  0.50400001928E-02 0. -1.
</event>
<event>
 5   0  0.1077140E-03  0.1336260E+04  0.7818609E-02  0.9001295E-01
        1   -1    0    0  501    0  0.00000000000E+00  0.00000000000E+00  0.78976819626E+03  0.78976819627E+03  0.50400001928E-02 0. -1.
       -1   -1    0    0    0  501  0.00000000000E+00  0.00000000000E+00 -0.56522635969E+03  0.56522635971E+03  0.50400001928E-02 0.  1.
    10030    2    1    2    0    0  0.00000000000E+00  0.00000000000E+00  0.22454183657E+03  0.13549945560E+04  0.13362601582E+04 0.  0.
        1    1    3    3  502    0  0.48211334958E+03  0.46145626202E+03  0.14469798756E+03  0.68287090378E+03  0.50400001928E-02 0. -1.
       -1    1    3    3    0  502 -0.48211334958E+03 -0.46145626202E+03  0.79843849011E+02  0.67212365220E+03  0.50400001928E-02 0.  1.
</event>
<event>
 5   0  0.2111533E-03  0.1396778E+04  0.7818609E-02  0.8956154E-01
       -2   -1    0    0    0  501  0.00000000000E+00  0.00000000000E+00  0.33286350205E+03  0.33286350206E+03  0.25500000920E-02 0.  1.
        2   -1    0    0  501    0  0.00000000000E+00  0.00000000000E+00 -0.14653070781E+04  0.14653070781E+04  0.25500000920E-02 0. -1.
    10030    2    1    2    0    0  0.00000000000E+00  0.00000000000E+00 -0.11324435761E+04  0.17981705802E+04  0.13967780720E+04 0.  0.
        5    1    3    3  502    0 -0.35177152460E+02  0.53825468293E+03  0.48392136389E+01  0.53944512579E+03  0.46999998093E+01 0.  1.
       -5    1    3    3    0  502  0.35177152460E+02 -0.53825468293E+03 -0.11372827897E+04  0.12587254544E+04  0.46999998093E+01 0. -1.
</event>
<event>
 5   0  0.1069697E-03  0.1213141E+04  0.7818609E-02  0.9101432E-01
        1   -1    0    0  501    0  0.00000000000E+00  0.00000000000E+00  0.16616695781E+04  0.16616695781E+04  0.50400001928E-02 0. -1.
       -1   -1    0    0    0  501  0.00000000000E+00  0.00000000000E+00 -0.22142040814E+03  0.22142040820E+03  0.50400001928E-02 0.  1.
    10030    2    1    2    0    0  0.00000000000E+00  0.00000000000E+00  0.14402491700E+04  0.18830899863E+04  0.12131406452E+04 0.  0.
        2    1    3    3  502    0 -0.20400009691E+02  0.52256975950E+03  0.11971264438E+04  0.13063717068E+04  0.25500000920E-02 0.  1.
       -2    1    3    3    0  502  0.20400009691E+02 -0.52256975950E+03  0.24312272619E+03  0.57671827952E+03  0.25500000920E-02 0. -1.
</event>
<event>
 5   0  0.2150197E-03  0.1493479E+04  0.7818609E-02  0.8888801E-01
       -2   -1    0    0    0  501  0.00000000000E+00  0.00000000000E+00  0.72801424916E+03  0.72801424917E+03  0.25500000920E-02 0. -1.
        2   -1    0    0  501    0  0.00000000000E+00  0.00000000000E+00 -0.76594645082E+03  0.76594645082E+03  0.25500000920E-02 0.  1.
    10030    2    1    2    0    0  0.00000000000E+00  0.00000000000E+00 -0.37932201657E+02  0.14939607000E+04  0.14934790662E+04 0.  0.
        3    1    3    3  502    0 -0.23699683948E+03 -0.72499929963E+02  0.68567300374E+03  0.72908930868E+03  0.10100000352E+00 0. -1.
       -3    1    3    3    0  502  0.23699683948E+03  0.72499929963E+02 -0.72360520540E+03  0.76487139131E+03  0.10100000352E+00 0.  1.
</event>
<event>
 5   0  0.1961098E-03  0.1496571E+04  0.7818609E-02  0.8886736E-01
        2   -1    0    0  501    0  0.00000000000E+00  0.00000000000E+00  0.88488225725E+03  0.88488225725E+03  0.25500000920E-02 0. -1.
       -2   -1    0    0    0  501  0.00000000000E+00  0.00000000000E+00 -0.63277488600E+03  0.63277488601E+03  0.25500000920E-02 0.  1.
    10030    2    1    2    0    0  0.00000000000E+00  0.00000000000E+00  0.25210737124E+03  0.15176571433E+04  0.14965711068E+04 0.  0.
        2    1    3    3  502    0  0.52001267927E+03 -0.71997797156E+02  0.66679682350E+03  0.84865474325E+03  0.25500000920E-02 0. -1.
       -2    1    3    3    0  502 -0.52001267927E+03  0.71997797156E+02 -0.41468945226E+03  0.66900240001E+03  0.25500000920E-02 0.  1.
</event>
<event>
 5   0  0.1069697E-03  0.1534096E+04  0.7818609E-02  0.8862091E-01
       -1   -1    0    0    0  501  0.00000000000E+00  0.00000000000E+00  0.63973365721E+03  0.63973365723E+03  0.50400001928E-02 0. -1.
        1   -1    0    0  501    0  0.00000000000E+00  0.00000000000E+00 -0.91969939278E+03  0.91969939279E+03  0.50400001928E-02 0.  1.
    10030    2    1    2    0    0  0.00000000000E+00  0.00000000000E+00 -0.27996573557E+03  0.15594330500E+04  0.15340960284E+04 0.  0.
        2    1    3    3  502    0 -0.70262004250E+03  0.30725828711E+03 -0.15699477063E+03  0.78277067979E+03  0.25500000920E-02 0.  1.
       -2    1    3    3    0  502  0.70262004250E+03 -0.30725828711E+03 -0.12297096494E+03  0.77666237024E+03  0.25500000920E-02 0. -1.
</event>
<event>
 5   0  0.7468375E-04  0.1511917E+04  0.7818609E-02  0.8876567E-01
        4   -1    0    0  501    0  0.00000000000E+00  0.00000000000E+00  0.18000406781E+04  0.18000411261E+04  0.12699999809E+01 0. -1.
       -4   -1    0    0    0  501  0.00000000000E+00  0.00000000000E+00 -0.31747612094E+03  0.31747866112E+03  0.12699999809E+01 0.  1.
    10030    2    1    2    0    0  0.00000000000E+00  0.00000000000E+00  0.14825645571E+04  0.21175197872E+04  0.15119167911E+04 0.  0.
        1    1    3    3  502    0  0.25182421323E+03  0.41478255743E+03  0.15531358139E+04  0.16271726585E+04  0.50400001928E-02 0. -1.
       -1    1    3    3    0  502 -0.25182421323E+03 -0.41478255743E+03 -0.70571256722E+02  0.49034712870E+03  0.50400001928E-02 0.  1.
</event>
<event>
 5   0  0.2111533E-03  0.1371364E+04  0.7818609E-02  0.8974812E-01
       -2   -1    0    0    0  501  0.00000000000E+00  0.00000000000E+00  0.20689293225E+03  0.20689293226E+03  0.25500000920E-02 0. -1.
        2   -1    0    0  501    0  0.00000000000E+00  0.00000000000E+00 -0.22724785913E+04  0.22724785913E+04  0.25500000920E-02 0.  1.
    10030    2    1    2    0    0  0.00000000000E+00  0.00000000000E+00 -0.20655856591E+04  0.24793715236E+04  0.13713639331E+04 0.  0.
        5    1    3    3  502    0  0.39216069502E+03 -0.17522063276E+03 -0.19990717246E+04  0.20447009882E+04  0.46999998093E+01 0.  1.
       -5    1    3    3    0  502 -0.39216069502E+03  0.17522063276E+03 -0.66513934439E+02  0.43467053539E+03  0.46999998093E+01 0. -1.
</event>
<event>
 5   0  0.2150197E-03  0.1569598E+04  0.7818609E-02  0.8839446E-01
        2   -1    0    0  501    0  0.00000000000E+00  0.00000000000E+00  0.12404523742E+04  0.12404523742E+04  0.25500000920E-02 0.  1.
       -2   -1    0    0    0  501  0.00000000000E+00  0.00000000000E+00 -0.49651979582E+03  0.49651979583E+03  0.25500000920E-02 0. -1.
    10030    2    1    2    0    0  0.00000000000E+00  0.00000000000E+00  0.74393257840E+03  0.17369721700E+04  0.15695976039E+04 0.  0.
        3    1    3    3  502    0  0.63299568692E+02 -0.70255345212E+03  0.75262465350E+03  0.10315193007E+04  0.10100000352E+00 0.  1.
       -3    1    3    3    0  502 -0.63299568692E+02  0.70255345212E+03 -0.86920751048E+01  0.70545286933E+03  0.10100000352E+00 0. -1.
</event>
<event>
 5   0  0.2094566E-03  0.1409505E+04  0.7818609E-02  0.8946967E-01
       -2   -1    0    0    0  501  0.00000000000E+00  0.00000000000E+00  0.16495051461E+04  0.16495051461E+04  0.25500000920E-02 0.  1.
        2   -1    0    0  501    0  0.00000000000E+00  0.00000000000E+00 -0.30110612042E+03  0.30110612043E+03  0.25500000920E-02 0. -1.
    10030    2    1    2    0    0  0.00000000000E+00  0.00000000000E+00  0.13483990257E+04  0.19506112666E+04  0.14095050127E+04 0.  0.
        1    1    3    3  502    0 -0.21914449412E+03 -0.27662798049E+02 -0.25196495785E+03  0.33507593126E+03  0.50400001928E-02 0. -1.
       -1    1    3    3    0  502  0.21914449412E+03  0.27662798049E+02  0.16003639836E+04  0.16155353353E+04  0.50400001928E-02 0.  1.
</event>
<event>
 5   0  0.1078787E-03  0.1511868E+04  0.7818609E-02  0.8876599E-01
        1   -1    0    0  501    0  0.00000000000E+00  0.00000000000E+00  0.13537040267E+04  0.13537040267E+04  0.50400001928E-02 0. -1.
       -1   -1    0    0    0  501  0.00000000000E+00  0.00000000000E+00 -0.42212785522E+03  0.42212785525E+03  0.50400001928E-02 0.  1.
    10030    2    1    2    0    0  0.00000000000E+00  0.00000000000E+00  0.93157617145E+03  0.17758318819E+04  0.15118679538E+04 0.  0.
        5    1    3    3  502    0 -0.15548214465E+03 -0.18469586651E+03 -0.37560772911E+03  0.44653165238E+03  0.46999998093E+01 0.  1.
       -5    1    3    3    0  502  0.15548214465E+03  0.18469586651E+03  0.13071839006E+04  0.13293002296E+04  0.46999998093E+01 0. -1.
</event>
<event>
 5   0  0.1077140E-03  0.1273180E+04  0.7818609E-02  0.9051108E-01
        1   -1    0    0  501    0  0.00000000000E+00  0.00000000000E+00  0.75577153716E+03  0.75577153718E+03  0.50400001928E-02 0. -1.
       -1   -1    0    0    0  501  0.00000000000E+00  0.00000000000E+00 -0.53620306802E+03  0.53620306804E+03  0.50400001928E-02 0.  1.
    10030    2    1    2    0    0  0.00000000000E+00  0.00000000000E+00  0.21956846914E+03  0.12919746052E+04  0.12731802967E+04 0.  0.
        1    1    3    3  502    0 -0.60564108603E+03  0.19011557297E+03  0.61097233184E+02  0.63771304527E+03  0.50400001928E-02 0. -1.
       -1    1    3    3    0  502  0.60564108603E+03 -0.19011557297E+03  0.15847123596E+03  0.65426155995E+03  0.50400001928E-02 0.  1.
</event>
<event>
 5   0  0.1961098E-03  0.1530929E+04  0.7818609E-02  0.8864142E-01
       -2   -1    0    0    0  501  0.00000000000E+00  0.00000000000E+00  0.60591188458E+03  0.60591188459E+03  0.25500000920E-02 0. -1.
        2   -1    0    0  501    0  0.00000000000E+00  0.00000000000E+00 -0.96703121058E+03  0.96703121058E+03  0.25500000920E-02 0.  1.
    10030    2    1    2    0    0  0.00000000000E+00  0.00000000000E+00 -0.36111932600E+03  0.15729430952E+04  0.15309287420E+04 0.  0.
        2    1    3    3  502    0 -0.65079389294E+03  0.39386688896E+03 -0.92944037874E+02  0.76635658246E+03  0.25500000920E-02 0. -1.
       -2    1    3    3    0  502  0.65079389294E+03 -0.39386688896E+03 -0.26817528812E+03  0.80658651270E+03  0.25500000920E-02 0.  1.
</event>
<event>
 5   0  0.1069697E-03  0.1184014E+04  0.7818609E-02  0.9126965E-01
        1   -1    0    0  501    0  0.00000000000E+00  0.00000000000E+00  0.10853862960E+04  0.10853862960E+04  0.50400001928E-02 0. -1.
       -1   -1    0    0    0  501  0.00000000000E+00  0.00000000000E+00 -0.32290086162E+03  0.32290086166E+03  0.50400001928E-02 0.  1.
    10030    2    1    2    0    0  0.00000000000E+00  0.00000000000E+00  0.76248543438E+03  0.14082871577E+04  0.11840138009E+04 0.  0.
        2    1    3    3  502    0  0.38366961362E+03  0.18439829299E+03 -0.10810851842E+03  0.43919534906E+03  0.25500000920E-02 0.  1.
       -2    1    3    3    0  502 -0.38366961362E+03 -0.18439829299E+03  0.87059395280E+03  0.96909180862E+03  0.25500000920E-02 0. -1.
</event>
<event>
 5   0  0.2150197E-03  0.1539230E+04  0.7818609E-02  0.8858777E-01
       -2   -1    0    0    0  501  0.00000000000E+00  0.00000000000E+00  0.76269336597E+03  0.76269336598E+03  0.25500000920E-02 0. -1.
        2   -1    0    0  501    0  0.00000000000E+00  0.00000000000E+00 -0.77659906000E+03  0.77659906001E+03  0.25500000920E-02 0.  1.
    10030    2    1    2    0    0  0.00000000000E+00  0.00000000000E+00 -0.13905694029E+02  0.15392924260E+04  0.15392296139E+04 0.  0.
        3    1    3    3  502    0  0.59290192047E+03  0.40955904109E+03 -0.27721495382E+03  0.77208771280E+03  0.10100000352E+00 0.  1.
       -3    1    3    3    0  502 -0.59290192047E+03 -0.40955904109E+03  0.26330925979E+03  0.76720471318E+03  0.10100000352E+00 0. -1.
</event>
<event>
 5   0  0.2111533E-03  0.1526769E+04  0.7818609E-02  0.8866845E-01
       -2   -1    0    0    0  501  0.00000000000E+00  0.00000000000E+00  0.10795616747E+04  0.10795616747E+04  0.25500000920E-02 0. -1.
        2   -1    0    0  501    0  0.00000000000E+00  0.00000000000E+00 -0.53980761450E+03  0.53980761451E+03  0.25500000920E-02 0.  1.
    10030    2    1    2    0    0  0.00000000000E+00  0.00000000000E+00  0.53975406016E+03  0.16193692892E+04  0.15267686299E+04 0.  0.
        5    1    3    3  502    0  0.62989510958E+03 -0.39793438606E+03  0.44613003340E+03  0.86843175977E+03  0.46999998093E+01 0. -1.
       -5    1    3    3    0  502 -0.62989510958E+03  0.39793438606E+03  0.93624026753E+02  0.75093752940E+03  0.46999998093E+01 0.  1.
</event>
<event>
 5   0  0.1078787E-03  0.1527527E+04  0.7818609E-02  0.8866351E-01
       -1   -1    0    0    0  501  0.00000000000E+00  0.00000000000E+00  0.49251533372E+03  0.49251533374E+03  0.50400001928E-02 0. -1.
        1   -1    0    0  501    0  0.00000000000E+00  0.00000000000E+00 -0.11843990519E+04  0.11843990519E+04  0.50400001928E-02 0.  1.
    10030    2    1    2    0    0  0.00000000000E+00  0.00000000000E+00 -0.69188371815E+03  0.16769143856E+04  0.15275270136E+04 0.  0.
        5    1    3    3  502    0  0.13917154046E+02 -0.68848643224E+03 -0.70855623188E+03  0.98806947037E+03  0.46999998093E+01 0.  1.
       -5    1    3    3    0  502 -0.13917154046E+02  0.68848643224E+03  0.16672513728E+02  0.68884491525E+03  0.46999998093E+01 0. -1.
</event>
<event>
 5   0  0.1078787E-03  0.1467749E+04  0.7818609E-02  0.8906187E-01
       -1   -1    0    0    0  501  0.00000000000E+00  0.00000000000E+00  0.45147572242E+03  0.45147572245E+03  0.50400001928E-02 0.  1.
        1   -1    0    0  501    0  0.00000000000E+00  0.00000000000E+00 -0.11929138782E+04  0.11929138782E+04  0.50400001928E-02 0. -1.
    10030    2    1    2    0    0  0.00000000000E+00  0.00000000000E+00 -0.74143815579E+03  0.16443896007E+04  0.14677488273E+04 0.  0.
        5    1    3    3  502    0 -0.29486119041E+03 -0.29512952032E+03 -0.10471208399E+04  0.11271773147E+04  0.46999998093E+01 0. -1.
       -5    1    3    3    0  502  0.29486119041E+03  0.29512952032E+03  0.30568268414E+03  0.51721228597E+03  0.46999998093E+01 0.  1.
</event>
<event>
 5   0  0.2094566E-03  0.1487414E+04  0.7818609E-02  0.8892866E-01
        2   -1    0    0  501    0  0.00000000000E+00  0.00000000000E+00  0.49973538775E+03  0.49973538775E+03  0.25500000920E-02 0.  1.
       -2   -1    0    0    0  501  0.00000000000E+00  0.00000000000E+00 -0.11067853978E+04  0.11067853978E+04  0.25500000920E-02 0. -1.
    10030    2    1    2    0    0  0.00000000000E+00  0.00000000000E+00 -0.60705001004E+03  0.16065207855E+04  0.14874136344E+04 0.  0.
        1    1    3    3  502    0 -0.52254962066E+03  0.18568440978E+03 -0.83874961835E+03  0.10055037187E+04  0.50400001928E-02 0. -1.
       -1    1    3    3    0  502  0.52254962066E+03 -0.18568440978E+03  0.23169960831E+03  0.60101706681E+03  0.50400001928E-02 0.  1.
</event>
<event>
 5   0  0.1993623E-03  0.1489661E+04  0.7818609E-02  0.8891358E-01
        2   -1    0    0  501    0  0.00000000000E+00  0.00000000000E+00  0.23834442628E+04  0.23834442628E+04  0.25500000920E-02 0. -1.
       -2   -1    0    0    0  501  0.00000000000E+00  0.00000000000E+00 -0.23276073223E+03  0.23276073224E+03  0.25500000920E-02 0.  1.
    10030    2    1    2    0    0  0.00000000000E+00  0.00000000000E+00  0.21506835306E+04  0.26162049950E+04  0.14896606753E+04 0.  0.
        4    1    3    3  502    0 -0.33363635546E+03  0.29350471638E+03  0.25537215093E+02  0.44509774037E+03  0.12699999809E+01 0.  1.
       -4    1    3    3    0  502  0.33363635546E+03 -0.29350471638E+03  0.21251463155E+04  0.21711072547E+04  0.12699999809E+01 0. -1.
</event>
<event>
 5   0  0.1069697E-03  0.1533729E+04  0.7818609E-02  0.8862328E-01
       -1   -1    0    0    0  501  0.00000000000E+00  0.00000000000E+00  0.64887535202E+03  0.64887535204E+03  0.50400001928E-02 0. -1.
        1   -1    0    0  501    0  0.00000000000E+00  0.00000000000E+00 -0.90630800782E+03  0.90630800784E+03  0.50400001928E-02 0.  1.
    10030    2    1    2    0    0  0.00000000000E+00  0.00000000000E+00 -0.25743265580E+03  0.15551833599E+04  0.15337286952E+04 0.  0.
        2    1    3    3  502    0  0.53804447668E+02  0.76411591969E+03 -0.91975919982E+02  0.77150996570E+03  0.25500000920E-02 0. -1.
       -2    1    3    3    0  502 -0.53804447668E+02 -0.76411591969E+03 -0.16545673582E+03  0.78367339418E+03  0.25500000920E-02 0.  1.
</event>
<event>
 5   0  0.1078018E-03  0.1522826E+04  0.7818609E-02  0.8869414E-01
       -1   -1    0    0    0  501  0.00000000000E+00  0.00000000000E+00  0.93168587774E+03  0.93168587776E+03  0.50400001928E-02 0.  1.
        1   -1    0    0  501    0  0.00000000000E+00  0.00000000000E+00 -0.62225895666E+03  0.62225895668E+03  0.50400001928E-02 0. -1.
    10030    2    1    2    0    0  0.00000000000E+00  0.00000000000E+00  0.30942692108E+03  0.15539448344E+04  0.15228261651E+04 0.  0.
        4    1    3    3  502    0 -0.54829984462E+03 -0.52363832564E+03  0.22627827651E+03  0.79122265325E+03  0.12699999809E+01 0. -1.
       -4    1    3    3    0  502  0.54829984462E+03  0.52363832564E+03  0.83148644576E+02  0.76272218119E+03  0.12699999809E+01 0.  1.
</event>
<event>
 5   0  0.2111533E-03  0.1506398E+04  0.7818609E-02  0.8880209E-01
       -2   -1    0    0    0  501  0.00000000000E+00  0.00000000000E+00  0.38970538292E+03  0.38970538293E+03  0.25500000920E-02 0. -1.
        2   -1    0    0  501    0  0.00000000000E+00  0.00000000000E+00 -0.14557374930E+04  0.14557374930E+04  0.25500000920E-02 0.  1.
    10030    2    1    2    0    0  0.00000000000E+00  0.00000000000E+00 -0.10660321101E+04  0.18454428760E+04  0.15063980047E+04 0.  0.
        5    1    3    3  502    0 -0.68403055281E+03 -0.13048019817E+03 -0.88459995376E+03  0.11258161695E+04  0.46999998093E+01 0.  1.
       -5    1    3    3    0  502  0.68403055281E+03  0.13048019817E+03 -0.18143215634E+03  0.71962670646E+03  0.46999998093E+01 0. -1.
</event>
<event>
 5   0  0.1077140E-03  0.1502655E+04  0.7818609E-02  0.8882689E-01
        1   -1    0    0  501    0  0.00000000000E+00  0.00000000000E+00  0.18779688124E+04  0.18779688124E+04  0.50400001928E-02 0. -1.
       -1   -1    0    0    0  501  0.00000000000E+00  0.00000000000E+00 -0.30058717878E+03  0.30058717883E+03  0.50400001928E-02 0.  1.
    10030    2    1    2    0    0  0.00000000000E+00  0.00000000000E+00  0.15773816336E+04  0.21785559912E+04  0.15026554458E+04 0.  0.
        1    1    3    3  502    0  0.62587141829E+03  0.39690726938E+03  0.60969470058E+03  0.95967600817E+03  0.50400001928E-02 0.  1.
       -1    1    3    3    0  502 -0.62587141829E+03 -0.39690726938E+03  0.96768693302E+03  0.12188799831E+04  0.50400001928E-02 0. -1.
</event>
<event>
 5   0  0.2111533E-03  0.1495835E+04  0.7818609E-02  0.8887227E-01
        2   -1    0    0  501    0  0.00000000000E+00  0.00000000000E+00  0.63565008301E+03  0.63565008301E+03  0.25500000920E-02 0.  1.
       -2   -1    0    0    0  501  0.00000000000E+00  0.00000000000E+00 -0.88001333307E+03  0.88001333307E+03  0.25500000920E-02 0. -1.
    10030    2    1    2    0    0  0.00000000000E+00  0.00000000000E+00 -0.24436325006E+03  0.15156634161E+04  0.14958349484E+04 0.  0.
        5    1    3    3  502    0  0.40875117874E+03  0.17791290309E+03  0.48630182772E+03  0.65972879644E+03  0.46999998093E+01 0.  1.
       -5    1    3    3    0  502 -0.40875117874E+03 -0.17791290309E+03 -0.73066507778E+03  0.85593461964E+03  0.46999998093E+01 0. -1.
</event>
<event>
 5   0  0.1069697E-03  0.1360467E+04  0.7818609E-02  0.8982943E-01
        1   -1    0    0  501    0  0.00000000000E+00  0.00000000000E+00  0.21892281117E+04  0.21892281117E+04  0.50400001928E-02 0.  1.
       -1   -1    0    0    0  501  0.00000000000E+00  0.00000000000E+00 -0.21136097282E+03  0.21136097288E+03  0.50400001928E-02 0. -1.
    10030    2    1    2    0    0  0.00000000000E+00  0.00000000000E+00  0.19778671389E+04  0.24005890846E+04  0.13604666604E+04 0.  0.
        2    1    3    3  502    0 -0.79699192402E+02 -0.70422577429E+02 -0.19659937544E+03  0.22352318697E+03  0.25500000920E-02 0. -1.
       -2    1    3    3    0  502  0.79699192402E+02  0.70422577429E+02  0.21744665144E+04  0.21770658977E+04  0.25500000920E-02 0.  1.
</event>
<event>
 5   0  0.2094566E-03  0.1667376E+04  0.7818609E-02  0.8780193E-01
        2   -1    0    0  501    0  0.00000000000E+00  0.00000000000E+00  0.94024998794E+03  0.94024998795E+03  0.25500000920E-02 0.  1.
       -2   -1    0    0    0  501  0.00000000000E+00  0.00000000000E+00 -0.73920265793E+03  0.73920265794E+03  0.25500000920E-02 0. -1.
    10030    2    1    2    0    0  0.00000000000E+00  0.00000000000E+00  0.20104733001E+03  0.16794526459E+04  0.16673755308E+04 0.  0.
        1    1    3    3  502    0  0.55408215086E+02 -0.13130377699E+03  0.92788951545E+03  0.93877031539E+03  0.50400001928E-02 0.  1.
       -1    1    3    3    0  502 -0.55408215086E+02  0.13130377699E+03 -0.72684218544E+03  0.74068233050E+03  0.50400001928E-02 0. -1.
</event>
<event>
 5   0  0.1961098E-03  0.1452383E+04  0.7818609E-02  0.8916750E-01
       -2   -1    0    0    0  501  0.00000000000E+00  0.00000000000E+00  0.49352271690E+03  0.49352271690E+03  0.25500000920E-02 0. -1.
        2   -1    0    0  501    0  0.00000000000E+00  0.00000000000E+00 -0.10685506373E+04  0.10685506373E+04  0.25500000920E-02 0.  1.
    10030    2    1    2    0    0  0.00000000000E+00  0.00000000000E+00 -0.57502792040E+03  0.15620733542E+04  0.14523828884E+04 0.  0.
        2    1    3    3  502    0  0.57270948999E+03  0.30617977459E+03  0.62009653407E+02  0.65237060894E+03  0.25500000920E-02 0. -1.
       -2    1    3    3    0  502 -0.57270948999E+03 -0.30617977459E+03 -0.63703757380E+03  0.90970274526E+03  0.25500000920E-02 0.  1.
</event>
<event>
 5   0  0.7468375E-04  0.1486262E+04  0.7818609E-02  0.8893640E-01
        3   -1    0    0  501    0  0.00000000000E+00  0.00000000000E+00  0.47238682307E+03  0.47238683387E+03  0.10100000352E+00 0.  1.
       -3   -1    0    0    0  501  0.00000000000E+00  0.00000000000E+00 -0.11690495214E+04  0.11690495257E+04  0.10100000352E+00 0. -1.
    10030    2    1    2    0    0  0.00000000000E+00  0.00000000000E+00 -0.69666269828E+03  0.16414363596E+04  0.14862618906E+04 0.  0.
        3    1    3    3  502    0  0.23492126807E+03 -0.55535278993E+03  0.13134057367E+03  0.61713457201E+03  0.10100000352E+00 0.  1.
       -3    1    3    3    0  502 -0.23492126807E+03  0.55535278993E+03 -0.82800327195E+03  0.10243017876E+04  0.10100000352E+00 0. -1.
</event>
<event>
 5   0  0.1078018E-03  0.1489776E+04  0.7818609E-02  0.8891280E-01
       -1   -1    0    0    0  501  0.00000000000E+00  0.00000000000E+00  0.31519075697E+03  0.31519075701E+03  0.50400001928E-02 0. -1.
        1   -1    0    0  501    0  0.00000000000E+00  0.00000000000E+00 -0.17603891083E+04  0.17603891083E+04  0.50400001928E-02 0.  1.
    10030    2    1    2    0    0  0.00000000000E+00  0.00000000000E+00 -0.14451983514E+04  0.20755798654E+04  0.14897763264E+04 0.  0.
        4    1    3    3  502    0 -0.52933328322E+03 -0.42259924594E+02 -0.14503822565E+04  0.15445355059E+04  0.12699999809E+01 0.  1.
       -4    1    3    3    0  502  0.52933328322E+03  0.42259924594E+02  0.51839051703E+01  0.53104435947E+03  0.12699999809E+01 0. -1.
</event>
<event>
 5   0  0.1993623E-03  0.7901748E+03  0.7818609E-02  0.9574349E-01
       -2   -1    0    0    0  501  0.00000000000E+00  0.00000000000E+00  0.16380975707E+03  0.16380975709E+03  0.25500000920E-02 0. -1.
        2   -1    0    0  501    0  0.00000000000E+00  0.00000000000E+00 -0.95289840392E+03  0.95289840392E+03  0.25500000920E-02 0.  1.
    10030    2    1    2    0    0  0.00000000000E+00  0.00000000000E+00 -0.78908864685E+03  0.11167081610E+04  0.79017480615E+03 0.  0.
        4    1    3    3  502    0 -0.17052748868E+03  0.27139791451E+03 -0.72098788377E+03  0.78902572444E+03  0.12699999809E+01 0.  1.
       -4    1    3    3    0  502  0.17052748868E+03 -0.27139791451E+03 -0.68100763083E+02  0.32768243656E+03  0.12699999809E+01 0. -1.
</event>
<event>
 5   0  0.2111533E-03  0.1450742E+04  0.7818609E-02  0.8917886E-01
        2   -1    0    0  501    0  0.00000000000E+00  0.00000000000E+00  0.20076875551E+04  0.20076875551E+04  0.25500000920E-02 0.  1.
       -2   -1    0    0    0  501  0.00000000000E+00  0.00000000000E+00 -0.26207415636E+03  0.26207415637E+03  0.25500000920E-02 0. -1.
    10030    2    1    2    0    0  0.00000000000E+00  0.00000000000E+00  0.17456133987E+04  0.22697617114E+04  0.14507419098E+04 0.  0.
        5    1    3    3  502    0  0.60908450641E+03 -0.17193104233E+03  0.14272782208E+04  0.15613101642E+04  0.46999998093E+01 0.  1.
       -5    1    3    3    0  502 -0.60908450641E+03  0.17193104233E+03  0.31833517787E+03  0.70845154720E+03  0.46999998093E+01 0. -1.
</event>
<event>
 5   0  0.1077140E-03  0.1513944E+04  0.7818609E-02  0.8875233E-01
        1   -1    0    0  501    0  0.00000000000E+00  0.00000000000E+00  0.75618386944E+03  0.75618386945E+03  0.50400001928E-02 0. -1.
       -1   -1    0    0    0  501  0.00000000000E+00  0.00000000000E+00 -0.75776081787E+03  0.75776081789E+03  0.50400001928E-02 0.  1.
    10030    2    1    2    0    0  0.00000000000E+00  0.00000000000E+00 -0.15769484370E+01  0.15139446873E+04  0.15139438661E+04 0.  0.
        1    1    3    3  502    0  0.18227295173E+03 -0.24280370456E+03  0.69263056300E+03  0.75625006757E+03  0.50400001928E-02 0. -1.
       -1    1    3    3    0  502 -0.18227295173E+03  0.24280370456E+03 -0.69420751143E+03  0.75769461977E+03  0.50400001928E-02 0.  1.
</event>
<event>
 5   0  0.1993623E-03  0.1495266E+04  0.7818609E-02  0.8887607E-01
        2   -1    0    0  501    0  0.00000000000E+00  0.00000000000E+00  0.91432626182E+03  0.91432626183E+03  0.25500000920E-02 0. -1.
       -2   -1    0    0    0  501  0.00000000000E+00  0.00000000000E+00 -0.61132980631E+03  0.61132980631E+03  0.25500000920E-02 0.  1.
    10030    2    1    2    0    0  0.00000000000E+00  0.00000000000E+00  0.30299645552E+03  0.15256560681E+04  0.14952657243E+04 0.  0.
        4    1    3    3  502    0  0.46630288024E+03 -0.46346458166E+03  0.51470431170E+03  0.83496103859E+03  0.12699999809E+01 0.  1.
       -4    1    3    3    0  502 -0.46630288024E+03  0.46346458166E+03 -0.21170785618E+03  0.69069502955E+03  0.12699999809E+01 0. -1.
</event>
<event>
 5   0  0.1087761E-03  0.1512249E+04  0.7818609E-02  0.8876348E-01
       -1   -1    0    0    0  501  0.00000000000E+00  0.00000000000E+00  0.12205607981E+04  0.12205607981E+04  0.50400001928E-02 0.  1.
        1   -1    0    0  501    0  0.00000000000E+00  0.00000000000E+00 -0.46841112178E+03  0.46841112181E+03  0.50400001928E-02 0. -1.
    10030    2    1    2    0    0  0.00000000000E+00  0.00000000000E+00  0.75214967632E+03  0.16889719199E+04  0.15122489910E+04 0.  0.
        3    1    3    3  502    0 -0.11904422732E+03  0.53896641779E+03 -0.20110344726E+03  0.58745121862E+03  0.10100000352E+00 0. -1.
       -3    1    3    3    0  502  0.11904422732E+03 -0.53896641779E+03  0.95325312358E+03  0.11015207013E+04  0.10100000352E+00 0.  1.
</event>
<event>
 5   0  0.1069697E-03  0.1477231E+04  0.7818609E-02  0.8899737E-01
        1   -1    0    0  501    0  0.00000000000E+00  0.00000000000E+00  0.11580809627E+04  0.11580809627E+04  0.50400001928E-02 0.  1.
       -1   -1    0    0    0  501  0.00000000000E+00  0.00000000000E+00 -0.47108345604E+03  0.47108345607E+03  0.50400001928E-02 0. -1.
    10030    2    1    2    0    0  0.00000000000E+00  0.00000000000E+00  0.68699750668E+03  0.16291644188E+04  0.14772308991E+04 0.  0.
        2    1    3    3  502    0  0.25992625225E+03  0.65127603135E+03  0.59937582521E+03  0.92248225212E+03  0.25500000920E-02 0. -1.
       -2    1    3    3    0  502 -0.25992625225E+03 -0.65127603135E+03  0.87621681472E+02  0.70668216667E+03  0.25500000920E-02 0.  1.
</event>
<event>
 5   0  0.1069697E-03  0.1403954E+04  0.7818609E-02  0.8950962E-01
        1   -1    0    0  501    0  0.00000000000E+00  0.00000000000E+00  0.30154935219E+04  0.30154935219E+04  0.50400001928E-02 0.  1.
       -1   -1    0    0    0  501  0.00000000000E+00  0.00000000000E+00 -0.16341322602E+03  0.16341322610E+03  0.50400001928E-02 0. -1.
    10030    2    1    2    0    0  0.00000000000E+00  0.00000000000E+00  0.28520802959E+04  0.31789067480E+04  0.14039537380E+04 0.  0.
        2    1    3    3  502    0  0.21145336641E+03  0.52077296776E+03  0.47382942913E+03  0.73514035260E+03  0.25500000920E-02 0.  1.
       -2    1    3    3    0  502 -0.21145336641E+03 -0.52077296776E+03  0.23782508667E+04  0.24437663954E+04  0.25500000920E-02 0. -1.
</event>
<event>
 5   0  0.1077140E-03  0.1551080E+04  0.7818609E-02  0.8851178E-01
       -1   -1    0    0    0  501  0.00000000000E+00  0.00000000000E+00  0.48264032897E+03  0.48264032899E+03  0.50400001928E-02 0.  1.
        1   -1    0    0  501    0  0.00000000000E+00  0.00000000000E+00 -0.12461910459E+04  0.12461910459E+04  0.50400001928E-02 0. -1.
    10030    2    1    2    0    0  0.00000000000E+00  0.00000000000E+00 -0.76355071689E+03  0.17288313749E+04  0.15510796967E+04 0.  0.
        1    1    3    3  502    0  0.25086851173E+03 -0.16516908519E+03  0.41517923335E+03  0.51243500340E+03  0.50400001928E-02 0.  1.
       -1    1    3    3    0  502 -0.25086851173E+03  0.16516908519E+03 -0.11787299502E+04  0.12163963715E+04  0.50400001928E-02 0. -1.
</event>
<event>
 5   0  0.1078787E-03  0.1565089E+04  0.7818609E-02  0.8842287E-01
       -1   -1    0    0    0  501  0.00000000000E+00  0.00000000000E+00  0.75906888316E+03  0.75906888317E+03  0.50400001928E-02 0.  1.
        1   -1    0    0  501    0  0.00000000000E+00  0.00000000000E+00 -0.80674664378E+03  0.80674664380E+03  0.50400001928E-02 0. -1.
    10030    2    1    2    0    0  0.00000000000E+00  0.00000000000E+00 -0.47677760626E+02  0.15658155270E+04  0.15650894849E+04 0.  0.
        5    1    3    3  502    0  0.40283904728E+03 -0.63781350180E+03  0.18426920889E+03  0.77657104790E+03  0.46999998093E+01 0.  1.
       -5    1    3    3    0  502 -0.40283904728E+03  0.63781350180E+03 -0.23194696952E+03  0.78924447908E+03  0.46999998093E+01 0. -1.
</event>
<event>
 5   0  0.1069697E-03  0.1503630E+04  0.7818609E-02  0.8882043E-01
        1   -1    0    0  501    0  0.00000000000E+00  0.00000000000E+00  0.56954550563E+03  0.56954550566E+03  0.50400001928E-02 0.  1.
       -1   -1    0    0    0  501  0.00000000000E+00  0.00000000000E+00 -0.99241524028E+03  0.99241524029E+03  0.50400001928E-02 0. -1.
    10030    2    1    2    0    0  0.00000000000E+00  0.00000000000E+00 -0.42286973464E+03  0.15619607459E+04  0.15036297947E+04 0.  0.
        2    1    3    3  502    0  0.99874085677E+02  0.65309704686E+03 -0.58412154169E+03  0.88187786064E+03  0.25500000920E-02 0. -1.
       -2    1    3    3    0  502 -0.99874085677E+02 -0.65309704686E+03  0.16125180705E+03  0.68008288531E+03  0.25500000920E-02 0.  1.
</event>
<event>
 5   0  0.1993623E-03  0.1451141E+04  0.7818609E-02  0.8917610E-01
        2   -1    0    0  501    0  0.00000000000E+00  0.00000000000E+00  0.16842029977E+04  0.16842029977E+04  0.25500000920E-02 0. -1.
       -2   -1    0    0    0  501  0.00000000000E+00  0.00000000000E+00 -0.31258279847E+03  0.31258279848E+03  0.25500000920E-02 0.  1.
    10030    2    1    2    0    0  0.00000000000E+00  0.00000000000E+00  0.13716201992E+04  0.19967857961E+04  0.14511414627E+04 0.  0.
        4    1    3    3  502    0  0.26554696396E+03  0.62378443055E+03  0.10415269416E+04  0.12427397913E+04  0.12699999809E+01 0. -1.
       -4    1    3    3    0  502 -0.26554696396E+03 -0.62378443055E+03  0.33009325762E+03  0.75404600488E+03  0.12699999809E+01 0.  1.
</event>
<event>
 5   0  0.1993623E-03  0.1249750E+04  0.7818609E-02  0.9070391E-01
        2   -1    0    0  501    0  0.00000000000E+00  0.00000000000E+00  0.25317240330E+03  0.25317240331E+03  0.25500000920E-02 0.  1.
       -2   -1    0    0    0  501  0.00000000000E+00  0.00000000000E+00 -0.15423043459E+04  0.15423043459E+04  0.25500000920E-02 0. -1.
    10030    2    1    2    0    0  0.00000000000E+00  0.00000000000E+00 -0.12891319426E+04  0.17954767492E+04  0.12497502117E+04 0.  0.
        4    1    3    3  502    0 -0.14349502952E+03  0.77799363136E+01  0.22910795774E+03  0.27045040230E+03  0.12699999809E+01 0.  1.
       -4    1    3    3    0  502  0.14349502952E+03 -0.77799363136E+01 -0.15182399004E+04  0.15250263469E+04  0.12699999809E+01 0. -1.
</event>
<event>
 5   0  0.2094566E-03  0.1461119E+04  0.7818609E-02  0.8910728E-01
        2   -1    0    0  501    0  0.00000000000E+00  0.00000000000E+00  0.57393910690E+03  0.57393910691E+03  0.25500000920E-02 0.  1.
       -2   -1    0    0    0  501  0.00000000000E+00  0.00000000000E+00 -0.92991991342E+03  0.92991991342E+03  0.25500000920E-02 0. -1.
    10030    2    1    2    0    0  0.00000000000E+00  0.00000000000E+00 -0.35598080652E+03  0.15038590203E+04  0.14611193033E+04 0.  0.
        1    1    3    3  502    0 -0.69596537102E+03 -0.14950531798E+03 -0.34710666407E+03  0.79196128316E+03  0.50400001928E-02 0.  1.
       -1    1    3    3    0  502  0.69596537102E+03  0.14950531798E+03 -0.88741424470E+01  0.71189773717E+03  0.50400001928E-02 0. -1.
</event>
<event>
 5   0  0.1078018E-03  0.1501648E+04  0.7818609E-02  0.8883358E-01
       -1   -1    0    0    0  501  0.00000000000E+00  0.00000000000E+00  0.41529372987E+03  0.41529372990E+03  0.50400001928E-02 0.  1.
        1   -1    0    0  501    0  0.00000000000E+00  0.00000000000E+00 -0.13574409459E+04  0.13574409459E+04  0.50400001928E-02 0. -1.
    10030    2    1    2    0    0  0.00000000000E+00  0.00000000000E+00 -0.94214721607E+03  0.17727346758E+04  0.15016480460E+04 0.  0.
        4    1    3    3  502    0  0.12986676424E+02 -0.66764393391E+03 -0.65862396946E+02  0.67101158297E+03  0.12699999809E+01 0.  1.
       -4    1    3    3    0  502 -0.12986676424E+02  0.66764393391E+03 -0.87628481912E+03  0.11017230929E+04  0.12699999809E+01 0. -1.
</event>
<event>
 5   0  0.1078018E-03  0.1488668E+04  0.7818609E-02  0.8892024E-01
        1   -1    0    0  501    0  0.00000000000E+00  0.00000000000E+00  0.52056107804E+03  0.52056107806E+03  0.50400001928E-02 0. -1.
       -1   -1    0    0    0  501  0.00000000000E+00  0.00000000000E+00 -0.10642995907E+04  0.10642995907E+04  0.50400001928E-02 0.  1.
    10030    2    1    2    0    0  0.00000000000E+00  0.00000000000E+00 -0.54373851270E+03  0.15848606688E+04  0.14886677834E+04 0.  0.
        4    1    3    3  502    0  0.40571665188E+03  0.53518423837E+03  0.69809965772E+02  0.67520605361E+03  0.12699999809E+01 0. -1.
       -4    1    3    3    0  502 -0.40571665188E+03 -0.53518423837E+03 -0.61354847847E+03  0.90965461520E+03  0.12699999809E+01 0.  1.
</event>
<event>
 5   0  0.2111533E-03  0.1481769E+04  0.7818609E-02  0.8896667E-01
        2   -1    0    0  501    0  0.00000000000E+00  0.00000000000E+00  0.89878276381E+03  0.89878276381E+03  0.25500000920E-02 0.  1.
       -2   -1    0    0    0  501  0.00000000000E+00  0.00000000000E+00 -0.61072606549E+03  0.61072606550E+03  0.25500000920E-02 0. -1.
    10030    2    1    2    0    0  0.00000000000E+00  0.00000000000E+00  0.28805669832E+03  0.15095088293E+04  0.14817692952E+04 0.  0.
        5    1    3    3  502    0 -0.44878854271E+03  0.58116170779E+03  0.24450479567E+03  0.77392814380E+03  0.46999998093E+01 0.  1.
       -5    1    3    3    0  502  0.44878854271E+03 -0.58116170779E+03  0.43551902652E+02  0.73558068551E+03  0.46999998093E+01 0. -1.
</event>
<event>
 5   0  0.1078787E-03  0.1525021E+04  0.7818609E-02  0.8867983E-01
       -1   -1    0    0    0  501  0.00000000000E+00  0.00000000000E+00  0.33621741962E+03  0.33621741965E+03  0.50400001928E-02 0. -1.
        1   -1    0    0  501    0  0.00000000000E+00  0.00000000000E+00 -0.17293041101E+04  0.17293041101E+04  0.50400001928E-02 0.  1.
    10030    2    1    2    0    0  0.00000000000E+00  0.00000000000E+00 -0.13930866904E+04  0.20655215297E+04  0.15250208729E+04 0.  0.
        5    1    3    3  502    0 -0.35043029597E+02  0.38197294457E+03  0.19600801929E+03  0.43078135746E+03  0.46999998093E+01 0. -1.
       -5    1    3    3    0  502  0.35043029597E+02 -0.38197294457E+03 -0.15890947097E+04  0.16347401723E+04  0.46999998093E+01 0.  1.
</event>
<event>
 5   0  0.7468375E-04  0.1802773E+04  0.7818609E-02  0.8704826E-01
       -3   -1    0    0    0  501  0.00000000000E+00  0.00000000000E+00  0.57570035546E+03  0.57570036432E+03  0.10100000352E+00 0. -1.
        3   -1    0    0  501    0  0.00000000000E+00  0.00000000000E+00 -0.14113202910E+04  0.14113202946E+04  0.10100000352E+00 0.  1.
    10030    2    1    2    0    0  0.00000000000E+00  0.00000000000E+00 -0.83561993551E+03  0.19870206589E+04  0.18027729813E+04 0.  0.
        4    1    3    3  502    0  0.37754124676E+03  0.81794984842E+03 -0.38443952573E+03  0.97947675286E+03  0.12699999809E+01 0. -1.
       -4    1    3    3    0  502 -0.37754124676E+03 -0.81794984842E+03 -0.45118040978E+03  0.10075439060E+04  0.12699999809E+01 0.  1.
</event>
<event>
 5   0  0.1961098E-03  0.1484581E+04  0.7818609E-02  0.8894772E-01
       -2   -1    0    0    0  501  0.00000000000E+00  0.00000000000E+00  0.25525278470E+03  0.25525278471E+03  0.25500000920E-02 0.  1.
        2   -1    0    0  501    0  0.00000000000E+00  0.00000000000E+00 -0.21586244759E+04  0.21586244759E+04  0.25500000920E-02 0. -1.
    10030    2    1    2    0    0  0.00000000000E+00  0.00000000000E+00 -0.19033716912E+04  0.24138772606E+04  0.14845806258E+04 0.  0.
        2    1    3    3  502    0  0.37300595667E+03 -0.59508995689E+03 -0.13423557420E+04  0.15149866134E+04  0.25500000920E-02 0. -1.
       -2    1    3    3    0  502 -0.37300595667E+03  0.59508995689E+03 -0.56101594919E+03  0.89889064727E+03  0.25500000920E-02 0.  1.
</event>
<event>
 5   0  0.1087761E-03  0.1440854E+04  0.7818609E-02  0.8924766E-01
       -1   -1    0    0    0  501  0.00000000000E+00  0.00000000000E+00  0.36374822501E+03  0.36374822504E+03  0.50400001928E-02 0.  1.
        1   -1    0    0  501    0  0.00000000000E+00  0.00000000000E+00 -0.14268516827E+04  0.14268516827E+04  0.50400001928E-02 0. -1.
    10030    2    1    2    0    0  0.00000000000E+00  0.00000000000E+00 -0.10631034577E+04  0.17905999078E+04  0.14408535900E+04 0.  0.
        3    1    3    3  502    0 -0.22328851905E+03  0.14569501372E+03  0.30018093815E+03  0.40148898564E+03  0.10100000352E+00 0.  1.
       -3    1    3    3    0  502  0.22328851905E+03 -0.14569501372E+03 -0.13632843959E+04  0.13891109221E+04  0.10100000352E+00 0. -1.
</event>
<event>
 5   0  0.2150197E-03  0.1673028E+04  0.7818609E-02  0.8776899E-01
       -2   -1    0    0    0  501  0.00000000000E+00  0.00000000000E+00  0.52072309632E+03  0.52072309632E+03  0.25500000920E-02 0.  1.
        2   -1    0    0  501    0  0.00000000000E+00  0.00000000000E+00 -0.13438152801E+04  0.13438152801E+04  0.25500000920E-02 0. -1.
    10030    2    1    2    0    0  0.00000000000E+00  0.00000000000E+00 -0.82309218374E+03  0.18645383764E+04  0.16730279777E+04 0.  0.
        3    1    3    3  502    0  0.73820114753E+03 -0.76360133342E+02  0.18621515195E+02  0.74237360891E+03  0.10100000352E+00 0.  1.
       -3    1    3    3    0  502 -0.73820114753E+03  0.76360133342E+02 -0.84171369894E+03  0.11221647675E+04  0.10100000352E+00 0. -1.
</event>
<event>
 5   0  0.1993623E-03  0.1482522E+04  0.7818609E-02  0.8896159E-01
        2   -1    0    0  501    0  0.00000000000E+00  0.00000000000E+00  0.11074178565E+04  0.11074178565E+04  0.25500000920E-02 0. -1.
       -2   -1    0    0    0  501  0.00000000000E+00  0.00000000000E+00 -0.49617037239E+03  0.49617037239E+03  0.25500000920E-02 0.  1.
    10030    2    1    2    0    0  0.00000000000E+00  0.00000000000E+00  0.61124748412E+03  0.16035882289E+04  0.14825220811E+04 0.  0.
        4    1    3    3  502    0 -0.20598368188E+03  0.51911182769E+03 -0.22157977898E+03  0.60083739748E+03  0.12699999809E+01 0.  1.
       -4    1    3    3    0  502  0.20598368188E+03 -0.51911182769E+03  0.83282726311E+03  0.10027508314E+04  0.12699999809E+01 0. -1.
</event>
<event>
 5   0  0.1993623E-03  0.1492254E+04  0.7818609E-02  0.8889620E-01
        2   -1    0    0  501    0  0.00000000000E+00  0.00000000000E+00  0.88207285112E+03  0.88207285112E+03  0.25500000920E-02 0. -1.
       -2   -1    0    0    0  501  0.00000000000E+00  0.00000000000E+00 -0.63113302407E+03  0.63113302408E+03  0.25500000920E-02 0.  1.
    10030    2    1    2    0    0  0.00000000000E+00  0.00000000000E+00  0.25093982705E+03  0.15132058752E+04  0.14922537398E+04 0.  0.
        4    1    3    3  502    0  0.74311595788E+03  0.57615084362E+02  0.90890262541E+02  0.75086848218E+03  0.12699999809E+01 0. -1.
       -4    1    3    3    0  502 -0.74311595788E+03 -0.57615084362E+02  0.16004956451E+03  0.76233739302E+03  0.12699999809E+01 0.  1.
</event>
<event>
 5   0  0.1069697E-03  0.1524602E+04  0.7818609E-02  0.8868256E-01
        1   -1    0    0  501    0  0.00000000000E+00  0.00000000000E+00  0.18321558097E+04  0.18321558097E+04  0.50400001928E-02 0.  1.
       -1   -1    0    0    0  501  0.00000000000E+00  0.00000000000E+00 -0.31716869218E+03  0.31716869222E+03  0.50400001928E-02 0. -1.
    10030    2    1    2    0    0  0.00000000000E+00  0.00000000000E+00  0.15149871175E+04  0.21493245019E+04  0.15246015376E+04 0.  0.
        2    1    3    3  502    0  0.27336269254E+03  0.44124691237E+03 -0.29547952872E+02  0.51990295332E+03  0.25500000920E-02 0. -1.
       -2    1    3    3    0  502 -0.27336269254E+03 -0.44124691237E+03  0.15445350704E+04  0.16294215486E+04  0.25500000920E-02 0.  1.
</event>
<event>
 5   0  0.2094566E-03  0.1489381E+04  0.7818609E-02  0.8891545E-01
       -2   -1    0    0    0  501  0.00000000000E+00  0.00000000000E+00  0.84033077961E+03  0.84033077961E+03  0.25500000920E-02 0. -1.
        2   -1    0    0  501    0  0.00000000000E+00  0.00000000000E+00 -0.65993562357E+03  0.65993562357E+03  0.25500000920E-02 0.  1.
    10030    2    1    2    0    0  0.00000000000E+00  0.00000000000E+00  0.18039515604E+03  0.15002664032E+04  0.14893813710E+04 0.  0.
        1    1    3    3  502    0  0.36794866587E+02  0.60368266461E+03 -0.34746326361E+03  0.69750795074E+03  0.50400001928E-02 0.  1.
       -1    1    3    3    0  502 -0.36794866587E+02 -0.60368266461E+03  0.52785841966E+03  0.80275845245E+03  0.50400001928E-02 0. -1.
</event>
<event>
 5   0  0.1077140E-03  0.1516518E+04  0.7818609E-02  0.8873542E-01
        1   -1    0    0  501    0  0.00000000000E+00  0.00000000000E+00  0.44831153166E+03  0.44831153169E+03  0.50400001928E-02 0. -1.
       -1   -1    0    0    0  501  0.00000000000E+00  0.00000000000E+00 -0.12824937559E+04  0.12824937559E+04  0.50400001928E-02 0.  1.
    10030    2    1    2    0    0  0.00000000000E+00  0.00000000000E+00 -0.83418222426E+03  0.17308052876E+04  0.15165180383E+04 0.  0.
        1    1    3    3  502    0  0.43814565504E+03 -0.26313340595E+03  0.22218678228E+03  0.55729504807E+03  0.50400001928E-02 0. -1.
       -1    1    3    3    0  502 -0.43814565504E+03  0.26313340595E+03 -0.10563690065E+04  0.11735102396E+04  0.50400001928E-02 0.  1.
</event>
<event>
 5   0  0.1078787E-03  0.1491016E+04  0.7818609E-02  0.8890449E-01
       -1   -1    0    0    0  501  0.00000000000E+00  0.00000000000E+00  0.52424744233E+03  0.52424744235E+03  0.50400001928E-02 0.  1.
        1   -1    0    0  501    0  0.00000000000E+00  0.00000000000E+00 -0.10601519843E+04  0.10601519843E+04  0.50400001928E-02 0. -1.
    10030    2    1    2    0    0  0.00000000000E+00  0.00000000000E+00 -0.53590454195E+03  0.15843994266E+04  0.14910157159E+04 0.  0.
        5    1    3    3  502    0  0.59580680469E+03  0.32809042606E+03  0.56334417945E+02  0.68251354040E+03  0.46999998093E+01 0.  1.
       -5    1    3    3    0  502 -0.59580680469E+03 -0.32809042606E+03 -0.59223895990E+03  0.90188588625E+03  0.46999998093E+01 0. -1.
</event>
<event>
 5   0  0.2094566E-03  0.1502013E+04  0.7818609E-02  0.8883116E-01
       -2   -1    0    0    0  501  0.00000000000E+00  0.00000000000E+00  0.34342944569E+03  0.34342944570E+03  0.25500000920E-02 0.  1.
        2   -1    0    0  501    0  0.00000000000E+00  0.00000000000E+00 -0.16422896329E+04  0.16422896329E+04  0.25500000920E-02 0. -1.
    10030    2    1    2    0    0  0.00000000000E+00  0.00000000000E+00 -0.12988601872E+04  0.19857190786E+04  0.15020128073E+04 0.  0.
        1    1    3    3  502    0 -0.43476963309E+03  0.12407501483E+03 -0.14422030120E+04  0.15114128393E+04  0.50400001928E-02 0. -1.
       -1    1    3    3    0  502  0.43476963309E+03 -0.12407501483E+03  0.14334282476E+03  0.47430623926E+03  0.50400001928E-02 0.  1.
</event>
<event>
 5   0  0.1078787E-03  0.1543191E+04  0.7818609E-02  0.8856229E-01
        1   -1    0    0  501    0  0.00000000000E+00  0.00000000000E+00  0.14862493813E+04  0.14862493813E+04  0.50400001928E-02 0. -1.
       -1   -1    0    0    0  501  0.00000000000E+00  0.00000000000E+00 -0.40057842326E+03  0.40057842329E+03  0.50400001928E-02 0.  1.
    10030    2    1    2    0    0  0.00000000000E+00  0.00000000000E+00  0.10856709580E+04  0.18868278046E+04  0.15431907643E+04 0.  0.
        5    1    3    3  502    0 -0.86784084845E+02  0.75919310262E+03  0.67356330778E+03  0.10186340187E+04  0.46999998093E+01 0.  1.
       -5    1    3    3    0  502  0.86784084845E+02 -0.75919310262E+03  0.41210765024E+03  0.86819378588E+03  0.46999998093E+01 0. -1.
</event>
<event>
 5   0  0.1087761E-03  0.1506791E+04  0.7818609E-02  0.8879949E-01
       -1   -1    0    0    0  501  0.00000000000E+00  0.00000000000E+00  0.63757373377E+03  0.63757373379E+03  0.50400001928E-02 0. -1.
        1   -1    0    0  501    0  0.00000000000E+00  0.00000000000E+00 -0.89025777492E+03  0.89025777493E+03  0.50400001928E-02 0.  1.
    10030    2    1    2    0    0  0.00000000000E+00  0.00000000000E+00 -0.25268404114E+03  0.15278315087E+04  0.15067912577E+04 0.  0.
        3    1    3    3  502    0  0.36371786761E+03 -0.61257384336E+03  0.12216712457E+03  0.72281547943E+03  0.10100000352E+00 0. -1.
       -3    1    3    3    0  502 -0.36371786761E+03  0.61257384336E+03 -0.37485116571E+03  0.80501602929E+03  0.10100000352E+00 0.  1.
</event>
<event>
 5   0  0.1078018E-03  0.1500578E+04  0.7818609E-02  0.8884069E-01
       -1   -1    0    0    0  501  0.00000000000E+00  0.00000000000E+00  0.31398304396E+03  0.31398304400E+03  0.50400001928E-02 0. -1.
        1   -1    0    0  501    0  0.00000000000E+00  0.00000000000E+00 -0.17928779451E+04  0.17928779451E+04  0.50400001928E-02 0.  1.
    10030    2    1    2    0    0  0.00000000000E+00  0.00000000000E+00 -0.14788949011E+04  0.21068609891E+04  0.15005775884E+04 0.  0.
        4    1    3    3  502    0 -0.21947882713E+02 -0.49214315794E+03  0.55097822808E+02  0.49570553803E+03  0.12699999809E+01 0. -1.
       -4    1    3    3    0  502  0.21947882713E+02  0.49214315794E+03 -0.15339927239E+04  0.16111554510E+04  0.12699999809E+01 0.  1.
</event>
<event>
 5   0  0.2111533E-03  0.1176143E+04  0.7818609E-02  0.9133999E-01
       -2   -1    0    0    0  501  0.00000000000E+00  0.00000000000E+00  0.48524726434E+03  0.48524726435E+03  0.25500000920E-02 0. -1.
        2   -1    0    0  501    0  0.00000000000E+00  0.00000000000E+00 -0.71268405546E+03  0.71268405547E+03  0.25500000920E-02 0.  1.
    10030    2    1    2    0    0  0.00000000000E+00  0.00000000000E+00 -0.22743679112E+03  0.11979313198E+04  0.11761428285E+04 0.  0.
        5    1    3    3  502    0  0.56565918621E+03 -0.14732093516E+03 -0.48245944412E+02  0.58653519419E+03  0.46999998093E+01 0. -1.
       -5    1    3    3    0  502 -0.56565918621E+03  0.14732093516E+03 -0.17919084671E+03  0.61139612562E+03  0.46999998093E+01 0.  1.
</event>
<event>
 5   0  0.2094566E-03  0.1501465E+04  0.7818609E-02  0.8883479E-01
       -2   -1    0    0    0  501  0.00000000000E+00  0.00000000000E+00  0.24791637403E+03  0.24791637404E+03  0.25500000920E-02 0. -1.
        2   -1    0    0  501    0  0.00000000000E+00  0.00000000000E+00 -0.22733442726E+04  0.22733442726E+04  0.25500000920E-02 0.  1.
    10030    2    1    2    0    0  0.00000000000E+00  0.00000000000E+00 -0.20254278985E+04  0.25212606466E+04  0.15014649766E+04 0.  0.
        1    1    3    3  502    0 -0.20642165032E+03  0.25151552511E+03  0.12336078418E+03  0.34797678111E+03  0.50400001928E-02 0. -1.
       -1    1    3    3    0  502  0.20642165032E+03 -0.25151552511E+03 -0.21487886827E+04  0.21732838655E+04  0.50400001928E-02 0.  1.
</event>
<event>
 5   0  0.1069697E-03  0.1489405E+04  0.7818609E-02  0.8891529E-01
        1   -1    0    0  501    0  0.00000000000E+00  0.00000000000E+00  0.13625738497E+04  0.13625738497E+04  0.50400001928E-02 0.  1.
       -1   -1    0    0    0  501  0.00000000000E+00  0.00000000000E+00 -0.40701037692E+03  0.40701037695E+03  0.50400001928E-02 0. -1.
    10030    2    1    2    0    0  0.00000000000E+00  0.00000000000E+00  0.95556347275E+03  0.17695842266E+04  0.14894048424E+04 0.  0.
        2    1    3    3  502    0 -0.23237896317E+03  0.56116365122E+03  0.98974360362E+03  0.11612480471E+04  0.25500000920E-02 0.  1.
       -2    1    3    3    0  502  0.23237896317E+03 -0.56116365122E+03 -0.34180130866E+02  0.60833617953E+03  0.25500000920E-02 0. -1.
</event>
<event>
 5   0  0.1078787E-03  0.1502626E+04  0.7818609E-02  0.8882708E-01
       -1   -1    0    0    0  501  0.00000000000E+00  0.00000000000E+00  0.61918382419E+03  0.61918382421E+03  0.50400001928E-02 0.  1.
        1   -1    0    0  501    0  0.00000000000E+00  0.00000000000E+00 -0.91163783706E+03  0.91163783708E+03  0.50400001928E-02 0. -1.
    10030    2    1    2    0    0  0.00000000000E+00  0.00000000000E+00 -0.29245401288E+03  0.15308216613E+04  0.15026262373E+04 0.  0.
        5    1    3    3  502    0 -0.67177665766E+03 -0.33319618478E+03 -0.99035714304E+02  0.75639522608E+03  0.46999998093E+01 0.  1.
       -5    1    3    3    0  502  0.67177665766E+03  0.33319618478E+03 -0.19341829857E+03  0.77442643521E+03  0.46999998093E+01 0. -1.
</event>
<event>
 5   0  0.2150197E-03  0.1488195E+04  0.7818609E-02  0.8892341E-01
       -2   -1    0    0    0  501  0.00000000000E+00  0.00000000000E+00  0.57866169630E+03  0.57866169631E+03  0.25500000920E-02 0.  1.
        2   -1    0    0  501    0  0.00000000000E+00  0.00000000000E+00 -0.95683062977E+03  0.95683062978E+03  0.25500000920E-02 0. -1.
    10030    2    1    2    0    0  0.00000000000E+00  0.00000000000E+00 -0.37816893347E+03  0.15354923261E+04  0.14881951959E+04 0.  0.
        3    1    3    3  502    0 -0.49986184869E+03 -0.52883771961E+03 -0.28742748870E+02  0.72825638155E+03  0.10100000352E+00 0. -1.
       -3    1    3    3    0  502  0.49986184869E+03  0.52883771961E+03 -0.34942618460E+03  0.80723594453E+03  0.10100000352E+00 0.  1.
</event>
<event>
 5   0  0.2094566E-03  0.1491696E+04  0.7818609E-02  0.8889994E-01
       -2   -1    0    0    0  501  0.00000000000E+00  0.00000000000E+00  0.52271156642E+03  0.52271156643E+03  0.25500000920E-02 0.  1.
        2   -1    0    0  501    0  0.00000000000E+00  0.00000000000E+00 -0.10642374621E+04  0.10642374621E+04  0.25500000920E-02 0. -1.
    10030    2    1    2    0    0  0.00000000000E+00  0.00000000000E+00 -0.54152589573E+03  0.15869490286E+04  0.14916959890E+04 0.  0.
        1    1    3    3  502    0  0.95819814424E+02 -0.13396352132E+03  0.50312271977E+03  0.52939600779E+03  0.50400001928E-02 0.  1.
       -1    1    3    3    0  502 -0.95819814424E+02  0.13396352132E+03 -0.10446486155E+04  0.10575530208E+04  0.50400001928E-02 0. -1.
</event>
<event>
 5   0  0.7468375E-04  0.1502940E+04  0.7818609E-02  0.8882500E-01
       -3   -1    0    0    0  501  0.00000000000E+00  0.00000000000E+00  0.71483761409E+03  0.71483762122E+03  0.10100000352E+00 0.  1.
        3   -1    0    0  501    0  0.00000000000E+00  0.00000000000E+00 -0.78997936193E+03  0.78997936839E+03  0.10100000352E+00 0. -1.
    10030    2    1    2    0    0  0.00000000000E+00  0.00000000000E+00 -0.75141747841E+02  0.15048169896E+04  0.15029397493E+04 0.  0.
        1    1    3    3  502    0  0.35761855717E+03 -0.65330929854E+03 -0.13771029789E+03  0.75740887119E+03  0.50400001928E-02 0. -1.
       -1    1    3    3    0  502 -0.35761855717E+03  0.65330929854E+03  0.62568550050E+02  0.74740811842E+03  0.50400001928E-02 0.  1.
</event>
<event>
 5   0  0.1069697E-03  0.1513416E+04  0.7818609E-02  0.8875580E-01
       -1   -1    0    0    0  501  0.00000000000E+00  0.00000000000E+00  0.46050376329E+03  0.46050376331E+03  0.50400001928E-02 0.  1.
        1   -1    0    0  501    0  0.00000000000E+00  0.00000000000E+00 -0.12434361744E+04  0.12434361744E+04  0.50400001928E-02 0. -1.
    10030    2    1    2    0    0  0.00000000000E+00  0.00000000000E+00 -0.78293241111E+03  0.17039399377E+04  0.15134160535E+04 0.  0.
        2    1    3    3  502    0  0.54030285755E+03 -0.12166026550E+03 -0.97201358612E+03  0.11187219537E+04  0.25500000920E-02 0. -1.
       -2    1    3    3    0  502 -0.54030285755E+03  0.12166026550E+03  0.18908117501E+03  0.58521798402E+03  0.25500000920E-02 0.  1.
</event>
<event>
 5   0  0.1078787E-03  0.1534114E+04  0.7818609E-02  0.8862079E-01
        1   -1    0    0  501    0  0.00000000000E+00  0.00000000000E+00  0.68107679468E+03  0.68107679470E+03  0.50400001928E-02 0. -1.
       -1   -1    0    0    0  501  0.00000000000E+00  0.00000000000E+00 -0.86389103992E+03  0.86389103993E+03  0.50400001928E-02 0.  1.
    10030    2    1    2    0    0  0.00000000000E+00  0.00000000000E+00 -0.18281424524E+03  0.15449678346E+04  0.15341136078E+04 0.  0.
        5    1    3    3  502    0  0.32069015384E+03 -0.43582796586E+03 -0.63891333833E+03  0.83726969042E+03  0.46999998093E+01 0.  1.
       -5    1    3    3    0  502 -0.32069015384E+03  0.43582796586E+03  0.45609909309E+03  0.70769814421E+03  0.46999998093E+01 0. -1.
</event>
<event>
 5   0  0.1069697E-03  0.1539332E+04  0.7818609E-02  0.8858711E-01
        1   -1    0    0  501    0  0.00000000000E+00  0.00000000000E+00  0.12180695985E+04  0.12180695985E+04  0.50400001928E-02 0.  1.
       -1   -1    0    0    0  501  0.00000000000E+00  0.00000000000E+00 -0.48633160564E+03  0.48633160566E+03  0.50400001928E-02 0. -1.
    10030    2    1    2    0    0  0.00000000000E+00  0.00000000000E+00  0.73173799283E+03  0.17044012041E+04  0.15393319897E+04 0.  0.
        2    1    3    3  502    0  0.29753685995E+03  0.69754808224E+03  0.51143655582E+03  0.91469604826E+03  0.25500000920E-02 0.  1.
       -2    1    3    3    0  502 -0.29753685995E+03 -0.69754808224E+03  0.22030143702E+03  0.78970515588E+03  0.25500000920E-02 0. -1.
</event>
<event>
 5   0  0.1078787E-03  0.1501715E+04  0.7818609E-02  0.8883313E-01
        1   -1    0    0  501    0  0.00000000000E+00  0.00000000000E+00  0.56646456355E+03  0.56646456357E+03  0.50400001928E-02 0.  1.
       -1   -1    0    0    0  501  0.00000000000E+00  0.00000000000E+00 -0.99527277756E+03  0.99527277758E+03  0.50400001928E-02 0. -1.
    10030    2    1    2    0    0  0.00000000000E+00  0.00000000000E+00 -0.42880821402E+03  0.15617373411E+04  0.15017146994E+04 0.  0.
        5    1    3    3  502    0 -0.72758645949E+03  0.18506585281E+03 -0.20239961342E+03  0.77757258145E+03  0.46999998093E+01 0.  1.
       -5    1    3    3    0  502  0.72758645949E+03 -0.18506585281E+03 -0.22640860060E+03  0.78416475969E+03  0.46999998093E+01 0. -1.
</event>
<event>
 5   0  0.1069697E-03  0.1523302E+04  0.7818609E-02  0.8869104E-01
       -1   -1    0    0    0  501  0.00000000000E+00  0.00000000000E+00  0.59821063793E+03  0.59821063795E+03  0.50400001928E-02 0.  1.
        1   -1    0    0  501    0  0.00000000000E+00  0.00000000000E+00 -0.96974543898E+03  0.96974543899E+03  0.50400001928E-02 0. -1.
    10030    2    1    2    0    0  0.00000000000E+00  0.00000000000E+00 -0.37153480105E+03  0.15679560769E+04  0.15233017268E+04 0.  0.
        2    1    3    3  502    0 -0.11430574304E+03 -0.45528673752E+02  0.58791363040E+03  0.60065056385E+03  0.25500000920E-02 0.  1.
       -2    1    3    3    0  502  0.11430574304E+03  0.45528673752E+02 -0.95944843146E+03  0.96730551309E+03  0.25500000920E-02 0. -1.
</event>
<event>
 5   0  0.2150197E-03  0.1501534E+04  0.7818609E-02  0.8883434E-01
       -2   -1    0    0    0  501  0.00000000000E+00  0.00000000000E+00  0.98165109330E+03  0.98165109330E+03  0.25500000920E-02 0. -1.
        2   -1    0    0  501    0  0.00000000000E+00  0.00000000000E+00 -0.57418656485E+03  0.57418656486E+03  0.25500000920E-02 0.  1.
    10030    2    1    2    0    0  0.00000000000E+00  0.00000000000E+00  0.40746452845E+03  0.15558376582E+04  0.15015337081E+04 0.  0.
        3    1    3    3  502    0 -0.50473737241E+03 -0.23778673124E+03  0.72424285327E+03  0.91423742287E+03  0.10100000352E+00 0. -1.
       -3    1    3    3    0  502  0.50473737241E+03  0.23778673124E+03 -0.31677832482E+03  0.64160023530E+03  0.10100000352E+00 0.  1.
</event>
<event>
 5   0  0.1961098E-03  0.1607607E+04  0.7818609E-02  0.8815888E-01
       -2   -1    0    0    0  501  0.00000000000E+00  0.00000000000E+00  0.89774059995E+03  0.89774059996E+03  0.25500000920E-02 0. -1.
        2   -1    0    0  501    0  0.00000000000E+00  0.00000000000E+00 -0.71969559318E+03  0.71969559318E+03  0.25500000920E-02 0.  1.
    10030    2    1    2    0    0  0.00000000000E+00  0.00000000000E+00  0.17804500678E+03  0.16174361931E+04  0.16076068594E+04 0.  0.
        2    1    3    3  502    0  0.37284066147E+03 -0.17554645596E+03  0.78336763576E+03  0.88515059160E+03  0.25500000920E-02 0. -1.
       -2    1    3    3    0  502 -0.37284066147E+03  0.17554645596E+03 -0.60532262898E+03  0.73228560153E+03  0.25500000920E-02 0.  1.
</event>
<event>
 5   0  0.2094566E-03  0.1476406E+04  0.7818609E-02  0.8900296E-01
        2   -1    0    0  501    0  0.00000000000E+00  0.00000000000E+00  0.86787295509E+03  0.86787295509E+03  0.25500000920E-02 0.  1.
       -2   -1    0    0    0  501  0.00000000000E+00  0.00000000000E+00 -0.62790719444E+03  0.62790719445E+03  0.25500000920E-02 0. -1.
    10030    2    1    2    0    0  0.00000000000E+00  0.00000000000E+00  0.23996576064E+03  0.14957801495E+04  0.14764060043E+04 0.  0.
        1    1    3    3  502    0  0.48391080605E+03  0.43275402493E+03  0.47601718986E+03  0.80500812379E+03  0.50400001928E-02 0.  1.
       -1    1    3    3    0  502 -0.48391080605E+03 -0.43275402493E+03 -0.23605142921E+03  0.69077202575E+03  0.50400001928E-02 0. -1.
</event>
<event>
 5   0  0.1069697E-03  0.1546601E+04  0.7818609E-02  0.8854042E-01
        1   -1    0    0  501    0  0.00000000000E+00  0.00000000000E+00  0.15741448304E+04  0.15741448304E+04  0.50400001928E-02 0. -1.
       -1   -1    0    0    0  501  0.00000000000E+00  0.00000000000E+00 -0.37988478437E+03  0.37988478440E+03  0.50400001928E-02 0.  1.
    10030    2    1    2    0    0  0.00000000000E+00  0.00000000000E+00  0.11942600460E+04  0.19540296148E+04  0.15466010080E+04 0.  0.
        2    1    3    3  502    0 -0.65569552360E+03 -0.31221586457E+03  0.26147862467E+03  0.77187203403E+03  0.25500000920E-02 0.  1.
       -2    1    3    3    0  502  0.65569552360E+03  0.31221586457E+03  0.93278142136E+03  0.11821575808E+04  0.25500000920E-02 0. -1.
</event>
<event>
 5   0  0.1993623E-03  0.1504735E+04  0.7818609E-02  0.8881310E-01
       -2   -1    0    0    0  501  0.00000000000E+00  0.00000000000E+00  0.35100634968E+03  0.35100634969E+03  0.25500000920E-02 0.  1.
        2   -1    0    0  501    0  0.00000000000E+00  0.00000000000E+00 -0.16126694409E+04  0.16126694409E+04  0.25500000920E-02 0. -1.
    10030    2    1    2    0    0  0.00000000000E+00  0.00000000000E+00 -0.12616630912E+04  0.19636757906E+04  0.15047354767E+04 0.  0.
        4    1    3    3  502    0  0.44314108047E+03 -0.29802404972E+03 -0.13224348882E+04  0.14261935345E+04  0.12699999809E+01 0. -1.
       -4    1    3    3    0  502 -0.44314108047E+03  0.29802404972E+03  0.60771796975E+02  0.53748225610E+03  0.12699999809E+01 0.  1.
</event>
<event>
 5   0  0.1077140E-03  0.1346478E+04  0.7818609E-02  0.8993498E-01
        1   -1    0    0  501    0  0.00000000000E+00  0.00000000000E+00  0.64932746349E+03  0.64932746351E+03  0.50400001928E-02 0.  1.
       -1   -1    0    0    0  501  0.00000000000E+00  0.00000000000E+00 -0.69803119240E+03  0.69803119241E+03  0.50400001928E-02 0. -1.
    10030    2    1    2    0    0  0.00000000000E+00  0.00000000000E+00 -0.48703728904E+02  0.13473586559E+04  0.13464781077E+04 0.  0.
        1    1    3    3  502    0  0.40144411988E+03 -0.44816048897E+03  0.27791457441E+03  0.66275313349E+03  0.50400001928E-02 0.  1.
       -1    1    3    3    0  502 -0.40144411988E+03  0.44816048897E+03 -0.32661830332E+03  0.68460552243E+03  0.50400001928E-02 0. -1.
</event>
<event>
 5   0  0.1078018E-03  0.1504102E+04  0.7818609E-02  0.8881730E-01
       -1   -1    0    0    0  501  0.00000000000E+00  0.00000000000E+00  0.42406639506E+03  0.42406639509E+03  0.50400001928E-02 0. -1.
        1   -1    0    0  501    0  0.00000000000E+00  0.00000000000E+00 -0.13337082784E+04  0.13337082784E+04  0.50400001928E-02 0.  1.
    10030    2    1    2    0    0  0.00000000000E+00  0.00000000000E+00 -0.90964188331E+03  0.17577746735E+04  0.15041022062E+04 0.  0.
        4    1    3    3  502    0  0.46528149081E+03  0.53038728863E+03 -0.75907901153E+03  0.10363397610E+04  0.12699999809E+01 0.  1.
       -4    1    3    3    0  502 -0.46528149081E+03 -0.53038728863E+03 -0.15056287178E+03  0.72143491244E+03  0.12699999809E+01 0. -1.
</event>
<event>
 5   0  0.2150197E-03  0.1498343E+04  0.7818609E-02  0.8885555E-01
       -2   -1    0    0    0  501  0.00000000000E+00  0.00000000000E+00  0.91289538478E+03  0.91289538478E+03  0.25500000920E-02 0. -1.
        2   -1    0    0  501    0  0.00000000000E+00  0.00000000000E+00 -0.61481090645E+03  0.61481090646E+03  0.25500000920E-02 0.  1.
    10030    2    1    2    0    0  0.00000000000E+00  0.00000000000E+00  0.29808447833E+03  0.15277062912E+04  0.14983431370E+04 0.  0.
        3    1    3    3  502    0 -0.29012190686E+03  0.69040209963E+03  0.12784420992E+03  0.75971700799E+03  0.10100000352E+00 0.  1.
       -3    1    3    3    0  502  0.29012190686E+03 -0.69040209963E+03  0.17024026840E+03  0.76798928326E+03  0.10100000352E+00 0. -1.
</event>
<event>
 5   0  0.1078787E-03  0.1297207E+04  0.7818609E-02  0.9031783E-01
        1   -1    0    0  501    0  0.00000000000E+00  0.00000000000E+00  0.48365331055E+03  0.48365331058E+03  0.50400001928E-02 0.  1.
       -1   -1    0    0    0  501  0.00000000000E+00  0.00000000000E+00 -0.86980991209E+03  0.86980991210E+03  0.50400001928E-02 0. -1.
    10030    2    1    2    0    0  0.00000000000E+00  0.00000000000E+00 -0.38615660154E+03  0.13534632227E+04  0.12972069127E+04 0.  0.
        5    1    3    3  502    0  0.11107728858E+03 -0.51558861449E+03 -0.58693330034E+03  0.78910238403E+03  0.46999998093E+01 0. -1.
       -5    1    3    3    0  502 -0.11107728858E+03  0.51558861449E+03  0.20077669880E+03  0.56436083865E+03  0.46999998093E+01 0.  1.
</event>
<event>
 5   0  0.2150197E-03  0.1496576E+04  0.7818609E-02  0.8886733E-01
       -2   -1    0    0    0  501  0.00000000000E+00  0.00000000000E+00  0.54710412669E+03  0.54710412669E+03  0.25500000920E-02 0.  1.
        2   -1    0    0  501    0  0.00000000000E+00  0.00000000000E+00 -0.10234523833E+04  0.10234523833E+04  0.25500000920E-02 0. -1.
    10030    2    1    2    0    0  0.00000000000E+00  0.00000000000E+00 -0.47634825666E+03  0.15705565100E+04  0.14965761222E+04 0.  0.
        3    1    3    3  502    0  0.53672549782E+02  0.52870669139E+03 -0.79102072538E+03  0.95295608833E+03  0.10100000352E+00 0. -1.
       -3    1    3    3    0  502 -0.53672549782E+02 -0.52870669139E+03  0.31467246872E+03  0.61760042170E+03  0.10100000352E+00 0.  1.
</event>
<event>
 5   0  0.1078018E-03  0.1544789E+04  0.7818609E-02  0.8855203E-01
        1   -1    0    0  501    0  0.00000000000E+00  0.00000000000E+00  0.46401709156E+03  0.46401709159E+03  0.50400001928E-02 0. -1.
       -1   -1    0    0    0  501  0.00000000000E+00  0.00000000000E+00 -0.12857132819E+04  0.12857132820E+04  0.50400001928E-02 0.  1.
    10030    2    1    2    0    0  0.00000000000E+00  0.00000000000E+00 -0.82169619038E+03  0.17497303735E+04  0.15447885780E+04 0.  0.
        4    1    3    3  502    0 -0.29221057751E+03 -0.69948934090E+03 -0.57854000246E+03  0.95361549221E+03  0.12699999809E+01 0.  1.
       -4    1    3    3    0  502  0.29221057751E+03  0.69948934090E+03 -0.24315618792E+03  0.79611488132E+03  0.12699999809E+01 0. -1.
</event>
<event>
 5   0  0.1078787E-03  0.1494549E+04  0.7818609E-02  0.8888086E-01
        1   -1    0    0  501    0  0.00000000000E+00  0.00000000000E+00  0.10765710119E+04  0.10765710119E+04  0.50400001928E-02 0. -1.
       -1   -1    0    0    0  501  0.00000000000E+00  0.00000000000E+00 -0.51870150069E+03  0.51870150072E+03  0.50400001928E-02 0.  1.
    10030    2    1    2    0    0  0.00000000000E+00  0.00000000000E+00  0.55786951116E+03  0.15952725126E+04  0.14945487606E+04 0.  0.
        5    1    3    3  502    0  0.71782822336E+03 -0.19649693889E+03  0.35060535462E+03  0.82269958668E+03  0.46999998093E+01 0.  1.
       -5    1    3    3    0  502 -0.71782822336E+03  0.19649693889E+03  0.20726415654E+03  0.77257292590E+03  0.46999998093E+01 0. -1.
</event>
<event>
 5   0  0.2111533E-03  0.1365787E+04  0.7818609E-02  0.8978963E-01
       -2   -1    0    0    0  501  0.00000000000E+00  0.00000000000E+00  0.87135995815E+03  0.87135995815E+03  0.25500000920E-02 0.  1.
        2   -1    0    0  501    0  0.00000000000E+00  0.00000000000E+00 -0.53519032287E+03  0.53519032288E+03  0.25500000920E-02 0. -1.
    10030    2    1    2    0    0  0.00000000000E+00  0.00000000000E+00  0.33616963528E+03  0.14065502810E+04  0.13657868316E+04 0.  0.
        5    1    3    3  502    0  0.12225156188E+03 -0.32336859243E+03 -0.43839631222E+03  0.55832437482E+03  0.46999998093E+01 0. -1.
       -5    1    3    3    0  502 -0.12225156188E+03  0.32336859243E+03  0.77456594749E+03  0.84822590621E+03  0.46999998093E+01 0.  1.
</event>
<event>
 5   0  0.1077140E-03  0.1500649E+04  0.7818609E-02  0.8884021E-01
       -1   -1    0    0    0  501  0.00000000000E+00  0.00000000000E+00  0.25867596638E+03  0.25867596643E+03  0.50400001928E-02 0. -1.
        1   -1    0    0  501    0  0.00000000000E+00  0.00000000000E+00 -0.21764183532E+04  0.21764183532E+04  0.50400001928E-02 0.  1.
    10030    2    1    2    0    0  0.00000000000E+00  0.00000000000E+00 -0.19177423869E+04  0.24350943197E+04  0.15006493539E+04 0.  0.
        1    1    3    3  502    0 -0.32767563386E+03 -0.50367412034E+03 -0.16880516628E+04  0.17918084040E+04  0.50400001928E-02 0.  1.
       -1    1    3    3    0  502  0.32767563386E+03  0.50367412034E+03 -0.22969072409E+03  0.64328591566E+03  0.50400001928E-02 0. -1.
</event>
<event>
 5   0  0.2111533E-03  0.1490607E+04  0.7818609E-02  0.8890723E-01
       -2   -1    0    0    0  501  0.00000000000E+00  0.00000000000E+00  0.73850686472E+03  0.73850686472E+03  0.25500000920E-02 0.  1.
        2   -1    0    0  501    0  0.00000000000E+00  0.00000000000E+00 -0.75216292269E+03  0.75216292270E+03  0.25500000920E-02 0. -1.
    10030    2    1    2    0    0  0.00000000000E+00  0.00000000000E+00 -0.13656057972E+02  0.14906697874E+04  0.14906072344E+04 0.  0.
        5    1    3    3  502    0  0.29311136561E+03  0.13656695000E+03  0.66468401944E+03  0.73918315740E+03  0.46999998093E+01 0.  1.
       -5    1    3    3    0  502 -0.29311136561E+03 -0.13656695000E+03 -0.67834007741E+03  0.75148663002E+03  0.46999998093E+01 0. -1.
</event>
<event>
 5   0  0.1069697E-03  0.1427018E+04  0.7818609E-02  0.8934491E-01
       -1   -1    0    0    0  501  0.00000000000E+00  0.00000000000E+00  0.10321296614E+04  0.10321296615E+04  0.50400001928E-02 0. -1.
        1   -1    0    0  501    0  0.00000000000E+00  0.00000000000E+00 -0.49324706713E+03  0.49324706716E+03  0.50400001928E-02 0.  1.
    10030    2    1    2    0    0  0.00000000000E+00  0.00000000000E+00  0.53888259431E+03  0.15253767286E+04  0.14270177692E+04 0.  0.
        2    1    3    3  502    0 -0.53441622547E+03 -0.37387874307E+02 -0.23431265782E+03  0.58472299152E+03  0.25500000920E-02 0.  1.
       -2    1    3    3    0  502  0.53441622547E+03  0.37387874307E+02  0.77319525214E+03  0.94065373710E+03  0.25500000920E-02 0. -1.
</event>
<event>
 5   0  0.1087761E-03  0.1496759E+04  0.7818609E-02  0.8886611E-01
        1   -1    0    0  501    0  0.00000000000E+00  0.00000000000E+00  0.12130858551E+04  0.12130858551E+04  0.50400001928E-02 0.  1.
       -1   -1    0    0    0  501  0.00000000000E+00  0.00000000000E+00 -0.46169174091E+03  0.46169174094E+03  0.50400001928E-02 0. -1.
    10030    2    1    2    0    0  0.00000000000E+00  0.00000000000E+00  0.75139411422E+03  0.16747775961E+04  0.14967587920E+04 0.  0.
        3    1    3    3  502    0 -0.36316443132E+03 -0.54441733573E+03 -0.30513880385E+02  0.65514101285E+03  0.10100000352E+00 0. -1.
       -3    1    3    3    0  502  0.36316443132E+03  0.54441733573E+03  0.78190799461E+03  0.10196365832E+04  0.10100000352E+00 0.  1.
</event>
<event>
 5   0  0.1078787E-03  0.1517115E+04  0.7818609E-02  0.8873151E-01
        1   -1    0    0  501    0  0.00000000000E+00  0.00000000000E+00  0.87811430032E+03  0.87811430034E+03  0.50400001928E-02 0.  1.
       -1   -1    0    0    0  501  0.00000000000E+00  0.00000000000E+00 -0.65527887514E+03  0.65527887516E+03  0.50400001928E-02 0. -1.
    10030    2    1    2    0    0  0.00000000000E+00  0.00000000000E+00  0.22283542518E+03  0.15333931755E+04  0.15171153562E+04 0.  0.
        5    1    3    3  502    0  0.70065962155E+03 -0.23463934533E+03 -0.61910257646E+02  0.74150825865E+03  0.46999998093E+01 0. -1.
       -5    1    3    3    0  502 -0.70065962155E+03  0.23463934533E+03  0.28474568283E+03  0.79188491685E+03  0.46999998093E+01 0.  1.
</event>
<event>
 5   0  0.1961098E-03  0.1509856E+04  0.7818609E-02  0.8877925E-01
        2   -1    0    0  501    0  0.00000000000E+00  0.00000000000E+00  0.22369284359E+04  0.22369284359E+04  0.25500000920E-02 0.  1.
       -2   -1    0    0    0  501  0.00000000000E+00  0.00000000000E+00 -0.25477642008E+03  0.25477642009E+03  0.25500000920E-02 0. -1.
    10030    2    1    2    0    0  0.00000000000E+00  0.00000000000E+00  0.19821520158E+04  0.24917048560E+04  0.15098564420E+04 0.  0.
        2    1    3    3  502    0 -0.52887301377E+03  0.53851855794E+03  0.96729135087E+03  0.12269317257E+04  0.25500000920E-02 0.  1.
       -2    1    3    3    0  502  0.52887301377E+03 -0.53851855794E+03  0.10148606649E+04  0.12647731303E+04  0.25500000920E-02 0. -1.
</event>
<event>
 5   0  0.2094566E-03  0.1523504E+04  0.7818609E-02  0.8868971E-01
        2   -1    0    0  501    0  0.00000000000E+00  0.00000000000E+00  0.16206968553E+04  0.16206968553E+04  0.25500000920E-02 0. -1.
       -2   -1    0    0    0  501  0.00000000000E+00  0.00000000000E+00 -0.35803515053E+03  0.35803515054E+03  0.25500000920E-02 0.  1.
    10030    2    1    2    0    0  0.00000000000E+00  0.00000000000E+00  0.12626617047E+04  0.19787320058E+04  0.15235044372E+04 0.  0.
        1    1    3    3  502    0  0.95736774567E+02 -0.87281093873E+02 -0.34362204559E+03  0.36723239181E+03  0.50400001928E-02 0.  1.
       -1    1    3    3    0  502 -0.95736774567E+02  0.87281093873E+02  0.16062837503E+04  0.16114996140E+04  0.50400001928E-02 0. -1.
</event>
<event>
 5   0  0.1077140E-03  0.1514892E+04  0.7818609E-02  0.8874610E-01
       -1   -1    0    0    0  501  0.00000000000E+00  0.00000000000E+00  0.50425217678E+03  0.50425217680E+03  0.50400001928E-02 0.  1.
        1   -1    0    0  501    0  0.00000000000E+00  0.00000000000E+00 -0.11377729308E+04  0.11377729308E+04  0.50400001928E-02 0. -1.
    10030    2    1    2    0    0  0.00000000000E+00  0.00000000000E+00 -0.63352075402E+03  0.16420251076E+04  0.15148920451E+04 0.  0.
        1    1    3    3  502    0 -0.24944334336E+03  0.22861934074E+03 -0.10513011807E+04  0.11044106831E+04  0.50400001928E-02 0. -1.
       -1    1    3    3    0  502  0.24944334336E+03 -0.22861934074E+03  0.41778042664E+03  0.53761442449E+03  0.50400001928E-02 0.  1.
</event>
<event>
 5   0  0.1087761E-03  0.1479923E+04  0.7818609E-02  0.8897915E-01
       -1   -1    0    0    0  501  0.00000000000E+00  0.00000000000E+00  0.11358093705E+04  0.11358093705E+04  0.50400001928E-02 0.  1.
        1   -1    0    0  501    0  0.00000000000E+00  0.00000000000E+00 -0.48207280150E+03  0.48207280152E+03  0.50400001928E-02 0. -1.
    10030    2    1    2    0    0  0.00000000000E+00  0.00000000000E+00  0.65373656897E+03  0.16178821720E+04  0.14799227077E+04 0.  0.
        3    1    3    3  502    0 -0.57852525403E+03 -0.23783728179E+03  0.75904977261E+03  0.98357237134E+03  0.10100000352E+00 0.  1.
       -3    1    3    3    0  502  0.57852525403E+03  0.23783728179E+03 -0.10531320363E+03  0.63430980067E+03  0.10100000352E+00 0. -1.
</event>
<event>
 5   0  0.1087761E-03  0.1509108E+04  0.7818609E-02  0.8878419E-01
       -1   -1    0    0    0  501  0.00000000000E+00  0.00000000000E+00  0.40474099503E+03  0.40474099506E+03  0.50400001928E-02 0. -1.
        1   -1    0    0  501    0  0.00000000000E+00  0.00000000000E+00 -0.14067057700E+04  0.14067057700E+04  0.50400001928E-02 0.  1.
    10030    2    1    2    0    0  0.00000000000E+00  0.00000000000E+00 -0.10019647750E+04  0.18114467651E+04  0.15091076742E+04 0.  0.
        3    1    3    3  502    0 -0.25070429530E+03  0.38049419840E+03 -0.12229095998E+04  0.13050426730E+04  0.10100000352E+00 0.  1.
       -3    1    3    3    0  502  0.25070429530E+03 -0.38049419840E+03  0.22094482484E+03  0.50640409213E+03  0.10100000352E+00 0. -1.
</event>
<event>
 5   0  0.1078018E-03  0.1502400E+04  0.7818609E-02  0.8882859E-01
       -1   -1    0    0    0  501  0.00000000000E+00  0.00000000000E+00  0.79336239295E+03  0.79336239297E+03  0.50400001928E-02 0.  1.
        1   -1    0    0  501    0  0.00000000000E+00  0.00000000000E+00 -0.71127788986E+03  0.71127788987E+03  0.50400001928E-02 0. -1.
    10030    2    1    2    0    0  0.00000000000E+00  0.00000000000E+00  0.82084503097E+02  0.15046402828E+04  0.15023995857E+04 0.  0.
        4    1    3    3  502    0  0.57902418455E+03 -0.27940342184E+03  0.43016289230E+03  0.77354832121E+03  0.12699999809E+01 0.  1.
       -4    1    3    3    0  502 -0.57902418455E+03  0.27940342184E+03 -0.34807838921E+03  0.73109196163E+03  0.12699999809E+01 0. -1.
</event>
<event>
 5   0  0.2094566E-03  0.1493839E+04  0.7818609E-02  0.8888560E-01
        2   -1    0    0  501    0  0.00000000000E+00  0.00000000000E+00  0.92841166698E+03  0.92841166698E+03  0.25500000920E-02 0. -1.
       -2   -1    0    0    0  501  0.00000000000E+00  0.00000000000E+00 -0.60090685046E+03  0.60090685047E+03  0.25500000920E-02 0.  1.
    10030    2    1    2    0    0  0.00000000000E+00  0.00000000000E+00  0.32750481652E+03  0.15293185175E+04  0.14938392561E+04 0.  0.
        1    1    3    3  502    0  0.54967802867E+03  0.97647779846E+02 -0.34422579425E+03  0.65587530946E+03  0.50400001928E-02 0. -1.
       -1    1    3    3    0  502 -0.54967802867E+03 -0.97647779846E+02  0.67173061077E+03  0.87344320799E+03  0.50400001928E-02 0.  1.
</event>
<event>
 5   0  0.2150197E-03  0.1517145E+04  0.7818609E-02  0.8873131E-01
        2   -1    0    0  501    0  0.00000000000E+00  0.00000000000E+00  0.13491609297E+04  0.13491609297E+04  0.25500000920E-02 0. -1.
       -2   -1    0    0    0  501  0.00000000000E+00  0.00000000000E+00 -0.42651132104E+03  0.42651132104E+03  0.25500000920E-02 0.  1.
    10030    2    1    2    0    0  0.00000000000E+00  0.00000000000E+00  0.92264960863E+03  0.17756722507E+04  0.15171452276E+04 0.  0.
        3    1    3    3  502    0 -0.31322308502E+03 -0.50903024611E+02 -0.34509311923E+03  0.46881669130E+03  0.10100000352E+00 0.  1.
       -3    1    3    3    0  502  0.31322308502E+03  0.50903024611E+02  0.12677427279E+04  0.13068555594E+04  0.10100000352E+00 0. -1.
</event>
<event>
 5   0  0.1087761E-03  0.1531936E+04  0.7818609E-02  0.8863489E-01
        1   -1    0    0  501    0  0.00000000000E+00  0.00000000000E+00  0.39480595798E+03  0.39480595801E+03  0.50400001928E-02 0. -1.
       -1   -1    0    0    0  501  0.00000000000E+00  0.00000000000E+00 -0.14860642375E+04  0.14860642375E+04  0.50400001928E-02 0.  1.
    10030    2    1    2    0    0  0.00000000000E+00  0.00000000000E+00 -0.10912582795E+04  0.18808701955E+04  0.15319360495E+04 0.  0.
        3    1    3    3  502    0 -0.34182858967E+03 -0.13563360707E+03 -0.13705829415E+04  0.14190633776E+04  0.10100000352E+00 0.  1.
       -3    1    3    3    0  502  0.34182858967E+03  0.13563360707E+03  0.27932466194E+03  0.46180681789E+03  0.10100000352E+00 0. -1.
</event>
<event>
 5   0  0.1993623E-03  0.1514410E+04  0.7818609E-02  0.8874926E-01
       -2   -1    0    0    0  501  0.00000000000E+00  0.00000000000E+00  0.75947381859E+03  0.75947381860E+03  0.25500000920E-02 0.  1.
        2   -1    0    0  501    0  0.00000000000E+00  0.00000000000E+00 -0.75494341017E+03  0.75494341017E+03  0.25500000920E-02 0. -1.
    10030    2    1    2    0    0  0.00000000000E+00  0.00000000000E+00  0.45304084274E+01  0.15144172288E+04  0.15144104524E+04 0.  0.
        4    1    3    3  502    0 -0.18017707183E+03 -0.59461427619E+03 -0.43055104252E+03  0.75591383621E+03  0.12699999809E+01 0. -1.
       -4    1    3    3    0  502  0.18017707183E+03  0.59461427619E+03  0.43508145094E+03  0.75850339256E+03  0.12699999809E+01 0.  1.
</event>
<event>
 5   0  0.1087761E-03  0.1451320E+04  0.7818609E-02  0.8917486E-01
       -1   -1    0    0    0  501  0.00000000000E+00  0.00000000000E+00  0.55099162625E+03  0.55099162627E+03  0.50400001928E-02 0. -1.
        1   -1    0    0  501    0  0.00000000000E+00  0.00000000000E+00 -0.95569989279E+03  0.95569989280E+03  0.50400001928E-02 0.  1.
    10030    2    1    2    0    0  0.00000000000E+00  0.00000000000E+00 -0.40470826654E+03  0.15066915191E+04  0.14513202791E+04 0.  0.
        3    1    3    3  502    0 -0.64520820242E+03 -0.28780772146E+02  0.14111691248E+03  0.66108694625E+03  0.10100000352E+00 0. -1.
       -3    1    3    3    0  502  0.64520820242E+03  0.28780772146E+02 -0.54582517903E+03  0.84560457282E+03  0.10100000352E+00 0.  1.
</event>
<event>
 5   0  0.1087761E-03  0.1508172E+04  0.7818609E-02  0.8879037E-01
       -1   -1    0    0    0  501  0.00000000000E+00  0.00000000000E+00  0.31993593157E+03  0.31993593161E+03  0.50400001928E-02 0.  1.
        1   -1    0    0  501    0  0.00000000000E+00  0.00000000000E+00 -0.17773739454E+04  0.17773739454E+04  0.50400001928E-02 0. -1.
    10030    2    1    2    0    0  0.00000000000E+00  0.00000000000E+00 -0.14574380139E+04  0.20973098770E+04  0.15081721242E+04 0.  0.
        3    1    3    3  502    0  0.40797714821E+03 -0.37751205729E+03 -0.14373745445E+04  0.15411055442E+04  0.10100000352E+00 0. -1.
       -3    1    3    3    0  502 -0.40797714821E+03  0.37751205729E+03 -0.20063469307E+02  0.55620433283E+03  0.10100000352E+00 0.  1.
</event>
<event>
 5   0  0.2111533E-03  0.1462238E+04  0.7818609E-02  0.8909960E-01
        2   -1    0    0  501    0  0.00000000000E+00  0.00000000000E+00  0.11004471875E+04  0.11004471875E+04  0.25500000920E-02 0. -1.
       -2   -1    0    0    0  501  0.00000000000E+00  0.00000000000E+00 -0.48574347044E+03  0.48574347045E+03  0.25500000920E-02 0.  1.
    10030    2    1    2    0    0  0.00000000000E+00  0.00000000000E+00  0.61470371709E+03  0.15861906580E+04  0.14622380598E+04 0.  0.
        5    1    3    3  502    0 -0.12510159426E+03  0.44659812468E+02  0.10872307086E+04  0.10953253450E+04  0.46999998093E+01 0. -1.
       -5    1    3    3    0  502  0.12510159426E+03 -0.44659812468E+02 -0.47252699152E+03  0.49086531295E+03  0.46999998093E+01 0.  1.
</event>
<event>
 5   0  0.1078018E-03  0.1512534E+04  0.7818609E-02  0.8876160E-01
       -1   -1    0    0    0  501  0.00000000000E+00  0.00000000000E+00  0.78909383598E+03  0.78909383600E+03  0.50400001928E-02 0. -1.
        1   -1    0    0  501    0  0.00000000000E+00  0.00000000000E+00 -0.72480606321E+03  0.72480606323E+03  0.50400001928E-02 0.  1.
    10030    2    1    2    0    0  0.00000000000E+00  0.00000000000E+00  0.64287772766E+02  0.15138998992E+04  0.15125342929E+04 0.  0.
        4    1    3    3  502    0  0.54135909267E+03 -0.50027829009E+03  0.20138335751E+03  0.76413670527E+03  0.12699999809E+01 0. -1.
       -4    1    3    3    0  502 -0.54135909267E+03  0.50027829009E+03 -0.13709558474E+03  0.74976319396E+03  0.12699999809E+01 0.  1.
</event>
<event>
 5   0  0.1087761E-03  0.1492004E+04  0.7818609E-02  0.8889787E-01
       -1   -1    0    0    0  501  0.00000000000E+00  0.00000000000E+00  0.11437262418E+04  0.11437262418E+04  0.50400001928E-02 0.  1.
        1   -1    0    0  501    0  0.00000000000E+00  0.00000000000E+00 -0.48658423675E+03  0.48658423677E+03  0.50400001928E-02 0. -1.
    10030    2    1    2    0    0  0.00000000000E+00  0.00000000000E+00  0.65714200503E+03  0.16303104786E+04  0.14920042365E+04 0.  0.
        3    1    3    3  502    0  0.27207181146E+03  0.31590078088E+03 -0.34740467541E+03  0.54268443192E+03  0.10100000352E+00 0. -1.
       -3    1    3    3    0  502 -0.27207181146E+03 -0.31590078088E+03  0.10045466804E+04  0.10876260466E+04  0.10100000352E+00 0.  1.
</event>
<event>
 5   0  0.1961098E-03  0.1525621E+04  0.7818609E-02  0.8867592E-01
       -2   -1    0    0    0  501  0.00000000000E+00  0.00000000000E+00  0.41492024984E+03  0.41492024985E+03  0.25500000920E-02 0. -1.
        2   -1    0    0  501    0  0.00000000000E+00  0.00000000000E+00 -0.14023900081E+04  0.14023900081E+04  0.25500000920E-02 0.  1.
    10030    2    1    2    0    0  0.00000000000E+00  0.00000000000E+00 -0.98746975829E+03  0.18173102580E+04  0.15256212014E+04 0.  0.
        2    1    3    3  502    0  0.54163637012E+03 -0.36166005761E+03 -0.96679333714E+03  0.11657003523E+04  0.25500000920E-02 0.  1.
       -2    1    3    3    0  502 -0.54163637012E+03  0.36166005761E+03 -0.20676421143E+02  0.65160990563E+03  0.25500000920E-02 0. -1.
</event>
<event>
 5   0  0.1077140E-03  0.1426867E+04  0.7818609E-02  0.8934597E-01
        1   -1    0    0  501    0  0.00000000000E+00  0.00000000000E+00  0.19138088013E+04  0.19138088013E+04  0.50400001928E-02 0.  1.
       -1   -1    0    0    0  501  0.00000000000E+00  0.00000000000E+00 -0.26595532646E+03  0.26595532651E+03  0.50400001928E-02 0. -1.
    10030    2    1    2    0    0  0.00000000000E+00  0.00000000000E+00  0.16478534748E+04  0.21797641278E+04  0.14268674004E+04 0.  0.
        1    1    3    3  502    0 -0.48979028212E+03  0.41227563542E+03  0.34296475584E+03  0.72628544237E+03  0.50400001928E-02 0. -1.
       -1    1    3    3    0  502  0.48979028212E+03 -0.41227563542E+03  0.13048887190E+04  0.14534786854E+04  0.50400001928E-02 0.  1.
</event>
<event>
 5   0  0.2094566E-03  0.1452468E+04  0.7818609E-02  0.8916691E-01
       -2   -1    0    0    0  501  0.00000000000E+00  0.00000000000E+00  0.53690837083E+03  0.53690837084E+03  0.25500000920E-02 0.  1.
        2   -1    0    0  501    0  0.00000000000E+00  0.00000000000E+00 -0.98231965084E+03  0.98231965084E+03  0.25500000920E-02 0. -1.
    10030    2    1    2    0    0  0.00000000000E+00  0.00000000000E+00 -0.44541128000E+03  0.15192280217E+04  0.14524677530E+04 0.  0.
        1    1    3    3  502    0  0.17907809878E+02 -0.52304840197E+03  0.30394009330E+03  0.60521062515E+03  0.50400001928E-02 0.  1.
       -1    1    3    3    0  502 -0.17907809878E+02  0.52304840197E+03 -0.74935137330E+03  0.91401739653E+03  0.50400001928E-02 0. -1.
</event>
<event>
 5   0  0.1069697E-03  0.1530861E+04  0.7818609E-02  0.8864186E-01
        1   -1    0    0  501    0  0.00000000000E+00  0.00000000000E+00  0.12239477765E+04  0.12239477766E+04  0.50400001928E-02 0.  1.
       -1   -1    0    0    0  501  0.00000000000E+00  0.00000000000E+00 -0.47868377204E+03  0.47868377207E+03  0.50400001928E-02 0. -1.
    10030    2    1    2    0    0  0.00000000000E+00  0.00000000000E+00  0.74526400450E+03  0.17026315486E+04  0.15308611152E+04 0.  0.
        2    1    3    3  502    0 -0.42028199285E+03  0.58336601743E+02 -0.33590797032E+03  0.54117860004E+03  0.25500000920E-02 0. -1.
       -2    1    3    3    0  502  0.42028199285E+03 -0.58336601743E+02  0.10811719748E+04  0.11614529486E+04  0.25500000920E-02 0.  1.
</event>
<event>
 5   0  0.1078018E-03  0.1477499E+04  0.7818609E-02  0.8899555E-01
        1   -1    0    0  501    0  0.00000000000E+00  0.00000000000E+00  0.60101847270E+03  0.60101847272E+03  0.50400001928E-02 0.  1.
       -1   -1    0    0    0  501  0.00000000000E+00  0.00000000000E+00 -0.90804312374E+03  0.90804312375E+03  0.50400001928E-02 0. -1.
    10030    2    1    2    0    0  0.00000000000E+00  0.00000000000E+00 -0.30702465104E+03  0.15090615965E+04  0.14774988209E+04 0.  0.
        4    1    3    3  502    0 -0.21112917336E+03 -0.24436336603E+03  0.52510594933E+03  0.61646318091E+03  0.12699999809E+01 0.  1.
       -4    1    3    3    0  502  0.21112917336E+03  0.24436336603E+03 -0.83213060037E+03  0.89259841556E+03  0.12699999809E+01 0. -1.
</event>
<event>
 5   0  0.2150197E-03  0.1490748E+04  0.7818609E-02  0.8890629E-01
       -2   -1    0    0    0  501  0.00000000000E+00  0.00000000000E+00  0.33065175522E+03  0.33065175523E+03  0.25500000920E-02 0.  1.
        2   -1    0    0  501    0  0.00000000000E+00  0.00000000000E+00 -0.16802648476E+04  0.16802648476E+04  0.25500000920E-02 0. -1.
    10030    2    1    2    0    0  0.00000000000E+00  0.00000000000E+00 -0.13496130924E+04  0.20109166029E+04  0.14907481627E+04 0.  0.
        3    1    3    3  502    0 -0.90755125791E+02 -0.57195869422E+03 -0.13078121808E+04  0.14302957566E+04  0.10100000352E+00 0. -1.
       -3    1    3    3    0  502  0.90755125791E+02  0.57195869422E+03 -0.41800911616E+02  0.58062084631E+03  0.10100000352E+00 0.  1.
</event>
<event>
 5   0  0.1087761E-03  0.1501248E+04  0.7818609E-02  0.8883623E-01
       -1   -1    0    0    0  501  0.00000000000E+00  0.00000000000E+00  0.47051993274E+03  0.47051993277E+03  0.50400001928E-02 0. -1.
        1   -1    0    0  501    0  0.00000000000E+00  0.00000000000E+00 -0.11974767208E+04  0.11974767208E+04  0.50400001928E-02 0.  1.
    10030    2    1    2    0    0  0.00000000000E+00  0.00000000000E+00 -0.72695678804E+03  0.16679966535E+04  0.15012483687E+04 0.  0.
        3    1    3    3  502    0 -0.16050668445E+03  0.46716046431E+03  0.26448470121E+03  0.56031550269E+03  0.10100000352E+00 0. -1.
       -3    1    3    3    0  502  0.16050668445E+03 -0.46716046431E+03 -0.99144148925E+03  0.11076811509E+04  0.10100000352E+00 0.  1.
</event>
<event>
 5   0  0.1961098E-03  0.1514798E+04  0.7818609E-02  0.8874672E-01
       -2   -1    0    0    0  501  0.00000000000E+00  0.00000000000E+00  0.72627955352E+03  0.72627955353E+03  0.25500000920E-02 0.  1.
        2   -1    0    0  501    0  0.00000000000E+00  0.00000000000E+00 -0.78985138858E+03  0.78985138859E+03  0.25500000920E-02 0. -1.
    10030    2    1    2    0    0  0.00000000000E+00  0.00000000000E+00 -0.63571835057E+02  0.15161309421E+04  0.15147975625E+04 0.  0.
        2    1    3    3  502    0  0.46541480903E+03 -0.55183682624E+03 -0.26115588922E+03  0.76768302427E+03  0.25500000920E-02 0. -1.
       -2    1    3    3    0  502 -0.46541480903E+03  0.55183682624E+03  0.19758405417E+03  0.74844791785E+03  0.25500000920E-02 0.  1.
</event>
<event>
 5   0  0.2150197E-03  0.1510556E+04  0.7818609E-02  0.8877464E-01
        2   -1    0    0  501    0  0.00000000000E+00  0.00000000000E+00  0.64454260435E+03  0.64454260435E+03  0.25500000920E-02 0.  1.
       -2   -1    0    0    0  501  0.00000000000E+00  0.00000000000E+00 -0.88503804727E+03  0.88503804727E+03  0.25500000920E-02 0. -1.
    10030    2    1    2    0    0  0.00000000000E+00  0.00000000000E+00 -0.24049544292E+03  0.15295806516E+04  0.15105558287E+04 0.  0.
        3    1    3    3  502    0  0.19409124841E+03  0.81842529100E+02  0.61419761211E+03  0.64931373711E+03  0.10100000352E+00 0.  1.
       -3    1    3    3    0  502 -0.19409124841E+03 -0.81842529100E+02 -0.85469305503E+03  0.88026691452E+03  0.10100000352E+00 0. -1.
</event>
<event>
 5   0  0.1961098E-03  0.1521385E+04  0.7818609E-02  0.8870356E-01
       -2   -1    0    0    0  501  0.00000000000E+00  0.00000000000E+00  0.35165939041E+03  0.35165939041E+03  0.25500000920E-02 0.  1.
        2   -1    0    0  501    0  0.00000000000E+00  0.00000000000E+00 -0.16454921422E+04  0.16454921422E+04  0.25500000920E-02 0. -1.
    10030    2    1    2    0    0  0.00000000000E+00  0.00000000000E+00 -0.12938327518E+04  0.19971515327E+04  0.15213845847E+04 0.  0.
        2    1    3    3  502    0 -0.69346763548E+02 -0.42829074383E+03  0.17330849532E+03  0.46720206487E+03  0.25500000920E-02 0.  1.
       -2    1    3    3    0  502  0.69346763548E+02  0.42829074383E+03 -0.14671412472E+04  0.15299494678E+04  0.25500000920E-02 0. -1.
</event>
<event>
 5   0  0.1961098E-03  0.1434299E+04  0.7818609E-02  0.8929359E-01
        2   -1    0    0  501    0  0.00000000000E+00  0.00000000000E+00  0.10312846981E+04  0.10312846981E+04  0.25500000920E-02 0. -1.
       -2   -1    0    0    0  501  0.00000000000E+00  0.00000000000E+00 -0.49870153232E+03  0.49870153232E+03  0.25500000920E-02 0.  1.
    10030    2    1    2    0    0  0.00000000000E+00  0.00000000000E+00  0.53258316579E+03  0.15299862304E+04  0.14342987962E+04 0.  0.
        2    1    3    3  502    0  0.57339435056E+03 -0.62104552814E+02 -0.18836529147E+03  0.60672855526E+03  0.25500000920E-02 0.  1.
       -2    1    3    3    0  502 -0.57339435056E+03  0.62104552814E+02  0.72094845726E+03  0.92325767517E+03  0.25500000920E-02 0. -1.
</event>
<event>
 5   0  0.1078787E-03  0.1444877E+04  0.7818609E-02  0.8921960E-01
        1   -1    0    0  501    0  0.00000000000E+00  0.00000000000E+00  0.63957871038E+03  0.63957871040E+03  0.50400001928E-02 0.  1.
       -1   -1    0    0    0  501  0.00000000000E+00  0.00000000000E+00 -0.81603320811E+03  0.81603320812E+03  0.50400001928E-02 0. -1.
    10030    2    1    2    0    0  0.00000000000E+00  0.00000000000E+00 -0.17645449773E+03  0.14556119185E+04  0.14448771116E+04 0.  0.
        5    1    3    3  502    0  0.28466582510E+02 -0.70988018733E+03  0.43723528775E+02  0.71181041272E+03  0.46999998093E+01 0.  1.
       -5    1    3    3    0  502 -0.28466582510E+02  0.70988018733E+03 -0.22017802651E+03  0.74380150581E+03  0.46999998093E+01 0. -1.
</event>
<event>
 5   0  0.1077140E-03  0.1491642E+04  0.7818609E-02  0.8890030E-01
        1   -1    0    0  501    0  0.00000000000E+00  0.00000000000E+00  0.18408044519E+04  0.18408044519E+04  0.50400001928E-02 0. -1.
       -1   -1    0    0    0  501  0.00000000000E+00  0.00000000000E+00 -0.30217729489E+03  0.30217729493E+03  0.50400001928E-02 0.  1.
    10030    2    1    2    0    0  0.00000000000E+00  0.00000000000E+00  0.15386271570E+04  0.21429817468E+04  0.14916424635E+04 0.  0.
        1    1    3    3  502    0 -0.60950518439E+03 -0.27863786412E+03  0.12395066280E+04  0.14090820807E+04  0.50400001928E-02 0. -1.
       -1    1    3    3    0  502  0.60950518439E+03  0.27863786412E+03  0.29912052898E+03  0.73389966617E+03  0.50400001928E-02 0.  1.
</event>
<event>
 5   0  0.1961098E-03  0.1496227E+04  0.7818609E-02  0.8886966E-01
       -2   -1    0    0    0  501  0.00000000000E+00  0.00000000000E+00  0.25242139996E+03  0.25242139997E+03  0.25500000920E-02 0.  1.
        2   -1    0    0  501    0  0.00000000000E+00  0.00000000000E+00 -0.22172196379E+04  0.22172196379E+04  0.25500000920E-02 0. -1.
    10030    2    1    2    0    0  0.00000000000E+00  0.00000000000E+00 -0.19647982380E+04  0.24696410379E+04  0.14962268345E+04 0.  0.
        2    1    3    3  502    0  0.49022204692E+03  0.46510795367E+03 -0.15122083890E+04  0.16563264399E+04  0.25500000920E-02 0. -1.
       -2    1    3    3    0  502 -0.49022204692E+03 -0.46510795367E+03 -0.45258984896E+03  0.81331459796E+03  0.25500000920E-02 0.  1.
</event>
<event>
 5   0  0.1961098E-03  0.1540983E+04  0.7818609E-02  0.8857648E-01
       -2   -1    0    0    0  501  0.00000000000E+00  0.00000000000E+00  0.43172429358E+03  0.43172429359E+03  0.25500000920E-02 0.  1.
        2   -1    0    0  501    0  0.00000000000E+00  0.00000000000E+00 -0.13750839129E+04  0.13750839129E+04  0.25500000920E-02 0. -1.
    10030    2    1    2    0    0  0.00000000000E+00  0.00000000000E+00 -0.94335961934E+03  0.18068082065E+04  0.15409829732E+04 0.  0.
        2    1    3    3  502    0  0.28948288452E+03  0.71206469117E+03 -0.40940820564E+03  0.87089123528E+03  0.25500000920E-02 0.  1.
       -2    1    3    3    0  502 -0.28948288452E+03 -0.71206469117E+03 -0.53395141370E+03  0.93591697123E+03  0.25500000920E-02 0. -1.
</event>
<event>
 5   0  0.7468375E-04  0.1499539E+04  0.7818609E-02  0.8884760E-01
       -3   -1    0    0    0  501  0.00000000000E+00  0.00000000000E+00  0.92217551282E+03  0.92217551835E+03  0.10100000352E+00 0.  1.
        3   -1    0    0  501    0  0.00000000000E+00  0.00000000000E+00 -0.60959564056E+03  0.60959564892E+03  0.10100000352E+00 0. -1.
    10030    2    1    2    0    0  0.00000000000E+00  0.00000000000E+00  0.31257987226E+03  0.15317711673E+04  0.14995388399E+04 0.  0.
        5    1    3    3  502    0  0.24848921765E+02  0.64461243148E+01 -0.60913152970E+03  0.60969035740E+03  0.46999998093E+01 0. -1.
       -5    1    3    3    0  502 -0.24848921765E+02 -0.64461243148E+01  0.92171140196E+03  0.92208080987E+03  0.46999998093E+01 0.  1.
</event>
<event>
 5   0  0.2150197E-03  0.1519368E+04  0.7818609E-02  0.8871675E-01
        2   -1    0    0  501    0  0.00000000000E+00  0.00000000000E+00  0.72687913209E+03  0.72687913209E+03  0.25500000920E-02 0. -1.
       -2   -1    0    0    0  501  0.00000000000E+00  0.00000000000E+00 -0.79396923198E+03  0.79396923198E+03  0.25500000920E-02 0.  1.
    10030    2    1    2    0    0  0.00000000000E+00  0.00000000000E+00 -0.67090099893E+02  0.15208483641E+04  0.15193678505E+04 0.  0.
        3    1    3    3  502    0  0.29000147349E+03  0.20352443736E+03 -0.70620925280E+03  0.79009782316E+03  0.10100000352E+00 0.  1.
       -3    1    3    3    0  502 -0.29000147349E+03 -0.20352443736E+03  0.63911915291E+03  0.73075054091E+03  0.10100000352E+00 0. -1.
</event>
<event>
 5   0  0.1069697E-03  0.1464781E+04  0.7818609E-02  0.8908217E-01
        1   -1    0    0  501    0  0.00000000000E+00  0.00000000000E+00  0.15309751150E+04  0.15309751150E+04  0.50400001928E-02 0. -1.
       -1   -1    0    0    0  501  0.00000000000E+00  0.00000000000E+00 -0.35036238820E+03  0.35036238824E+03  0.50400001928E-02 0.  1.
    10030    2    1    2    0    0  0.00000000000E+00  0.00000000000E+00  0.11806127268E+04  0.18813375032E+04  0.14647813456E+04 0.  0.
        2    1    3    3  502    0  0.26745055244E+03  0.66545485306E+03  0.39964545603E+03  0.82102158924E+03  0.25500000920E-02 0.  1.
       -2    1    3    3    0  502 -0.26745055244E+03 -0.66545485306E+03  0.78096727076E+03  0.10603159140E+04  0.25500000920E-02 0. -1.
</event>
<event>
 5   0  0.1077140E-03  0.1478187E+04  0.7818609E-02  0.8899090E-01
        1   -1    0    0  501    0  0.00000000000E+00  0.00000000000E+00  0.10456945013E+04  0.10456945013E+04  0.50400001928E-02 0.  1.
       -1   -1    0    0    0  501  0.00000000000E+00  0.00000000000E+00 -0.52238858153E+03  0.52238858155E+03  0.50400001928E-02 0. -1.
    10030    2    1    2    0    0  0.00000000000E+00  0.00000000000E+00  0.52330591975E+03  0.15680830828E+04  0.14781865474E+04 0.  0.
        1    1    3    3  502    0 -0.42006940570E+03 -0.32759935843E+03  0.80513761793E+03  0.96541505534E+03  0.50400001928E-02 0.  1.
       -1    1    3    3    0  502  0.42006940570E+03  0.32759935843E+03 -0.28183169818E+03  0.60266802750E+03  0.50400001928E-02 0. -1.
</event>
<event>
 5   0  0.1961098E-03  0.1512831E+04  0.7818609E-02  0.8875965E-01
        2   -1    0    0  501    0  0.00000000000E+00  0.00000000000E+00  0.21382579499E+04  0.21382579499E+04  0.25500000920E-02 0.  1.
       -2   -1    0    0    0  501  0.00000000000E+00  0.00000000000E+00 -0.26758442424E+03  0.26758442425E+03  0.25500000920E-02 0. -1.
    10030    2    1    2    0    0  0.00000000000E+00  0.00000000000E+00  0.18706735257E+04  0.24058423742E+04  0.15128311504E+04 0.  0.
        2    1    3    3  502    0  0.32099864490E+03  0.21613906346E+03 -0.98240464047E+02  0.39925857983E+03  0.25500000920E-02 0. -1.
       -2    1    3    3    0  502 -0.32099864490E+03 -0.21613906346E+03  0.19689139897E+04  0.20065837944E+04  0.25500000920E-02 0.  1.
</event>
<event>
 5   0  0.2111533E-03  0.1502843E+04  0.7818609E-02  0.8882565E-01
        2   -1    0    0  501    0  0.00000000000E+00  0.00000000000E+00  0.11973319070E+04  0.11973319070E+04  0.25500000920E-02 0.  1.
       -2   -1    0    0    0  501  0.00000000000E+00  0.00000000000E+00 -0.47157678350E+03  0.47157678351E+03  0.25500000920E-02 0. -1.
    10030    2    1    2    0    0  0.00000000000E+00  0.00000000000E+00  0.72575512354E+03  0.16689086905E+04  0.15028425460E+04 0.  0.
        5    1    3    3  502    0 -0.86688956741E+02 -0.71594681571E+03  0.59718287857E+03  0.93634624931E+03  0.46999998093E+01 0.  1.
       -5    1    3    3    0  502  0.86688956741E+02  0.71594681571E+03  0.12857224497E+03  0.73256244124E+03  0.46999998093E+01 0. -1.
</event>
<event>
 5   0  0.1069697E-03  0.1451239E+04  0.7818609E-02  0.8917542E-01
        1   -1    0    0  501    0  0.00000000000E+00  0.00000000000E+00  0.10401147729E+04  0.10401147729E+04  0.50400001928E-02 0.  1.
       -1   -1    0    0    0  501  0.00000000000E+00  0.00000000000E+00 -0.50621658370E+03  0.50621658372E+03  0.50400001928E-02 0. -1.
    10030    2    1    2    0    0  0.00000000000E+00  0.00000000000E+00  0.53389818923E+03  0.15463313567E+04  0.14512385704E+04 0.  0.
        2    1    3    3  502    0 -0.29082638766E+02  0.43114430635E+03 -0.35416360753E+03  0.55871555704E+03  0.25500000920E-02 0. -1.
       -2    1    3    3    0  502  0.29082638766E+02 -0.43114430635E+03  0.88806179677E+03  0.98761579962E+03  0.25500000920E-02 0.  1.
</event>
<event>
 5   0  0.1078787E-03  0.1480537E+04  0.7818609E-02  0.8897500E-01
       -1   -1    0    0    0  501  0.00000000000E+00  0.00000000000E+00  0.59339477630E+03  0.59339477632E+03  0.50400001928E-02 0. -1.
        1   -1    0    0  501    0  0.00000000000E+00  0.00000000000E+00 -0.92349512002E+03  0.92349512004E+03  0.50400001928E-02 0.  1.
    10030    2    1    2    0    0  0.00000000000E+00  0.00000000000E+00 -0.33010034373E+03  0.15168898964E+04  0.14805366327E+04 0.  0.
        5    1    3    3  502    0 -0.65704685164E+03  0.17182873127E+03  0.13669695117E+03  0.69277978074E+03  0.46999998093E+01 0. -1.
       -5    1    3    3    0  502  0.65704685164E+03 -0.17182873127E+03 -0.46679729490E+03  0.82411011562E+03  0.46999998093E+01 0.  1.
</event>
<event>
 5   0  0.1993623E-03  0.1474219E+04  0.7818609E-02  0.8901781E-01
        2   -1    0    0  501    0  0.00000000000E+00  0.00000000000E+00  0.10920711704E+04  0.10920711704E+04  0.25500000920E-02 0. -1.
       -2   -1    0    0    0  501  0.00000000000E+00  0.00000000000E+00 -0.49752258859E+03  0.49752258859E+03  0.25500000920E-02 0.  1.
    10030    2    1    2    0    0  0.00000000000E+00  0.00000000000E+00  0.59454858182E+03  0.15895937590E+04  0.14742185396E+04 0.  0.
        4    1    3    3  502    0  0.20056323986E+03 -0.53003032251E+03  0.80551292923E+03  0.98489108434E+03  0.12699999809E+01 0. -1.
       -4    1    3    3    0  502 -0.20056323986E+03  0.53003032251E+03 -0.21096434741E+03  0.60470267466E+03  0.12699999809E+01 0.  1.
</event>
<event>
 5   0  0.1087761E-03  0.1537871E+04  0.7818609E-02  0.8859653E-01
        1   -1    0    0  501    0  0.00000000000E+00  0.00000000000E+00  0.14251647938E+04  0.14251647939E+04  0.50400001928E-02 0. -1.
       -1   -1    0    0    0  501  0.00000000000E+00  0.00000000000E+00 -0.41487251573E+03  0.41487251576E+03  0.50400001928E-02 0.  1.
    10030    2    1    2    0    0  0.00000000000E+00  0.00000000000E+00  0.10102922781E+04  0.18400373096E+04  0.15378708702E+04 0.  0.
        3    1    3    3  502    0  0.28520826173E+03 -0.61202814766E+03  0.94531470168E+03  0.11616979390E+04  0.10100000352E+00 0. -1.
       -3    1    3    3    0  502 -0.28520826173E+03  0.61202814766E+03  0.64977576439E+02  0.67833937061E+03  0.10100000352E+00 0.  1.
</event>
<event>
 5   0  0.1069697E-03  0.1429591E+04  0.7818609E-02  0.8932673E-01
        1   -1    0    0  501    0  0.00000000000E+00  0.00000000000E+00  0.17450513117E+04  0.17450513117E+04  0.50400001928E-02 0. -1.
       -1   -1    0    0    0  501  0.00000000000E+00  0.00000000000E+00 -0.29278939755E+03  0.29278939759E+03  0.50400001928E-02 0.  1.
    10030    2    1    2    0    0  0.00000000000E+00  0.00000000000E+00  0.14522619141E+04  0.20378407093E+04  0.14295908817E+04 0.  0.
        2    1    3    3  502    0  0.30148645316E+03  0.19301798478E+03  0.16080617382E+04  0.16474260463E+04  0.25500000920E-02 0. -1.
       -2    1    3    3    0  502 -0.30148645316E+03 -0.19301798478E+03 -0.15579982412E+03  0.39041466301E+03  0.25500000920E-02 0.  1.
</event>
<event>
 5   0  0.1961098E-03  0.1525437E+04  0.7818609E-02  0.8867712E-01
        2   -1    0    0  501    0  0.00000000000E+00  0.00000000000E+00  0.96694800944E+03  0.96694800944E+03  0.25500000920E-02 0. -1.
       -2   -1    0    0    0  501  0.00000000000E+00  0.00000000000E+00 -0.60162453817E+03  0.60162453818E+03  0.25500000920E-02 0.  1.
    10030    2    1    2    0    0  0.00000000000E+00  0.00000000000E+00  0.36532347127E+03  0.15685725476E+04  0.15254371827E+04 0.  0.
        2    1    3    3  502    0  0.19964114332E+03 -0.18566323775E+03 -0.54980978800E+03  0.61369229011E+03  0.25500000920E-02 0.  1.
       -2    1    3    3    0  502 -0.19964114332E+03  0.18566323775E+03  0.91513325927E+03  0.95488025751E+03  0.25500000920E-02 0. -1.
</event>
<event>
 5   0  0.2111533E-03  0.1485130E+04  0.7818609E-02  0.8894402E-01
        2   -1    0    0  501    0  0.00000000000E+00  0.00000000000E+00  0.13151441428E+04  0.13151441428E+04  0.25500000920E-02 0. -1.
       -2   -1    0    0    0  501  0.00000000000E+00  0.00000000000E+00 -0.41927190570E+03  0.41927190571E+03  0.25500000920E-02 0.  1.
    10030    2    1    2    0    0  0.00000000000E+00  0.00000000000E+00  0.89587223711E+03  0.17344160485E+04  0.14851302852E+04 0.  0.
        5    1    3    3  502    0  0.16466729460E+03  0.30489764603E+03 -0.31903669979E+03  0.47104606810E+03  0.46999998093E+01 0.  1.
       -5    1    3    3    0  502 -0.16466729460E+03 -0.30489764603E+03  0.12149089369E+04  0.12633699804E+04  0.46999998093E+01 0. -1.
</event>
<event>
 5   0  0.1078018E-03  0.1479127E+04  0.7818609E-02  0.8898453E-01
        1   -1    0    0  501    0  0.00000000000E+00  0.00000000000E+00  0.58362674627E+03  0.58362674629E+03  0.50400001928E-02 0. -1.
       -1   -1    0    0    0  501  0.00000000000E+00  0.00000000000E+00 -0.93716422752E+03  0.93716422753E+03  0.50400001928E-02 0.  1.
    10030    2    1    2    0    0  0.00000000000E+00  0.00000000000E+00 -0.35353748125E+03  0.15207909738E+04  0.14791269166E+04 0.  0.
        4    1    3    3  502    0  0.45372769427E+03  0.71828295769E+02  0.41914697998E+03  0.62186327142E+03  0.12699999809E+01 0. -1.
       -4    1    3    3    0  502 -0.45372769427E+03 -0.71828295769E+02 -0.77268446123E+03  0.89892770240E+03  0.12699999809E+01 0.  1.
</event>
<event>
 5   0  0.2111533E-03  0.1446143E+04  0.7818609E-02  0.8921079E-01
        2   -1    0    0  501    0  0.00000000000E+00  0.00000000000E+00  0.85920686688E+03  0.85920686689E+03  0.25500000920E-02 0.  1.
       -2   -1    0    0    0  501  0.00000000000E+00  0.00000000000E+00 -0.60850566330E+03  0.60850566331E+03  0.25500000920E-02 0. -1.
    10030    2    1    2    0    0  0.00000000000E+00  0.00000000000E+00  0.25070120358E+03  0.14677125302E+04  0.14461427930E+04 0.  0.
        5    1    3    3  502    0  0.17046905186E+03  0.40343800771E+03 -0.45854620483E+03  0.63412036370E+03  0.46999998093E+01 0. -1.
       -5    1    3    3    0  502 -0.17046905186E+03 -0.40343800771E+03  0.70924740841E+03  0.83359216649E+03  0.46999998093E+01 0.  1.
</event>
<event>
 5   0  0.1087761E-03  0.1388162E+04  0.7818609E-02  0.8962432E-01
        1   -1    0    0  501    0  0.00000000000E+00  0.00000000000E+00  0.10869551952E+04  0.10869551952E+04  0.50400001928E-02 0.  1.
       -1   -1    0    0    0  501  0.00000000000E+00  0.00000000000E+00 -0.44320939103E+03  0.44320939106E+03  0.50400001928E-02 0. -1.
    10030    2    1    2    0    0  0.00000000000E+00  0.00000000000E+00  0.64374580418E+03  0.15301645863E+04  0.13881624547E+04 0.  0.
        3    1    3    3  502    0  0.65443942205E+03  0.16922407940E+03  0.49553595668E+03  0.83814297154E+03  0.10100000352E+00 0. -1.
       -3    1    3    3    0  502 -0.65443942205E+03 -0.16922407940E+03  0.14820984750E+03  0.69202161475E+03  0.10100000352E+00 0.  1.
</event>
<event>
 5   0  0.1961098E-03  0.1508492E+04  0.7818609E-02  0.8878825E-01
       -2   -1    0    0    0  501  0.00000000000E+00  0.00000000000E+00  0.42124209631E+03  0.42124209632E+03  0.25500000920E-02 0. -1.
        2   -1    0    0  501    0  0.00000000000E+00  0.00000000000E+00 -0.13504991604E+04  0.13504991604E+04  0.25500000920E-02 0.  1.
    10030    2    1    2    0    0  0.00000000000E+00  0.00000000000E+00 -0.92925706408E+03  0.17717412567E+04  0.15084920913E+04 0.  0.
        2    1    3    3  502    0  0.23088344132E+03 -0.65123263845E+03 -0.81985948985E+03  0.10721850101E+04  0.25500000920E-02 0.  1.
       -2    1    3    3    0  502 -0.23088344132E+03  0.65123263845E+03 -0.10939757423E+03  0.69955624657E+03  0.25500000920E-02 0. -1.
</event>
<event>
 5   0  0.2150197E-03  0.1515209E+04  0.7818609E-02  0.8874401E-01
        2   -1    0    0  501    0  0.00000000000E+00  0.00000000000E+00  0.14329677099E+04  0.14329677099E+04  0.25500000920E-02 0. -1.
       -2   -1    0    0    0  501  0.00000000000E+00  0.00000000000E+00 -0.40054272501E+03  0.40054272502E+03  0.25500000920E-02 0.  1.
    10030    2    1    2    0    0  0.00000000000E+00  0.00000000000E+00  0.10324249849E+04  0.18335104349E+04  0.15152092811E+04 0.  0.
        3    1    3    3  502    0  0.18555188790E+03 -0.40517582862E+03 -0.22516481146E+03  0.49929566162E+03  0.10100000352E+00 0.  1.
       -3    1    3    3    0  502 -0.18555188790E+03  0.40517582862E+03  0.12575897964E+04  0.13342147733E+04  0.10100000352E+00 0. -1.
</event>
<event>
 5   0  0.2094566E-03  0.1534148E+04  0.7818609E-02  0.8862057E-01
        2   -1    0    0  501    0  0.00000000000E+00  0.00000000000E+00  0.88519420521E+03  0.88519420521E+03  0.25500000920E-02 0. -1.
       -2   -1    0    0    0  501  0.00000000000E+00  0.00000000000E+00 -0.66471570642E+03  0.66471570642E+03  0.25500000920E-02 0.  1.
    10030    2    1    2    0    0  0.00000000000E+00  0.00000000000E+00  0.22047849879E+03  0.15499099116E+04  0.15341479608E+04 0.  0.
        1    1    3    3  502    0 -0.39892855396E+03 -0.62373051235E+03  0.31284580015E+03  0.80377623621E+03  0.50400001928E-02 0.  1.
       -1    1    3    3    0  502  0.39892855396E+03  0.62373051235E+03 -0.92367301362E+02  0.74613367542E+03  0.50400001928E-02 0. -1.
</event>
<event>
 5   0  0.1077140E-03  0.1328397E+04  0.7818609E-02  0.9007344E-01
       -1   -1    0    0    0  501  0.00000000000E+00  0.00000000000E+00  0.27965314855E+03  0.27965314859E+03  0.50400001928E-02 0. -1.
        1   -1    0    0  501    0  0.00000000000E+00  0.00000000000E+00 -0.15775243193E+04  0.15775243193E+04  0.50400001928E-02 0.  1.
    10030    2    1    2    0    0  0.00000000000E+00  0.00000000000E+00 -0.12978711707E+04  0.18571774679E+04  0.13283969931E+04 0.  0.
        1    1    3    3  502    0  0.72254125448E+02  0.15966204136E+03 -0.15446180540E+04  0.15545280824E+04  0.50400001928E-02 0.  1.
       -1    1    3    3    0  502 -0.72254125448E+02 -0.15966204136E+03  0.24674688330E+03  0.30264938549E+03  0.50400001928E-02 0. -1.
</event>
<event>
 5   0  0.2150197E-03  0.1493510E+04  0.7818609E-02  0.8888780E-01
       -2   -1    0    0    0  501  0.00000000000E+00  0.00000000000E+00  0.79291187976E+03  0.79291187976E+03  0.25500000920E-02 0. -1.
        2   -1    0    0  501    0  0.00000000000E+00  0.00000000000E+00 -0.70328469944E+03  0.70328469944E+03  0.25500000920E-02 0.  1.
    10030    2    1    2    0    0  0.00000000000E+00  0.00000000000E+00  0.89627180321E+02  0.14961965792E+04  0.14935096827E+04 0.  0.
        3    1    3    3  502    0  0.26032518221E+03 -0.36318245864E+03  0.64419765824E+03  0.78400340040E+03  0.10100000352E+00 0. -1.
       -3    1    3    3    0  502 -0.26032518221E+03  0.36318245864E+03 -0.55457047792E+03  0.71219317881E+03  0.10100000352E+00 0.  1.
</event>
<event>
 5   0  0.1078018E-03  0.1419853E+04  0.7818609E-02  0.8939572E-01
        1   -1    0    0  501    0  0.00000000000E+00  0.00000000000E+00  0.65981719858E+03  0.65981719860E+03  0.50400001928E-02 0. -1.
       -1   -1    0    0    0  501  0.00000000000E+00  0.00000000000E+00 -0.76384129240E+03  0.76384129242E+03  0.50400001928E-02 0.  1.
    10030    2    1    2    0    0  0.00000000000E+00  0.00000000000E+00 -0.10402409382E+03  0.14236584910E+04  0.14198529807E+04 0.  0.
        4    1    3    3  502    0 -0.98325981566E+02  0.47799977586E+03 -0.56899286127E+03  0.74960407780E+03  0.12699999809E+01 0.  1.
       -4    1    3    3    0  502  0.98325981566E+02 -0.47799977586E+03  0.46496876744E+03  0.67405441322E+03  0.12699999809E+01 0. -1.
</event>
<event>
 5   0  0.2111533E-03  0.1502772E+04  0.7818609E-02  0.8882612E-01
       -2   -1    0    0    0  501  0.00000000000E+00  0.00000000000E+00  0.42230842005E+03  0.42230842006E+03  0.25500000920E-02 0.  1.
        2   -1    0    0  501    0  0.00000000000E+00  0.00000000000E+00 -0.13368921261E+04  0.13368921261E+04  0.25500000920E-02 0. -1.
    10030    2    1    2    0    0  0.00000000000E+00  0.00000000000E+00 -0.91458370600E+03  0.17592005461E+04  0.15027718410E+04 0.  0.
        5    1    3    3  502    0  0.11830320803E+03  0.32073524139E+03  0.32597897790E+03  0.47238874683E+03  0.46999998093E+01 0.  1.
       -5    1    3    3    0  502 -0.11830320803E+03 -0.32073524139E+03 -0.12405626839E+04  0.12868117993E+04  0.46999998093E+01 0. -1.
</event>
<event>
 5   0  0.1078018E-03  0.1446641E+04  0.7818609E-02  0.8920732E-01
        1   -1    0    0  501    0  0.00000000000E+00  0.00000000000E+00  0.93371052760E+03  0.93371052761E+03  0.50400001928E-02 0.  1.
       -1   -1    0    0    0  501  0.00000000000E+00  0.00000000000E+00 -0.56033706557E+03  0.56033706559E+03  0.50400001928E-02 0. -1.
    10030    2    1    2    0    0  0.00000000000E+00  0.00000000000E+00  0.37337346203E+03  0.14940475932E+04  0.14466410988E+04 0.  0.
        4    1    3    3  502    0 -0.53793378444E+03  0.16911601159E+02  0.68577465390E+03  0.87174953256E+03  0.12699999809E+01 0.  1.
       -4    1    3    3    0  502  0.53793378444E+03 -0.16911601159E+02 -0.31240119187E+03  0.62229806064E+03  0.12699999809E+01 0. -1.
</event>
<event>
 5   0  0.1078787E-03  0.1491647E+04  0.7818609E-02  0.8890027E-01
       -1   -1    0    0    0  501  0.00000000000E+00  0.00000000000E+00  0.69750409661E+03  0.69750409663E+03  0.50400001928E-02 0. -1.
        1   -1    0    0  501    0  0.00000000000E+00  0.00000000000E+00 -0.79748985897E+03  0.79748985899E+03  0.50400001928E-02 0.  1.
    10030    2    1    2    0    0  0.00000000000E+00  0.00000000000E+00 -0.99985762366E+02  0.14949939556E+04  0.14916466655E+04 0.  0.
        5    1    3    3  502    0 -0.43552829083E+03  0.20891466145E+03 -0.61951104834E+03  0.78558656868E+03  0.46999998093E+01 0.  1.
       -5    1    3    3    0  502  0.43552829083E+03 -0.20891466145E+03  0.51952528597E+03  0.70940738694E+03  0.46999998093E+01 0. -1.
</event>
<event>
 5   0  0.2094566E-03  0.1487332E+04  0.7818609E-02  0.8892921E-01
       -2   -1    0    0    0  501  0.00000000000E+00  0.00000000000E+00  0.33882769525E+03  0.33882769526E+03  0.25500000920E-02 0. -1.
        2   -1    0    0  501    0  0.00000000000E+00  0.00000000000E+00 -0.16322141067E+04  0.16322141067E+04  0.25500000920E-02 0.  1.
    10030    2    1    2    0    0  0.00000000000E+00  0.00000000000E+00 -0.12933864114E+04  0.19710418019E+04  0.14873323017E+04 0.  0.
        1    1    3    3  502    0 -0.48631192788E+03 -0.26411181014E+03  0.11642193889E+02  0.55352495893E+03  0.50400001928E-02 0. -1.
       -1    1    3    3    0  502  0.48631192788E+03  0.26411181014E+03 -0.13050286053E+04  0.14175168430E+04  0.50400001928E-02 0.  1.
</event>
<event>
 5   0  0.1993623E-03  0.1483883E+04  0.7818609E-02  0.8895242E-01
       -2   -1    0    0    0  501  0.00000000000E+00  0.00000000000E+00  0.90465863127E+03  0.90465863127E+03  0.25500000920E-02 0.  1.
        2   -1    0    0  501    0  0.00000000000E+00  0.00000000000E+00 -0.60849140600E+03  0.60849140601E+03  0.25500000920E-02 0. -1.
    10030    2    1    2    0    0  0.00000000000E+00  0.00000000000E+00  0.29616722527E+03  0.15131500373E+04  0.14838827481E+04 0.  0.
        4    1    3    3  502    0  0.21661661918E+03  0.63296981701E+03 -0.17902650623E+03  0.69255010778E+03  0.12699999809E+01 0. -1.
       -4    1    3    3    0  502 -0.21661661918E+03 -0.63296981701E+03  0.47519373150E+03  0.82059992951E+03  0.12699999809E+01 0.  1.
</event>
<event>
 5   0  0.2150197E-03  0.1449526E+04  0.7818609E-02  0.8918729E-01
        2   -1    0    0  501    0  0.00000000000E+00  0.00000000000E+00  0.18852691361E+04  0.18852691361E+04  0.25500000920E-02 0.  1.
       -2   -1    0    0    0  501  0.00000000000E+00  0.00000000000E+00 -0.27862407330E+03  0.27862407331E+03  0.25500000920E-02 0. -1.
    10030    2    1    2    0    0  0.00000000000E+00  0.00000000000E+00  0.16066450628E+04  0.21638932094E+04  0.14495259446E+04 0.  0.
        3    1    3    3  502    0 -0.27527131871E+03 -0.58913375919E+03  0.12810939605E+04  0.14366818127E+04  0.10100000352E+00 0. -1.
       -3    1    3    3    0  502  0.27527131871E+03  0.58913375919E+03  0.32555110236E+03  0.72721139675E+03  0.10100000352E+00 0.  1.
</event>
<event>
 5   0  0.1078018E-03  0.1532350E+04  0.7818609E-02  0.8863221E-01
        1   -1    0    0  501    0  0.00000000000E+00  0.00000000000E+00  0.42083301958E+03  0.42083301961E+03  0.50400001928E-02 0.  1.
       -1   -1    0    0    0  501  0.00000000000E+00  0.00000000000E+00 -0.13949105493E+04  0.13949105493E+04  0.50400001928E-02 0. -1.
    10030    2    1    2    0    0  0.00000000000E+00  0.00000000000E+00 -0.97407752970E+03  0.18157435689E+04  0.15323503758E+04 0.  0.
        4    1    3    3  502    0  0.92774745808E+02  0.74933406097E+03 -0.33293221275E+03  0.82519946654E+03  0.12699999809E+01 0.  1.
       -4    1    3    3    0  502 -0.92774745808E+02 -0.74933406097E+03 -0.64114531695E+03  0.99054410236E+03  0.12699999809E+01 0. -1.
</event>
<event>
 5   0  0.1069697E-03  0.1479094E+04  0.7818609E-02  0.8898475E-01
       -1   -1    0    0    0  501  0.00000000000E+00  0.00000000000E+00  0.35187603916E+03  0.35187603920E+03  0.50400001928E-02 0. -1.
        1   -1    0    0  501    0  0.00000000000E+00  0.00000000000E+00 -0.15543259096E+04  0.15543259096E+04  0.50400001928E-02 0.  1.
    10030    2    1    2    0    0  0.00000000000E+00  0.00000000000E+00 -0.12024498704E+04  0.19062019488E+04  0.14790943779E+04 0.  0.
        2    1    3    3  502    0  0.20436359067E+03 -0.43402921714E+02  0.31305379347E+03  0.37636547187E+03  0.25500000920E-02 0. -1.
       -2    1    3    3    0  502 -0.20436359067E+03  0.43402921714E+02 -0.15155036639E+04  0.15298364769E+04  0.25500000920E-02 0.  1.
</event>
<event>
 5   0  0.2111533E-03  0.1458143E+04  0.7818609E-02  0.8912774E-01
        2   -1    0    0  501    0  0.00000000000E+00  0.00000000000E+00  0.13351371370E+04  0.13351371370E+04  0.25500000920E-02 0. -1.
       -2   -1    0    0    0  501  0.00000000000E+00  0.00000000000E+00 -0.39812043724E+03  0.39812043725E+03  0.25500000920E-02 0.  1.
    10030    2    1    2    0    0  0.00000000000E+00  0.00000000000E+00  0.93701669977E+03  0.17332575743E+04  0.14581431765E+04 0.  0.
        5    1    3    3  502    0 -0.40466634627E+03  0.60284227324E+03  0.39011319497E+03  0.82424756785E+03  0.46999998093E+01 0.  1.
       -5    1    3    3    0  502  0.40466634627E+03 -0.60284227324E+03  0.54690350480E+03  0.90901000642E+03  0.46999998093E+01 0. -1.
</event>
<event>
 5   0  0.1077140E-03  0.1446238E+04  0.7818609E-02  0.8921012E-01
       -1   -1    0    0    0  501  0.00000000000E+00  0.00000000000E+00  0.22184374731E+03  0.22184374737E+03  0.50400001928E-02 0. -1.
        1   -1    0    0  501    0  0.00000000000E+00  0.00000000000E+00 -0.23570706055E+04  0.23570706055E+04  0.50400001928E-02 0.  1.
    10030    2    1    2    0    0  0.00000000000E+00  0.00000000000E+00 -0.21352268581E+04  0.25789143528E+04  0.14462383979E+04 0.  0.
        1    1    3    3  502    0 -0.31580041880E+03  0.43712865387E+03 -0.19266769074E+04  0.20007236866E+04  0.50400001928E-02 0.  1.
       -1    1    3    3    0  502  0.31580041880E+03 -0.43712865387E+03 -0.20854995074E+03  0.57819066624E+03  0.50400001928E-02 0. -1.
</event>
<event>
 5   0  0.2150197E-03  0.1544992E+04  0.7818609E-02  0.8855073E-01
        2   -1    0    0  501    0  0.00000000000E+00  0.00000000000E+00  0.48937569988E+03  0.48937569989E+03  0.25500000920E-02 0. -1.
       -2   -1    0    0    0  501  0.00000000000E+00  0.00000000000E+00 -0.12194115657E+04  0.12194115657E+04  0.25500000920E-02 0.  1.
    10030    2    1    2    0    0  0.00000000000E+00  0.00000000000E+00 -0.73003586581E+03  0.17087872656E+04  0.15449924122E+04 0.  0.
        3    1    3    3  502    0 -0.64543255963E+03  0.14657477942E+02 -0.83419892178E+03  0.10548392683E+04  0.10100000352E+00 0.  1.
       -3    1    3    3    0  502  0.64543255963E+03 -0.14657477942E+02  0.10416305597E+03  0.65394799726E+03  0.10100000352E+00 0. -1.
</event>
<event>
 5   0  0.1069697E-03  0.1475062E+04  0.7818609E-02  0.8901208E-01
       -1   -1    0    0    0  501  0.00000000000E+00  0.00000000000E+00  0.35990220476E+03  0.35990220480E+03  0.50400001928E-02 0.  1.
        1   -1    0    0  501    0  0.00000000000E+00  0.00000000000E+00 -0.15113876927E+04  0.15113876927E+04  0.50400001928E-02 0. -1.
    10030    2    1    2    0    0  0.00000000000E+00  0.00000000000E+00 -0.11514854880E+04  0.18712898975E+04  0.14750617111E+04 0.  0.
        2    1    3    3  502    0 -0.52723442702E+02 -0.64178208072E+03 -0.10318947536E+04  0.12163349798E+04  0.25500000920E-02 0. -1.
       -2    1    3    3    0  502  0.52723442702E+02  0.64178208072E+03 -0.11959073438E+03  0.65495491776E+03  0.25500000920E-02 0.  1.
</event>
<event>
 5   0  0.1078018E-03  0.1650935E+04  0.7818609E-02  0.8789853E-01
       -1   -1    0    0    0  501  0.00000000000E+00  0.00000000000E+00  0.13728524031E+04  0.13728524031E+04  0.50400001928E-02 0. -1.
        1   -1    0    0  501    0  0.00000000000E+00  0.00000000000E+00 -0.49633651252E+03  0.49633651254E+03  0.50400001928E-02 0.  1.
    10030    2    1    2    0    0  0.00000000000E+00  0.00000000000E+00  0.87651589059E+03  0.18691889157E+04  0.16509352186E+04 0.  0.
        4    1    3    3  502    0 -0.51960090609E+03 -0.58218959241E+02 -0.28495171127E+03  0.59546086309E+03  0.12699999809E+01 0.  1.
       -4    1    3    3    0  502  0.51960090609E+03  0.58218959241E+02  0.11614676019E+04  0.12737280526E+04  0.12699999809E+01 0. -1.
</event>
<event>
 5   0  0.7468375E-04  0.1532034E+04  0.7818609E-02  0.8863426E-01
        3   -1    0    0  501    0  0.00000000000E+00  0.00000000000E+00  0.62578137034E+03  0.62578137849E+03  0.10100000352E+00 0.  1.
       -3   -1    0    0    0  501  0.00000000000E+00  0.00000000000E+00 -0.93767861796E+03  0.93767862340E+03  0.10100000352E+00 0. -1.
    10030    2    1    2    0    0  0.00000000000E+00  0.00000000000E+00 -0.31189724762E+03  0.15634600019E+04  0.15320337087E+04 0.  0.
        1    1    3    3  502    0 -0.27103756738E+03  0.47047813696E+03 -0.70737577967E+03  0.89173512546E+03  0.50400001928E-02 0. -1.
       -1    1    3    3    0  502  0.27103756738E+03 -0.47047813696E+03  0.39547853205E+03  0.67172487644E+03  0.50400001928E-02 0.  1.
</event>
<event>
 5   0  0.1993623E-03  0.1480999E+04  0.7818609E-02  0.8897188E-01
        2   -1    0    0  501    0  0.00000000000E+00  0.00000000000E+00  0.50787785648E+03  0.50787785648E+03  0.25500000920E-02 0. -1.
       -2   -1    0    0    0  501  0.00000000000E+00  0.00000000000E+00 -0.10796681153E+04  0.10796681153E+04  0.25500000920E-02 0.  1.
    10030    2    1    2    0    0  0.00000000000E+00  0.00000000000E+00 -0.57179025884E+03  0.15875459718E+04  0.14809990251E+04 0.  0.
        4    1    3    3  502    0 -0.50332694648E+03 -0.28042860272E+03  0.21271342120E+03  0.61418794252E+03  0.12699999809E+01 0. -1.
       -4    1    3    3    0  502  0.50332694648E+03  0.28042860272E+03 -0.78450368004E+03  0.97335802928E+03  0.12699999809E+01 0.  1.
</event>
<event>
 5   0  0.1078787E-03  0.1462297E+04  0.7818609E-02  0.8909920E-01
       -1   -1    0    0    0  501  0.00000000000E+00  0.00000000000E+00  0.55065003664E+03  0.55065003666E+03  0.50400001928E-02 0. -1.
        1   -1    0    0  501    0  0.00000000000E+00  0.00000000000E+00 -0.97081251381E+03  0.97081251383E+03  0.50400001928E-02 0.  1.
    10030    2    1    2    0    0  0.00000000000E+00  0.00000000000E+00 -0.42016247717E+03  0.15214625505E+04  0.14622967501E+04 0.  0.
        5    1    3    3  502    0 -0.42193314209E+03 -0.59158553581E+03 -0.12584352061E+03  0.73746844288E+03  0.46999998093E+01 0.  1.
       -5    1    3    3    0  502  0.42193314209E+03  0.59158553581E+03 -0.29431895656E+03  0.78399410761E+03  0.46999998093E+01 0. -1.
</event>
<event>
 5   0  0.1961098E-03  0.1482358E+04  0.7818609E-02  0.8896270E-01
        2   -1    0    0  501    0  0.00000000000E+00  0.00000000000E+00  0.83957858804E+03  0.83957858804E+03  0.25500000920E-02 0. -1.
       -2   -1    0    0    0  501  0.00000000000E+00  0.00000000000E+00 -0.65431212315E+03  0.65431212316E+03  0.25500000920E-02 0.  1.
    10030    2    1    2    0    0  0.00000000000E+00  0.00000000000E+00  0.18526646488E+03  0.14938907112E+04  0.14823581868E+04 0.  0.
        2    1    3    3  502    0 -0.91561155737E+02 -0.72054840819E+03  0.24133795265E+03  0.76538713157E+03  0.25500000920E-02 0.  1.
       -2    1    3    3    0  502  0.91561155737E+02  0.72054840819E+03 -0.56071487768E+02  0.72850357962E+03  0.25500000920E-02 0. -1.
</event>
<event>
 5   0  0.1078018E-03  0.1518139E+04  0.7818609E-02  0.8872479E-01
       -1   -1    0    0    0  501  0.00000000000E+00  0.00000000000E+00  0.94927606888E+03  0.94927606889E+03  0.50400001928E-02 0.  1.
        1   -1    0    0  501    0  0.00000000000E+00  0.00000000000E+00 -0.60697478901E+03  0.60697478904E+03  0.50400001928E-02 0. -1.
    10030    2    1    2    0    0  0.00000000000E+00  0.00000000000E+00  0.34230127986E+03  0.15562508579E+04  0.15181391789E+04 0.  0.
        4    1    3    3  502    0 -0.13922418850E+03  0.74044117475E+03  0.76371338703E+02  0.75727848392E+03  0.12699999809E+01 0. -1.
       -4    1    3    3    0  502  0.13922418850E+03 -0.74044117475E+03  0.26592994116E+03  0.79897237401E+03  0.12699999809E+01 0.  1.
</event>
<event>
 5   0  0.1077140E-03  0.1227614E+04  0.7818609E-02  0.9089024E-01
        1   -1    0    0  501    0  0.00000000000E+00  0.00000000000E+00  0.85072845620E+03  0.85072845622E+03  0.50400001928E-02 0.  1.
       -1   -1    0    0    0  501  0.00000000000E+00  0.00000000000E+00 -0.44286610522E+03  0.44286610525E+03  0.50400001928E-02 0. -1.
    10030    2    1    2    0    0  0.00000000000E+00  0.00000000000E+00  0.40786235098E+03  0.12935945615E+04  0.12276136168E+04 0.  0.
        1    1    3    3  502    0 -0.44632976102E+03  0.89607970192E+02 -0.22992483273E+03  0.51000516922E+03  0.50400001928E-02 0. -1.
       -1    1    3    3    0  502  0.44632976102E+03 -0.89607970192E+02  0.63778718372E+03  0.78358939224E+03  0.50400001928E-02 0.  1.
</event>
<event>
 5   0  0.1961098E-03  0.1487812E+04  0.7818609E-02  0.8892599E-01
       -2   -1    0    0    0  501  0.00000000000E+00  0.00000000000E+00  0.36501887087E+03  0.36501887088E+03  0.25500000920E-02 0.  1.
        2   -1    0    0  501    0  0.00000000000E+00  0.00000000000E+00 -0.15160744322E+04  0.15160744323E+04  0.25500000920E-02 0. -1.
    10030    2    1    2    0    0  0.00000000000E+00  0.00000000000E+00 -0.11510555614E+04  0.18810933031E+04  0.14878115169E+04 0.  0.
        2    1    3    3  502    0 -0.55002189784E+03  0.47027037744E+03 -0.35757205876E+03  0.80717785724E+03  0.25500000920E-02 0. -1.
       -2    1    3    3    0  502  0.55002189784E+03 -0.47027037744E+03 -0.79348350262E+03  0.10739154459E+04  0.25500000920E-02 0.  1.
</event>
<event>
 5   0  0.1993623E-03  0.1513474E+04  0.7818609E-02  0.8875542E-01
       -2   -1    0    0    0  501  0.00000000000E+00  0.00000000000E+00  0.20434500932E+03  0.20434500933E+03  0.25500000920E-02 0. -1.
        2   -1    0    0  501    0  0.00000000000E+00  0.00000000000E+00 -0.28023717044E+04  0.28023717044E+04  0.25500000920E-02 0.  1.
    10030    2    1    2    0    0  0.00000000000E+00  0.00000000000E+00 -0.25980266951E+04  0.30067167137E+04  0.15134737158E+04 0.  0.
        4    1    3    3  502    0  0.34732137895E+02  0.42601421179E+03 -0.58433652065E+02  0.43140530206E+03  0.12699999809E+01 0. -1.
       -4    1    3    3    0  502 -0.34732137895E+02 -0.42601421179E+03 -0.25395930430E+04  0.25753114117E+04  0.12699999809E+01 0.  1.
</event>
<event>
 5   0  0.1069697E-03  0.1526467E+04  0.7818609E-02  0.8867041E-01
       -1   -1    0    0    0  501  0.00000000000E+00  0.00000000000E+00  0.11334388330E+04  0.11334388330E+04  0.50400001928E-02 0. -1.
        1   -1    0    0  501    0  0.00000000000E+00  0.00000000000E+00 -0.51394542330E+03  0.51394542332E+03  0.50400001928E-02 0.  1.
    10030    2    1    2    0    0  0.00000000000E+00  0.00000000000E+00  0.61949340970E+03  0.16473842563E+04  0.15264674262E+04 0.  0.
        2    1    3    3  502    0  0.67821713342E+03  0.28304347547E+03  0.53205843027E+03  0.90729171841E+03  0.25500000920E-02 0. -1.
       -2    1    3    3    0  502 -0.67821713342E+03 -0.28304347547E+03  0.87434979433E+02  0.74009253793E+03  0.25500000920E-02 0.  1.
</event>
<event>
 5   0  0.1077140E-03  0.1545218E+04  0.7818609E-02  0.8854928E-01
       -1   -1    0    0    0  501  0.00000000000E+00  0.00000000000E+00  0.25377656785E+03  0.25377656790E+03  0.50400001928E-02 0.  1.
        1   -1    0    0  501    0  0.00000000000E+00  0.00000000000E+00 -0.23521675098E+04  0.23521675098E+04  0.50400001928E-02 0. -1.
    10030    2    1    2    0    0  0.00000000000E+00  0.00000000000E+00 -0.20983909419E+04  0.26059440777E+04  0.15452184282E+04 0.  0.
        1    1    3    3  502    0  0.62665215545E+02  0.95815771955E+02 -0.23377824318E+04  0.23405841771E+04  0.50400001928E-02 0. -1.
       -1    1    3    3    0  502 -0.62665215545E+02 -0.95815771955E+02  0.23939148990E+03  0.26535990061E+03  0.50400001928E-02 0.  1.
</event>
<event>
 5   0  0.1077140E-03  0.1425840E+04  0.7818609E-02  0.8935324E-01
        1   -1    0    0  501    0  0.00000000000E+00  0.00000000000E+00  0.82626812790E+03  0.82626812792E+03  0.50400001928E-02 0. -1.
       -1   -1    0    0    0  501  0.00000000000E+00  0.00000000000E+00 -0.61512090377E+03  0.61512090379E+03  0.50400001928E-02 0.  1.
    10030    2    1    2    0    0  0.00000000000E+00  0.00000000000E+00  0.21114722414E+03  0.14413890317E+04  0.14258398194E+04 0.  0.
        1    1    3    3  502    0 -0.45728601915E+02  0.71064626067E+03  0.71358017844E+02  0.71568231749E+03  0.50400001928E-02 0. -1.
       -1    1    3    3    0  502  0.45728601915E+02 -0.71064626067E+03  0.13978920629E+03  0.72570671421E+03  0.50400001928E-02 0.  1.
</event>
<event>
 5   0  0.1993623E-03  0.1352562E+04  0.7818609E-02  0.8988891E-01
        2   -1    0    0  501    0  0.00000000000E+00  0.00000000000E+00  0.14049473798E+04  0.14049473798E+04  0.25500000920E-02 0.  1.
       -2   -1    0    0    0  501  0.00000000000E+00  0.00000000000E+00 -0.32553226514E+03  0.32553226515E+03  0.25500000920E-02 0. -1.
    10030    2    1    2    0    0  0.00000000000E+00  0.00000000000E+00  0.10794151146E+04  0.17304796449E+04  0.13525615741E+04 0.  0.
        4    1    3    3  502    0  0.60953872218E+02  0.39899655011E+03 -0.15453015257E+03  0.43219764286E+03  0.12699999809E+01 0. -1.
       -4    1    3    3    0  502 -0.60953872218E+02 -0.39899655011E+03  0.12339452672E+04  0.12982820021E+04  0.12699999809E+01 0.  1.
</event>
<event>
 5   0  0.1087761E-03  0.1448689E+04  0.7818609E-02  0.8919310E-01
       -1   -1    0    0    0  501  0.00000000000E+00  0.00000000000E+00  0.43207756569E+03  0.43207756572E+03  0.50400001928E-02 0. -1.
        1   -1    0    0  501    0  0.00000000000E+00  0.00000000000E+00 -0.12143067158E+04  0.12143067158E+04  0.50400001928E-02 0.  1.
    10030    2    1    2    0    0  0.00000000000E+00  0.00000000000E+00 -0.78222915006E+03  0.16463842815E+04  0.14486886343E+04 0.  0.
        3    1    3    3  502    0  0.53637440996E+03 -0.98820148253E+02  0.15060128622E+03  0.56581241324E+03  0.10100000352E+00 0. -1.
       -3    1    3    3    0  502 -0.53637440996E+03  0.98820148253E+02 -0.93283043629E+03  0.10805718682E+04  0.10100000352E+00 0.  1.
</event>
<event>
 5   0  0.1077140E-03  0.1404539E+04  0.7818609E-02  0.8950540E-01
        1   -1    0    0  501    0  0.00000000000E+00  0.00000000000E+00  0.52817660684E+03  0.52817660686E+03  0.50400001928E-02 0. -1.
       -1   -1    0    0    0  501  0.00000000000E+00  0.00000000000E+00 -0.93374524377E+03  0.93374524378E+03  0.50400001928E-02 0.  1.
    10030    2    1    2    0    0  0.00000000000E+00  0.00000000000E+00 -0.40556863693E+03  0.14619218506E+04  0.14045389201E+04 0.  0.
        1    1    3    3  502    0 -0.51681037553E+03 -0.18042415741E+03 -0.66068562305E+03  0.85799261848E+03  0.50400001928E-02 0.  1.
       -1    1    3    3    0  502  0.51681037553E+03  0.18042415741E+03  0.25511698612E+03  0.60392923217E+03  0.50400001928E-02 0. -1.
</event>
<event>
 5   0  0.1077140E-03  0.1482319E+04  0.7818609E-02  0.8896297E-01
       -1   -1    0    0    0  501  0.00000000000E+00  0.00000000000E+00  0.55681970303E+03  0.55681970305E+03  0.50400001928E-02 0. -1.
        1   -1    0    0  501    0  0.00000000000E+00  0.00000000000E+00 -0.98652623916E+03  0.98652623918E+03  0.50400001928E-02 0.  1.
    10030    2    1    2    0    0  0.00000000000E+00  0.00000000000E+00 -0.42970653614E+03  0.15433459422E+04  0.14823187883E+04 0.  0.
        1    1    3    3  502    0  0.28801496182E+03  0.34093477890E+03 -0.83093049885E+03  0.94320445060E+03  0.50400001928E-02 0.  1.
       -1    1    3    3    0  502 -0.28801496182E+03 -0.34093477890E+03  0.40122396271E+03  0.60014149163E+03  0.50400001928E-02 0. -1.
</event>
<event>
 5   0  0.1993623E-03  0.1601627E+04  0.7818609E-02  0.8819549E-01
        2   -1    0    0  501    0  0.00000000000E+00  0.00000000000E+00  0.15830237578E+04  0.15830237578E+04  0.25500000920E-02 0. -1.
       -2   -1    0    0    0  501  0.00000000000E+00  0.00000000000E+00 -0.40511236936E+03  0.40511236936E+03  0.25500000920E-02 0.  1.
    10030    2    1    2    0    0  0.00000000000E+00  0.00000000000E+00  0.11779113884E+04  0.19881361271E+04  0.16016273040E+04 0.  0.
        4    1    3    3  502    0  0.33202963622E+03 -0.46687229853E+03  0.12835280539E+04  0.14055814813E+04  0.12699999809E+01 0. -1.
       -4    1    3    3    0  502 -0.33202963622E+03  0.46687229853E+03 -0.10561666550E+03  0.58255464585E+03  0.12699999809E+01 0.  1.
</event>
<event>
 5   0  0.2150197E-03  0.1509630E+04  0.7818609E-02  0.8878074E-01
       -2   -1    0    0    0  501  0.00000000000E+00  0.00000000000E+00  0.48669952842E+03  0.48669952842E+03  0.25500000920E-02 0.  1.
        2   -1    0    0  501    0  0.00000000000E+00  0.00000000000E+00 -0.11706312560E+04  0.11706312560E+04  0.25500000920E-02 0. -1.
    10030    2    1    2    0    0  0.00000000000E+00  0.00000000000E+00 -0.68393172763E+03  0.16573307845E+04  0.15096299948E+04 0.  0.
        3    1    3    3  502    0  0.31303072473E+03  0.19055755279E+03 -0.10664109351E+04  0.11276225913E+04  0.10100000352E+00 0. -1.
       -3    1    3    3    0  502 -0.31303072473E+03 -0.19055755279E+03  0.38247920752E+03  0.52970819319E+03  0.10100000352E+00 0.  1.
</event>
<event>
 5   0  0.2111533E-03  0.1487900E+04  0.7818609E-02  0.8892539E-01
       -2   -1    0    0    0  501  0.00000000000E+00  0.00000000000E+00  0.23427083005E+03  0.23427083006E+03  0.25500000920E-02 0. -1.
        2   -1    0    0  501    0  0.00000000000E+00  0.00000000000E+00 -0.23624856599E+04  0.23624856599E+04  0.25500000920E-02 0.  1.
    10030    2    1    2    0    0  0.00000000000E+00  0.00000000000E+00 -0.21282148299E+04  0.25967564900E+04  0.14878998307E+04 0.  0.
        5    1    3    3  502    0 -0.72503246497E+03 -0.16503742926E+03 -0.10239303363E+04  0.12654504542E+04  0.46999998093E+01 0.  1.
       -5    1    3    3    0  502  0.72503246497E+03  0.16503742926E+03 -0.11042844935E+04  0.13313060358E+04  0.46999998093E+01 0. -1.
</event>
<event>
 5   0  0.2150197E-03  0.1728580E+04  0.7818609E-02  0.8745230E-01
       -2   -1    0    0    0  501  0.00000000000E+00  0.00000000000E+00  0.41785214231E+03  0.41785214231E+03  0.25500000920E-02 0. -1.
        2   -1    0    0  501    0  0.00000000000E+00  0.00000000000E+00 -0.17877078928E+04  0.17877078928E+04  0.25500000920E-02 0.  1.
    10030    2    1    2    0    0  0.00000000000E+00  0.00000000000E+00 -0.13698557505E+04  0.22055600351E+04  0.17285804266E+04 0.  0.
        3    1    3    3  502    0 -0.81978099447E+02  0.10578340154E+03 -0.17744071616E+04  0.17794469147E+04  0.10100000352E+00 0.  1.
       -3    1    3    3    0  502  0.81978099447E+02 -0.10578340154E+03  0.40455141119E+03  0.42611312035E+03  0.10100000352E+00 0. -1.
</event>
<event>
 5   0  0.1078787E-03  0.1476793E+04  0.7818609E-02  0.8900034E-01
       -1   -1    0    0    0  501  0.00000000000E+00  0.00000000000E+00  0.69602731502E+03  0.69602731503E+03  0.50400001928E-02 0.  1.
        1   -1    0    0  501    0  0.00000000000E+00  0.00000000000E+00 -0.78334501909E+03  0.78334501911E+03  0.50400001928E-02 0. -1.
    10030    2    1    2    0    0  0.00000000000E+00  0.00000000000E+00 -0.87317704075E+02  0.14793723341E+04  0.14767931885E+04 0.  0.
        5    1    3    3  502    0  0.55977157492E+03 -0.28261209797E+03 -0.43420332909E+03  0.76273746139E+03  0.46999998093E+01 0. -1.
       -5    1    3    3    0  502 -0.55977157492E+03  0.28261209797E+03  0.34688562502E+03  0.71663487276E+03  0.46999998093E+01 0.  1.
</event>
<event>
 5   0  0.2111533E-03  0.1491949E+04  0.7818609E-02  0.8889824E-01
       -2   -1    0    0    0  501  0.00000000000E+00  0.00000000000E+00  0.43313223098E+03  0.43313223099E+03  0.25500000920E-02 0.  1.
        2   -1    0    0  501    0  0.00000000000E+00  0.00000000000E+00 -0.12847763142E+04  0.12847763142E+04  0.25500000920E-02 0. -1.
    10030    2    1    2    0    0  0.00000000000E+00  0.00000000000E+00 -0.85164408327E+03  0.17179085452E+04  0.14919491028E+04 0.  0.
        5    1    3    3  502    0 -0.59670329911E+03 -0.41731958665E+03 -0.23928148632E+03  0.76647777807E+03  0.46999998093E+01 0.  1.
       -5    1    3    3    0  502  0.59670329911E+03  0.41731958665E+03 -0.61236259695E+03  0.95143076717E+03  0.46999998093E+01 0. -1.
</event>
<event>
 5   0  0.1961098E-03  0.1489040E+04  0.7818609E-02  0.8891774E-01
        2   -1    0    0  501    0  0.00000000000E+00  0.00000000000E+00  0.11380671748E+04  0.11380671748E+04  0.25500000920E-02 0. -1.
       -2   -1    0    0    0  501  0.00000000000E+00  0.00000000000E+00 -0.48706265867E+03  0.48706265868E+03  0.25500000920E-02 0.  1.
    10030    2    1    2    0    0  0.00000000000E+00  0.00000000000E+00  0.65100451609E+03  0.16251298334E+04  0.14890399913E+04 0.  0.
        2    1    3    3  502    0  0.41540852735E+03 -0.38627965838E+03  0.85179181207E+03  0.10233892271E+04  0.25500000920E-02 0. -1.
       -2    1    3    3    0  502 -0.41540852735E+03  0.38627965838E+03 -0.20078729598E+03  0.60174060633E+03  0.25500000920E-02 0.  1.
</event>
<event>
 5   0  0.2111533E-03  0.1588593E+04  0.7818609E-02  0.8827587E-01
        2   -1    0    0  501    0  0.00000000000E+00  0.00000000000E+00  0.89665611107E+03  0.89665611107E+03  0.25500000920E-02 0. -1.
       -2   -1    0    0    0  501  0.00000000000E+00  0.00000000000E+00 -0.70362183451E+03  0.70362183452E+03  0.25500000920E-02 0.  1.
    10030    2    1    2    0    0  0.00000000000E+00  0.00000000000E+00  0.19303427655E+03  0.16002779456E+04  0.15885928589E+04 0.  0.
        5    1    3    3  502    0  0.43117602803E+03 -0.34626007806E+03 -0.47783099456E+03  0.73085796032E+03  0.46999998093E+01 0.  1.
       -5    1    3    3    0  502 -0.43117602803E+03  0.34626007806E+03  0.67086527111E+03  0.86941998527E+03  0.46999998093E+01 0. -1.
</event>
<event>
 5   0  0.1077140E-03  0.1496942E+04  0.7818609E-02  0.8886489E-01
        1   -1    0    0  501    0  0.00000000000E+00  0.00000000000E+00  0.13328149759E+04  0.13328149759E+04  0.50400001928E-02 0. -1.
       -1   -1    0    0    0  501  0.00000000000E+00  0.00000000000E+00 -0.42031993715E+03  0.42031993718E+03  0.50400001928E-02 0.  1.
    10030    2    1    2    0    0  0.00000000000E+00  0.00000000000E+00  0.91249503876E+03  0.17531349131E+04  0.14969418251E+04 0.  0.
        1    1    3    3  502    0  0.14670002140E+03 -0.45388560575E+03 -0.21924560719E+03  0.52497778590E+03  0.50400001928E-02 0.  1.
       -1    1    3    3    0  502 -0.14670002140E+03  0.45388560575E+03  0.11317406460E+04  0.12281571272E+04  0.50400001928E-02 0. -1.
</event>
<event>
 5   0  0.1961098E-03  0.1500578E+04  0.7818609E-02  0.8884069E-01
       -2   -1    0    0    0  501  0.00000000000E+00  0.00000000000E+00  0.32516905896E+03  0.32516905897E+03  0.25500000920E-02 0.  1.
        2   -1    0    0  501    0  0.00000000000E+00  0.00000000000E+00 -0.17312030917E+04  0.17312030917E+04  0.25500000920E-02 0. -1.
    10030    2    1    2    0    0  0.00000000000E+00  0.00000000000E+00 -0.14060340327E+04  0.20563721506E+04  0.15005781289E+04 0.  0.
        2    1    3    3  502    0 -0.71352811571E+03  0.84290586057E+02 -0.40685365975E+03  0.82568588172E+03  0.25500000920E-02 0.  1.
       -2    1    3    3    0  502  0.71352811571E+03 -0.84290586057E+02 -0.99918037297E+03  0.12306862689E+04  0.25500000920E-02 0. -1.
</event>
<event>
 5   0  0.1078787E-03  0.1491212E+04  0.7818609E-02  0.8890318E-01
        1   -1    0    0  501    0  0.00000000000E+00  0.00000000000E+00  0.55565892557E+03  0.55565892559E+03  0.50400001928E-02 0. -1.
       -1   -1    0    0    0  501  0.00000000000E+00  0.00000000000E+00 -0.10004848419E+04  0.10004848419E+04  0.50400001928E-02 0.  1.
    10030    2    1    2    0    0  0.00000000000E+00  0.00000000000E+00 -0.44482591629E+03  0.15561437675E+04  0.14912120336E+04 0.  0.
        5    1    3    3  502    0  0.58233943859E+03 -0.13869391445E+02  0.26324911697E+03  0.63924468660E+03  0.46999998093E+01 0. -1.
       -5    1    3    3    0  502 -0.58233943859E+03  0.13869391445E+02 -0.70807503326E+03  0.91689908086E+03  0.46999998093E+01 0.  1.
</event>
<event>
 5   0  0.1087761E-03  0.1488665E+04  0.7818609E-02  0.8892026E-01
       -1   -1    0    0    0  501  0.00000000000E+00  0.00000000000E+00  0.60008718375E+03  0.60008718377E+03  0.50400001928E-02 0.  1.
        1   -1    0    0  501    0  0.00000000000E+00  0.00000000000E+00 -0.92325096723E+03  0.92325096724E+03  0.50400001928E-02 0. -1.
    10030    2    1    2    0    0  0.00000000000E+00  0.00000000000E+00 -0.32316378347E+03  0.15233381510E+04  0.14886652718E+04 0.  0.
        3    1    3    3  502    0 -0.68571351960E+02  0.67829092517E+03 -0.46728825364E+03  0.82652219067E+03  0.10100000352E+00 0. -1.
       -3    1    3    3    0  502  0.68571351960E+02 -0.67829092517E+03  0.14412447017E+03  0.69681596034E+03  0.10100000352E+00 0.  1.
</event>
<event>
 5   0  0.1993623E-03  0.1716735E+04  0.7818609E-02  0.8751877E-01
       -2   -1    0    0    0  501  0.00000000000E+00  0.00000000000E+00  0.11326909763E+04  0.11326909763E+04  0.25500000920E-02 0. -1.
        2   -1    0    0  501    0  0.00000000000E+00  0.00000000000E+00 -0.65048145522E+03  0.65048145522E+03  0.25500000920E-02 0.  1.
    10030    2    1    2    0    0  0.00000000000E+00  0.00000000000E+00  0.48220952106E+03  0.17831724315E+04  0.17167346616E+04 0.  0.
        4    1    3    3  502    0 -0.80683488619E+03 -0.27342182547E+03  0.35029597143E+03  0.92111394991E+03  0.12699999809E+01 0. -1.
       -4    1    3    3    0  502  0.80683488619E+03  0.27342182547E+03  0.13191354963E+03  0.86205848159E+03  0.12699999809E+01 0.  1.
</event>
<event>
 5   0  0.1078787E-03  0.1516557E+04  0.7818609E-02  0.8873517E-01
        1   -1    0    0  501    0  0.00000000000E+00  0.00000000000E+00  0.71158612844E+03  0.71158612846E+03  0.50400001928E-02 0. -1.
       -1   -1    0    0    0  501  0.00000000000E+00  0.00000000000E+00 -0.80803506225E+03  0.80803506227E+03  0.50400001928E-02 0.  1.
    10030    2    1    2    0    0  0.00000000000E+00  0.00000000000E+00 -0.96448933810E+02  0.15196211907E+04  0.15165573403E+04 0.  0.
        5    1    3    3  502    0  0.42511891311E+03 -0.39450073765E+03 -0.53768601282E+03  0.79087626129E+03  0.46999998093E+01 0.  1.
       -5    1    3    3    0  502 -0.42511891311E+03  0.39450073765E+03  0.44123707901E+03  0.72874492944E+03  0.46999998093E+01 0. -1.
</event>
<event>
 5   0  0.1077140E-03  0.1490684E+04  0.7818609E-02  0.8890672E-01
       -1   -1    0    0    0  501  0.00000000000E+00  0.00000000000E+00  0.36924331471E+03  0.36924331474E+03  0.50400001928E-02 0.  1.
        1   -1    0    0  501    0  0.00000000000E+00  0.00000000000E+00 -0.15045225006E+04  0.15045225006E+04  0.50400001928E-02 0. -1.
    10030    2    1    2    0    0  0.00000000000E+00  0.00000000000E+00 -0.11352791859E+04  0.18737658153E+04  0.14906842391E+04 0.  0.
        1    1    3    3  502    0 -0.17271033773E+03  0.19021421764E+03  0.31182203872E+03  0.40403377731E+03  0.50400001928E-02 0.  1.
       -1    1    3    3    0  502  0.17271033773E+03 -0.19021421764E+03 -0.14471012246E+04  0.14697320380E+04  0.50400001928E-02 0. -1.
</event>
<event>
 5   0  0.1078787E-03  0.1553575E+04  0.7818609E-02  0.8849587E-01
        1   -1    0    0  501    0  0.00000000000E+00  0.00000000000E+00  0.13238979543E+04  0.13238979543E+04  0.50400001928E-02 0. -1.
       -1   -1    0    0    0  501  0.00000000000E+00  0.00000000000E+00 -0.45577458823E+03  0.45577458826E+03  0.50400001928E-02 0.  1.
    10030    2    1    2    0    0  0.00000000000E+00  0.00000000000E+00  0.86812336606E+03  0.17796725426E+04  0.15535752895E+04 0.  0.
        5    1    3    3  502    0 -0.60465585926E+03 -0.23801192258E+03  0.92157814750E+03  0.11276465561E+04  0.46999998093E+01 0. -1.
       -5    1    3    3    0  502  0.60465585926E+03  0.23801192258E+03 -0.53454781441E+02  0.65202598651E+03  0.46999998093E+01 0.  1.
</event>
<event>
 5   0  0.2111533E-03  0.1491781E+04  0.7818609E-02  0.8889937E-01
        2   -1    0    0  501    0  0.00000000000E+00  0.00000000000E+00  0.20308101199E+04  0.20308101199E+04  0.25500000920E-02 0. -1.
       -2   -1    0    0    0  501  0.00000000000E+00  0.00000000000E+00 -0.27395613371E+03  0.27395613372E+03  0.25500000920E-02 0.  1.
    10030    2    1    2    0    0  0.00000000000E+00  0.00000000000E+00  0.17568539862E+04  0.23047662537E+04  0.14917813362E+04 0.  0.
        5    1    3    3  502    0 -0.16853231502E+03 -0.25127028625E+03 -0.17486922703E+03  0.34948710208E+03  0.46999998093E+01 0.  1.
       -5    1    3    3    0  502  0.16853231502E+03  0.25127028625E+03  0.19317232133E+04  0.19552791516E+04  0.46999998093E+01 0. -1.
</event>
<event>
 5   0  0.1077140E-03  0.1523370E+04  0.7818609E-02  0.8869059E-01
       -1   -1    0    0    0  501  0.00000000000E+00  0.00000000000E+00  0.39497100266E+03  0.39497100269E+03  0.50400001928E-02 0.  1.
        1   -1    0    0  501    0  0.00000000000E+00  0.00000000000E+00 -0.14688770711E+04  0.14688770712E+04  0.50400001928E-02 0. -1.
    10030    2    1    2    0    0  0.00000000000E+00  0.00000000000E+00 -0.10739060685E+04  0.18638480738E+04  0.15233697511E+04 0.  0.
        1    1    3    3  502    0  0.31759557398E+02 -0.26223577859E+03  0.33713510813E+03  0.42829470487E+03  0.50400001928E-02 0.  1.
       -1    1    3    3    0  502 -0.31759557398E+02  0.26223577859E+03 -0.14110411766E+04  0.14355533690E+04  0.50400001928E-02 0. -1.
</event>
<event>
 5   0  0.7468375E-04  0.1523648E+04  0.7818609E-02  0.8868878E-01
       -3   -1    0    0    0  501  0.00000000000E+00  0.00000000000E+00  0.61408886466E+03  0.61408887296E+03  0.10100000352E+00 0. -1.
        3   -1    0    0  501    0  0.00000000000E+00  0.00000000000E+00 -0.94510114908E+03  0.94510115448E+03  0.10100000352E+00 0.  1.
    10030    2    1    2    0    0  0.00000000000E+00  0.00000000000E+00 -0.33101228443E+03  0.15591900274E+04  0.15236483877E+04 0.  0.
        4    1    3    3  502    0 -0.44762824451E+03 -0.53039668169E+03  0.15595984785E+03  0.71134855892E+03  0.12699999809E+01 0. -1.
       -4    1    3    3    0  502  0.44762824451E+03  0.53039668169E+03 -0.48697213228E+03  0.84784146853E+03  0.12699999809E+01 0.  1.
</event>
<event>
 5   0  0.2111533E-03  0.1535380E+04  0.7818609E-02  0.8861261E-01
       -2   -1    0    0    0  501  0.00000000000E+00  0.00000000000E+00  0.75705613717E+03  0.75705613717E+03  0.25500000920E-02 0.  1.
        2   -1    0    0  501    0  0.00000000000E+00  0.00000000000E+00 -0.77847291338E+03  0.77847291338E+03  0.25500000920E-02 0. -1.
    10030    2    1    2    0    0  0.00000000000E+00  0.00000000000E+00 -0.21416776213E+02  0.15355290506E+04  0.15353796882E+04 0.  0.
        5    1    3    3  502    0 -0.42316382361E+03 -0.33804463665E+03  0.53338847678E+03  0.76017573965E+03  0.46999998093E+01 0.  1.
       -5    1    3    3    0  502  0.42316382361E+03  0.33804463665E+03 -0.55480525300E+03  0.77535331091E+03  0.46999998093E+01 0. -1.
</event>
<event>
 5   0  0.1078787E-03  0.1344509E+04  0.7818609E-02  0.8994995E-01
       -1   -1    0    0    0  501  0.00000000000E+00  0.00000000000E+00  0.48682879573E+03  0.48682879575E+03  0.50400001928E-02 0. -1.
        1   -1    0    0  501    0  0.00000000000E+00  0.00000000000E+00 -0.92830669918E+03  0.92830669919E+03  0.50400001928E-02 0.  1.
    10030    2    1    2    0    0  0.00000000000E+00  0.00000000000E+00 -0.44147790345E+03  0.14151354949E+04  0.13445094755E+04 0.  0.
        5    1    3    3  502    0 -0.36519068572E+03  0.30937034386E+03  0.27610622770E+03  0.55256762986E+03  0.46999998093E+01 0.  1.
       -5    1    3    3    0  502  0.36519068572E+03 -0.30937034386E+03 -0.71758413116E+03  0.86256786509E+03  0.46999998093E+01 0. -1.
</event>
<event>
 5   0  0.1993623E-03  0.1505103E+04  0.7818609E-02  0.8881067E-01
        2   -1    0    0  501    0  0.00000000000E+00  0.00000000000E+00  0.51676412398E+03  0.51676412399E+03  0.25500000920E-02 0.  1.
       -2   -1    0    0    0  501  0.00000000000E+00  0.00000000000E+00 -0.10959230430E+04  0.10959230430E+04  0.25500000920E-02 0. -1.
    10030    2    1    2    0    0  0.00000000000E+00  0.00000000000E+00 -0.57915891901E+03  0.16126871670E+04  0.15051029350E+04 0.  0.
        4    1    3    3  502    0 -0.15602586635E+03  0.17892418073E+03  0.47559068291E+03  0.53155060342E+03  0.12699999809E+01 0.  1.
       -4    1    3    3    0  502  0.15602586635E+03 -0.17892418073E+03 -0.10547496019E+04  0.10811365636E+04  0.12699999809E+01 0. -1.
</event>
<event>
 5   0  0.1078018E-03  0.1508710E+04  0.7818609E-02  0.8878682E-01
        1   -1    0    0  501    0  0.00000000000E+00  0.00000000000E+00  0.10449838180E+04  0.10449838180E+04  0.50400001928E-02 0. -1.
       -1   -1    0    0    0  501  0.00000000000E+00  0.00000000000E+00 -0.54455501205E+03  0.54455501207E+03  0.50400001928E-02 0.  1.
    10030    2    1    2    0    0  0.00000000000E+00  0.00000000000E+00  0.50042880595E+03  0.15895388301E+04  0.15087096150E+04 0.  0.
        4    1    3    3  502    0  0.46666844782E+03  0.56887343344E+03  0.42541585606E+03  0.84992745982E+03  0.12699999809E+01 0. -1.
       -4    1    3    3    0  502 -0.46666844782E+03 -0.56887343344E+03  0.75012949886E+02  0.73961137026E+03  0.12699999809E+01 0.  1.
</event>
<event>
 5   0  0.1069697E-03  0.1069404E+04  0.7818609E-02  0.9235536E-01
        1   -1    0    0  501    0  0.00000000000E+00  0.00000000000E+00  0.21434198502E+03  0.21434198508E+03  0.50400001928E-02 0. -1.
       -1   -1    0    0    0  501  0.00000000000E+00  0.00000000000E+00 -0.13338797571E+04  0.13338797571E+04  0.50400001928E-02 0.  1.
    10030    2    1    2    0    0  0.00000000000E+00  0.00000000000E+00 -0.11195377721E+04  0.15482217422E+04  0.10694043856E+04 0.  0.
        2    1    3    3  502    0 -0.45985291980E+03 -0.15342929477E+03 -0.88639817132E+03  0.10103004377E+04  0.25500000920E-02 0.  1.
       -2    1    3    3    0  502  0.45985291980E+03  0.15342929477E+03 -0.23313960073E+03  0.53792130444E+03  0.25500000920E-02 0. -1.
</event>
<event>
 5   0  0.1087761E-03  0.1436731E+04  0.7818609E-02  0.8927652E-01
        1   -1    0    0  501    0  0.00000000000E+00  0.00000000000E+00  0.59461543044E+03  0.59461543047E+03  0.50400001928E-02 0. -1.
       -1   -1    0    0    0  501  0.00000000000E+00  0.00000000000E+00 -0.86786956725E+03  0.86786956726E+03  0.50400001928E-02 0.  1.
    10030    2    1    2    0    0  0.00000000000E+00  0.00000000000E+00 -0.27325413681E+03  0.14624849977E+04  0.14367305055E+04 0.  0.
        3    1    3    3  502    0  0.25949806528E+03 -0.59653714853E+03  0.17355281895E+03  0.67328775916E+03  0.10100000352E+00 0. -1.
       -3    1    3    3    0  502 -0.25949806528E+03  0.59653714853E+03 -0.44680695575E+03  0.78919723857E+03  0.10100000352E+00 0.  1.
</event>
<event>
 5   0  0.2150197E-03  0.1456420E+04  0.7818609E-02  0.8913961E-01
        2   -1    0    0  501    0  0.00000000000E+00  0.00000000000E+00  0.11552836468E+04  0.11552836468E+04  0.25500000920E-02 0.  1.
       -2   -1    0    0    0  501  0.00000000000E+00  0.00000000000E+00 -0.45901295834E+03  0.45901295834E+03  0.25500000920E-02 0. -1.
    10030    2    1    2    0    0  0.00000000000E+00  0.00000000000E+00  0.69627068848E+03  0.16142966052E+04  0.14564204948E+04 0.  0.
        3    1    3    3  502    0 -0.71961874319E+03  0.15441475793E+02  0.22570564524E+03  0.75434251055E+03  0.10100000352E+00 0.  1.
       -3    1    3    3    0  502  0.71961874319E+03 -0.15441475793E+02  0.47056504325E+03  0.85995409462E+03  0.10100000352E+00 0. -1.
</event>
<event>
 5   0  0.1069697E-03  0.1535578E+04  0.7818609E-02  0.8861133E-01
       -1   -1    0    0    0  501  0.00000000000E+00  0.00000000000E+00  0.68212353099E+03  0.68212353101E+03  0.50400001928E-02 0. -1.
        1   -1    0    0  501    0  0.00000000000E+00  0.00000000000E+00 -0.86421303204E+03  0.86421303205E+03  0.50400001928E-02 0.  1.
    10030    2    1    2    0    0  0.00000000000E+00  0.00000000000E+00 -0.18208950105E+03  0.15463365631E+04  0.15355781256E+04 0.  0.
        2    1    3    3  502    0  0.57908197180E+03 -0.40870033340E+03  0.20619806080E+03  0.73816633144E+03  0.25500000920E-02 0.  1.
       -2    1    3    3    0  502 -0.57908197180E+03  0.40870033340E+03 -0.38828756185E+03  0.80817023162E+03  0.25500000920E-02 0. -1.
</event>
<event>
 5   0  0.1069697E-03  0.1499753E+04  0.7818609E-02  0.8884617E-01
       -1   -1    0    0    0  501  0.00000000000E+00  0.00000000000E+00  0.48257474093E+03  0.48257474096E+03  0.50400001928E-02 0.  1.
        1   -1    0    0  501    0  0.00000000000E+00  0.00000000000E+00 -0.11652393640E+04  0.11652393640E+04  0.50400001928E-02 0. -1.
    10030    2    1    2    0    0  0.00000000000E+00  0.00000000000E+00 -0.68266462307E+03  0.16478141050E+04  0.14997534254E+04 0.  0.
        2    1    3    3  502    0 -0.28546231090E+03  0.43948998267E+03  0.24797162916E+03  0.57976728494E+03  0.25500000920E-02 0.  1.
       -2    1    3    3    0  502  0.28546231090E+03 -0.43948998267E+03 -0.93063625223E+03  0.10680468200E+04  0.25500000920E-02 0. -1.
</event>
<event>
 5   0  0.2111533E-03  0.1573540E+04  0.7818609E-02  0.8836970E-01
        2   -1    0    0  501    0  0.00000000000E+00  0.00000000000E+00  0.11574108667E+04  0.11574108667E+04  0.25500000920E-02 0. -1.
       -2   -1    0    0    0  501  0.00000000000E+00  0.00000000000E+00 -0.53482066181E+03  0.53482066181E+03  0.25500000920E-02 0.  1.
    10030    2    1    2    0    0  0.00000000000E+00  0.00000000000E+00  0.62259020484E+03  0.16922315285E+04  0.15735402705E+04 0.  0.
        5    1    3    3  502    0 -0.45623570573E+03 -0.33721551440E+03 -0.27490749940E+03  0.63044551356E+03  0.46999998093E+01 0.  1.
       -5    1    3    3    0  502  0.45623570573E+03  0.33721551440E+03  0.89749770424E+03  0.10617860149E+04  0.46999998093E+01 0. -1.
</event>
<event>
 5   0  0.1993623E-03  0.1552574E+04  0.7818609E-02  0.8850226E-01
       -2   -1    0    0    0  501  0.00000000000E+00  0.00000000000E+00  0.13680783372E+04  0.13680783372E+04  0.25500000920E-02 0. -1.
        2   -1    0    0  501    0  0.00000000000E+00  0.00000000000E+00 -0.44048731858E+03  0.44048731858E+03  0.25500000920E-02 0.  1.
    10030    2    1    2    0    0  0.00000000000E+00  0.00000000000E+00  0.92759101862E+03  0.18085656558E+04  0.15525735517E+04 0.  0.
        4    1    3    3  502    0  0.52075495781E+03  0.47592398818E+03  0.84113503415E+03  0.10978156162E+04  0.12699999809E+01 0.  1.
       -4    1    3    3    0  502 -0.52075495781E+03 -0.47592398818E+03  0.86455984463E+02  0.71075003957E+03  0.12699999809E+01 0. -1.
</event>
<event>
 5   0  0.1069697E-03  0.1746024E+04  0.7818609E-02  0.8735542E-01
       -1   -1    0    0    0  501  0.00000000000E+00  0.00000000000E+00  0.56154750462E+03  0.56154750464E+03  0.50400001928E-02 0.  1.
        1   -1    0    0  501    0  0.00000000000E+00  0.00000000000E+00 -0.13572320342E+04  0.13572320342E+04  0.50400001928E-02 0. -1.
    10030    2    1    2    0    0  0.00000000000E+00  0.00000000000E+00 -0.79568452957E+03  0.19187795388E+04  0.17460243550E+04 0.  0.
        2    1    3    3  502    0 -0.43860839897E+03 -0.44531640353E+03  0.27194124890E+03  0.68164218602E+03  0.25500000920E-02 0.  1.
       -2    1    3    3    0  502  0.43860839897E+03  0.44531640353E+03 -0.10676257785E+04  0.12371373528E+04  0.25500000920E-02 0. -1.
</event>
<event>
 5   0  0.1087761E-03  0.1692349E+04  0.7818609E-02  0.8765740E-01
        1   -1    0    0  501    0  0.00000000000E+00  0.00000000000E+00  0.22291139327E+04  0.22291139327E+04  0.50400001928E-02 0.  1.
       -1   -1    0    0    0  501  0.00000000000E+00  0.00000000000E+00 -0.32120882098E+03  0.32120882102E+03  0.50400001928E-02 0. -1.
    10030    2    1    2    0    0  0.00000000000E+00  0.00000000000E+00  0.19079051117E+04  0.25503227537E+04  0.16923487326E+04 0.  0.
        3    1    3    3  502    0  0.12665020303E+03  0.22795436020E+03 -0.25914388740E+03  0.36763980857E+03  0.10100000352E+00 0. -1.
       -3    1    3    3    0  502 -0.12665020303E+03 -0.22795436020E+03  0.21670489991E+04  0.21826829452E+04  0.10100000352E+00 0.  1.
</event>
<event>
 5   0  0.1087761E-03  0.1486740E+04  0.7818609E-02  0.8893319E-01
        1   -1    0    0  501    0  0.00000000000E+00  0.00000000000E+00  0.19245145293E+04  0.19245145293E+04  0.50400001928E-02 0. -1.
       -1   -1    0    0    0  501  0.00000000000E+00  0.00000000000E+00 -0.28713670880E+03  0.28713670884E+03  0.50400001928E-02 0.  1.
    10030    2    1    2    0    0  0.00000000000E+00  0.00000000000E+00  0.16373778205E+04  0.22116512382E+04  0.14867397459E+04 0.  0.
        3    1    3    3  502    0 -0.51608039263E+03  0.28781551556E+03  0.14775357150E+03  0.60910415427E+03  0.10100000352E+00 0.  1.
       -3    1    3    3    0  502  0.51608039263E+03 -0.28781551556E+03  0.14896242490E+04  0.16025470839E+04  0.10100000352E+00 0. -1.
</event>
<event>
 5   0  0.1961098E-03  0.1482437E+04  0.7818609E-02  0.8896217E-01
        2   -1    0    0  501    0  0.00000000000E+00  0.00000000000E+00  0.10755118731E+04  0.10755118731E+04  0.25500000920E-02 0. -1.
       -2   -1    0    0    0  501  0.00000000000E+00  0.00000000000E+00 -0.51083104191E+03  0.51083104192E+03  0.25500000920E-02 0.  1.
    10030    2    1    2    0    0  0.00000000000E+00  0.00000000000E+00  0.56468083121E+03  0.15863429150E+04  0.14824369811E+04 0.  0.
        2    1    3    3  502    0 -0.71484294694E+03  0.37414020588E+02  0.76491441207E+02  0.71989665113E+03  0.25500000920E-02 0. -1.
       -2    1    3    3    0  502  0.71484294694E+03 -0.37414020588E+02  0.48818939000E+03  0.86644626391E+03  0.25500000920E-02 0.  1.
</event>
<event>
 5   0  0.1077140E-03  0.1468576E+04  0.7818609E-02  0.8905623E-01
        1   -1    0    0  501    0  0.00000000000E+00  0.00000000000E+00  0.12969916490E+04  0.12969916490E+04  0.50400001928E-02 0.  1.
       -1   -1    0    0    0  501  0.00000000000E+00  0.00000000000E+00 -0.41571475623E+03  0.41571475626E+03  0.50400001928E-02 0. -1.
    10030    2    1    2    0    0  0.00000000000E+00  0.00000000000E+00  0.88127689281E+03  0.17127064053E+04  0.14685755919E+04 0.  0.
        1    1    3    3  502    0  0.26987994203E+03  0.68199277616E+03  0.39974963434E+03  0.83531377340E+03  0.50400001928E-02 0. -1.
       -1    1    3    3    0  502 -0.26987994203E+03 -0.68199277616E+03  0.48152725847E+03  0.87739263191E+03  0.50400001928E-02 0.  1.
</event>
<event>
 5   0  0.2111533E-03  0.1497700E+04  0.7818609E-02  0.8885984E-01
        2   -1    0    0  501    0  0.00000000000E+00  0.00000000000E+00  0.17894854601E+04  0.17894854601E+04  0.25500000920E-02 0. -1.
       -2   -1    0    0    0  501  0.00000000000E+00  0.00000000000E+00 -0.31337306237E+03  0.31337306238E+03  0.25500000920E-02 0.  1.
    10030    2    1    2    0    0  0.00000000000E+00  0.00000000000E+00  0.14761123977E+04  0.21028585225E+04  0.14977002887E+04 0.  0.
        5    1    3    3  502    0 -0.16791310131E+03  0.16012480368E+03  0.17377217356E+04  0.17531496464E+04  0.46999998093E+01 0. -1.
       -5    1    3    3    0  502  0.16791310131E+03 -0.16012480368E+03 -0.26160933787E+03  0.34970887607E+03  0.46999998093E+01 0.  1.
</event>
<event>
 5   0  0.1087761E-03  0.1524999E+04  0.7818609E-02  0.8867997E-01
       -1   -1    0    0    0  501  0.00000000000E+00  0.00000000000E+00  0.62127572347E+03  0.62127572349E+03  0.50400001928E-02 0.  1.
        1   -1    0    0  501    0  0.00000000000E+00  0.00000000000E+00 -0.93582493292E+03  0.93582493293E+03  0.50400001928E-02 0. -1.
    10030    2    1    2    0    0  0.00000000000E+00  0.00000000000E+00 -0.31454920945E+03  0.15571006564E+04  0.15249987702E+04 0.  0.
        3    1    3    3  502    0  0.22933669637E+03  0.64773959970E+03  0.18020286482E+03  0.71037665503E+03  0.10100000352E+00 0.  1.
       -3    1    3    3    0  502 -0.22933669637E+03 -0.64773959970E+03 -0.49475207427E+03  0.84672400139E+03  0.10100000352E+00 0. -1.
</event>
<event>
 5   0  0.1961098E-03  0.1520876E+04  0.7818609E-02  0.8870688E-01
        2   -1    0    0  501    0  0.00000000000E+00  0.00000000000E+00  0.11202333238E+04  0.11202333238E+04  0.25500000920E-02 0. -1.
       -2   -1    0    0    0  501  0.00000000000E+00  0.00000000000E+00 -0.51620106855E+03  0.51620106856E+03  0.25500000920E-02 0.  1.
    10030    2    1    2    0    0  0.00000000000E+00  0.00000000000E+00  0.60403225523E+03  0.16364343923E+04  0.15208755883E+04 0.  0.
        2    1    3    3  502    0  0.49179156641E+03  0.35492894997E+03  0.79559997561E+03  0.10004063302E+04  0.25500000920E-02 0. -1.
       -2    1    3    3    0  502 -0.49179156641E+03 -0.35492894997E+03 -0.19156772038E+03  0.63602806213E+03  0.25500000920E-02 0.  1.
</event>
<event>
 5   0  0.7468375E-04  0.1334861E+04  0.7818609E-02  0.9002368E-01
       -3   -1    0    0    0  501  0.00000000000E+00  0.00000000000E+00  0.25192902666E+03  0.25192904691E+03  0.10100000352E+00 0. -1.
        3   -1    0    0  501    0  0.00000000000E+00  0.00000000000E+00 -0.17682098804E+04  0.17682098833E+04  0.10100000352E+00 0.  1.
    10030    2    1    2    0    0  0.00000000000E+00  0.00000000000E+00 -0.15162808537E+04  0.20201389302E+04  0.13348609178E+04 0.  0.
        5    1    3    3  502    0  0.53287496310E+03  0.19828561378E+03 -0.22917816065E+03  0.61303966450E+03  0.46999998093E+01 0. -1.
       -5    1    3    3    0  502 -0.53287496310E+03 -0.19828561378E+03 -0.12871026931E+04  0.14070992657E+04  0.46999998093E+01 0.  1.
</event>
<event>
 5   0  0.2111533E-03  0.1547922E+04  0.7818609E-02  0.8853196E-01
       -2   -1    0    0    0  501  0.00000000000E+00  0.00000000000E+00  0.69856484710E+03  0.69856484711E+03  0.25500000920E-02 0.  1.
        2   -1    0    0  501    0  0.00000000000E+00  0.00000000000E+00 -0.85749491550E+03  0.85749491550E+03  0.25500000920E-02 0. -1.
    10030    2    1    2    0    0  0.00000000000E+00  0.00000000000E+00 -0.15893006839E+03  0.15560597626E+04  0.15479222261E+04 0.  0.
        5    1    3    3  502    0 -0.22662770586E+03 -0.56153398691E+03 -0.56398765802E+03  0.82751719252E+03  0.46999998093E+01 0. -1.
       -5    1    3    3    0  502  0.22662770586E+03  0.56153398691E+03  0.40505758963E+03  0.72854257009E+03  0.46999998093E+01 0.  1.
</event>
<event>
 5   0  0.1077140E-03  0.1488725E+04  0.7818609E-02  0.8891985E-01
        1   -1    0    0  501    0  0.00000000000E+00  0.00000000000E+00  0.15493174455E+04  0.15493174455E+04  0.50400001928E-02 0.  1.
       -1   -1    0    0    0  501  0.00000000000E+00  0.00000000000E+00 -0.35762556949E+03  0.35762556952E+03  0.50400001928E-02 0. -1.
    10030    2    1    2    0    0  0.00000000000E+00  0.00000000000E+00  0.11916918760E+04  0.19069430151E+04  0.14887250032E+04 0.  0.
        1    1    3    3  502    0  0.22173034465E+03  0.55507611219E+03  0.11640935943E+04  0.13085823368E+04  0.50400001928E-02 0.  1.
       -1    1    3    3    0  502 -0.22173034465E+03 -0.55507611219E+03  0.27598281787E+02  0.59836067823E+03  0.50400001928E-02 0. -1.
</event>
<event>
 5   0  0.1078018E-03  0.1563853E+04  0.7818609E-02  0.8843068E-01
       -1   -1    0    0    0  501  0.00000000000E+00  0.00000000000E+00  0.28889464366E+03  0.28889464370E+03  0.50400001928E-02 0. -1.
        1   -1    0    0  501    0  0.00000000000E+00  0.00000000000E+00 -0.21163735488E+04  0.21163735488E+04  0.50400001928E-02 0.  1.
    10030    2    1    2    0    0  0.00000000000E+00  0.00000000000E+00 -0.18274789051E+04  0.24052681925E+04  0.15638529116E+04 0.  0.
        4    1    3    3  502    0  0.79072288940E+02 -0.60656790382E+02 -0.21065642168E+04  0.21089205973E+04  0.12699999809E+01 0.  1.
       -4    1    3    3    0  502 -0.79072288940E+02  0.60656790382E+02  0.27908531169E+03  0.29634759523E+03  0.12699999809E+01 0. -1.
</event>
<event>
 5   0  0.2150197E-03  0.1513850E+04  0.7818609E-02  0.8875294E-01
       -2   -1    0    0    0  501  0.00000000000E+00  0.00000000000E+00  0.54546454421E+03  0.54546454421E+03  0.25500000920E-02 0. -1.
        2   -1    0    0  501    0  0.00000000000E+00  0.00000000000E+00 -0.10503629550E+04  0.10503629550E+04  0.25500000920E-02 0.  1.
    10030    2    1    2    0    0  0.00000000000E+00  0.00000000000E+00 -0.50489841078E+03  0.15958274992E+04  0.15138503896E+04 0.  0.
        3    1    3    3  502    0 -0.39355293477E+03 -0.39398620218E+03  0.28797865385E+03  0.62692962544E+03  0.10100000352E+00 0. -1.
       -3    1    3    3    0  502  0.39355293477E+03  0.39398620218E+03 -0.79287706463E+03  0.96889787377E+03  0.10100000352E+00 0.  1.
</event>
<event>
 5   0  0.1078787E-03  0.1491267E+04  0.7818609E-02  0.8890281E-01
        1   -1    0    0  501    0  0.00000000000E+00  0.00000000000E+00  0.11820055784E+04  0.11820055784E+04  0.50400001928E-02 0.  1.
       -1   -1    0    0    0  501  0.00000000000E+00  0.00000000000E+00 -0.47036086724E+03  0.47036086727E+03  0.50400001928E-02 0. -1.
    10030    2    1    2    0    0  0.00000000000E+00  0.00000000000E+00  0.71164471117E+03  0.16523664457E+04  0.14912668024E+04 0.  0.
        5    1    3    3  502    0 -0.71139461524E+03 -0.20847018573E+03  0.44449900962E+03  0.86437467367E+03  0.46999998093E+01 0. -1.
       -5    1    3    3    0  502  0.71139461524E+03  0.20847018573E+03  0.26714570155E+03  0.78799177203E+03  0.46999998093E+01 0.  1.
</event>
<event>
 5   0  0.2094566E-03  0.1250347E+04  0.7818609E-02  0.9069894E-01
       -2   -1    0    0    0  501  0.00000000000E+00  0.00000000000E+00  0.95108203208E+03  0.95108203208E+03  0.25500000920E-02 0. -1.
        2   -1    0    0  501    0  0.00000000000E+00  0.00000000000E+00 -0.41094466833E+03  0.41094466834E+03  0.25500000920E-02 0.  1.
    10030    2    1    2    0    0  0.00000000000E+00  0.00000000000E+00  0.54013736375E+03  0.13620267004E+04  0.12503472961E+04 0.  0.
        1    1    3    3  502    0  0.33599089228E+03  0.45491036120E+03  0.56034457408E+03  0.79612772728E+03  0.50400001928E-02 0. -1.
       -1    1    3    3    0  502 -0.33599089228E+03 -0.45491036120E+03 -0.20207210329E+02  0.56589897314E+03  0.50400001928E-02 0.  1.
</event>
<event>
 5   0  0.1077140E-03  0.1504942E+04  0.7818609E-02  0.8881173E-01
       -1   -1    0    0    0  501  0.00000000000E+00  0.00000000000E+00  0.10985642012E+04  0.10985642012E+04  0.50400001928E-02 0.  1.
        1   -1    0    0  501    0  0.00000000000E+00  0.00000000000E+00 -0.51541177812E+03  0.51541177814E+03  0.50400001928E-02 0. -1.
    10030    2    1    2    0    0  0.00000000000E+00  0.00000000000E+00  0.58315242304E+03  0.16139759793E+04  0.15049424286E+04 0.  0.
        1    1    3    3  502    0 -0.68362209518E+03 -0.30329071719E+03  0.20256606489E+03  0.77482736066E+03  0.50400001928E-02 0. -1.
       -1    1    3    3    0  502  0.68362209518E+03  0.30329071719E+03  0.38058635815E+03  0.83914861866E+03  0.50400001928E-02 0.  1.
</event>
<event>
 5   0  0.1961098E-03  0.1540443E+04  0.7818609E-02  0.8857995E-01
        2   -1    0    0  501    0  0.00000000000E+00  0.00000000000E+00  0.94294051550E+03  0.94294051550E+03  0.25500000920E-02 0. -1.
       -2   -1    0    0    0  501  0.00000000000E+00  0.00000000000E+00 -0.62913984500E+03  0.62913984501E+03  0.25500000920E-02 0.  1.
    10030    2    1    2    0    0  0.00000000000E+00  0.00000000000E+00  0.31380067050E+03  0.15720803605E+04  0.15404433774E+04 0.  0.
        2    1    3    3  502    0 -0.70623262247E+03 -0.27541643602E+03  0.17632587049E+02  0.75824114793E+03  0.25500000920E-02 0. -1.
       -2    1    3    3    0  502  0.70623262247E+03  0.27541643602E+03  0.29616808345E+03  0.81383921258E+03  0.25500000920E-02 0.  1.
</event>
<event>
 5   0  0.1087761E-03  0.1452766E+04  0.7818609E-02  0.8916485E-01
        1   -1    0    0  501    0  0.00000000000E+00  0.00000000000E+00  0.11834533580E+04  0.11834533580E+04  0.50400001928E-02 0.  1.
       -1   -1    0    0    0  501  0.00000000000E+00  0.00000000000E+00 -0.44584137642E+03  0.44584137645E+03  0.50400001928E-02 0. -1.
    10030    2    1    2    0    0  0.00000000000E+00  0.00000000000E+00  0.73761198161E+03  0.16292947345E+04  0.14527662911E+04 0.  0.
        3    1    3    3  502    0  0.61946337799E+03  0.24007176345E+03  0.69820062479E+03  0.96377043477E+03  0.10100000352E+00 0.  1.
       -3    1    3    3    0  502 -0.61946337799E+03 -0.24007176345E+03  0.39411356819E+02  0.66552429973E+03  0.10100000352E+00 0. -1.
</event>
<event>
 5   0  0.1993623E-03  0.1510885E+04  0.7818609E-02  0.8877247E-01
       -2   -1    0    0    0  501  0.00000000000E+00  0.00000000000E+00  0.39156404001E+03  0.39156404002E+03  0.25500000920E-02 0.  1.
        2   -1    0    0  501    0  0.00000000000E+00  0.00000000000E+00 -0.14574716783E+04  0.14574716783E+04  0.25500000920E-02 0. -1.
    10030    2    1    2    0    0  0.00000000000E+00  0.00000000000E+00 -0.10659076382E+04  0.18490357183E+04  0.15108851691E+04 0.  0.
        4    1    3    3  502    0 -0.15070229220E+03  0.67253398960E+03 -0.91150234624E+03  0.11427385038E+04  0.12699999809E+01 0.  1.
       -4    1    3    3    0  502  0.15070229220E+03 -0.67253398960E+03 -0.15440529201E+03  0.70629721445E+03  0.12699999809E+01 0. -1.
</event>
<event>
 5   0  0.2094566E-03  0.1371924E+04  0.7818609E-02  0.8974396E-01
        2   -1    0    0  501    0  0.00000000000E+00  0.00000000000E+00  0.10264841466E+04  0.10264841466E+04  0.25500000920E-02 0. -1.
       -2   -1    0    0    0  501  0.00000000000E+00  0.00000000000E+00 -0.45840311844E+03  0.45840311845E+03  0.25500000920E-02 0.  1.
    10030    2    1    2    0    0  0.00000000000E+00  0.00000000000E+00  0.56808102819E+03  0.14848872651E+04  0.13719235166E+04 0.  0.
        1    1    3    3  502    0  0.24648774897E+03  0.38773242407E+02  0.97562420132E+03  0.10070263934E+04  0.50400001928E-02 0. -1.
       -1    1    3    3    0  502 -0.24648774897E+03 -0.38773242407E+02 -0.40754317313E+03  0.47786087171E+03  0.50400001928E-02 0.  1.
</event>
<event>
 5   0  0.1087761E-03  0.1494194E+04  0.7818609E-02  0.8888323E-01
       -1   -1    0    0    0  501  0.00000000000E+00  0.00000000000E+00  0.24766073841E+03  0.24766073846E+03  0.50400001928E-02 0.  1.
        1   -1    0    0  501    0  0.00000000000E+00  0.00000000000E+00 -0.22537030266E+04  0.22537030266E+04  0.50400001928E-02 0. -1.
    10030    2    1    2    0    0  0.00000000000E+00  0.00000000000E+00 -0.20060422882E+04  0.25013637651E+04  0.14941937703E+04 0.  0.
        3    1    3    3  502    0  0.31045469268E+03 -0.28322570865E+03  0.31045214052E+02  0.42138193337E+03  0.10100000352E+00 0.  1.
       -3    1    3    3    0  502 -0.31045469268E+03  0.28322570865E+03 -0.20370875023E+04  0.20799818317E+04  0.10100000352E+00 0. -1.
</event>
<event>
 5   0  0.1078787E-03  0.1478745E+04  0.7818609E-02  0.8898712E-01
        1   -1    0    0  501    0  0.00000000000E+00  0.00000000000E+00  0.16274293358E+04  0.16274293358E+04  0.50400001928E-02 0. -1.
       -1   -1    0    0    0  501  0.00000000000E+00  0.00000000000E+00 -0.33591098824E+03  0.33591098827E+03  0.50400001928E-02 0.  1.
    10030    2    1    2    0    0  0.00000000000E+00  0.00000000000E+00  0.12915183475E+04  0.19633403240E+04  0.14787445980E+04 0.  0.
        5    1    3    3  502    0 -0.73177711511E+03 -0.88949413874E+02  0.57018984430E+03  0.93195938375E+03  0.46999998093E+01 0.  1.
       -5    1    3    3    0  502  0.73177711511E+03  0.88949413874E+02  0.72132850323E+03  0.10313809403E+04  0.46999998093E+01 0. -1.
</event>
<event>
 5   0  0.1087761E-03  0.1487882E+04  0.7818609E-02  0.8892551E-01
        1   -1    0    0  501    0  0.00000000000E+00  0.00000000000E+00  0.75371139791E+03  0.75371139792E+03  0.50400001928E-02 0. -1.
       -1   -1    0    0    0  501  0.00000000000E+00  0.00000000000E+00 -0.73429721611E+03  0.73429721612E+03  0.50400001928E-02 0.  1.
    10030    2    1    2    0    0  0.00000000000E+00  0.00000000000E+00  0.19414181800E+02  0.14880086140E+04  0.14878819594E+04 0.  0.
        3    1    3    3  502    0 -0.13017626794E+03  0.40943048044E+03 -0.59769046754E+03  0.73607953662E+03  0.10100000352E+00 0.  1.
       -3    1    3    3    0  502  0.13017626794E+03 -0.40943048044E+03  0.61710464934E+03  0.75192907743E+03  0.10100000352E+00 0. -1.
</event>
<event>
 5   0  0.7468375E-04  0.1447550E+04  0.7818609E-02  0.8920101E-01
        3   -1    0    0  501    0  0.00000000000E+00  0.00000000000E+00  0.63886469251E+03  0.63886470050E+03  0.10100000352E+00 0.  1.
       -3   -1    0    0    0  501  0.00000000000E+00  0.00000000000E+00 -0.81997008236E+03  0.81997008858E+03  0.10100000352E+00 0. -1.
    10030    2    1    2    0    0  0.00000000000E+00  0.00000000000E+00 -0.18110538985E+03  0.14588347891E+04  0.14475495776E+04 0.  0.
        4    1    3    3  502    0  0.10274288339E+03  0.62279717868E+03 -0.44745468919E+03  0.77372458771E+03  0.12699999809E+01 0. -1.
       -4    1    3    3    0  502 -0.10274288339E+03 -0.62279717868E+03  0.26634929934E+03  0.68511020136E+03  0.12699999809E+01 0.  1.
</event>
<event>
 5   0  0.1961098E-03  0.1494936E+04  0.7818609E-02  0.8887827E-01
       -2   -1    0    0    0  501  0.00000000000E+00  0.00000000000E+00  0.28290257171E+03  0.28290257172E+03  0.25500000920E-02 0. -1.
        2   -1    0    0  501    0  0.00000000000E+00  0.00000000000E+00 -0.19749152705E+04  0.19749152705E+04  0.25500000920E-02 0.  1.
    10030    2    1    2    0    0  0.00000000000E+00  0.00000000000E+00 -0.16920126988E+04  0.22578178422E+04  0.14949362648E+04 0.  0.
        2    1    3    3  502    0 -0.13761680541E+03 -0.67642856976E+03 -0.12790590327E+04  0.14534393707E+04  0.25500000920E-02 0.  1.
       -2    1    3    3    0  502  0.13761680541E+03  0.67642856976E+03 -0.41295366607E+03  0.80437847152E+03  0.25500000920E-02 0. -1.
</event>
<event>
 5   0  0.1087761E-03  0.1500725E+04  0.7818609E-02  0.8883971E-01
        1   -1    0    0  501    0  0.00000000000E+00  0.00000000000E+00  0.20870043285E+04  0.20870043285E+04  0.50400001928E-02 0. -1.
       -1   -1    0    0    0  501  0.00000000000E+00  0.00000000000E+00 -0.26978558604E+03  0.26978558609E+03  0.50400001928E-02 0.  1.
    10030    2    1    2    0    0  0.00000000000E+00  0.00000000000E+00  0.18172187425E+04  0.23567899146E+04  0.15007247394E+04 0.  0.
        3    1    3    3  502    0  0.62125040289E+02  0.41598799999E+03  0.18844775993E+04  0.19308447294E+04  0.10100000352E+00 0. -1.
       -3    1    3    3    0  502 -0.62125040289E+02 -0.41598799999E+03 -0.67258856790E+02  0.42594518519E+03  0.10100000352E+00 0.  1.
</event>
<event>
 5   0  0.2094566E-03  0.1120365E+04  0.7818609E-02  0.9185567E-01
       -2   -1    0    0    0  501  0.00000000000E+00  0.00000000000E+00  0.21782063128E+03  0.21782063130E+03  0.25500000920E-02 0. -1.
        2   -1    0    0  501    0  0.00000000000E+00  0.00000000000E+00 -0.14406556575E+04  0.14406556575E+04  0.25500000920E-02 0.  1.
    10030    2    1    2    0    0  0.00000000000E+00  0.00000000000E+00 -0.12228350263E+04  0.16584762888E+04  0.11203651633E+04 0.  0.
        1    1    3    3  502    0 -0.52493629859E+03  0.19555817336E+03 -0.60868475441E+03  0.82722321475E+03  0.50400001928E-02 0.  1.
       -1    1    3    3    0  502  0.52493629859E+03 -0.19555817336E+03 -0.61415027185E+03  0.83125307409E+03  0.50400001928E-02 0. -1.
</event>
<event>
 5   0  0.1993623E-03  0.1406346E+04  0.7818609E-02  0.8949237E-01
       -2   -1    0    0    0  501  0.00000000000E+00  0.00000000000E+00  0.29648765065E+03  0.29648765066E+03  0.25500000920E-02 0.  1.
        2   -1    0    0  501    0  0.00000000000E+00  0.00000000000E+00 -0.16677003781E+04  0.16677003781E+04  0.25500000920E-02 0. -1.
    10030    2    1    2    0    0  0.00000000000E+00  0.00000000000E+00 -0.13712127275E+04  0.19641880288E+04  0.14063464255E+04 0.  0.
        4    1    3    3  502    0  0.31850859195E+03  0.34097658003E+03 -0.14203321873E+04  0.14950109987E+04  0.12699999809E+01 0. -1.
       -4    1    3    3    0  502 -0.31850859195E+03 -0.34097658003E+03  0.49119459810E+02  0.46917703003E+03  0.12699999809E+01 0.  1.
</event>
<event>
 5   0  0.1078787E-03  0.1483463E+04  0.7818609E-02  0.8895525E-01
       -1   -1    0    0    0  501  0.00000000000E+00  0.00000000000E+00  0.40049636214E+03  0.40049636217E+03  0.50400001928E-02 0.  1.
        1   -1    0    0  501    0  0.00000000000E+00  0.00000000000E+00 -0.13737094601E+04  0.13737094602E+04  0.50400001928E-02 0. -1.
    10030    2    1    2    0    0  0.00000000000E+00  0.00000000000E+00 -0.97321309801E+03  0.17742058223E+04  0.14834630315E+04 0.  0.
        5    1    3    3  502    0  0.30043397988E+03  0.42984158232E+03  0.14071139968E+03  0.54299737583E+03  0.46999998093E+01 0.  1.
       -5    1    3    3    0  502 -0.30043397988E+03 -0.42984158232E+03 -0.11139244977E+04  0.12312084465E+04  0.46999998093E+01 0. -1.
</event>
<event>
 5   0  0.2150197E-03  0.1482460E+04  0.7818609E-02  0.8896201E-01
       -2   -1    0    0    0  501  0.00000000000E+00  0.00000000000E+00  0.54772422651E+03  0.54772422652E+03  0.25500000920E-02 0.  1.
        2   -1    0    0  501    0  0.00000000000E+00  0.00000000000E+00 -0.10030995466E+04  0.10030995466E+04  0.25500000920E-02 0. -1.
    10030    2    1    2    0    0  0.00000000000E+00  0.00000000000E+00 -0.45537532009E+03  0.15508237731E+04  0.14824600140E+04 0.  0.
        3    1    3    3  502    0  0.56403549747E+03  0.24927879191E+03 -0.65792714940E+03  0.90174503194E+03  0.10100000352E+00 0. -1.
       -3    1    3    3    0  502 -0.56403549747E+03 -0.24927879191E+03  0.20255182931E+03  0.64907874119E+03  0.10100000352E+00 0.  1.
</event>
<event>
 5   0  0.2150197E-03  0.1484143E+04  0.7818609E-02  0.8895067E-01
       -2   -1    0    0    0  501  0.00000000000E+00  0.00000000000E+00  0.35792387355E+03  0.35792387356E+03  0.25500000920E-02 0. -1.
        2   -1    0    0  501    0  0.00000000000E+00  0.00000000000E+00 -0.15385108818E+04  0.15385108818E+04  0.25500000920E-02 0.  1.
    10030    2    1    2    0    0  0.00000000000E+00  0.00000000000E+00 -0.11805870082E+04  0.18964347553E+04  0.14841425461E+04 0.  0.
        3    1    3    3  502    0 -0.37404966537E+03  0.56176581144E+03 -0.98450158668E+03  0.11936236272E+04  0.10100000352E+00 0.  1.
       -3    1    3    3    0  502  0.37404966537E+03 -0.56176581144E+03 -0.19608542153E+03  0.70281112812E+03  0.10100000352E+00 0. -1.
</event>
<event>
 5   0  0.1069697E-03  0.1385409E+04  0.7818609E-02  0.8964448E-01
       -1   -1    0    0    0  501  0.00000000000E+00  0.00000000000E+00  0.54353366435E+03  0.54353366437E+03  0.50400001928E-02 0. -1.
        1   -1    0    0  501    0  0.00000000000E+00  0.00000000000E+00 -0.88281515690E+03  0.88281515691E+03  0.50400001928E-02 0.  1.
    10030    2    1    2    0    0  0.00000000000E+00  0.00000000000E+00 -0.33928149255E+03  0.14263488213E+04  0.13854093362E+04 0.  0.
        2    1    3    3  502    0  0.19043039377E+03 -0.25234759807E+03  0.46493052272E+03  0.56223076764E+03  0.25500000920E-02 0. -1.
       -2    1    3    3    0  502 -0.19043039377E+03  0.25234759807E+03 -0.80421201527E+03  0.86411805364E+03  0.25500000920E-02 0.  1.
</event>
<event>
 5   0  0.1078787E-03  0.9719446E+03  0.7818609E-02  0.9339862E-01
        1   -1    0    0  501    0  0.00000000000E+00  0.00000000000E+00  0.78122712922E+03  0.78122712924E+03  0.50400001928E-02 0. -1.
       -1   -1    0    0    0  501  0.00000000000E+00  0.00000000000E+00 -0.30230529396E+03  0.30230529400E+03  0.50400001928E-02 0.  1.
    10030    2    1    2    0    0  0.00000000000E+00  0.00000000000E+00  0.47892183526E+03  0.10835324232E+04  0.97194464242E+03 0.  0.
        5    1    3    3  502    0  0.43364831365E+01 -0.46934538456E+03  0.37978125687E+03  0.60378786686E+03  0.46999998093E+01 0. -1.
       -5    1    3    3    0  502 -0.43364831365E+01  0.46934538456E+03  0.99140578399E+02  0.47974455638E+03  0.46999998093E+01 0.  1.
</event>
<event>
 5   0  0.1077140E-03  0.1311973E+04  0.7818609E-02  0.9020124E-01
       -1   -1    0    0    0  501  0.00000000000E+00  0.00000000000E+00  0.15634548481E+04  0.15634548481E+04  0.50400001928E-02 0. -1.
        1   -1    0    0  501    0  0.00000000000E+00  0.00000000000E+00 -0.27523536477E+03  0.27523536481E+03  0.50400001928E-02 0.  1.
    10030    2    1    2    0    0  0.00000000000E+00  0.00000000000E+00  0.12882194834E+04  0.18386902130E+04  0.13119726605E+04 0.  0.
        1    1    3    3  502    0 -0.97773040992E+02 -0.32681962961E+03  0.14293675142E+04  0.14695108467E+04  0.50400001928E-02 0. -1.
       -1    1    3    3    0  502  0.97773040992E+02  0.32681962961E+03 -0.14114803084E+03  0.36917936627E+03  0.50400001928E-02 0.  1.
</event>
<event>
 5   0  0.2111533E-03  0.1518773E+04  0.7818609E-02  0.8872064E-01
       -2   -1    0    0    0  501  0.00000000000E+00  0.00000000000E+00  0.23076851552E+03  0.23076851553E+03  0.25500000920E-02 0. -1.
        2   -1    0    0  501    0  0.00000000000E+00  0.00000000000E+00 -0.24989029068E+04  0.24989029068E+04  0.25500000920E-02 0.  1.
    10030    2    1    2    0    0  0.00000000000E+00  0.00000000000E+00 -0.22681343913E+04  0.27296714224E+04  0.15187733396E+04 0.  0.
        5    1    3    3  502    0 -0.38859853515E+03 -0.62781051638E+03 -0.14530092045E+04  0.16298505160E+04  0.46999998093E+01 0.  1.
       -5    1    3    3    0  502  0.38859853515E+03  0.62781051638E+03 -0.81512518680E+03  0.10998209064E+04  0.46999998093E+01 0. -1.
</event>
<event>
 5   0  0.2150197E-03  0.1464182E+04  0.7818609E-02  0.8908627E-01
        2   -1    0    0  501    0  0.00000000000E+00  0.00000000000E+00  0.23941640491E+04  0.23941640491E+04  0.25500000920E-02 0.  1.
       -2   -1    0    0    0  501  0.00000000000E+00  0.00000000000E+00 -0.22385971029E+03  0.22385971031E+03  0.25500000920E-02 0. -1.
    10030    2    1    2    0    0  0.00000000000E+00  0.00000000000E+00  0.21703043388E+04  0.26180237594E+04  0.14641815058E+04 0.  0.
        3    1    3    3  502    0  0.24736680048E+03 -0.51919721290E+03  0.27518359223E+03  0.63755948703E+03  0.10100000352E+00 0. -1.
       -3    1    3    3    0  502 -0.24736680048E+03  0.51919721290E+03  0.18951207466E+04  0.19804642724E+04  0.10100000352E+00 0.  1.
</event>
<event>
 5   0  0.1993623E-03  0.1529355E+04  0.7818609E-02  0.8865164E-01
        2   -1    0    0  501    0  0.00000000000E+00  0.00000000000E+00  0.12376517500E+04  0.12376517500E+04  0.25500000920E-02 0. -1.
       -2   -1    0    0    0  501  0.00000000000E+00  0.00000000000E+00 -0.47245245704E+03  0.47245245705E+03  0.25500000920E-02 0.  1.
    10030    2    1    2    0    0  0.00000000000E+00  0.00000000000E+00  0.76519929298E+03  0.17101042071E+04  0.15293549101E+04 0.  0.
        4    1    3    3  502    0  0.44798998004E+03  0.40892707442E+03 -0.13806438518E+03  0.62207697415E+03  0.12699999809E+01 0.  1.
       -4    1    3    3    0  502 -0.44798998004E+03 -0.40892707442E+03  0.90326367816E+03  0.10880272329E+04  0.12699999809E+01 0. -1.
</event>
<event>
 5   0  0.2150197E-03  0.1524794E+04  0.7818609E-02  0.8868131E-01
       -2   -1    0    0    0  501  0.00000000000E+00  0.00000000000E+00  0.31916404740E+03  0.31916404741E+03  0.25500000920E-02 0. -1.
        2   -1    0    0  501    0  0.00000000000E+00  0.00000000000E+00 -0.18211605637E+04  0.18211605638E+04  0.25500000920E-02 0.  1.
    10030    2    1    2    0    0  0.00000000000E+00  0.00000000000E+00 -0.15019965164E+04  0.21403246112E+04  0.15247937257E+04 0.  0.
        3    1    3    3  502    0  0.75590932533E+03  0.98728304824E+02 -0.76522884741E+03  0.10801487793E+04  0.10100000352E+00 0.  1.
       -3    1    3    3    0  502 -0.75590932533E+03 -0.98728304824E+02 -0.73676766894E+03  0.10601758319E+04  0.10100000352E+00 0. -1.
</event>
<event>
 5   0  0.1078787E-03  0.1567384E+04  0.7818609E-02  0.8840839E-01
        1   -1    0    0  501    0  0.00000000000E+00  0.00000000000E+00  0.11734185766E+04  0.11734185766E+04  0.50400001928E-02 0. -1.
       -1   -1    0    0    0  501  0.00000000000E+00  0.00000000000E+00 -0.52340523579E+03  0.52340523581E+03  0.50400001928E-02 0.  1.
    10030    2    1    2    0    0  0.00000000000E+00  0.00000000000E+00  0.65001334077E+03  0.16968238124E+04  0.15673843521E+04 0.  0.
        5    1    3    3  502    0  0.13744087172E+03  0.54441172466E+03 -0.26683787488E+03  0.62169016450E+03  0.46999998093E+01 0.  1.
       -5    1    3    3    0  502 -0.13744087172E+03 -0.54441172466E+03  0.91685121565E+03  0.10751336479E+04  0.46999998093E+01 0. -1.
</event>
<event>
 5   0  0.1078018E-03  0.1504465E+04  0.7818609E-02  0.8881489E-01
        1   -1    0    0  501    0  0.00000000000E+00  0.00000000000E+00  0.85443832038E+03  0.85443832039E+03  0.50400001928E-02 0.  1.
       -1   -1    0    0    0  501  0.00000000000E+00  0.00000000000E+00 -0.66225253374E+03  0.66225253376E+03  0.50400001928E-02 0. -1.
    10030    2    1    2    0    0  0.00000000000E+00  0.00000000000E+00  0.19218578663E+03  0.15166908542E+04  0.15044652773E+04 0.  0.
        4    1    3    3  502    0  0.45319472341E+03 -0.49702309864E+03  0.43563080096E+03  0.80136959360E+03  0.12699999809E+01 0.  1.
       -4    1    3    3    0  502 -0.45319472341E+03  0.49702309864E+03 -0.24344501433E+03  0.71532126055E+03  0.12699999809E+01 0. -1.
</event>
<event>
 5   0  0.1078787E-03  0.1534988E+04  0.7818609E-02  0.8861514E-01
        1   -1    0    0  501    0  0.00000000000E+00  0.00000000000E+00  0.97463696753E+03  0.97463696754E+03  0.50400001928E-02 0.  1.
       -1   -1    0    0    0  501  0.00000000000E+00  0.00000000000E+00 -0.60437579958E+03  0.60437579960E+03  0.50400001928E-02 0. -1.
    10030    2    1    2    0    0  0.00000000000E+00  0.00000000000E+00  0.37026116795E+03  0.15790127671E+04  0.15349879434E+04 0.  0.
        5    1    3    3  502    0 -0.27205992746E+03 -0.29112580398E+03 -0.48961983958E+03  0.63128481304E+03  0.46999998093E+01 0. -1.
       -5    1    3    3    0  502  0.27205992746E+03  0.29112580398E+03  0.85988100753E+03  0.94772795410E+03  0.46999998093E+01 0.  1.
</event>
<event>
 5   0  0.1078018E-03  0.1556079E+04  0.7818609E-02  0.8847994E-01
       -1   -1    0    0    0  501  0.00000000000E+00  0.00000000000E+00  0.93260666251E+03  0.93260666253E+03  0.50400001928E-02 0.  1.
        1   -1    0    0  501    0  0.00000000000E+00  0.00000000000E+00 -0.64908955601E+03  0.64908955603E+03  0.50400001928E-02 0. -1.
    10030    2    1    2    0    0  0.00000000000E+00  0.00000000000E+00  0.28351710650E+03  0.15816962186E+04  0.15560787185E+04 0.  0.
        4    1    3    3  502    0  0.44887829162E+03 -0.42456563240E+03  0.62240248629E+03  0.87700294455E+03  0.12699999809E+01 0.  1.
       -4    1    3    3    0  502 -0.44887829162E+03  0.42456563240E+03 -0.33888537979E+03  0.70469327401E+03  0.12699999809E+01 0. -1.
</event>
<event>
 5   0  0.2150197E-03  0.1516540E+04  0.7818609E-02  0.8873528E-01
       -2   -1    0    0    0  501  0.00000000000E+00  0.00000000000E+00  0.74656643307E+03  0.74656643307E+03  0.25500000920E-02 0.  1.
        2   -1    0    0  501    0  0.00000000000E+00  0.00000000000E+00 -0.77015664761E+03  0.77015664761E+03  0.25500000920E-02 0. -1.
    10030    2    1    2    0    0  0.00000000000E+00  0.00000000000E+00 -0.23590214540E+02  0.15167230807E+04  0.15165396155E+04 0.  0.
        3    1    3    3  502    0 -0.28188167698E+03  0.38403271702E+03 -0.60181112103E+03  0.76753830077E+03  0.10100000352E+00 0. -1.
       -3    1    3    3    0  502  0.28188167698E+03 -0.38403271702E+03  0.57822090649E+03  0.74918477991E+03  0.10100000352E+00 0.  1.
</event>
<event>
 5   0  0.1087761E-03  0.1491854E+04  0.7818609E-02  0.8889888E-01
        1   -1    0    0  501    0  0.00000000000E+00  0.00000000000E+00  0.10834285967E+04  0.10834285967E+04  0.50400001928E-02 0. -1.
       -1   -1    0    0    0  501  0.00000000000E+00  0.00000000000E+00 -0.51356158407E+03  0.51356158410E+03  0.50400001928E-02 0.  1.
    10030    2    1    2    0    0  0.00000000000E+00  0.00000000000E+00  0.56986701265E+03  0.15969901808E+04  0.14918542910E+04 0.  0.
        3    1    3    3  502    0  0.76858873161E+02  0.29672681076E+02 -0.50867610879E+03  0.51530490803E+03  0.10100000352E+00 0.  1.
       -3    1    3    3    0  502 -0.76858873161E+02 -0.29672681076E+02  0.10785431214E+04  0.10816852728E+04  0.10100000352E+00 0. -1.
</event>
<event>
 5   0  0.7468375E-04  0.1543868E+04  0.7818609E-02  0.8855794E-01
        4   -1    0    0  501    0  0.00000000000E+00  0.00000000000E+00  0.51199851809E+03  0.51200009319E+03  0.12699999809E+01 0. -1.
       -4   -1    0    0    0  501  0.00000000000E+00  0.00000000000E+00 -0.11638320927E+04  0.11638327856E+04  0.12699999809E+01 0.  1.
    10030    2    1    2    0    0  0.00000000000E+00  0.00000000000E+00 -0.65183357458E+03  0.16758328788E+04  0.15438681384E+04 0.  0.
        5    1    3    3  502    0 -0.76842959318E+03  0.53180876414E+02 -0.27112577873E+03  0.81660487580E+03  0.46999998093E+01 0. -1.
       -5    1    3    3    0  502  0.76842959318E+03 -0.53180876414E+02 -0.38070779585E+03  0.85922800298E+03  0.46999998093E+01 0.  1.
</event>
<event>
 5   0  0.2150197E-03  0.1532946E+04  0.7818609E-02  0.8862835E-01
        2   -1    0    0  501    0  0.00000000000E+00  0.00000000000E+00  0.12821065413E+04  0.12821065413E+04  0.25500000920E-02 0. -1.
       -2   -1    0    0    0  501  0.00000000000E+00  0.00000000000E+00 -0.45821540710E+03  0.45821540711E+03  0.25500000920E-02 0.  1.
    10030    2    1    2    0    0  0.00000000000E+00  0.00000000000E+00  0.82389113421E+03  0.17403219484E+04  0.15329461449E+04 0.  0.
        3    1    3    3  502    0  0.11865617068E+03 -0.62700921130E+03  0.89395300022E+03  0.10983495867E+04  0.10100000352E+00 0. -1.
       -3    1    3    3    0  502 -0.11865617068E+03  0.62700921130E+03 -0.70061866015E+02  0.64197236168E+03  0.10100000352E+00 0.  1.
</event>
<event>
 5   0  0.1087761E-03  0.1563613E+04  0.7818609E-02  0.8843219E-01
        1   -1    0    0  501    0  0.00000000000E+00  0.00000000000E+00  0.80644274651E+03  0.80644274653E+03  0.50400001928E-02 0. -1.
       -1   -1    0    0    0  501  0.00000000000E+00  0.00000000000E+00 -0.75792248728E+03  0.75792248729E+03  0.50400001928E-02 0.  1.
    10030    2    1    2    0    0  0.00000000000E+00  0.00000000000E+00  0.48520259237E+02  0.15643652338E+04  0.15636126020E+04 0.  0.
        3    1    3    3  502    0 -0.48632751819E+03 -0.60967325731E+03  0.79105732760E+02  0.78388370488E+03  0.10100000352E+00 0.  1.
       -3    1    3    3    0  502  0.48632751819E+03  0.60967325731E+03 -0.30585473523E+02  0.78048152894E+03  0.10100000352E+00 0. -1.
</event>
<event>
 5   0  0.1993623E-03  0.1704890E+04  0.7818609E-02  0.8758580E-01
       -2   -1    0    0    0  501  0.00000000000E+00  0.00000000000E+00  0.68723495249E+03  0.68723495249E+03  0.25500000920E-02 0. -1.
        2   -1    0    0  501    0  0.00000000000E+00  0.00000000000E+00 -0.10573712314E+04  0.10573712314E+04  0.25500000920E-02 0.  1.
    10030    2    1    2    0    0  0.00000000000E+00  0.00000000000E+00 -0.37013627894E+03  0.17446061839E+04  0.17048899882E+04 0.  0.
        4    1    3    3  502    0 -0.55093448709E+03 -0.17727996531E+03 -0.82551038666E+03  0.10081795507E+04  0.12699999809E+01 0.  1.
       -4    1    3    3    0  502  0.55093448709E+03  0.17727996531E+03  0.45537410772E+03  0.73642663318E+03  0.12699999809E+01 0. -1.
</event>
<event>
 5   0  0.1069697E-03  0.1510325E+04  0.7818609E-02  0.8877616E-01
       -1   -1    0    0    0  501  0.00000000000E+00  0.00000000000E+00  0.66486997381E+03  0.66486997383E+03  0.50400001928E-02 0.  1.
        1   -1    0    0  501    0  0.00000000000E+00  0.00000000000E+00 -0.85771763641E+03  0.85771763643E+03  0.50400001928E-02 0. -1.
    10030    2    1    2    0    0  0.00000000000E+00  0.00000000000E+00 -0.19284766260E+03  0.15225876103E+04  0.15103253987E+04 0.  0.
        2    1    3    3  502    0 -0.73358423180E+03 -0.43777604571E+02 -0.27164058016E+03  0.78348638061E+03  0.25500000920E-02 0. -1.
       -2    1    3    3    0  502  0.73358423180E+03  0.43777604571E+02  0.78792917558E+02  0.73910122965E+03  0.25500000920E-02 0.  1.
</event>
<event>
 5   0  0.1069697E-03  0.1551029E+04  0.7818609E-02  0.8851211E-01
       -1   -1    0    0    0  501  0.00000000000E+00  0.00000000000E+00  0.42283208407E+03  0.42283208410E+03  0.50400001928E-02 0. -1.
        1   -1    0    0  501    0  0.00000000000E+00  0.00000000000E+00 -0.14223675691E+04  0.14223675692E+04  0.50400001928E-02 0.  1.
    10030    2    1    2    0    0  0.00000000000E+00  0.00000000000E+00 -0.99953548508E+03  0.18451996533E+04  0.15510288761E+04 0.  0.
        2    1    3    3  502    0  0.83772544334E+01  0.29272662432E+03  0.35452499491E+03  0.45983369494E+03  0.25500000920E-02 0. -1.
       -2    1    3    3    0  502 -0.83772544334E+01 -0.29272662432E+03 -0.13540604800E+04  0.13853659583E+04  0.25500000920E-02 0.  1.
</event>
<event>
 5   0  0.1078018E-03  0.1010892E+04  0.7818609E-02  0.9296679E-01
       -1   -1    0    0    0  501  0.00000000000E+00  0.00000000000E+00  0.27290892159E+03  0.27290892164E+03  0.50400001928E-02 0. -1.
        1   -1    0    0  501    0  0.00000000000E+00  0.00000000000E+00 -0.93611987393E+03  0.93611987394E+03  0.50400001928E-02 0.  1.
    10030    2    1    2    0    0  0.00000000000E+00  0.00000000000E+00 -0.66321095233E+03  0.12090287956E+04  0.10108916170E+04 0.  0.
        4    1    3    3  502    0 -0.14205917439E+03  0.30978339569E+03 -0.77803216093E+03  0.84940109348E+03  0.12699999809E+01 0.  1.
       -4    1    3    3    0  502  0.14205917439E+03 -0.30978339569E+03  0.11482120859E+03  0.35962770210E+03  0.12699999809E+01 0. -1.
</event>
<event>
 5   0  0.1087761E-03  0.1513702E+04  0.7818609E-02  0.8875392E-01
       -1   -1    0    0    0  501  0.00000000000E+00  0.00000000000E+00  0.66479933685E+03  0.66479933687E+03  0.50400001928E-02 0.  1.
        1   -1    0    0  501    0  0.00000000000E+00  0.00000000000E+00 -0.86164833450E+03  0.86164833452E+03  0.50400001928E-02 0. -1.
    10030    2    1    2    0    0  0.00000000000E+00  0.00000000000E+00 -0.19684899766E+03  0.15264476714E+04  0.15137017426E+04 0.  0.
        3    1    3    3  502    0  0.42978943892E+03  0.61381125563E+03 -0.20581067149E+03  0.77707223734E+03  0.10100000352E+00 0. -1.
       -3    1    3    3    0  502 -0.42978943892E+03 -0.61381125563E+03  0.89616738363E+01  0.74937543404E+03  0.10100000352E+00 0.  1.
</event>
<event>
 5   0  0.1078787E-03  0.1390789E+04  0.7818609E-02  0.8960513E-01
        1   -1    0    0  501    0  0.00000000000E+00  0.00000000000E+00  0.68339350872E+03  0.68339350874E+03  0.50400001928E-02 0.  1.
       -1   -1    0    0    0  501  0.00000000000E+00  0.00000000000E+00 -0.70760578990E+03  0.70760578992E+03  0.50400001928E-02 0. -1.
    10030    2    1    2    0    0  0.00000000000E+00  0.00000000000E+00 -0.24212281183E+02  0.13909992987E+04  0.13907885584E+04 0.  0.
        5    1    3    3  502    0  0.65761263291E+03  0.22601057514E+03 -0.16101560154E+02  0.69556919518E+03  0.46999998093E+01 0. -1.
       -5    1    3    3    0  502 -0.65761263291E+03 -0.22601057514E+03 -0.81107210288E+01  0.69543010348E+03  0.46999998093E+01 0.  1.
</event>
<event>
 5   0  0.2150197E-03  0.1509359E+04  0.7818609E-02  0.8878253E-01
       -2   -1    0    0    0  501  0.00000000000E+00  0.00000000000E+00  0.67845550352E+03  0.67845550352E+03  0.25500000920E-02 0. -1.
        2   -1    0    0  501    0  0.00000000000E+00  0.00000000000E+00 -0.83946668554E+03  0.83946668554E+03  0.25500000920E-02 0.  1.
    10030    2    1    2    0    0  0.00000000000E+00  0.00000000000E+00 -0.16101118202E+03  0.15179221891E+04  0.15093585297E+04 0.  0.
        3    1    3    3  502    0 -0.57471280251E+03 -0.33385687843E+03  0.27899365991E+03  0.72082778326E+03  0.10100000352E+00 0. -1.
       -3    1    3    3    0  502  0.57471280251E+03  0.33385687843E+03 -0.44000484193E+03  0.79709440581E+03  0.10100000352E+00 0.  1.
</event>
<event>
 5   0  0.1077140E-03  0.1667741E+04  0.7818609E-02  0.8779980E-01
       -1   -1    0    0    0  501  0.00000000000E+00  0.00000000000E+00  0.51015265491E+03  0.51015265494E+03  0.50400001928E-02 0.  1.
        1   -1    0    0  501    0  0.00000000000E+00  0.00000000000E+00 -0.13630035003E+04  0.13630035003E+04  0.50400001928E-02 0. -1.
    10030    2    1    2    0    0  0.00000000000E+00  0.00000000000E+00 -0.85285084538E+03  0.18731561552E+04  0.16677408124E+04 0.  0.
        1    1    3    3  502    0 -0.77211884582E+03 -0.43998102349E+02 -0.76189969095E+02  0.77711534311E+03  0.50400001928E-02 0.  1.
       -1    1    3    3    0  502  0.77211884582E+03  0.43998102349E+02 -0.77666087629E+03  0.10960408121E+04  0.50400001928E-02 0. -1.
</event>
<event>
 5   0  0.2094566E-03  0.1521962E+04  0.7818609E-02  0.8869978E-01
       -2   -1    0    0    0  501  0.00000000000E+00  0.00000000000E+00  0.35616738463E+03  0.35616738464E+03  0.25500000920E-02 0.  1.
        2   -1    0    0  501    0  0.00000000000E+00  0.00000000000E+00 -0.16258994381E+04  0.16258994381E+04  0.25500000920E-02 0. -1.
    10030    2    1    2    0    0  0.00000000000E+00  0.00000000000E+00 -0.12697320535E+04  0.19820668227E+04  0.15219623524E+04 0.  0.
        1    1    3    3  502    0 -0.48695616094E+03 -0.18908522975E+03  0.85786758494E+02  0.52937594840E+03  0.50400001928E-02 0.  1.
       -1    1    3    3    0  502  0.48695616094E+03  0.18908522975E+03 -0.13555188119E+04  0.14526908743E+04  0.50400001928E-02 0. -1.
</event>
<event>
 5   0  0.1087761E-03  0.1440743E+04  0.7818609E-02  0.8924844E-01
       -1   -1    0    0    0  501  0.00000000000E+00  0.00000000000E+00  0.24427980593E+03  0.24427980599E+03  0.50400001928E-02 0.  1.
        1   -1    0    0  501    0  0.00000000000E+00  0.00000000000E+00 -0.21243459574E+04  0.21243459574E+04  0.50400001928E-02 0. -1.
    10030    2    1    2    0    0  0.00000000000E+00  0.00000000000E+00 -0.18800661515E+04  0.23686257634E+04  0.14407426117E+04 0.  0.
        3    1    3    3  502    0  0.44906576601E+03  0.11427310474E+02 -0.14187813380E+02  0.44943514535E+03  0.10100000352E+00 0.  1.
       -3    1    3    3    0  502 -0.44906576601E+03 -0.11427310474E+02 -0.18658783381E+04  0.19191906180E+04  0.10100000352E+00 0. -1.
</event>
<event>
 5   0  0.1069697E-03  0.1461612E+04  0.7818609E-02  0.8910390E-01
        1   -1    0    0  501    0  0.00000000000E+00  0.00000000000E+00  0.78320851002E+03  0.78320851003E+03  0.50400001928E-02 0.  1.
       -1   -1    0    0    0  501  0.00000000000E+00  0.00000000000E+00 -0.68190918570E+03  0.68190918572E+03  0.50400001928E-02 0. -1.
    10030    2    1    2    0    0  0.00000000000E+00  0.00000000000E+00  0.10129932431E+03  0.14651176958E+04  0.14616115453E+04 0.  0.
        2    1    3    3  502    0 -0.66319316795E+03 -0.59979732999E+02 -0.25116117325E+03  0.71169142283E+03  0.25500000920E-02 0. -1.
       -2    1    3    3    0  502  0.66319316795E+03  0.59979732999E+02  0.35246049756E+03  0.75342627292E+03  0.25500000920E-02 0.  1.
</event>
<event>
 5   0  0.1078787E-03  0.1560357E+04  0.7818609E-02  0.8845279E-01
       -1   -1    0    0    0  501  0.00000000000E+00  0.00000000000E+00  0.28146824613E+03  0.28146824617E+03  0.50400001928E-02 0.  1.
        1   -1    0    0  501    0  0.00000000000E+00  0.00000000000E+00 -0.21625129769E+04  0.21625129769E+04  0.50400001928E-02 0. -1.
    10030    2    1    2    0    0  0.00000000000E+00  0.00000000000E+00 -0.18810447308E+04  0.24439812231E+04  0.15603573115E+04 0.  0.
        5    1    3    3  502    0  0.65719255519E+03 -0.13627528429E+03 -0.15634743636E+04  0.17014544318E+04  0.46999998093E+01 0. -1.
       -5    1    3    3    0  502 -0.65719255519E+03  0.13627528429E+03 -0.31757036714E+03  0.74252679129E+03  0.46999998093E+01 0.  1.
</event>
<event>
 5   0  0.2111533E-03  0.1478675E+04  0.7818609E-02  0.8898759E-01
       -2   -1    0    0    0  501  0.00000000000E+00  0.00000000000E+00  0.40975389482E+03  0.40975389483E+03  0.25500000920E-02 0.  1.
        2   -1    0    0  501    0  0.00000000000E+00  0.00000000000E+00 -0.13340203144E+04  0.13340203144E+04  0.25500000920E-02 0. -1.
    10030    2    1    2    0    0  0.00000000000E+00  0.00000000000E+00 -0.92426641960E+03  0.17437742093E+04  0.14786751092E+04 0.  0.
        5    1    3    3  502    0  0.51457843494E+03  0.46622971694E+03 -0.76148683406E+03  0.10305558709E+04  0.46999998093E+01 0. -1.
       -5    1    3    3    0  502 -0.51457843494E+03 -0.46622971694E+03 -0.16277958554E+03  0.71321833833E+03  0.46999998093E+01 0.  1.
</event>
<event>
 5   0  0.2111533E-03  0.1458924E+04  0.7818609E-02  0.8912237E-01
       -2   -1    0    0    0  501  0.00000000000E+00  0.00000000000E+00  0.29506822515E+03  0.29506822516E+03  0.25500000920E-02 0.  1.
        2   -1    0    0  501    0  0.00000000000E+00  0.00000000000E+00 -0.18033612526E+04  0.18033612526E+04  0.25500000920E-02 0. -1.
    10030    2    1    2    0    0  0.00000000000E+00  0.00000000000E+00 -0.15082930274E+04  0.20984294778E+04  0.14589237185E+04 0.  0.
        5    1    3    3  502    0 -0.42682977768E+03  0.29534586131E+03 -0.16963990773E+02  0.51934834541E+03  0.46999998093E+01 0.  1.
       -5    1    3    3    0  502  0.42682977768E+03 -0.29534586131E+03 -0.14913290367E+04  0.15790811323E+04  0.46999998093E+01 0. -1.
</event>
<event>
 5   0  0.2111533E-03  0.1493462E+04  0.7818609E-02  0.8888812E-01
        2   -1    0    0  501    0  0.00000000000E+00  0.00000000000E+00  0.16475231839E+04  0.16475231839E+04  0.25500000920E-02 0. -1.
       -2   -1    0    0    0  501  0.00000000000E+00  0.00000000000E+00 -0.33845199964E+03  0.33845199965E+03  0.25500000920E-02 0.  1.
    10030    2    1    2    0    0  0.00000000000E+00  0.00000000000E+00  0.13090711842E+04  0.19859751835E+04  0.14934624415E+04 0.  0.
        5    1    3    3  502    0  0.31001554647E+03  0.67393274295E+03  0.54099359453E+03  0.91814548977E+03  0.46999998093E+01 0.  1.
       -5    1    3    3    0  502 -0.31001554647E+03 -0.67393274295E+03  0.76807758970E+03  0.10678296938E+04  0.46999998093E+01 0. -1.
</event>
<event>
 5   0  0.1078018E-03  0.1649790E+04  0.7818609E-02  0.8790531E-01
       -1   -1    0    0    0  501  0.00000000000E+00  0.00000000000E+00  0.36026074819E+03  0.36026074822E+03  0.50400001928E-02 0. -1.
        1   -1    0    0  501    0  0.00000000000E+00  0.00000000000E+00 -0.18887762765E+04  0.18887762765E+04  0.50400001928E-02 0.  1.
    10030    2    1    2    0    0  0.00000000000E+00  0.00000000000E+00 -0.15285155283E+04  0.22490370247E+04  0.16497902346E+04 0.  0.
        4    1    3    3  502    0 -0.19134009459E+03  0.49858413308E+03 -0.16213065786E+04  0.17069955490E+04  0.12699999809E+01 0.  1.
       -4    1    3    3    0  502  0.19134009459E+03 -0.49858413308E+03  0.92791050255E+02  0.54204147578E+03  0.12699999809E+01 0. -1.
</event>
<event>
 5   0  0.1961098E-03  0.1496453E+04  0.7818609E-02  0.8886815E-01
       -2   -1    0    0    0  501  0.00000000000E+00  0.00000000000E+00  0.61409354839E+03  0.61409354839E+03  0.25500000920E-02 0.  1.
        2   -1    0    0  501    0  0.00000000000E+00  0.00000000000E+00 -0.91165708631E+03  0.91165708632E+03  0.25500000920E-02 0. -1.
    10030    2    1    2    0    0  0.00000000000E+00  0.00000000000E+00 -0.29756353792E+03  0.15257506347E+04  0.14964527858E+04 0.  0.
        2    1    3    3  502    0  0.39649331798E+03  0.61792261828E+03 -0.29585365925E+03  0.79155840030E+03  0.25500000920E-02 0.  1.
       -2    1    3    3    0  502 -0.39649331798E+03 -0.61792261828E+03 -0.17098786722E+01  0.73419223441E+03  0.25500000920E-02 0. -1.
</event>
<event>
 5   0  0.2150197E-03  0.1500409E+04  0.7818609E-02  0.8884181E-01
       -2   -1    0    0    0  501  0.00000000000E+00  0.00000000000E+00  0.33119875122E+03  0.33119875123E+03  0.25500000920E-02 0.  1.
        2   -1    0    0  501    0  0.00000000000E+00  0.00000000000E+00 -0.16993028513E+04  0.16993028513E+04  0.25500000920E-02 0. -1.
    10030    2    1    2    0    0  0.00000000000E+00  0.00000000000E+00 -0.13681041000E+04  0.20305016025E+04  0.15004092539E+04 0.  0.
        3    1    3    3  502    0  0.62571601455E+02 -0.74687225657E+03 -0.72839398935E+03  0.10451273544E+04  0.10100000352E+00 0. -1.
       -3    1    3    3    0  502 -0.62571601455E+02  0.74687225657E+03 -0.63971011068E+03  0.98537424812E+03  0.10100000352E+00 0.  1.
</event>
<event>
 5   0  0.1087761E-03  0.1493063E+04  0.7818609E-02  0.8889079E-01
        1   -1    0    0  501    0  0.00000000000E+00  0.00000000000E+00  0.14852476905E+04  0.14852476905E+04  0.50400001928E-02 0. -1.
       -1   -1    0    0    0  501  0.00000000000E+00  0.00000000000E+00 -0.37522965270E+03  0.37522965274E+03  0.50400001928E-02 0.  1.
    10030    2    1    2    0    0  0.00000000000E+00  0.00000000000E+00  0.11100180378E+04  0.18604773433E+04  0.14930625910E+04 0.  0.
        3    1    3    3  502    0  0.30834524080E+03 -0.19576563729E+03  0.13663103227E+04  0.14142859967E+04  0.10100000352E+00 0. -1.
       -3    1    3    3    0  502 -0.30834524080E+03  0.19576563729E+03 -0.25629228489E+03  0.44619134658E+03  0.10100000352E+00 0.  1.
</event>
<event>
 5   0  0.2150197E-03  0.1440457E+04  0.7818609E-02  0.8925043E-01
       -2   -1    0    0    0  501  0.00000000000E+00  0.00000000000E+00  0.28456519484E+03  0.28456519485E+03  0.25500000920E-02 0. -1.
        2   -1    0    0  501    0  0.00000000000E+00  0.00000000000E+00 -0.18228839323E+04  0.18228839323E+04  0.25500000920E-02 0.  1.
    10030    2    1    2    0    0  0.00000000000E+00  0.00000000000E+00 -0.15383187375E+04  0.21074491272E+04  0.14404573182E+04 0.  0.
        3    1    3    3  502    0  0.38271541138E+03  0.98293847000E+02 -0.16501444135E+04  0.16967938478E+04  0.10100000352E+00 0.  1.
       -3    1    3    3    0  502 -0.38271541138E+03 -0.98293847000E+02  0.11182567598E+03  0.41065527937E+03  0.10100000352E+00 0. -1.
</event>
<event>
 5   0  0.1077140E-03  0.1451114E+04  0.7818609E-02  0.8917628E-01
       -1   -1    0    0    0  501  0.00000000000E+00  0.00000000000E+00  0.71615254760E+03  0.71615254762E+03  0.50400001928E-02 0.  1.
        1   -1    0    0  501    0  0.00000000000E+00  0.00000000000E+00 -0.73508505067E+03  0.73508505069E+03  0.50400001928E-02 0. -1.
    10030    2    1    2    0    0  0.00000000000E+00  0.00000000000E+00 -0.18932503073E+02  0.14512375983E+04  0.14511140986E+04 0.  0.
        1    1    3    3  502    0  0.22387185503E+03 -0.22567925496E+03  0.64280340688E+03  0.71710944319E+03  0.50400001928E-02 0.  1.
       -1    1    3    3    0  502 -0.22387185503E+03  0.22567925496E+03 -0.66173590995E+03  0.73412815512E+03  0.50400001928E-02 0. -1.
</event>
<event>
 5   0  0.2111533E-03  0.1493322E+04  0.7818609E-02  0.8888906E-01
       -2   -1    0    0    0  501  0.00000000000E+00  0.00000000000E+00  0.35022166036E+03  0.35022166037E+03  0.25500000920E-02 0. -1.
        2   -1    0    0  501    0  0.00000000000E+00  0.00000000000E+00 -0.15918569039E+04  0.15918569039E+04  0.25500000920E-02 0.  1.
    10030    2    1    2    0    0  0.00000000000E+00  0.00000000000E+00 -0.12416352435E+04  0.19420785642E+04  0.14933221594E+04 0.  0.
        5    1    3    3  502    0 -0.37353437771E+02 -0.15754690253E+03 -0.15687309530E+04  0.15770717164E+04  0.46999998093E+01 0.  1.
       -5    1    3    3    0  502  0.37353437771E+02  0.15754690253E+03  0.32709570948E+03  0.36500684784E+03  0.46999998093E+01 0. -1.
</event>
<event>
 5   0  0.1087761E-03  0.1491131E+04  0.7818609E-02  0.8890372E-01
        1   -1    0    0  501    0  0.00000000000E+00  0.00000000000E+00  0.21227663981E+04  0.21227663981E+04  0.50400001928E-02 0. -1.
       -1   -1    0    0    0  501  0.00000000000E+00  0.00000000000E+00 -0.26186018808E+03  0.26186018813E+03  0.50400001928E-02 0.  1.
    10030    2    1    2    0    0  0.00000000000E+00  0.00000000000E+00  0.18609062100E+04  0.23846265862E+04  0.14911311254E+04 0.  0.
        3    1    3    3  502    0 -0.13563496227E+03  0.28873138813E+03  0.20081158035E+04  0.20332957847E+04  0.10100000352E+00 0. -1.
       -3    1    3    3    0  502  0.13563496227E+03 -0.28873138813E+03 -0.14720959351E+03  0.35133080153E+03  0.10100000352E+00 0.  1.
</event>
<event>
 5   0  0.1961098E-03  0.1444122E+04  0.7818609E-02  0.8922486E-01
        2   -1    0    0  501    0  0.00000000000E+00  0.00000000000E+00  0.11881042700E+04  0.11881042700E+04  0.25500000920E-02 0.  1.
       -2   -1    0    0    0  501  0.00000000000E+00  0.00000000000E+00 -0.43882692594E+03  0.43882692595E+03  0.25500000920E-02 0. -1.
    10030    2    1    2    0    0  0.00000000000E+00  0.00000000000E+00  0.74927734402E+03  0.16269311959E+04  0.14441220786E+04 0.  0.
        2    1    3    3  502    0  0.12765406815E+03 -0.70910929713E+03  0.42796556606E+03  0.83802510830E+03  0.25500000920E-02 0.  1.
       -2    1    3    3    0  502 -0.12765406815E+03  0.70910929713E+03  0.32131177795E+03  0.78890608760E+03  0.25500000920E-02 0. -1.
</event>
<event>
 5   0  0.1078787E-03  0.1498315E+04  0.7818609E-02  0.8885574E-01
       -1   -1    0    0    0  501  0.00000000000E+00  0.00000000000E+00  0.28373086084E+03  0.28373086089E+03  0.50400001928E-02 0.  1.
        1   -1    0    0  501    0  0.00000000000E+00  0.00000000000E+00 -0.19780604797E+04  0.19780604797E+04  0.50400001928E-02 0. -1.
    10030    2    1    2    0    0  0.00000000000E+00  0.00000000000E+00 -0.16943296189E+04  0.22617913406E+04  0.14983147904E+04 0.  0.
        5    1    3    3  502    0  0.73389416906E+03  0.45040715611E+02 -0.63057945994E+03  0.96864950459E+03  0.46999998093E+01 0.  1.
       -5    1    3    3    0  502 -0.73389416906E+03 -0.45040715611E+02 -0.10637501589E+04  0.12931418360E+04  0.46999998093E+01 0. -1.
</event>
<event>
 5   0  0.1069697E-03  0.1464561E+04  0.7818609E-02  0.8908367E-01
       -1   -1    0    0    0  501  0.00000000000E+00  0.00000000000E+00  0.78424931777E+03  0.78424931779E+03  0.50400001928E-02 0.  1.
        1   -1    0    0  501    0  0.00000000000E+00  0.00000000000E+00 -0.68375572249E+03  0.68375572250E+03  0.50400001928E-02 0. -1.
    10030    2    1    2    0    0  0.00000000000E+00  0.00000000000E+00  0.10049359528E+03  0.14680050403E+04  0.14645613117E+04 0.  0.
        2    1    3    3  502    0  0.11773664145E+03  0.71496027134E+03 -0.55855078264E+02  0.72673922153E+03  0.25500000920E-02 0.  1.
       -2    1    3    3    0  502 -0.11773664145E+03 -0.71496027134E+03  0.15634867355E+03  0.74126581876E+03  0.25500000920E-02 0. -1.
</event>
<event>
 5   0  0.1078787E-03  0.1555695E+04  0.7818609E-02  0.8848238E-01
       -1   -1    0    0    0  501  0.00000000000E+00  0.00000000000E+00  0.35835494262E+03  0.35835494266E+03  0.50400001928E-02 0.  1.
        1   -1    0    0  501    0  0.00000000000E+00  0.00000000000E+00 -0.16884011228E+04  0.16884011228E+04  0.50400001928E-02 0. -1.
    10030    2    1    2    0    0  0.00000000000E+00  0.00000000000E+00 -0.13300461802E+04  0.20467560655E+04  0.15556951983E+04 0.  0.
        5    1    3    3  502    0  0.62083310880E+03  0.36679161096E+03 -0.28132343924E+03  0.77403798506E+03  0.46999998093E+01 0.  1.
       -5    1    3    3    0  502 -0.62083310880E+03 -0.36679161096E+03 -0.10487227409E+04  0.12727180804E+04  0.46999998093E+01 0. -1.
</event>
<event>
 5   0  0.2111533E-03  0.1425806E+04  0.7818609E-02  0.8935348E-01
        2   -1    0    0  501    0  0.00000000000E+00  0.00000000000E+00  0.73581512330E+03  0.73581512330E+03  0.25500000920E-02 0. -1.
       -2   -1    0    0    0  501  0.00000000000E+00  0.00000000000E+00 -0.69070448835E+03  0.69070448835E+03  0.25500000920E-02 0.  1.
    10030    2    1    2    0    0  0.00000000000E+00  0.00000000000E+00  0.45110634949E+02  0.14265196117E+04  0.14258061695E+04 0.  0.
        5    1    3    3  502    0  0.66307161215E+03 -0.16667613987E+03 -0.17944622875E+03  0.70687193850E+03  0.46999998093E+01 0. -1.
       -5    1    3    3    0  502 -0.66307161215E+03  0.16667613987E+03  0.22455686370E+03  0.71964767315E+03  0.46999998093E+01 0.  1.
</event>
<event>
 5   0  0.1078787E-03  0.1503057E+04  0.7818609E-02  0.8882423E-01
        1   -1    0    0  501    0  0.00000000000E+00  0.00000000000E+00  0.85830191412E+03  0.85830191414E+03  0.50400001928E-02 0.  1.
       -1   -1    0    0    0  501  0.00000000000E+00  0.00000000000E+00 -0.65803781299E+03  0.65803781301E+03  0.50400001928E-02 0. -1.
    10030    2    1    2    0    0  0.00000000000E+00  0.00000000000E+00  0.20026410113E+03  0.15163397271E+04  0.15030570375E+04 0.  0.
        5    1    3    3  502    0  0.92610634454E+02 -0.13661403164E+03 -0.63951337871E+03  0.66048434865E+03  0.46999998093E+01 0. -1.
       -5    1    3    3    0  502 -0.92610634454E+02  0.13661403164E+03  0.83977747984E+03  0.85585537850E+03  0.46999998093E+01 0.  1.
</event>
<event>
 5   0  0.2094566E-03  0.8108391E+03  0.7818609E-02  0.9544459E-01
       -2   -1    0    0    0  501  0.00000000000E+00  0.00000000000E+00  0.12706854480E+03  0.12706854483E+03  0.25500000920E-02 0. -1.
        2   -1    0    0  501    0  0.00000000000E+00  0.00000000000E+00 -0.12935145275E+04  0.12935145275E+04  0.25500000920E-02 0.  1.
    10030    2    1    2    0    0  0.00000000000E+00  0.00000000000E+00 -0.11664459827E+04  0.14205830724E+04  0.81083909307E+03 0.  0.
        1    1    3    3  502    0 -0.27426843025E+02 -0.18886290086E+02 -0.12911144056E+04  0.12915437786E+04  0.50400001928E-02 0.  1.
       -1    1    3    3    0  502  0.27426843025E+02  0.18886290086E+02  0.12466842282E+03  0.12903929380E+03  0.50400001928E-02 0. -1.
</event>
<event>
 5   0  0.2111533E-03  0.1522524E+04  0.7818609E-02  0.8869612E-01
       -2   -1    0    0    0  501  0.00000000000E+00  0.00000000000E+00  0.71815762673E+03  0.71815762673E+03  0.25500000920E-02 0. -1.
        2   -1    0    0  501    0  0.00000000000E+00  0.00000000000E+00 -0.80695309673E+03  0.80695309673E+03  0.25500000920E-02 0.  1.
    10030    2    1    2    0    0  0.00000000000E+00  0.00000000000E+00 -0.88795469997E+02  0.15251107235E+04  0.15225235904E+04 0.  0.
        5    1    3    3  502    0  0.58730883467E+03  0.14491644162E+02  0.44052791482E+03  0.73432187001E+03  0.46999998093E+01 0. -1.
       -5    1    3    3    0  502 -0.58730883467E+03 -0.14491644162E+02 -0.52932338482E+03  0.79078885346E+03  0.46999998093E+01 0.  1.
</event>
<event>
 5   0  0.2111533E-03  0.1507186E+04  0.7818609E-02  0.8879688E-01
       -2   -1    0    0    0  501  0.00000000000E+00  0.00000000000E+00  0.78989911027E+03  0.78989911027E+03  0.25500000920E-02 0.  1.
        2   -1    0    0  501    0  0.00000000000E+00  0.00000000000E+00 -0.71895574240E+03  0.71895574241E+03  0.25500000920E-02 0. -1.
    10030    2    1    2    0    0  0.00000000000E+00  0.00000000000E+00  0.70943367869E+02  0.15088548527E+04  0.15071861216E+04 0.  0.
        5    1    3    3  502    0 -0.13048581544E+03 -0.32937574691E+03  0.70131369379E+03  0.78573399938E+03  0.46999998093E+01 0.  1.
       -5    1    3    3    0  502  0.13048581544E+03  0.32937574691E+03 -0.63037032592E+03  0.72312085330E+03  0.46999998093E+01 0. -1.
</event>
<event>
 5   0  0.1078787E-03  0.1393399E+04  0.7818609E-02  0.8958611E-01
       -1   -1    0    0    0  501  0.00000000000E+00  0.00000000000E+00  0.94309384717E+03  0.94309384718E+03  0.50400001928E-02 0.  1.
        1   -1    0    0  501    0  0.00000000000E+00  0.00000000000E+00 -0.51467833643E+03  0.51467833645E+03  0.50400001928E-02 0. -1.
    10030    2    1    2    0    0  0.00000000000E+00  0.00000000000E+00  0.42841551074E+03  0.14577721836E+04  0.13933986829E+04 0.  0.
        5    1    3    3  502    0  0.24703177380E+02 -0.10874128155E+02  0.94253007201E+03  0.94292816284E+03  0.46999998093E+01 0.  1.
       -5    1    3    3    0  502 -0.24703177380E+02  0.10874128155E+02 -0.51411456127E+03  0.51484402079E+03  0.46999998093E+01 0. -1.
</event>
<event>
 5   0  0.1078787E-03  0.1597240E+04  0.7818609E-02  0.8822245E-01
       -1   -1    0    0    0  501  0.00000000000E+00  0.00000000000E+00  0.45127618067E+03  0.45127618069E+03  0.50400001928E-02 0.  1.
        1   -1    0    0  501    0  0.00000000000E+00  0.00000000000E+00 -0.14133114531E+04  0.14133114531E+04  0.50400001928E-02 0. -1.
    10030    2    1    2    0    0  0.00000000000E+00  0.00000000000E+00 -0.96203527245E+03  0.18645876338E+04  0.15972398626E+04 0.  0.
        5    1    3    3  502    0 -0.43574010503E+03  0.42252993881E+03 -0.10868993564E+04  0.12448989073E+04  0.46999998093E+01 0. -1.
       -5    1    3    3    0  502  0.43574010503E+03 -0.42252993881E+03  0.12486408400E+03  0.61968872653E+03  0.46999998093E+01 0.  1.
</event>
<event>
 5   0  0.2111533E-03  0.1485970E+04  0.7818609E-02  0.8893837E-01
       -2   -1    0    0    0  501  0.00000000000E+00  0.00000000000E+00  0.89109489426E+03  0.89109489426E+03  0.25500000920E-02 0.  1.
        2   -1    0    0  501    0  0.00000000000E+00  0.00000000000E+00 -0.61949258283E+03  0.61949258283E+03  0.25500000920E-02 0. -1.
    10030    2    1    2    0    0  0.00000000000E+00  0.00000000000E+00  0.27160231143E+03  0.15105874771E+04  0.14859699561E+04 0.  0.
        5    1    3    3  502    0  0.72216399652E+03 -0.17038956981E+03  0.97076181222E+02  0.74833102189E+03  0.46999998093E+01 0.  1.
       -5    1    3    3    0  502 -0.72216399652E+03  0.17038956981E+03  0.17452613021E+03  0.76225645520E+03  0.46999998093E+01 0. -1.
</event>
<event>
 5   0  0.1078018E-03  0.1596314E+04  0.7818609E-02  0.8822816E-01
       -1   -1    0    0    0  501  0.00000000000E+00  0.00000000000E+00  0.56248930766E+03  0.56248930769E+03  0.50400001928E-02 0. -1.
        1   -1    0    0  501    0  0.00000000000E+00  0.00000000000E+00 -0.11325625794E+04  0.11325625794E+04  0.50400001928E-02 0.  1.
    10030    2    1    2    0    0  0.00000000000E+00  0.00000000000E+00 -0.57007327171E+03  0.16950518871E+04  0.15963136799E+04 0.  0.
        4    1    3    3  502    0 -0.44953988254E+03 -0.38647734997E+03 -0.85250975305E+03  0.10383762998E+04  0.12699999809E+01 0.  1.
       -4    1    3    3    0  502  0.44953988254E+03  0.38647734997E+03  0.28243648134E+03  0.65667558728E+03  0.12699999809E+01 0. -1.
</event>
<event>
 5   0  0.2094566E-03  0.1250951E+04  0.7818609E-02  0.9069392E-01
        2   -1    0    0  501    0  0.00000000000E+00  0.00000000000E+00  0.71564123816E+03  0.71564123817E+03  0.25500000920E-02 0. -1.
       -2   -1    0    0    0  501  0.00000000000E+00  0.00000000000E+00 -0.54666970614E+03  0.54666970615E+03  0.25500000920E-02 0.  1.
    10030    2    1    2    0    0  0.00000000000E+00  0.00000000000E+00  0.16897153202E+03  0.12623109443E+04  0.12509506551E+04 0.  0.
        1    1    3    3  502    0 -0.30212132136E+03 -0.61618022965E+02  0.63362010162E+03  0.70466198051E+03  0.50400001928E-02 0. -1.
       -1    1    3    3    0  502  0.30212132136E+03  0.61618022965E+02 -0.46464856960E+03  0.55764896381E+03  0.50400001928E-02 0.  1.
</event>
<event>
 5   0  0.1078787E-03  0.1503509E+04  0.7818609E-02  0.8882123E-01
        1   -1    0    0  501    0  0.00000000000E+00  0.00000000000E+00  0.55451468322E+03  0.55451468324E+03  0.50400001928E-02 0.  1.
       -1   -1    0    0    0  501  0.00000000000E+00  0.00000000000E+00 -0.10191520022E+04  0.10191520022E+04  0.50400001928E-02 0. -1.
    10030    2    1    2    0    0  0.00000000000E+00  0.00000000000E+00 -0.46463731896E+03  0.15736666854E+04  0.15035088954E+04 0.  0.
        5    1    3    3  502    0  0.59427200271E+03  0.45347361159E+03 -0.14914268485E+03  0.76227498979E+03  0.46999998093E+01 0. -1.
       -5    1    3    3    0  502 -0.59427200271E+03 -0.45347361159E+03 -0.31549463411E+03  0.81139169565E+03  0.46999998093E+01 0.  1.
</event>
<event>
 5   0  0.1077140E-03  0.1810551E+04  0.7818609E-02  0.8700709E-01
       -1   -1    0    0    0  501  0.00000000000E+00  0.00000000000E+00  0.11432578009E+04  0.11432578009E+04  0.50400001928E-02 0.  1.
        1   -1    0    0  501    0  0.00000000000E+00  0.00000000000E+00 -0.71683172214E+03  0.71683172216E+03  0.50400001928E-02 0. -1.
    10030    2    1    2    0    0  0.00000000000E+00  0.00000000000E+00  0.42642607878E+03  0.18600895231E+04  0.18105506989E+04 0.  0.
        1    1    3    3  502    0  0.50659843235E+03  0.59062344942E+03 -0.26209606561E+03  0.82108000724E+03  0.50400001928E-02 0. -1.
       -1    1    3    3    0  502 -0.50659843235E+03 -0.59062344942E+03  0.68852214439E+03  0.10390095158E+04  0.50400001928E-02 0.  1.
</event>
<event>
 5   0  0.1077140E-03  0.1476037E+04  0.7818609E-02  0.8900546E-01
       -1   -1    0    0    0  501  0.00000000000E+00  0.00000000000E+00  0.41318476200E+03  0.41318476203E+03  0.50400001928E-02 0. -1.
        1   -1    0    0  501    0  0.00000000000E+00  0.00000000000E+00 -0.13182275659E+04  0.13182275659E+04  0.50400001928E-02 0.  1.
    10030    2    1    2    0    0  0.00000000000E+00  0.00000000000E+00 -0.90504280389E+03  0.17314123279E+04  0.14760373208E+04 0.  0.
        1    1    3    3  502    0  0.62318800594E+03  0.14581043777E+03 -0.21452640525E+02  0.64037816196E+03  0.50400001928E-02 0. -1.
       -1    1    3    3    0  502 -0.62318800594E+03 -0.14581043777E+03 -0.88359016337E+03  0.10910341660E+04  0.50400001928E-02 0.  1.
</event>
<event>
 5   0  0.1078018E-03  0.1382602E+04  0.7818609E-02  0.8966509E-01
       -1   -1    0    0    0  501  0.00000000000E+00  0.00000000000E+00  0.36874347499E+03  0.36874347502E+03  0.50400001928E-02 0. -1.
        1   -1    0    0  501    0  0.00000000000E+00  0.00000000000E+00 -0.12960158737E+04  0.12960158737E+04  0.50400001928E-02 0.  1.
    10030    2    1    2    0    0  0.00000000000E+00  0.00000000000E+00 -0.92727239870E+03  0.16647593487E+04  0.13826024692E+04 0.  0.
        4    1    3    3  502    0 -0.12855643977E+03 -0.67857256640E+03 -0.42734775888E+03  0.81216698159E+03  0.12699999809E+01 0.  1.
       -4    1    3    3    0  502  0.12855643977E+03  0.67857256640E+03 -0.49992463982E+03  0.85259236712E+03  0.12699999809E+01 0. -1.
</event>
<event>
 5   0  0.1993623E-03  0.1079676E+04  0.7818609E-02  0.9225230E-01
        2   -1    0    0  501    0  0.00000000000E+00  0.00000000000E+00  0.15678246672E+04  0.15678246672E+04  0.25500000920E-02 0. -1.
       -2   -1    0    0    0  501  0.00000000000E+00  0.00000000000E+00 -0.18587868440E+03  0.18587868442E+03  0.25500000920E-02 0.  1.
    10030    2    1    2    0    0  0.00000000000E+00  0.00000000000E+00  0.13819459828E+04  0.17537033517E+04  0.10796762228E+04 0.  0.
        4    1    3    3  502    0 -0.39022439287E+03  0.32469784377E+03  0.39270603993E+03  0.64181259978E+03  0.12699999809E+01 0. -1.
       -4    1    3    3    0  502  0.39022439287E+03 -0.32469784377E+03  0.98923994291E+03  0.11118907519E+04  0.12699999809E+01 0.  1.
</event>
<event>
 5   0  0.2150197E-03  0.1469480E+04  0.7818609E-02  0.8905006E-01
       -2   -1    0    0    0  501  0.00000000000E+00  0.00000000000E+00  0.57261947408E+03  0.57261947409E+03  0.25500000920E-02 0.  1.
        2   -1    0    0  501    0  0.00000000000E+00  0.00000000000E+00 -0.94276062215E+03  0.94276062215E+03  0.25500000920E-02 0. -1.
    10030    2    1    2    0    0  0.00000000000E+00  0.00000000000E+00 -0.37014114806E+03  0.15153800962E+04  0.14694803049E+04 0.  0.
        3    1    3    3  502    0 -0.54594083582E+03  0.10307473920E+03 -0.68088709496E+03  0.87879636114E+03  0.10100000352E+00 0. -1.
       -3    1    3    3    0  502  0.54594083582E+03 -0.10307473920E+03  0.31074594690E+03  0.63658373510E+03  0.10100000352E+00 0.  1.
</event>
<event>
 5   0  0.1077140E-03  0.1515184E+04  0.7818609E-02  0.8874418E-01
        1   -1    0    0  501    0  0.00000000000E+00  0.00000000000E+00  0.83781658586E+03  0.83781658588E+03  0.50400001928E-02 0.  1.
       -1   -1    0    0    0  501  0.00000000000E+00  0.00000000000E+00 -0.68504908275E+03  0.68504908276E+03  0.50400001928E-02 0. -1.
    10030    2    1    2    0    0  0.00000000000E+00  0.00000000000E+00  0.15276750312E+03  0.15228656686E+04  0.15151837957E+04 0.  0.
        1    1    3    3  502    0  0.53089806716E+03  0.53688782304E+03  0.14067864582E+02  0.75518156564E+03  0.50400001928E-02 0. -1.
       -1    1    3    3    0  502 -0.53089806716E+03 -0.53688782304E+03  0.13869963853E+03  0.76768410300E+03  0.50400001928E-02 0.  1.
</event>
<event>
 5   0  0.2111533E-03  0.1745030E+04  0.7818609E-02  0.8736091E-01
        2   -1    0    0  501    0  0.00000000000E+00  0.00000000000E+00  0.10646106465E+04  0.10646106465E+04  0.25500000920E-02 0.  1.
       -2   -1    0    0    0  501  0.00000000000E+00  0.00000000000E+00 -0.71508042510E+03  0.71508042511E+03  0.25500000920E-02 0. -1.
    10030    2    1    2    0    0  0.00000000000E+00  0.00000000000E+00  0.34953022137E+03  0.17796910716E+04  0.17450297804E+04 0.  0.
        5    1    3    3  502    0  0.73976480963E+03  0.44459077430E+03  0.30516092352E+03  0.91545519246E+03  0.46999998093E+01 0. -1.
       -5    1    3    3    0  502 -0.73976480963E+03 -0.44459077430E+03  0.44369297842E+02  0.86423587911E+03  0.46999998093E+01 0.  1.
</event>
<event>
 5   0  0.2150197E-03  0.1454595E+04  0.7818609E-02  0.8915221E-01
        2   -1    0    0  501    0  0.00000000000E+00  0.00000000000E+00  0.95360429918E+03  0.95360429918E+03  0.25500000920E-02 0. -1.
       -2   -1    0    0    0  501  0.00000000000E+00  0.00000000000E+00 -0.55469699400E+03  0.55469699400E+03  0.25500000920E-02 0.  1.
    10030    2    1    2    0    0  0.00000000000E+00  0.00000000000E+00  0.39890730518E+03  0.15083012932E+04  0.14545947040E+04 0.  0.
        3    1    3    3  502    0  0.33442003612E+03 -0.22725640514E+03  0.82632357191E+03  0.91994178616E+03  0.10100000352E+00 0. -1.
       -3    1    3    3    0  502 -0.33442003612E+03  0.22725640514E+03 -0.42741626673E+03  0.58835950702E+03  0.10100000352E+00 0.  1.
</event>
<event>
 5   0  0.1993623E-03  0.1504857E+04  0.7818609E-02  0.8881229E-01
       -2   -1    0    0    0  501  0.00000000000E+00  0.00000000000E+00  0.34246541899E+03  0.34246541900E+03  0.25500000920E-02 0.  1.
        2   -1    0    0  501    0  0.00000000000E+00  0.00000000000E+00 -0.16531566084E+04  0.16531566084E+04  0.25500000920E-02 0. -1.
    10030    2    1    2    0    0  0.00000000000E+00  0.00000000000E+00 -0.13106911894E+04  0.19956220274E+04  0.15048574292E+04 0.  0.
        4    1    3    3  502    0  0.68378297864E+03  0.24766821882E+02 -0.10704335446E+04  0.12704338407E+04  0.12699999809E+01 0. -1.
       -4    1    3    3    0  502 -0.68378297864E+03 -0.24766821882E+02 -0.24025764486E+03  0.72518818672E+03  0.12699999809E+01 0.  1.
</event>
<event>
 5   0  0.1961098E-03  0.1556568E+04  0.7818609E-02  0.8847684E-01
        2   -1    0    0  501    0  0.00000000000E+00  0.00000000000E+00  0.13321295805E+04  0.13321295805E+04  0.25500000920E-02 0. -1.
       -2   -1    0    0    0  501  0.00000000000E+00  0.00000000000E+00 -0.45470481564E+03  0.45470481565E+03  0.25500000920E-02 0.  1.
    10030    2    1    2    0    0  0.00000000000E+00  0.00000000000E+00  0.87742476485E+03  0.17868343961E+04  0.15565676796E+04 0.  0.
        2    1    3    3  502    0  0.41945092286E+02  0.28875804771E+03 -0.38953901368E+03  0.48670447303E+03  0.25500000920E-02 0.  1.
       -2    1    3    3    0  502 -0.41945092286E+02 -0.28875804771E+03  0.12669637785E+04  0.13001299231E+04  0.25500000920E-02 0. -1.
</event>
<event>
 5   0  0.1961098E-03  0.1528064E+04  0.7818609E-02  0.8866002E-01
       -2   -1    0    0    0  501  0.00000000000E+00  0.00000000000E+00  0.43691924427E+03  0.43691924428E+03  0.25500000920E-02 0.  1.
        2   -1    0    0  501    0  0.00000000000E+00  0.00000000000E+00 -0.13360482846E+04  0.13360482846E+04  0.25500000920E-02 0. -1.
    10030    2    1    2    0    0  0.00000000000E+00  0.00000000000E+00 -0.89912904032E+03  0.17729675289E+04  0.15280644055E+04 0.  0.
        2    1    3    3  502    0 -0.62678005800E+03  0.14040871140E+03 -0.92960988839E+03  0.11299302598E+04  0.25500000920E-02 0. -1.
       -2    1    3    3    0  502  0.62678005800E+03 -0.14040871140E+03  0.30480848073E+02  0.64303726910E+03  0.25500000920E-02 0.  1.
</event>
<event>
 5   0  0.1961098E-03  0.1502220E+04  0.7818609E-02  0.8882978E-01
        2   -1    0    0  501    0  0.00000000000E+00  0.00000000000E+00  0.13697918314E+04  0.13697918314E+04  0.25500000920E-02 0. -1.
       -2   -1    0    0    0  501  0.00000000000E+00  0.00000000000E+00 -0.41186296778E+03  0.41186296779E+03  0.25500000920E-02 0.  1.
    10030    2    1    2    0    0  0.00000000000E+00  0.00000000000E+00  0.95792886364E+03  0.17816547992E+04  0.15022203952E+04 0.  0.
        2    1    3    3  502    0 -0.48045173445E+03  0.34430353875E+02 -0.20456184181E+03  0.52332099665E+03  0.25500000920E-02 0.  1.
       -2    1    3    3    0  502  0.48045173445E+03 -0.34430353875E+02  0.11624907054E+04  0.12583338026E+04  0.25500000920E-02 0. -1.
</event>
<event>
 5   0  0.2150197E-03  0.7788277E+03  0.7818609E-02  0.9591179E-01
        2   -1    0    0  501    0  0.00000000000E+00  0.00000000000E+00  0.60863703724E+03  0.60863703724E+03  0.25500000920E-02 0. -1.
       -2   -1    0    0    0  501  0.00000000000E+00  0.00000000000E+00 -0.24915200568E+03  0.24915200569E+03  0.25500000920E-02 0.  1.
    10030    2    1    2    0    0  0.00000000000E+00  0.00000000000E+00  0.35948503156E+03  0.85778904294E+03  0.77882767944E+03 0.  0.
        3    1    3    3  502    0  0.17894539745E+03  0.25500331060E+03  0.43708737124E+03  0.53674344336E+03  0.10100000352E+00 0. -1.
       -3    1    3    3    0  502 -0.17894539745E+03 -0.25500331060E+03 -0.77602339685E+02  0.32104559958E+03  0.10100000352E+00 0.  1.
</event>
<event>
 5   0  0.1993623E-03  0.1549193E+04  0.7818609E-02  0.8852384E-01
        2   -1    0    0  501    0  0.00000000000E+00  0.00000000000E+00  0.15092580972E+04  0.15092580972E+04  0.25500000920E-02 0. -1.
       -2   -1    0    0    0  501  0.00000000000E+00  0.00000000000E+00 -0.39754597760E+03  0.39754597760E+03  0.25500000920E-02 0.  1.
    10030    2    1    2    0    0  0.00000000000E+00  0.00000000000E+00  0.11117121196E+04  0.19068040748E+04  0.15491926745E+04 0.  0.
        4    1    3    3  502    0 -0.76500373001E+03  0.10742635363E+03  0.62577308146E+03  0.99416532366E+03  0.12699999809E+01 0.  1.
       -4    1    3    3    0  502  0.76500373001E+03 -0.10742635363E+03  0.48593903811E+03  0.91263875111E+03  0.12699999809E+01 0. -1.
</event>
<event>
 5   0  0.2094566E-03  0.1406694E+04  0.7818609E-02  0.8948988E-01
       -2   -1    0    0    0  501  0.00000000000E+00  0.00000000000E+00  0.37813864145E+03  0.37813864146E+03  0.25500000920E-02 0.  1.
        2   -1    0    0  501    0  0.00000000000E+00  0.00000000000E+00 -0.13082415787E+04  0.13082415787E+04  0.25500000920E-02 0. -1.
    10030    2    1    2    0    0  0.00000000000E+00  0.00000000000E+00 -0.93010293729E+03  0.16863802202E+04  0.14066935605E+04 0.  0.
        1    1    3    3  502    0  0.24387819751E+03 -0.48880481849E+03 -0.99618662874E+03  0.11361313855E+04  0.50400001928E-02 0. -1.
       -1    1    3    3    0  502 -0.24387819751E+03  0.48880481849E+03  0.66083691451E+02  0.55024883471E+03  0.50400001928E-02 0.  1.
</event>
<event>
 5   0  0.1077140E-03  0.1329618E+04  0.7818609E-02  0.9006402E-01
        1   -1    0    0  501    0  0.00000000000E+00  0.00000000000E+00  0.54733385952E+03  0.54733385955E+03  0.50400001928E-02 0. -1.
       -1   -1    0    0    0  501  0.00000000000E+00  0.00000000000E+00 -0.80749754824E+03  0.80749754825E+03  0.50400001928E-02 0.  1.
    10030    2    1    2    0    0  0.00000000000E+00  0.00000000000E+00 -0.26016368871E+03  0.13548314078E+04  0.13296176137E+04 0.  0.
        1    1    3    3  502    0 -0.60947475155E+03  0.26337377168E+03 -0.95594294103E+02  0.67079317638E+03  0.50400001928E-02 0.  1.
       -1    1    3    3    0  502  0.60947475155E+03 -0.26337377168E+03 -0.16456939461E+03  0.68403823142E+03  0.50400001928E-02 0. -1.
</event>
<event>
 5   0  0.1087761E-03  0.1581291E+04  0.7818609E-02  0.8832125E-01
       -1   -1    0    0    0  501  0.00000000000E+00  0.00000000000E+00  0.15281321723E+04  0.15281321723E+04  0.50400001928E-02 0.  1.
        1   -1    0    0  501    0  0.00000000000E+00  0.00000000000E+00 -0.40907469286E+03  0.40907469289E+03  0.50400001928E-02 0. -1.
    10030    2    1    2    0    0  0.00000000000E+00  0.00000000000E+00  0.11190574794E+04  0.19372068652E+04  0.15812908639E+04 0.  0.
        3    1    3    3  502    0 -0.34736004844E+03  0.63600570670E+03  0.17220612290E+03  0.74486053807E+03  0.10100000352E+00 0.  1.
       -3    1    3    3    0  502  0.34736004844E+03 -0.63600570670E+03  0.94685135651E+03  0.11923463271E+04  0.10100000352E+00 0. -1.
</event>
<event>
 5   0  0.1077140E-03  0.1504532E+04  0.7818609E-02  0.8881445E-01
        1   -1    0    0  501    0  0.00000000000E+00  0.00000000000E+00  0.71082001475E+03  0.71082001477E+03  0.50400001928E-02 0. -1.
       -1   -1    0    0    0  501  0.00000000000E+00  0.00000000000E+00 -0.79612878519E+03  0.79612878521E+03  0.50400001928E-02 0.  1.
    10030    2    1    2    0    0  0.00000000000E+00  0.00000000000E+00 -0.85308770443E+02  0.15069488000E+04  0.15045321862E+04 0.  0.
        1    1    3    3  502    0  0.60587746881E+03 -0.23312643378E+03 -0.42335545490E+03  0.77502598831E+03  0.50400001928E-02 0.  1.
       -1    1    3    3    0  502 -0.60587746881E+03  0.23312643378E+03  0.33804668446E+03  0.73192281167E+03  0.50400001928E-02 0. -1.
</event>
<event>
 5   0  0.1993623E-03  0.1548368E+04  0.7818609E-02  0.8852911E-01
       -2   -1    0    0    0  501  0.00000000000E+00  0.00000000000E+00  0.36786828643E+03  0.36786828644E+03  0.25500000920E-02 0. -1.
        2   -1    0    0  501    0  0.00000000000E+00  0.00000000000E+00 -0.16292807724E+04  0.16292807724E+04  0.25500000920E-02 0.  1.
    10030    2    1    2    0    0  0.00000000000E+00  0.00000000000E+00 -0.12614124860E+04  0.19971490589E+04  0.15483678192E+04 0.  0.
        4    1    3    3  502    0  0.70938098723E+03 -0.16198325141E+03 -0.97172031754E+03  0.12139612626E+04  0.12699999809E+01 0.  1.
       -4    1    3    3    0  502 -0.70938098723E+03  0.16198325141E+03 -0.28969216845E+03  0.78318779622E+03  0.12699999809E+01 0. -1.
</event>
<event>
 5   0  0.1961098E-03  0.1443547E+04  0.7818609E-02  0.8922886E-01
        2   -1    0    0  501    0  0.00000000000E+00  0.00000000000E+00  0.20407067213E+04  0.20407067213E+04  0.25500000920E-02 0.  1.
       -2   -1    0    0    0  501  0.00000000000E+00  0.00000000000E+00 -0.25528265730E+03  0.25528265731E+03  0.25500000920E-02 0. -1.
    10030    2    1    2    0    0  0.00000000000E+00  0.00000000000E+00  0.17854240640E+04  0.22959893786E+04  0.14435470683E+04 0.  0.
        2    1    3    3  502    0 -0.22999283418E+03  0.68254512188E+03  0.96718651186E+03  0.12059080794E+04  0.25500000920E-02 0.  1.
       -2    1    3    3    0  502  0.22999283418E+03 -0.68254512188E+03  0.81823755210E+03  0.10900812992E+04  0.25500000920E-02 0. -1.
</event>
<event>
 5   0  0.1961098E-03  0.1489148E+04  0.7818609E-02  0.8891701E-01
       -2   -1    0    0    0  501  0.00000000000E+00  0.00000000000E+00  0.11893699583E+04  0.11893699583E+04  0.25500000920E-02 0. -1.
        2   -1    0    0  501    0  0.00000000000E+00  0.00000000000E+00 -0.46612133374E+03  0.46612133374E+03  0.25500000920E-02 0.  1.
    10030    2    1    2    0    0  0.00000000000E+00  0.00000000000E+00  0.72324862459E+03  0.16554912921E+04  0.14891483624E+04 0.  0.
        2    1    3    3  502    0 -0.24547180641E+03 -0.54236674987E+03  0.85875914320E+03  0.10449331869E+04  0.25500000920E-02 0. -1.
       -2    1    3    3    0  502  0.24547180641E+03  0.54236674987E+03 -0.13551051860E+03  0.61055810515E+03  0.25500000920E-02 0.  1.
</event>
<event>
 5   0  0.2094566E-03  0.1111843E+04  0.7818609E-02  0.9193725E-01
        2   -1    0    0  501    0  0.00000000000E+00  0.00000000000E+00  0.18608077195E+04  0.18608077195E+04  0.25500000920E-02 0. -1.
       -2   -1    0    0    0  501  0.00000000000E+00  0.00000000000E+00 -0.16608315383E+03  0.16608315385E+03  0.25500000920E-02 0.  1.
    10030    2    1    2    0    0  0.00000000000E+00  0.00000000000E+00  0.16947245656E+04  0.20268908733E+04  0.11118431809E+04 0.  0.
        1    1    3    3  502    0 -0.27034168282E+03 -0.12492927543E+02  0.17326128314E+04  0.17536213737E+04  0.50400001928E-02 0. -1.
       -1    1    3    3    0  502  0.27034168282E+03  0.12492927543E+02 -0.37888265780E+02  0.27326949961E+03  0.50400001928E-02 0.  1.
</event>
<event>
 5   0  0.2111533E-03  0.1444775E+04  0.7818609E-02  0.8922031E-01
       -2   -1    0    0    0  501  0.00000000000E+00  0.00000000000E+00  0.44072238316E+03  0.44072238316E+03  0.25500000920E-02 0.  1.
        2   -1    0    0  501    0  0.00000000000E+00  0.00000000000E+00 -0.11840652113E+04  0.11840652113E+04  0.25500000920E-02 0. -1.
    10030    2    1    2    0    0  0.00000000000E+00  0.00000000000E+00 -0.74334282812E+03  0.16247875944E+04  0.14447754728E+04 0.  0.
        5    1    3    3  502    0 -0.27069047518E+03 -0.13838965895E+03 -0.11086004983E+04  0.11495399888E+04  0.46999998093E+01 0. -1.
       -5    1    3    3    0  502  0.27069047518E+03  0.13838965895E+03  0.36525767016E+03  0.47524760564E+03  0.46999998093E+01 0.  1.
</event>
<event>
 5   0  0.1069697E-03  0.1447995E+04  0.7818609E-02  0.8919792E-01
       -1   -1    0    0    0  501  0.00000000000E+00  0.00000000000E+00  0.28235857178E+03  0.28235857183E+03  0.50400001928E-02 0. -1.
        1   -1    0    0  501    0  0.00000000000E+00  0.00000000000E+00 -0.18564059589E+04  0.18564059589E+04  0.50400001928E-02 0.  1.
    10030    2    1    2    0    0  0.00000000000E+00  0.00000000000E+00 -0.15740473871E+04  0.21387645307E+04  0.14479946619E+04 0.  0.
        2    1    3    3  502    0 -0.30858199320E+03 -0.31169673226E+03  0.63782341119E+02  0.44322216379E+03  0.25500000920E-02 0. -1.
       -2    1    3    3    0  502  0.30858199320E+03  0.31169673226E+03 -0.16378297282E+04  0.16955423669E+04  0.25500000920E-02 0.  1.
</event>
<event>
 5   0  0.1087761E-03  0.1948350E+04  0.7818609E-02  0.8631157E-01
        1   -1    0    0  501    0  0.00000000000E+00  0.00000000000E+00  0.64948185330E+03  0.64948185332E+03  0.50400001928E-02 0.  1.
       -1   -1    0    0    0  501  0.00000000000E+00  0.00000000000E+00 -0.14611912820E+04  0.14611912820E+04  0.50400001928E-02 0. -1.
    10030    2    1    2    0    0  0.00000000000E+00  0.00000000000E+00 -0.81170942874E+03  0.21106731354E+04  0.19483502990E+04 0.  0.
        3    1    3    3  502    0  0.16578416182E+03  0.84340738368E+03 -0.90252365132E+03  0.12463423906E+04  0.10100000352E+00 0. -1.
       -3    1    3    3    0  502 -0.16578416182E+03 -0.84340738368E+03  0.90814222584E+02  0.86433074479E+03  0.10100000352E+00 0.  1.
</event>
<event>
 5   0  0.1077140E-03  0.1474792E+04  0.7818609E-02  0.8901391E-01
       -1   -1    0    0    0  501  0.00000000000E+00  0.00000000000E+00  0.43333513570E+03  0.43333513573E+03  0.50400001928E-02 0.  1.
        1   -1    0    0  501    0  0.00000000000E+00  0.00000000000E+00 -0.12548083283E+04  0.12548083284E+04  0.50400001928E-02 0. -1.
    10030    2    1    2    0    0  0.00000000000E+00  0.00000000000E+00 -0.82147319264E+03  0.16881434641E+04  0.14747915612E+04 0.  0.
        1    1    3    3  502    0 -0.53250526526E+03 -0.37034844904E+03 -0.81223978229E+03  0.10394485534E+04  0.50400001928E-02 0. -1.
       -1    1    3    3    0  502  0.53250526526E+03  0.37034844904E+03 -0.92334103554E+01  0.64869491067E+03  0.50400001928E-02 0.  1.
</event>
<event>
 5   0  0.1069697E-03  0.1489690E+04  0.7818609E-02  0.8891338E-01
       -1   -1    0    0    0  501  0.00000000000E+00  0.00000000000E+00  0.33451843508E+03  0.33451843512E+03  0.50400001928E-02 0. -1.
        1   -1    0    0  501    0  0.00000000000E+00  0.00000000000E+00 -0.16584863798E+04  0.16584863798E+04  0.50400001928E-02 0.  1.
    10030    2    1    2    0    0  0.00000000000E+00  0.00000000000E+00 -0.13239679447E+04  0.19930048149E+04  0.14896902610E+04 0.  0.
        2    1    3    3  502    0  0.82715085374E+02  0.65198209019E+03 -0.19302100915E+03  0.68496681763E+03  0.25500000920E-02 0. -1.
       -2    1    3    3    0  502 -0.82715085374E+02 -0.65198209019E+03 -0.11309469355E+04  0.13080379973E+04  0.25500000920E-02 0.  1.
</event>
<event>
 5   0  0.2150197E-03  0.1560413E+04  0.7818609E-02  0.8845244E-01
       -2   -1    0    0    0  501  0.00000000000E+00  0.00000000000E+00  0.32033906493E+03  0.32033906494E+03  0.25500000920E-02 0. -1.
        2   -1    0    0  501    0  0.00000000000E+00  0.00000000000E+00 -0.19002430579E+04  0.19002430579E+04  0.25500000920E-02 0.  1.
    10030    2    1    2    0    0  0.00000000000E+00  0.00000000000E+00 -0.15799039930E+04  0.22205821229E+04  0.15604128740E+04 0.  0.
        3    1    3    3  502    0  0.63761003709E+03  0.16497268005E+03 -0.13851974892E+04  0.15337974569E+04  0.10100000352E+00 0.  1.
       -3    1    3    3    0  502 -0.63761003709E+03 -0.16497268005E+03 -0.19470650378E+03  0.68678466594E+03  0.10100000352E+00 0. -1.
</event>
<event>
 5   0  0.1069697E-03  0.1498684E+04  0.7818609E-02  0.8885328E-01
       -1   -1    0    0    0  501  0.00000000000E+00  0.00000000000E+00  0.71181361169E+03  0.71181361171E+03  0.50400001928E-02 0.  1.
        1   -1    0    0  501    0  0.00000000000E+00  0.00000000000E+00 -0.78884940710E+03  0.78884940711E+03  0.50400001928E-02 0. -1.
    10030    2    1    2    0    0  0.00000000000E+00  0.00000000000E+00 -0.77035795410E+02  0.15006630188E+04  0.14986844172E+04 0.  0.
        2    1    3    3  502    0  0.48278626365E+03 -0.29073230378E+03  0.45600241888E+03  0.72494555303E+03  0.25500000920E-02 0.  1.
       -2    1    3    3    0  502 -0.48278626365E+03  0.29073230378E+03 -0.53303821429E+03  0.77571746579E+03  0.25500000920E-02 0. -1.
</event>
<event>
 5   0  0.2111533E-03  0.1483062E+04  0.7818609E-02  0.8895795E-01
        2   -1    0    0  501    0  0.00000000000E+00  0.00000000000E+00  0.16497794701E+04  0.16497794701E+04  0.25500000920E-02 0. -1.
       -2   -1    0    0    0  501  0.00000000000E+00  0.00000000000E+00 -0.33329798286E+03  0.33329798287E+03  0.25500000920E-02 0.  1.
    10030    2    1    2    0    0  0.00000000000E+00  0.00000000000E+00  0.13164814873E+04  0.19830774530E+04  0.14830619266E+04 0.  0.
        5    1    3    3  502    0 -0.45446352665E+03 -0.91537328561E+02 -0.11561026123E+03  0.47781168056E+03  0.46999998093E+01 0.  1.
       -5    1    3    3    0  502  0.45446352665E+03  0.91537328561E+02  0.14320917485E+04  0.15052657724E+04  0.46999998093E+01 0. -1.
</event>
<event>
 5   0  0.2094566E-03  0.1460356E+04  0.7818609E-02  0.8911252E-01
       -2   -1    0    0    0  501  0.00000000000E+00  0.00000000000E+00  0.69424270575E+03  0.69424270576E+03  0.25500000920E-02 0. -1.
        2   -1    0    0  501    0  0.00000000000E+00  0.00000000000E+00 -0.76797366188E+03  0.76797366188E+03  0.25500000920E-02 0.  1.
    10030    2    1    2    0    0  0.00000000000E+00  0.00000000000E+00 -0.73730956127E+02  0.14622163676E+04  0.14603562757E+04 0.  0.
        1    1    3    3  502    0 -0.23739252675E+03  0.68390518845E+03 -0.13226849895E+03  0.73591879605E+03  0.50400001928E-02 0.  1.
       -1    1    3    3    0  502  0.23739252675E+03 -0.68390518845E+03  0.58537542820E+02  0.72629757159E+03  0.50400001928E-02 0. -1.
</event>
<event>
 5   0  0.1078787E-03  0.1464135E+04  0.7818609E-02  0.8908660E-01
       -1   -1    0    0    0  501  0.00000000000E+00  0.00000000000E+00  0.10795717477E+04  0.10795717477E+04  0.50400001928E-02 0. -1.
        1   -1    0    0  501    0  0.00000000000E+00  0.00000000000E+00 -0.49642139145E+03  0.49642139147E+03  0.50400001928E-02 0.  1.
    10030    2    1    2    0    0  0.00000000000E+00  0.00000000000E+00  0.58315035624E+03  0.15759931392E+04  0.14641345692E+04 0.  0.
        5    1    3    3  502    0 -0.17448217200E+03 -0.67728731619E+03  0.52428231396E+03  0.87410306700E+03  0.46999998093E+01 0. -1.
       -5    1    3    3    0  502  0.17448217200E+03  0.67728731619E+03  0.58868042281E+02  0.70189007217E+03  0.46999998093E+01 0.  1.
</event>
<event>
 5   0  0.1087761E-03  0.1539779E+04  0.7818609E-02  0.8858423E-01
       -1   -1    0    0    0  501  0.00000000000E+00  0.00000000000E+00  0.87622272904E+03  0.87622272906E+03  0.50400001928E-02 0. -1.
        1   -1    0    0  501    0  0.00000000000E+00  0.00000000000E+00 -0.67646014885E+03  0.67646014887E+03  0.50400001928E-02 0.  1.
    10030    2    1    2    0    0  0.00000000000E+00  0.00000000000E+00  0.19976258019E+03  0.15526828779E+04  0.15397788903E+04 0.  0.
        3    1    3    3  502    0 -0.26642589365E+03  0.38299323684E+03  0.71743767073E+03  0.85579401602E+03  0.10100000352E+00 0. -1.
       -3    1    3    3    0  502  0.26642589365E+03 -0.38299323684E+03 -0.51767509054E+03  0.69688886190E+03  0.10100000352E+00 0.  1.
</event>
<event>
 5   0  0.1077140E-03  0.1557373E+04  0.7818609E-02  0.8847172E-01
        1   -1    0    0  501    0  0.00000000000E+00  0.00000000000E+00  0.90279378573E+03  0.90279378574E+03  0.50400001928E-02 0.  1.
       -1   -1    0    0    0  501  0.00000000000E+00  0.00000000000E+00 -0.67164063903E+03  0.67164063905E+03  0.50400001928E-02 0. -1.
    10030    2    1    2    0    0  0.00000000000E+00  0.00000000000E+00  0.23115314669E+03  0.15744344248E+04  0.15573734237E+04 0.  0.
        1    1    3    3  502    0  0.26554566040E+03  0.27695661695E+03  0.80059353092E+03  0.88778908937E+03  0.50400001928E-02 0.  1.
       -1    1    3    3    0  502 -0.26554566040E+03 -0.27695661695E+03 -0.56944038423E+03  0.68664533542E+03  0.50400001928E-02 0. -1.
</event>
<event>
 5   0  0.1078787E-03  0.1345382E+04  0.7818609E-02  0.8994331E-01
       -1   -1    0    0    0  501  0.00000000000E+00  0.00000000000E+00  0.28497747153E+03  0.28497747158E+03  0.50400001928E-02 0.  1.
        1   -1    0    0  501    0  0.00000000000E+00  0.00000000000E+00 -0.15878918823E+04  0.15878918824E+04  0.50400001928E-02 0. -1.
    10030    2    1    2    0    0  0.00000000000E+00  0.00000000000E+00 -0.13029144108E+04  0.18728693539E+04  0.13453823453E+04 0.  0.
        5    1    3    3  502    0  0.48906170350E+03 -0.23020816940E+02 -0.93209703038E+01  0.48971448654E+03  0.46999998093E+01 0.  1.
       -5    1    3    3    0  502 -0.48906170350E+03  0.23020816940E+02 -0.12935934405E+04  0.13831548674E+04  0.46999998093E+01 0. -1.
</event>
<event>
 5   0  0.1961098E-03  0.1478143E+04  0.7818609E-02  0.8899119E-01
       -2   -1    0    0    0  501  0.00000000000E+00  0.00000000000E+00  0.83333647775E+03  0.83333647775E+03  0.25500000920E-02 0. -1.
        2   -1    0    0  501    0  0.00000000000E+00  0.00000000000E+00 -0.65546922244E+03  0.65546922245E+03  0.25500000920E-02 0.  1.
    10030    2    1    2    0    0  0.00000000000E+00  0.00000000000E+00  0.17786725530E+03  0.14888057002E+04  0.14781426360E+04 0.  0.
        2    1    3    3  502    0  0.10499787062E+03 -0.68547688589E+03 -0.16849434366E+03  0.71364799291E+03  0.25500000920E-02 0.  1.
       -2    1    3    3    0  502 -0.10499787062E+03  0.68547688589E+03  0.34636159897E+03  0.77515770729E+03  0.25500000920E-02 0. -1.
</event>
<event>
 5   0  0.1069697E-03  0.1498940E+04  0.7818609E-02  0.8885158E-01
       -1   -1    0    0    0  501  0.00000000000E+00  0.00000000000E+00  0.40818600140E+03  0.40818600144E+03  0.50400001928E-02 0. -1.
        1   -1    0    0  501    0  0.00000000000E+00  0.00000000000E+00 -0.13761010856E+04  0.13761010856E+04  0.50400001928E-02 0.  1.
    10030    2    1    2    0    0  0.00000000000E+00  0.00000000000E+00 -0.96791508421E+03  0.17842870871E+04  0.14989398917E+04 0.  0.
        2    1    3    3  502    0 -0.43829299580E+02  0.60701554556E+03 -0.10046203110E+04  0.11745853946E+04  0.25500000920E-02 0.  1.
       -2    1    3    3    0  502  0.43829299580E+02 -0.60701554556E+03  0.36705226777E+02  0.60970169242E+03  0.25500000920E-02 0. -1.
</event>
<event>
 5   0  0.2111533E-03  0.7965398E+03  0.7818609E-02  0.9565039E-01
        2   -1    0    0  501    0  0.00000000000E+00  0.00000000000E+00  0.69371023411E+03  0.69371023412E+03  0.25500000920E-02 0.  1.
       -2   -1    0    0    0  501  0.00000000000E+00  0.00000000000E+00 -0.22865296359E+03  0.22865296360E+03  0.25500000920E-02 0. -1.
    10030    2    1    2    0    0  0.00000000000E+00  0.00000000000E+00  0.46505727053E+03  0.92236319772E+03  0.79653976902E+03 0.  0.
        5    1    3    3  502    0  0.73676086919E+02  0.33564898412E+01 -0.22064377903E+03  0.23269120961E+03  0.46999998093E+01 0. -1.
       -5    1    3    3    0  502 -0.73676086919E+02 -0.33564898412E+01  0.68570104956E+03  0.68967198810E+03  0.46999998093E+01 0.  1.
</event>
<event>
 5   0  0.1077140E-03  0.1507963E+04  0.7818609E-02  0.8879175E-01
        1   -1    0    0  501    0  0.00000000000E+00  0.00000000000E+00  0.14547454949E+04  0.14547454949E+04  0.50400001928E-02 0. -1.
       -1   -1    0    0    0  501  0.00000000000E+00  0.00000000000E+00 -0.39078207025E+03  0.39078207028E+03  0.50400001928E-02 0.  1.
    10030    2    1    2    0    0  0.00000000000E+00  0.00000000000E+00  0.10639634246E+04  0.18455275652E+04  0.15079634693E+04 0.  0.
        1    1    3    3  502    0  0.25923659914E+03  0.68929562101E+03  0.33404853014E+03  0.80865350304E+03  0.50400001928E-02 0.  1.
       -1    1    3    3    0  502 -0.25923659914E+03 -0.68929562101E+03  0.72991489448E+03  0.10368740621E+04  0.50400001928E-02 0. -1.
</event>
<event>
 5   0  0.2111533E-03  0.1424430E+04  0.7818609E-02  0.8936322E-01
        2   -1    0    0  501    0  0.00000000000E+00  0.00000000000E+00  0.53524203220E+03  0.53524203220E+03  0.25500000920E-02 0.  1.
       -2   -1    0    0    0  501  0.00000000000E+00  0.00000000000E+00 -0.94770222908E+03  0.94770222908E+03  0.25500000920E-02 0. -1.
    10030    2    1    2    0    0  0.00000000000E+00  0.00000000000E+00 -0.41246019688E+03  0.14829442613E+04  0.14244298045E+04 0.  0.
        5    1    3    3  502    0 -0.63690780218E+01  0.69573624438E+03 -0.36459220988E+03  0.78551833613E+03  0.46999998093E+01 0. -1.
       -5    1    3    3    0  502  0.63690780218E+01 -0.69573624438E+03 -0.47867986997E+02  0.69742592515E+03  0.46999998093E+01 0.  1.
</event>
<event>
 5   0  0.2111533E-03  0.1525899E+04  0.7818609E-02  0.8867411E-01
        2   -1    0    0  501    0  0.00000000000E+00  0.00000000000E+00  0.20808582985E+04  0.20808582985E+04  0.25500000920E-02 0. -1.
       -2   -1    0    0    0  501  0.00000000000E+00  0.00000000000E+00 -0.27973634175E+03  0.27973634176E+03  0.25500000920E-02 0.  1.
    10030    2    1    2    0    0  0.00000000000E+00  0.00000000000E+00  0.18011219567E+04  0.23605946402E+04  0.15258986704E+04 0.  0.
        5    1    3    3  502    0  0.43034301859E+03 -0.98454114030E+02  0.18631765732E+04  0.19147682260E+04  0.46999998093E+01 0. -1.
       -5    1    3    3    0  502 -0.43034301859E+03  0.98454114030E+02 -0.62054616498E+02  0.44582641425E+03  0.46999998093E+01 0.  1.
</event>
<event>
 5   0  0.7468375E-04  0.9814732E+03  0.7818609E-02  0.9329101E-01
        4   -1    0    0  501    0  0.00000000000E+00  0.00000000000E+00  0.29246054339E+03  0.29246330084E+03  0.12699999809E+01 0.  1.
       -4   -1    0    0    0  501  0.00000000000E+00  0.00000000000E+00 -0.82342847990E+03  0.82342945928E+03  0.12699999809E+01 0. -1.
    10030    2    1    2    0    0  0.00000000000E+00  0.00000000000E+00 -0.53096793651E+03  0.11158927601E+04  0.98147323066E+03 0.  0.
        2    1    3    3  502    0  0.37582772792E+03  0.18452532888E+03  0.25555562505E+02  0.41946294813E+03  0.25500000920E-02 0.  1.
       -2    1    3    3    0  502 -0.37582772792E+03 -0.18452532888E+03 -0.55652349902E+03  0.69642981200E+03  0.25500000920E-02 0. -1.
</event>
<event>
 5   0  0.2150197E-03  0.1539862E+04  0.7818609E-02  0.8858369E-01
        2   -1    0    0  501    0  0.00000000000E+00  0.00000000000E+00  0.93005301846E+03  0.93005301847E+03  0.25500000920E-02 0. -1.
       -2   -1    0    0    0  501  0.00000000000E+00  0.00000000000E+00 -0.63737642431E+03  0.63737642432E+03  0.25500000920E-02 0.  1.
    10030    2    1    2    0    0  0.00000000000E+00  0.00000000000E+00  0.29267659415E+03  0.15674294428E+04  0.15398621592E+04 0.  0.
        3    1    3    3  502    0 -0.37498496297E+03 -0.35725959868E+03  0.72622625823E+03  0.89199368364E+03  0.10100000352E+00 0. -1.
       -3    1    3    3    0  502  0.37498496297E+03  0.35725959868E+03 -0.43354966408E+03  0.67543575914E+03  0.10100000352E+00 0.  1.
</event>
<event>
 5   0  0.1077140E-03  0.1483684E+04  0.7818609E-02  0.8895376E-01
        1   -1    0    0  501    0  0.00000000000E+00  0.00000000000E+00  0.97371644782E+03  0.97371644783E+03  0.50400001928E-02 0. -1.
       -1   -1    0    0    0  501  0.00000000000E+00  0.00000000000E+00 -0.56518426425E+03  0.56518426428E+03  0.50400001928E-02 0.  1.
    10030    2    1    2    0    0  0.00000000000E+00  0.00000000000E+00  0.40853218356E+03  0.15389007121E+04  0.14836835433E+04 0.  0.
        1    1    3    3  502    0 -0.38238045362E+03 -0.28750192767E+03  0.79233848845E+03  0.92556601603E+03  0.50400001928E-02 0. -1.
       -1    1    3    3    0  502  0.38238045362E+03  0.28750192767E+03 -0.38380630488E+03  0.61333469608E+03  0.50400001928E-02 0.  1.
</event>
<event>
 5   0  0.1078018E-03  0.1610391E+04  0.7818609E-02  0.8814190E-01
       -1   -1    0    0    0  501  0.00000000000E+00  0.00000000000E+00  0.99083700768E+03  0.99083700770E+03  0.50400001928E-02 0. -1.
        1   -1    0    0  501    0  0.00000000000E+00  0.00000000000E+00 -0.65433546057E+03  0.65433546059E+03  0.50400001928E-02 0.  1.
    10030    2    1    2    0    0  0.00000000000E+00  0.00000000000E+00  0.33650154711E+03  0.16451724683E+04  0.16103909958E+04 0.  0.
        4    1    3    3  502    0  0.68746283296E+03 -0.36440642171E+03  0.37994846688E+03  0.86588661918E+03  0.12699999809E+01 0. -1.
       -4    1    3    3    0  502 -0.68746283296E+03  0.36440642171E+03 -0.43446919763E+02  0.77928584911E+03  0.12699999809E+01 0.  1.
</event>
<event>
 5   0  0.1078787E-03  0.1495318E+04  0.7818609E-02  0.8887572E-01
        1   -1    0    0  501    0  0.00000000000E+00  0.00000000000E+00  0.15685430111E+04  0.15685430111E+04  0.50400001928E-02 0.  1.
       -1   -1    0    0    0  501  0.00000000000E+00  0.00000000000E+00 -0.35637802752E+03  0.35637802755E+03  0.50400001928E-02 0. -1.
    10030    2    1    2    0    0  0.00000000000E+00  0.00000000000E+00  0.12121649836E+04  0.19249210387E+04  0.14953183800E+04 0.  0.
        5    1    3    3  502    0  0.51110353804E+03  0.19877859823E+03  0.12602434599E+04  0.13744000240E+04  0.46999998093E+01 0.  1.
       -5    1    3    3    0  502 -0.51110353804E+03 -0.19877859823E+03 -0.48078476320E+02  0.55052101467E+03  0.46999998093E+01 0. -1.
</event>
<event>
 5   0  0.1961098E-03  0.1468405E+04  0.7818609E-02  0.8905740E-01
        2   -1    0    0  501    0  0.00000000000E+00  0.00000000000E+00  0.91276744181E+03  0.91276744181E+03  0.25500000920E-02 0.  1.
       -2   -1    0    0    0  501  0.00000000000E+00  0.00000000000E+00 -0.59056992754E+03  0.59056992754E+03  0.25500000920E-02 0. -1.
    10030    2    1    2    0    0  0.00000000000E+00  0.00000000000E+00  0.32219751427E+03  0.15033373694E+04  0.14684045791E+04 0.  0.
        2    1    3    3  502    0 -0.28234053022E+03 -0.10620360605E+03  0.84639390567E+03  0.89854216624E+03  0.25500000920E-02 0.  1.
       -2    1    3    3    0  502  0.28234053022E+03  0.10620360605E+03 -0.52419639140E+03  0.60479520312E+03  0.25500000920E-02 0. -1.
</event>
<event>
 5   0  0.1087761E-03  0.1500116E+04  0.7818609E-02  0.8884376E-01
       -1   -1    0    0    0  501  0.00000000000E+00  0.00000000000E+00  0.10464276989E+04  0.10464276989E+04  0.50400001928E-02 0.  1.
        1   -1    0    0  501    0  0.00000000000E+00  0.00000000000E+00 -0.53762629741E+03  0.53762629743E+03  0.50400001928E-02 0. -1.
    10030    2    1    2    0    0  0.00000000000E+00  0.00000000000E+00  0.50880140146E+03  0.15840539963E+04  0.15001160612E+04 0.  0.
        3    1    3    3  502    0 -0.29940012505E+03 -0.29715338979E+03  0.90930221488E+03  0.10023827114E+04  0.10100000352E+00 0.  1.
       -3    1    3    3    0  502  0.29940012505E+03  0.29715338979E+03 -0.40050081341E+03  0.58167128491E+03  0.10100000352E+00 0. -1.
</event>
<event>
 5   0  0.1078018E-03  0.1346314E+04  0.7818609E-02  0.8993623E-01
        1   -1    0    0  501    0  0.00000000000E+00  0.00000000000E+00  0.14018795325E+04  0.14018795325E+04  0.50400001928E-02 0. -1.
       -1   -1    0    0    0  501  0.00000000000E+00  0.00000000000E+00 -0.32323759527E+03  0.32323759531E+03  0.50400001928E-02 0.  1.
    10030    2    1    2    0    0  0.00000000000E+00  0.00000000000E+00  0.10786419372E+04  0.17251171278E+04  0.13463137361E+04 0.  0.
        4    1    3    3  502    0 -0.17026529817E+03  0.54978564978E+03  0.98666917624E+03  0.11422662600E+04  0.12699999809E+01 0. -1.
       -4    1    3    3    0  502  0.17026529817E+03 -0.54978564978E+03  0.91972760984E+02  0.58285086782E+03  0.12699999809E+01 0.  1.
</event>
<event>
 5   0  0.1993623E-03  0.1512855E+04  0.7818609E-02  0.8875949E-01
        2   -1    0    0  501    0  0.00000000000E+00  0.00000000000E+00  0.71490453693E+03  0.71490453693E+03  0.25500000920E-02 0. -1.
       -2   -1    0    0    0  501  0.00000000000E+00  0.00000000000E+00 -0.80036206907E+03  0.80036206908E+03  0.25500000920E-02 0.  1.
    10030    2    1    2    0    0  0.00000000000E+00  0.00000000000E+00 -0.85457532143E+02  0.15152666060E+04  0.15128548832E+04 0.  0.
        4    1    3    3  502    0 -0.42451010900E+03 -0.58303554230E+03 -0.27121868280E+03  0.77051960587E+03  0.12699999809E+01 0.  1.
       -4    1    3    3    0  502  0.42451010900E+03  0.58303554230E+03  0.18576115066E+03  0.74474700014E+03  0.12699999809E+01 0. -1.
</event>
<event>
 5   0  0.1078018E-03  0.1487949E+04  0.7818609E-02  0.8892506E-01
       -1   -1    0    0    0  501  0.00000000000E+00  0.00000000000E+00  0.14293649506E+04  0.14293649507E+04  0.50400001928E-02 0. -1.
        1   -1    0    0  501    0  0.00000000000E+00  0.00000000000E+00 -0.38723377472E+03  0.38723377475E+03  0.50400001928E-02 0.  1.
    10030    2    1    2    0    0  0.00000000000E+00  0.00000000000E+00  0.10421311759E+04  0.18165987254E+04  0.14879494418E+04 0.  0.
        4    1    3    3  502    0 -0.36636322159E+03 -0.22355905204E+02  0.13111276200E+04  0.13615355469E+04  0.12699999809E+01 0. -1.
       -4    1    3    3    0  502  0.36636322159E+03  0.22355905204E+02 -0.26899644406E+03  0.45506317853E+03  0.12699999809E+01 0.  1.
</event>
<event>
 5   0  0.1078018E-03  0.1506661E+04  0.7818609E-02  0.8880035E-01
        1   -1    0    0  501    0  0.00000000000E+00  0.00000000000E+00  0.15677572922E+04  0.15677572922E+04  0.50400001928E-02 0.  1.
       -1   -1    0    0    0  501  0.00000000000E+00  0.00000000000E+00 -0.36198651810E+03  0.36198651813E+03  0.50400001928E-02 0. -1.
    10030    2    1    2    0    0  0.00000000000E+00  0.00000000000E+00  0.12057707741E+04  0.19297438103E+04  0.15066612140E+04 0.  0.
        4    1    3    3  502    0 -0.16871975012E+03  0.33293413727E+03 -0.23523090823E+03  0.44118781367E+03  0.12699999809E+01 0. -1.
       -4    1    3    3    0  502  0.16871975012E+03 -0.33293413727E+03  0.14410016823E+04  0.14885559967E+04  0.12699999809E+01 0.  1.
</event>
<event>
 5   0  0.1077140E-03  0.1480839E+04  0.7818609E-02  0.8897295E-01
       -1   -1    0    0    0  501  0.00000000000E+00  0.00000000000E+00  0.45294174071E+03  0.45294174073E+03  0.50400001928E-02 0.  1.
        1   -1    0    0  501    0  0.00000000000E+00  0.00000000000E+00 -0.12103574047E+04  0.12103574047E+04  0.50400001928E-02 0. -1.
    10030    2    1    2    0    0  0.00000000000E+00  0.00000000000E+00 -0.75741566402E+03  0.16632991455E+04  0.14808394779E+04 0.  0.
        1    1    3    3  502    0 -0.19431057559E+03  0.89480990590E+02  0.41747395433E+03  0.46909268811E+03  0.50400001928E-02 0.  1.
       -1    1    3    3    0  502  0.19431057559E+03 -0.89480990590E+02 -0.11748896184E+04  0.11942064574E+04  0.50400001928E-02 0. -1.
</event>
<event>
 5   0  0.2094566E-03  0.1568871E+04  0.7818609E-02  0.8839903E-01
        2   -1    0    0  501    0  0.00000000000E+00  0.00000000000E+00  0.11051694387E+04  0.11051694387E+04  0.25500000920E-02 0.  1.
       -2   -1    0    0    0  501  0.00000000000E+00  0.00000000000E+00 -0.55678238557E+03  0.55678238557E+03  0.25500000920E-02 0. -1.
    10030    2    1    2    0    0  0.00000000000E+00  0.00000000000E+00  0.54838705308E+03  0.16619518242E+04  0.15688707742E+04 0.  0.
        1    1    3    3  502    0  0.60421533979E+03 -0.92759860120E+02  0.79494693710E+03  0.10028066620E+04  0.50400001928E-02 0.  1.
       -1    1    3    3    0  502 -0.60421533979E+03  0.92759860120E+02 -0.24655988402E+03  0.65914516225E+03  0.50400001928E-02 0. -1.
</event>
<event>
 5   0  0.1087761E-03  0.1531888E+04  0.7818609E-02  0.8863520E-01
        1   -1    0    0  501    0  0.00000000000E+00  0.00000000000E+00  0.11153421637E+04  0.11153421637E+04  0.50400001928E-02 0. -1.
       -1   -1    0    0    0  501  0.00000000000E+00  0.00000000000E+00 -0.52600051654E+03  0.52600051657E+03  0.50400001928E-02 0.  1.
    10030    2    1    2    0    0  0.00000000000E+00  0.00000000000E+00  0.58934164712E+03  0.16413426802E+04  0.15318884479E+04 0.  0.
        3    1    3    3  502    0  0.32642391696E+03  0.67155271979E+03  0.11178543919E+03  0.75500438650E+03  0.10100000352E+00 0.  1.
       -3    1    3    3    0  502 -0.32642391696E+03 -0.67155271979E+03  0.47755620793E+03  0.88633829374E+03  0.10100000352E+00 0. -1.
</event>
<event>
 5   0  0.1961098E-03  0.1575293E+04  0.7818609E-02  0.8835872E-01
       -2   -1    0    0    0  501  0.00000000000E+00  0.00000000000E+00  0.45625781616E+03  0.45625781617E+03  0.25500000920E-02 0. -1.
        2   -1    0    0  501    0  0.00000000000E+00  0.00000000000E+00 -0.13597287307E+04  0.13597287307E+04  0.25500000920E-02 0.  1.
    10030    2    1    2    0    0  0.00000000000E+00  0.00000000000E+00 -0.90347091457E+03  0.18159865469E+04  0.15752928125E+04 0.  0.
        2    1    3    3  502    0 -0.34707779010E+03 -0.21720809737E+03  0.32393621716E+03  0.52208909464E+03  0.25500000920E-02 0. -1.
       -2    1    3    3    0  502  0.34707779010E+03  0.21720809737E+03 -0.12274071317E+04  0.12938974523E+04  0.25500000920E-02 0.  1.
</event>
<event>
 5   0  0.2111533E-03  0.1514044E+04  0.7818609E-02  0.8875167E-01
       -2   -1    0    0    0  501  0.00000000000E+00  0.00000000000E+00  0.11769114456E+04  0.11769114456E+04  0.25500000920E-02 0.  1.
        2   -1    0    0  501    0  0.00000000000E+00  0.00000000000E+00 -0.48693735515E+03  0.48693735516E+03  0.25500000920E-02 0. -1.
    10030    2    1    2    0    0  0.00000000000E+00  0.00000000000E+00  0.68997409044E+03  0.16638488008E+04  0.15140437861E+04 0.  0.
        5    1    3    3  502    0 -0.27093879107E+03  0.70565412177E+03  0.39035742974E+03  0.85073884420E+03  0.46999998093E+01 0. -1.
       -5    1    3    3    0  502  0.27093879107E+03 -0.70565412177E+03  0.29961666070E+03  0.81310995656E+03  0.46999998093E+01 0.  1.
</event>
<event>
 5   0  0.1078787E-03  0.1150742E+04  0.7818609E-02  0.9157099E-01
       -1   -1    0    0    0  501  0.00000000000E+00  0.00000000000E+00  0.38793383839E+03  0.38793383842E+03  0.50400001928E-02 0. -1.
        1   -1    0    0  501    0  0.00000000000E+00  0.00000000000E+00 -0.85337177040E+03  0.85337177041E+03  0.50400001928E-02 0.  1.
    10030    2    1    2    0    0  0.00000000000E+00  0.00000000000E+00 -0.46543793201E+03  0.12413056088E+04  0.11507419980E+04 0.  0.
        5    1    3    3  502    0 -0.11262763909E+03 -0.34706259699E+03 -0.71257964479E+03  0.80058058400E+03  0.46999998093E+01 0.  1.
       -5    1    3    3    0  502  0.11262763909E+03  0.34706259699E+03  0.24714171277E+03  0.44072502483E+03  0.46999998093E+01 0. -1.
</event>
<event>
 5   0  0.1993623E-03  0.1506463E+04  0.7818609E-02  0.8880166E-01
        2   -1    0    0  501    0  0.00000000000E+00  0.00000000000E+00  0.56391985358E+03  0.56391985359E+03  0.25500000920E-02 0.  1.
       -2   -1    0    0    0  501  0.00000000000E+00  0.00000000000E+00 -0.10060967048E+04  0.10060967048E+04  0.25500000920E-02 0. -1.
    10030    2    1    2    0    0  0.00000000000E+00  0.00000000000E+00 -0.44217685117E+03  0.15700165584E+04  0.15064632839E+04 0.  0.
        4    1    3    3  502    0 -0.10879378511E+03 -0.73964268274E+03 -0.31688411457E+03  0.81198801763E+03  0.12699999809E+01 0.  1.
       -4    1    3    3    0  502  0.10879378511E+03  0.73964268274E+03 -0.12529273660E+03  0.75802854072E+03  0.12699999809E+01 0. -1.
</event>
<event>
 5   0  0.1993623E-03  0.1507518E+04  0.7818609E-02  0.8879469E-01
        2   -1    0    0  501    0  0.00000000000E+00  0.00000000000E+00  0.60143698773E+03  0.60143698773E+03  0.25500000920E-02 0. -1.
       -2   -1    0    0    0  501  0.00000000000E+00  0.00000000000E+00 -0.94465827123E+03  0.94465827123E+03  0.25500000920E-02 0.  1.
    10030    2    1    2    0    0  0.00000000000E+00  0.00000000000E+00 -0.34322128350E+03  0.15460952590E+04  0.15075177280E+04 0.  0.
        4    1    3    3  502    0  0.84811077442E+02  0.55405924852E+03 -0.68846759974E+03  0.88778590804E+03  0.12699999809E+01 0.  1.
       -4    1    3    3    0  502 -0.84811077442E+02 -0.55405924852E+03  0.34524631624E+03  0.65830935092E+03  0.12699999809E+01 0. -1.
</event>
<event>
 5   0  0.1961098E-03  0.1465641E+04  0.7818609E-02  0.8907628E-01
        2   -1    0    0  501    0  0.00000000000E+00  0.00000000000E+00  0.85469806768E+03  0.85469806768E+03  0.25500000920E-02 0. -1.
       -2   -1    0    0    0  501  0.00000000000E+00  0.00000000000E+00 -0.62832272340E+03  0.62832272340E+03  0.25500000920E-02 0.  1.
    10030    2    1    2    0    0  0.00000000000E+00  0.00000000000E+00  0.22637534428E+03  0.14830207911E+04  0.14656414535E+04 0.  0.
        2    1    3    3  502    0  0.18875817977E+03 -0.68626516664E+03  0.28971754051E+03  0.76845675393E+03  0.25500000920E-02 0. -1.
       -2    1    3    3    0  502 -0.18875817977E+03  0.68626516664E+03 -0.63342196228E+02  0.71456403716E+03  0.25500000920E-02 0.  1.
</event>
<event>
 5   0  0.1078787E-03  0.1470566E+04  0.7818609E-02  0.8904266E-01
        1   -1    0    0  501    0  0.00000000000E+00  0.00000000000E+00  0.11572104732E+04  0.11572104732E+04  0.50400001928E-02 0. -1.
       -1   -1    0    0    0  501  0.00000000000E+00  0.00000000000E+00 -0.46719327628E+03  0.46719327631E+03  0.50400001928E-02 0.  1.
    10030    2    1    2    0    0  0.00000000000E+00  0.00000000000E+00  0.69001719690E+03  0.16244037495E+04  0.14705658127E+04 0.  0.
        5    1    3    3  502    0 -0.19659490806E+03  0.53819533003E+03 -0.16397050242E+03  0.59599680100E+03  0.46999998093E+01 0.  1.
       -5    1    3    3    0  502  0.19659490806E+03 -0.53819533003E+03  0.85398769931E+03  0.10284069485E+04  0.46999998093E+01 0. -1.
</event>
<event>
 5   0  0.2150197E-03  0.9750389E+03  0.7818609E-02  0.9336353E-01
       -2   -1    0    0    0  501  0.00000000000E+00  0.00000000000E+00  0.41434061125E+03  0.41434061126E+03  0.25500000920E-02 0.  1.
        2   -1    0    0  501    0  0.00000000000E+00  0.00000000000E+00 -0.57362275213E+03  0.57362275213E+03  0.25500000920E-02 0. -1.
    10030    2    1    2    0    0  0.00000000000E+00  0.00000000000E+00 -0.15928214088E+03  0.98796336339E+03  0.97503887461E+03 0.  0.
        3    1    3    3  502    0 -0.12008714830E+03 -0.92551649581E+02 -0.54912773351E+03  0.56967359860E+03  0.10100000352E+00 0. -1.
       -3    1    3    3    0  502  0.12008714830E+03  0.92551649581E+02  0.38984559264E+03  0.41828976479E+03  0.10100000352E+00 0.  1.
</event>
<event>
 5   0  0.7468375E-04  0.1528607E+04  0.7818609E-02  0.8865649E-01
       -3   -1    0    0    0  501  0.00000000000E+00  0.00000000000E+00  0.10234493357E+04  0.10234493407E+04  0.10100000352E+00 0.  1.
        3   -1    0    0  501    0  0.00000000000E+00  0.00000000000E+00 -0.57077540978E+03  0.57077541872E+03  0.10100000352E+00 0. -1.
    10030    2    1    2    0    0  0.00000000000E+00  0.00000000000E+00  0.45267392591E+03  0.15942247594E+04  0.15286068495E+04 0.  0.
        3    1    3    3  502    0  0.52419125154E+03 -0.27677532810E+03 -0.27684531224E+03  0.65423572782E+03  0.10100000352E+00 0. -1.
       -3    1    3    3    0  502 -0.52419125154E+03  0.27677532810E+03  0.72951923815E+03  0.93998903157E+03  0.10100000352E+00 0.  1.
</event>
<event>
 5   0  0.1087761E-03  0.1508181E+04  0.7818609E-02  0.8879031E-01
       -1   -1    0    0    0  501  0.00000000000E+00  0.00000000000E+00  0.81962769114E+03  0.81962769116E+03  0.50400001928E-02 0. -1.
        1   -1    0    0  501    0  0.00000000000E+00  0.00000000000E+00 -0.69379396681E+03  0.69379396682E+03  0.50400001928E-02 0.  1.
    10030    2    1    2    0    0  0.00000000000E+00  0.00000000000E+00  0.12583372434E+03  0.15134216580E+04  0.15081813514E+04 0.  0.
        3    1    3    3  502    0  0.66730985207E+03 -0.26156765379E+03 -0.17227467795E+03  0.73715578478E+03  0.10100000352E+00 0.  1.
       -3    1    3    3    0  502 -0.66730985207E+03  0.26156765379E+03  0.29810840229E+03  0.77626587320E+03  0.10100000352E+00 0. -1.
</event>
<event>
 5   0  0.7468375E-04  0.1466868E+04  0.7818609E-02  0.8906789E-01
        3   -1    0    0  501    0  0.00000000000E+00  0.00000000000E+00  0.52251851102E+03  0.52251852079E+03  0.10100000352E+00 0.  1.
       -3   -1    0    0    0  501  0.00000000000E+00  0.00000000000E+00 -0.10294865507E+04  0.10294865556E+04  0.10100000352E+00 0. -1.
    10030    2    1    2    0    0  0.00000000000E+00  0.00000000000E+00 -0.50696803967E+03  0.15520050764E+04  0.14668684890E+04 0.  0.
        3    1    3    3  502    0  0.41548015972E+03  0.34358460969E+03  0.27261990667E+03  0.60414879860E+03  0.10100000352E+00 0.  1.
       -3    1    3    3    0  502 -0.41548015972E+03 -0.34358460969E+03 -0.77958794634E+03  0.94785627783E+03  0.10100000352E+00 0. -1.
</event>
<event>
 5   0  0.1993623E-03  0.1463611E+04  0.7818609E-02  0.8909018E-01
        2   -1    0    0  501    0  0.00000000000E+00  0.00000000000E+00  0.80693451722E+03  0.80693451723E+03  0.25500000920E-02 0. -1.
       -2   -1    0    0    0  501  0.00000000000E+00  0.00000000000E+00 -0.66367166568E+03  0.66367166569E+03  0.25500000920E-02 0.  1.
    10030    2    1    2    0    0  0.00000000000E+00  0.00000000000E+00  0.14326285154E+03  0.14706061829E+04  0.14636113899E+04 0.  0.
        4    1    3    3  502    0  0.33005393765E+03  0.21502079920E+03 -0.54805621032E+03  0.67493464011E+03  0.12699999809E+01 0.  1.
       -4    1    3    3    0  502 -0.33005393765E+03 -0.21502079920E+03  0.69131906186E+03  0.79567154281E+03  0.12699999809E+01 0. -1.
</event>
<event>
 5   0  0.1078018E-03  0.1410908E+04  0.7818609E-02  0.8945960E-01
       -1   -1    0    0    0  501  0.00000000000E+00  0.00000000000E+00  0.45650148612E+03  0.45650148615E+03  0.50400001928E-02 0. -1.
        1   -1    0    0  501    0  0.00000000000E+00  0.00000000000E+00 -0.10901730861E+04  0.10901730861E+04  0.50400001928E-02 0.  1.
    10030    2    1    2    0    0  0.00000000000E+00  0.00000000000E+00 -0.63367160002E+03  0.15466745723E+04  0.14109084081E+04 0.  0.
        4    1    3    3  502    0 -0.15770937678E+03  0.19628284690E+03  0.40556371724E+03  0.47737065803E+03  0.12699999809E+01 0. -1.
       -4    1    3    3    0  502  0.15770937678E+03 -0.19628284690E+03 -0.10392353173E+04  0.10693039143E+04  0.12699999809E+01 0.  1.
</event>
<event>
 5   0  0.1087761E-03  0.1482608E+04  0.7818609E-02  0.8896101E-01
       -1   -1    0    0    0  501  0.00000000000E+00  0.00000000000E+00  0.34362464046E+03  0.34362464049E+03  0.50400001928E-02 0.  1.
        1   -1    0    0  501    0  0.00000000000E+00  0.00000000000E+00 -0.15992214557E+04  0.15992214557E+04  0.50400001928E-02 0. -1.
    10030    2    1    2    0    0  0.00000000000E+00  0.00000000000E+00 -0.12555968153E+04  0.19428460962E+04  0.14826083742E+04 0.  0.
        3    1    3    3  502    0 -0.34207478471E+03  0.16782379903E+03 -0.14610798218E+04  0.15099451121E+04  0.10100000352E+00 0. -1.
       -3    1    3    3    0  502  0.34207478471E+03 -0.16782379903E+03  0.20548300651E+03  0.43290098409E+03  0.10100000352E+00 0.  1.
</event>
<event>
 5   0  0.1961098E-03  0.1544367E+04  0.7818609E-02  0.8855474E-01
       -2   -1    0    0    0  501  0.00000000000E+00  0.00000000000E+00  0.12249528718E+04  0.12249528718E+04  0.25500000920E-02 0. -1.
        2   -1    0    0  501    0  0.00000000000E+00  0.00000000000E+00 -0.48676770764E+03  0.48676770765E+03  0.25500000920E-02 0.  1.
    10030    2    1    2    0    0  0.00000000000E+00  0.00000000000E+00  0.73818516412E+03  0.17117205794E+04  0.15443671861E+04 0.  0.
        2    1    3    3  502    0  0.47241845772E+03  0.94856286436E+02 -0.29969320085E+03  0.56744420775E+03  0.25500000920E-02 0.  1.
       -2    1    3    3    0  502 -0.47241845772E+03 -0.94856286436E+02  0.10378783650E+04  0.11442763717E+04  0.25500000920E-02 0. -1.
</event>
<event>
 5   0  0.1087761E-03  0.1514693E+04  0.7818609E-02  0.8874740E-01
        1   -1    0    0  501    0  0.00000000000E+00  0.00000000000E+00  0.26204686916E+04  0.26204686916E+04  0.50400001928E-02 0. -1.
       -1   -1    0    0    0  501  0.00000000000E+00  0.00000000000E+00 -0.21888217066E+03  0.21888217072E+03  0.50400001928E-02 0.  1.
    10030    2    1    2    0    0  0.00000000000E+00  0.00000000000E+00  0.24015865210E+04  0.28393508623E+04  0.15146932039E+04 0.  0.
        3    1    3    3  502    0  0.42050331803E+03  0.55549678091E+03  0.17574212353E+04  0.18904838329E+04  0.10100000352E+00 0. -1.
       -3    1    3    3    0  502 -0.42050331803E+03 -0.55549678091E+03  0.64416528569E+03  0.94886702944E+03  0.10100000352E+00 0.  1.
</event>
<event>
 5   0  0.1993623E-03  0.1500499E+04  0.7818609E-02  0.8884121E-01
       -2   -1    0    0    0  501  0.00000000000E+00  0.00000000000E+00  0.99040183480E+03  0.99040183481E+03  0.25500000920E-02 0.  1.
        2   -1    0    0  501    0  0.00000000000E+00  0.00000000000E+00 -0.56832903336E+03  0.56832903336E+03  0.25500000920E-02 0. -1.
    10030    2    1    2    0    0  0.00000000000E+00  0.00000000000E+00  0.42207280144E+03  0.15587308682E+04  0.15004987403E+04 0.  0.
        4    1    3    3  502    0  0.26529579720E+02  0.43626342118E+03  0.84449065221E+03  0.95089203690E+03  0.12699999809E+01 0.  1.
       -4    1    3    3    0  502 -0.26529579720E+02 -0.43626342118E+03 -0.42241785077E+03  0.60783883127E+03  0.12699999809E+01 0. -1.
</event>
<event>
 5   0  0.2094566E-03  0.1500657E+04  0.7818609E-02  0.8884016E-01
        2   -1    0    0  501    0  0.00000000000E+00  0.00000000000E+00  0.20279569796E+04  0.20279569796E+04  0.25500000920E-02 0. -1.
       -2   -1    0    0    0  501  0.00000000000E+00  0.00000000000E+00 -0.27761564379E+03  0.27761564380E+03  0.25500000920E-02 0.  1.
    10030    2    1    2    0    0  0.00000000000E+00  0.00000000000E+00  0.17503413358E+04  0.23055726234E+04  0.15006566329E+04 0.  0.
        1    1    3    3  502    0  0.54552602482E+03  0.32017239215E+03  0.14952341072E+04  0.16235251891E+04  0.50400001928E-02 0. -1.
       -1    1    3    3    0  502 -0.54552602482E+03 -0.32017239215E+03  0.25510722862E+03  0.68204743426E+03  0.50400001928E-02 0.  1.
</event>
<event>
 5   0  0.2150197E-03  0.1488068E+04  0.7818609E-02  0.8892426E-01
        2   -1    0    0  501    0  0.00000000000E+00  0.00000000000E+00  0.13837613453E+04  0.13837613453E+04  0.25500000920E-02 0.  1.
       -2   -1    0    0    0  501  0.00000000000E+00  0.00000000000E+00 -0.40005956427E+03  0.40005956428E+03  0.25500000920E-02 0. -1.
    10030    2    1    2    0    0  0.00000000000E+00  0.00000000000E+00  0.98370178098E+03  0.17838209095E+04  0.14880684942E+04 0.  0.
        3    1    3    3  502    0  0.31287084547E+03  0.93582643544E+02  0.12932585012E+04  0.13338528548E+04  0.10100000352E+00 0.  1.
       -3    1    3    3    0  502 -0.31287084547E+03 -0.93582643544E+02 -0.30955672018E+03  0.44996805478E+03  0.10100000352E+00 0. -1.
</event>
<event>
 5   0  0.2150197E-03  0.1474248E+04  0.7818609E-02  0.8901760E-01
        2   -1    0    0  501    0  0.00000000000E+00  0.00000000000E+00  0.75705802454E+03  0.75705802454E+03  0.25500000920E-02 0. -1.
       -2   -1    0    0    0  501  0.00000000000E+00  0.00000000000E+00 -0.71771502396E+03  0.71771502396E+03  0.25500000920E-02 0.  1.
    10030    2    1    2    0    0  0.00000000000E+00  0.00000000000E+00  0.39343000578E+02  0.14747730485E+04  0.14742481721E+04 0.  0.
        3    1    3    3  502    0  0.48787154054E+03 -0.39376107343E+03  0.40747624022E+03  0.74773211751E+03  0.10100000352E+00 0. -1.
       -3    1    3    3    0  502 -0.48787154054E+03  0.39376107343E+03 -0.36813323964E+03  0.72704093100E+03  0.10100000352E+00 0.  1.
</event>
<event>
 5   0  0.2111533E-03  0.1477475E+04  0.7818609E-02  0.8899572E-01
       -2   -1    0    0    0  501  0.00000000000E+00  0.00000000000E+00  0.37430166304E+03  0.37430166305E+03  0.25500000920E-02 0.  1.
        2   -1    0    0  501    0  0.00000000000E+00  0.00000000000E+00 -0.14580026971E+04  0.14580026971E+04  0.25500000920E-02 0. -1.
    10030    2    1    2    0    0  0.00000000000E+00  0.00000000000E+00 -0.10837010341E+04  0.18323043601E+04  0.14774746485E+04 0.  0.
        5    1    3    3  502    0 -0.17590088514E+03  0.10109278760E+03 -0.14227566369E+04  0.14371567106E+04  0.46999998093E+01 0. -1.
       -5    1    3    3    0  502  0.17590088514E+03 -0.10109278760E+03  0.33905560284E+03  0.39514764951E+03  0.46999998093E+01 0.  1.
</event>
<event>
 5   0  0.1087761E-03  0.1326620E+04  0.7818609E-02  0.9008717E-01
       -1   -1    0    0    0  501  0.00000000000E+00  0.00000000000E+00  0.34960037894E+03  0.34960037898E+03  0.50400001928E-02 0.  1.
        1   -1    0    0  501    0  0.00000000000E+00  0.00000000000E+00 -0.12585234169E+04  0.12585234169E+04  0.50400001928E-02 0. -1.
    10030    2    1    2    0    0  0.00000000000E+00  0.00000000000E+00 -0.90892303798E+03  0.16081237959E+04  0.13266201619E+04 0.  0.
        3    1    3    3  502    0 -0.57583067051E+03 -0.32748091021E+03 -0.41325495169E+03  0.78077165225E+03  0.10100000352E+00 0. -1.
       -3    1    3    3    0  502  0.57583067051E+03  0.32748091021E+03 -0.49566808629E+03  0.82735214366E+03  0.10100000352E+00 0.  1.
</event>
<event>
 5   0  0.1078018E-03  0.1513547E+04  0.7818609E-02  0.8875494E-01
       -1   -1    0    0    0  501  0.00000000000E+00  0.00000000000E+00  0.28954041782E+03  0.28954041786E+03  0.50400001928E-02 0. -1.
        1   -1    0    0  501    0  0.00000000000E+00  0.00000000000E+00 -0.19779840131E+04  0.19779840131E+04  0.50400001928E-02 0.  1.
    10030    2    1    2    0    0  0.00000000000E+00  0.00000000000E+00 -0.16884435952E+04  0.22675244309E+04  0.15135472475E+04 0.  0.
        4    1    3    3  502    0 -0.52793082421E+02 -0.74437332850E+03 -0.10326911729E+04  0.12741002446E+04  0.12699999809E+01 0.  1.
       -4    1    3    3    0  502  0.52793082421E+02  0.74437332850E+03 -0.65575242230E+03  0.99342418633E+03  0.12699999809E+01 0. -1.
</event>
<event>
 5   0  0.1993623E-03  0.1527492E+04  0.7818609E-02  0.8866374E-01
       -2   -1    0    0    0  501  0.00000000000E+00  0.00000000000E+00  0.40699034930E+03  0.40699034931E+03  0.25500000920E-02 0. -1.
        2   -1    0    0  501    0  0.00000000000E+00  0.00000000000E+00 -0.14332232251E+04  0.14332232251E+04  0.25500000920E-02 0.  1.
    10030    2    1    2    0    0  0.00000000000E+00  0.00000000000E+00 -0.10262328758E+04  0.18402135744E+04  0.15274920897E+04 0.  0.
        4    1    3    3  502    0  0.39368661237E+03  0.82914813129E+02  0.26897650982E+03  0.48395660005E+03  0.12699999809E+01 0. -1.
       -4    1    3    3    0  502 -0.39368661237E+03 -0.82914813129E+02 -0.12952093856E+04  0.13562569743E+04  0.12699999809E+01 0.  1.
</event>
<event>
 5   0  0.1087761E-03  0.9396795E+03  0.7818609E-02  0.9377296E-01
        1   -1    0    0  501    0  0.00000000000E+00  0.00000000000E+00  0.30363939247E+03  0.30363939251E+03  0.50400001928E-02 0.  1.
       -1   -1    0    0    0  501  0.00000000000E+00  0.00000000000E+00 -0.72701168522E+03  0.72701168524E+03  0.50400001928E-02 0. -1.
    10030    2    1    2    0    0  0.00000000000E+00  0.00000000000E+00 -0.42337229275E+03  0.10306510777E+04  0.93967949099E+03 0.  0.
        3    1    3    3  502    0 -0.19209072525E+01 -0.16313763856E+03  0.27157318768E+03  0.31681159301E+03  0.10100000352E+00 0.  1.
       -3    1    3    3    0  502  0.19209072525E+01  0.16313763856E+03 -0.69494548043E+03  0.71383948474E+03  0.10100000352E+00 0. -1.
</event>
<event>
 5   0  0.1078018E-03  0.1498562E+04  0.7818609E-02  0.8885410E-01
       -1   -1    0    0    0  501  0.00000000000E+00  0.00000000000E+00  0.29873906629E+03  0.29873906633E+03  0.50400001928E-02 0.  1.
        1   -1    0    0  501    0  0.00000000000E+00  0.00000000000E+00 -0.18793048711E+04  0.18793048711E+04  0.50400001928E-02 0. -1.
    10030    2    1    2    0    0  0.00000000000E+00  0.00000000000E+00 -0.15805658048E+04  0.21780439375E+04  0.14985616871E+04 0.  0.
        4    1    3    3  502    0 -0.16662334835E+03  0.70926656947E+03 -0.10445187862E+04  0.12735162011E+04  0.12699999809E+01 0.  1.
       -4    1    3    3    0  502  0.16662334835E+03 -0.70926656947E+03 -0.53604701859E+03  0.90452773635E+03  0.12699999809E+01 0. -1.
</event>
<event>
 5   0  0.1078787E-03  0.1507205E+04  0.7818609E-02  0.8879676E-01
       -1   -1    0    0    0  501  0.00000000000E+00  0.00000000000E+00  0.28948154108E+03  0.28948154112E+03  0.50400001928E-02 0. -1.
        1   -1    0    0  501    0  0.00000000000E+00  0.00000000000E+00 -0.19618413196E+04  0.19618413196E+04  0.50400001928E-02 0.  1.
    10030    2    1    2    0    0  0.00000000000E+00  0.00000000000E+00 -0.16723597785E+04  0.22513228607E+04  0.15072051600E+04 0.  0.
        5    1    3    3  502    0  0.64494152083E+03 -0.25595794664E+02 -0.14171724750E+04  0.15572426349E+04  0.46999998093E+01 0.  1.
       -5    1    3    3    0  502 -0.64494152083E+03  0.25595794664E+02 -0.25518730348E+03  0.69408022580E+03  0.46999998093E+01 0. -1.
</event>
<event>
 5   0  0.1087761E-03  0.1162017E+04  0.7818609E-02  0.9146769E-01
       -1   -1    0    0    0  501  0.00000000000E+00  0.00000000000E+00  0.76545219568E+03  0.76545219569E+03  0.50400001928E-02 0. -1.
        1   -1    0    0  501    0  0.00000000000E+00  0.00000000000E+00 -0.44100810123E+03  0.44100810126E+03  0.50400001928E-02 0.  1.
    10030    2    1    2    0    0  0.00000000000E+00  0.00000000000E+00  0.32444409444E+03  0.12064602970E+04  0.11620165566E+04 0.  0.
        3    1    3    3  502    0  0.19811513466E+03 -0.51349360277E+03 -0.31029519274E+02  0.55126049009E+03  0.10100000352E+00 0.  1.
       -3    1    3    3    0  502 -0.19811513466E+03  0.51349360277E+03  0.35547361372E+03  0.65519980687E+03  0.10100000352E+00 0. -1.
</event>
<event>
 5   0  0.1078787E-03  0.1442081E+04  0.7818609E-02  0.8923909E-01
       -1   -1    0    0    0  501  0.00000000000E+00  0.00000000000E+00  0.64285153922E+03  0.64285153924E+03  0.50400001928E-02 0. -1.
        1   -1    0    0  501    0  0.00000000000E+00  0.00000000000E+00 -0.80873896746E+03  0.80873896748E+03  0.50400001928E-02 0.  1.
    10030    2    1    2    0    0  0.00000000000E+00  0.00000000000E+00 -0.16588742824E+03  0.14515905067E+04  0.14420805665E+04 0.  0.
        5    1    3    3  502    0 -0.28061702033E+03 -0.62303796236E+03  0.14869289637E+03  0.69932387495E+03  0.46999998093E+01 0. -1.
       -5    1    3    3    0  502  0.28061702033E+03  0.62303796236E+03 -0.31458032461E+03  0.75226663177E+03  0.46999998093E+01 0.  1.
</event>
<event>
 5   0  0.1069697E-03  0.1462816E+04  0.7818609E-02  0.8909563E-01
       -1   -1    0    0    0  501  0.00000000000E+00  0.00000000000E+00  0.49591527989E+03  0.49591527992E+03  0.50400001928E-02 0.  1.
        1   -1    0    0  501    0  0.00000000000E+00  0.00000000000E+00 -0.10787282015E+04  0.10787282015E+04  0.50400001928E-02 0. -1.
    10030    2    1    2    0    0  0.00000000000E+00  0.00000000000E+00 -0.58281292161E+03  0.15746434814E+04  0.14628161853E+04 0.  0.
        2    1    3    3  502    0  0.24929050750E+03  0.67132305263E+03 -0.13124582372E+03  0.72804248803E+03  0.25500000920E-02 0. -1.
       -2    1    3    3    0  502 -0.24929050750E+03 -0.67132305263E+03 -0.45156709789E+03  0.84660099340E+03  0.25500000920E-02 0.  1.
</event>
<event>
 5   0  0.1069697E-03  0.1411908E+04  0.7818609E-02  0.8945244E-01
       -1   -1    0    0    0  501  0.00000000000E+00  0.00000000000E+00  0.41760854960E+03  0.41760854963E+03  0.50400001928E-02 0.  1.
        1   -1    0    0  501    0  0.00000000000E+00  0.00000000000E+00 -0.11933933085E+04  0.11933933085E+04  0.50400001928E-02 0. -1.
    10030    2    1    2    0    0  0.00000000000E+00  0.00000000000E+00 -0.77578475894E+03  0.16110018582E+04  0.14119082813E+04 0.  0.
        2    1    3    3  502    0  0.13046897896E+02 -0.47130308594E+03 -0.98741095879E+03  0.10942016368E+04  0.25500000920E-02 0. -1.
       -2    1    3    3    0  502 -0.13046897896E+02  0.47130308594E+03  0.21162619986E+03  0.51680022140E+03  0.25500000920E-02 0.  1.
</event>
<event>
 5   0  0.2111533E-03  0.1547487E+04  0.7818609E-02  0.8853475E-01
       -2   -1    0    0    0  501  0.00000000000E+00  0.00000000000E+00  0.49388774760E+03  0.49388774761E+03  0.25500000920E-02 0. -1.
        2   -1    0    0  501    0  0.00000000000E+00  0.00000000000E+00 -0.12121756800E+04  0.12121756800E+04  0.25500000920E-02 0.  1.
    10030    2    1    2    0    0  0.00000000000E+00  0.00000000000E+00 -0.71828793238E+03  0.17060634276E+04  0.15474866284E+04 0.  0.
        5    1    3    3  502    0 -0.95964751021E+02  0.63541331424E+03 -0.83422870300E+03  0.10530521983E+04  0.46999998093E+01 0.  1.
       -5    1    3    3    0  502  0.95964751021E+02 -0.63541331424E+03  0.11594077062E+03  0.65301122933E+03  0.46999998093E+01 0. -1.
</event>
<event>
 5   0  0.1087761E-03  0.1475006E+04  0.7818609E-02  0.8901246E-01
        1   -1    0    0  501    0  0.00000000000E+00  0.00000000000E+00  0.67260995495E+03  0.67260995497E+03  0.50400001928E-02 0. -1.
       -1   -1    0    0    0  501  0.00000000000E+00  0.00000000000E+00 -0.80865740727E+03  0.80865740728E+03  0.50400001928E-02 0.  1.
    10030    2    1    2    0    0  0.00000000000E+00  0.00000000000E+00 -0.13604745232E+03  0.14812673623E+04  0.14750064709E+04 0.  0.
        3    1    3    3  502    0  0.91853035384E+02 -0.59176837398E+03  0.36424990995E+03  0.70093137728E+03  0.10100000352E+00 0. -1.
       -3    1    3    3    0  502 -0.91853035384E+02  0.59176837398E+03 -0.50029736227E+03  0.78033598497E+03  0.10100000352E+00 0.  1.
</event>
<event>
 5   0  0.2111533E-03  0.1099833E+04  0.7818609E-02  0.9205355E-01
        2   -1    0    0  501    0  0.00000000000E+00  0.00000000000E+00  0.15881061702E+04  0.15881061702E+04  0.25500000920E-02 0.  1.
       -2   -1    0    0    0  501  0.00000000000E+00  0.00000000000E+00 -0.19042064753E+03  0.19042064755E+03  0.25500000920E-02 0. -1.
    10030    2    1    2    0    0  0.00000000000E+00  0.00000000000E+00  0.13976855227E+04  0.17785268178E+04  0.10998330879E+04 0.  0.
        5    1    3    3  502    0  0.53027446233E+03 -0.53697132284E+02  0.48001707455E+03  0.71729552437E+03  0.46999998093E+01 0.  1.
       -5    1    3    3    0  502 -0.53027446233E+03  0.53697132284E+02  0.91766844814E+03  0.10612312934E+04  0.46999998093E+01 0. -1.
</event>
<event>
 5   0  0.1087761E-03  0.1433602E+04  0.7818609E-02  0.8929848E-01
        1   -1    0    0  501    0  0.00000000000E+00  0.00000000000E+00  0.24699995902E+04  0.24699995902E+04  0.50400001928E-02 0. -1.
       -1   -1    0    0    0  501  0.00000000000E+00  0.00000000000E+00 -0.20801783339E+03  0.20801783345E+03  0.50400001928E-02 0.  1.
    10030    2    1    2    0    0  0.00000000000E+00  0.00000000000E+00  0.22619817569E+04  0.26780174237E+04  0.14336024042E+04 0.  0.
        3    1    3    3  502    0  0.27845829540E+03 -0.62552136035E+03  0.15272076190E+04  0.16736723444E+04  0.10100000352E+00 0.  1.
       -3    1    3    3    0  502 -0.27845829540E+03  0.62552136035E+03  0.73477413786E+03  0.10043450793E+04  0.10100000352E+00 0. -1.
</event>
<event>
 5   0  0.1993623E-03  0.1551352E+04  0.7818609E-02  0.8851004E-01
        2   -1    0    0  501    0  0.00000000000E+00  0.00000000000E+00  0.63924172263E+03  0.63924172263E+03  0.25500000920E-02 0. -1.
       -2   -1    0    0    0  501  0.00000000000E+00  0.00000000000E+00 -0.94123012304E+03  0.94123012305E+03  0.25500000920E-02 0.  1.
    10030    2    1    2    0    0  0.00000000000E+00  0.00000000000E+00 -0.30198840041E+03  0.15804718457E+04  0.15513523974E+04 0.  0.
        4    1    3    3  502    0  0.25281821668E+03 -0.71114886165E+03  0.31312182311E+02  0.75540176050E+03  0.12699999809E+01 0. -1.
       -4    1    3    3    0  502 -0.25281821668E+03  0.71114886165E+03 -0.33330058273E+03  0.82507008518E+03  0.12699999809E+01 0.  1.
</event>
<event>
 5   0  0.1078018E-03  0.1722143E+04  0.7818609E-02  0.8748835E-01
        1   -1    0    0  501    0  0.00000000000E+00  0.00000000000E+00  0.98220678556E+03  0.98220678557E+03  0.50400001928E-02 0.  1.
       -1   -1    0    0    0  501  0.00000000000E+00  0.00000000000E+00 -0.75487604836E+03  0.75487604837E+03  0.50400001928E-02 0. -1.
    10030    2    1    2    0    0  0.00000000000E+00  0.00000000000E+00  0.22733073720E+03  0.17370828339E+04  0.17221432890E+04 0.  0.
        4    1    3    3  502    0 -0.28770278735E+03 -0.85516253951E+02 -0.70040272639E+03  0.76200493146E+03  0.12699999809E+01 0. -1.
       -4    1    3    3    0  502  0.28770278735E+03  0.85516253951E+02  0.92773346359E+03  0.97507790248E+03  0.12699999809E+01 0.  1.
</event>
<event>
 5   0  0.1993623E-03  0.1612763E+04  0.7818609E-02  0.8812745E-01
       -2   -1    0    0    0  501  0.00000000000E+00  0.00000000000E+00  0.39568979513E+03  0.39568979514E+03  0.25500000920E-02 0.  1.
        2   -1    0    0  501    0  0.00000000000E+00  0.00000000000E+00 -0.16433362012E+04  0.16433362012E+04  0.25500000920E-02 0. -1.
    10030    2    1    2    0    0  0.00000000000E+00  0.00000000000E+00 -0.12476464061E+04  0.20390259964E+04  0.16127632992E+04 0.  0.
        4    1    3    3  502    0 -0.61666249805E+02 -0.59474824807E+02 -0.16375645121E+04  0.16398045998E+04  0.12699999809E+01 0. -1.
       -4    1    3    3    0  502  0.61666249805E+02  0.59474824807E+02  0.38991810606E+03  0.39922139657E+03  0.12699999809E+01 0.  1.
</event>
<event>
 5   0  0.1961098E-03  0.1534580E+04  0.7818609E-02  0.8861778E-01
        2   -1    0    0  501    0  0.00000000000E+00  0.00000000000E+00  0.68338736537E+03  0.68338736537E+03  0.25500000920E-02 0. -1.
       -2   -1    0    0    0  501  0.00000000000E+00  0.00000000000E+00 -0.86149336538E+03  0.86149336538E+03  0.25500000920E-02 0.  1.
    10030    2    1    2    0    0  0.00000000000E+00  0.00000000000E+00 -0.17810600001E+03  0.15448807307E+04  0.15345796574E+04 0.  0.
        2    1    3    3  502    0  0.14261816278E+03 -0.41378261548E+03 -0.72350378804E+03  0.84558484172E+03  0.25500000920E-02 0.  1.
       -2    1    3    3    0  502 -0.14261816278E+03  0.41378261548E+03  0.54539778803E+03  0.69929588903E+03  0.25500000920E-02 0. -1.
</event>
<event>
 5   0  0.1077140E-03  0.1501927E+04  0.7818609E-02  0.8883172E-01
        1   -1    0    0  501    0  0.00000000000E+00  0.00000000000E+00  0.20092122459E+04  0.20092122459E+04  0.50400001928E-02 0.  1.
       -1   -1    0    0    0  501  0.00000000000E+00  0.00000000000E+00 -0.28068037042E+03  0.28068037047E+03  0.50400001928E-02 0. -1.
    10030    2    1    2    0    0  0.00000000000E+00  0.00000000000E+00  0.17285318755E+04  0.22898926164E+04  0.15019273451E+04 0.  0.
        1    1    3    3  502    0 -0.63757602366E+03 -0.64182426785E+02  0.14612614621E+04  0.15955900572E+04  0.50400001928E-02 0.  1.
       -1    1    3    3    0  502  0.63757602366E+03  0.64182426785E+02  0.26727041340E+03  0.69430255924E+03  0.50400001928E-02 0. -1.
</event>
<event>
 5   0  0.7468375E-04  0.1921114E+04  0.7818609E-02  0.8644417E-01
        3   -1    0    0  501    0  0.00000000000E+00  0.00000000000E+00  0.52926376464E+03  0.52926377428E+03  0.10100000352E+00 0. -1.
       -3   -1    0    0    0  501  0.00000000000E+00  0.00000000000E+00 -0.17433076279E+04  0.17433076309E+04  0.10100000352E+00 0.  1.
    10030    2    1    2    0    0  0.00000000000E+00  0.00000000000E+00 -0.12140438633E+04  0.22725714051E+04  0.19211138148E+04 0.  0.
        5    1    3    3  502    0  0.65921807299E+03  0.61776904211E+03 -0.22108375278E+03  0.93011137660E+03  0.46999998093E+01 0. -1.
       -5    1    3    3    0  502 -0.65921807299E+03 -0.61776904211E+03 -0.99296011052E+03  0.13424600285E+04  0.46999998093E+01 0.  1.
</event>
<event>
 5   0  0.1077140E-03  0.9017993E+03  0.7818609E-02  0.9423335E-01
       -1   -1    0    0    0  501  0.00000000000E+00  0.00000000000E+00  0.15738746191E+03  0.15738746199E+03  0.50400001928E-02 0. -1.
        1   -1    0    0  501    0  0.00000000000E+00  0.00000000000E+00 -0.12917834187E+04  0.12917834187E+04  0.50400001928E-02 0.  1.
    10030    2    1    2    0    0  0.00000000000E+00  0.00000000000E+00 -0.11343959568E+04  0.14491708807E+04  0.90179934281E+03 0.  0.
        1    1    3    3  502    0  0.21900276627E+03 -0.28909631219E+03 -0.99771078183E+03  0.10615864042E+04  0.50400001928E-02 0.  1.
       -1    1    3    3    0  502 -0.21900276627E+03  0.28909631219E+03 -0.13668517497E+03  0.38758447652E+03  0.50400001928E-02 0. -1.
</event>
<event>
 5   0  0.2111533E-03  0.1472916E+04  0.7818609E-02  0.8902666E-01
       -2   -1    0    0    0  501  0.00000000000E+00  0.00000000000E+00  0.18448045339E+03  0.18448045341E+03  0.25500000920E-02 0. -1.
        2   -1    0    0  501    0  0.00000000000E+00  0.00000000000E+00 -0.29399889382E+04  0.29399889382E+04  0.25500000920E-02 0.  1.
    10030    2    1    2    0    0  0.00000000000E+00  0.00000000000E+00 -0.27555084848E+04  0.31244693916E+04  0.14729161447E+04 0.  0.
        5    1    3    3  502    0 -0.23322207955E+03  0.49914620372E+03 -0.24143836728E+04  0.24764511060E+04  0.46999998093E+01 0.  1.
       -5    1    3    3    0  502  0.23322207955E+03 -0.49914620372E+03 -0.34112481201E+03  0.64801828558E+03  0.46999998093E+01 0. -1.
</event>
<event>
 5   0  0.2150197E-03  0.1483860E+04  0.7818609E-02  0.8895257E-01
       -2   -1    0    0    0  501  0.00000000000E+00  0.00000000000E+00  0.54515996704E+03  0.54515996704E+03  0.25500000920E-02 0. -1.
        2   -1    0    0  501    0  0.00000000000E+00  0.00000000000E+00 -0.10097228395E+04  0.10097228395E+04  0.25500000920E-02 0.  1.
    10030    2    1    2    0    0  0.00000000000E+00  0.00000000000E+00 -0.46456287246E+03  0.15548828065E+04  0.14838604650E+04 0.  0.
        3    1    3    3  502    0 -0.86653967130E+02  0.25268710508E+03 -0.95758203296E+03  0.99414437741E+03  0.10100000352E+00 0.  1.
       -3    1    3    3    0  502  0.86653967130E+02 -0.25268710508E+03  0.49301916049E+03  0.56073842913E+03  0.10100000352E+00 0. -1.
</event>
<event>
 5   0  0.2111533E-03  0.1497756E+04  0.7818609E-02  0.8885947E-01
        2   -1    0    0  501    0  0.00000000000E+00  0.00000000000E+00  0.28017730398E+04  0.28017730398E+04  0.25500000920E-02 0. -1.
       -2   -1    0    0    0  501  0.00000000000E+00  0.00000000000E+00 -0.20016541526E+03  0.20016541527E+03  0.25500000920E-02 0.  1.
    10030    2    1    2    0    0  0.00000000000E+00  0.00000000000E+00  0.26016076246E+04  0.30019384551E+04  0.14977557398E+04 0.  0.
        5    1    3    3  502    0 -0.27943821298E+03 -0.64557659534E+03  0.78612185141E+03  0.10549239359E+04  0.46999998093E+01 0. -1.
       -5    1    3    3    0  502  0.27943821298E+03  0.64557659534E+03  0.18154857731E+04  0.19470145192E+04  0.46999998093E+01 0.  1.
</event>
<event>
 5   0  0.1069697E-03  0.1419524E+04  0.7818609E-02  0.8939806E-01
       -1   -1    0    0    0  501  0.00000000000E+00  0.00000000000E+00  0.46948016037E+03  0.46948016040E+03  0.50400001928E-02 0. -1.
        1   -1    0    0  501    0  0.00000000000E+00  0.00000000000E+00 -0.10730213936E+04  0.10730213936E+04  0.50400001928E-02 0.  1.
    10030    2    1    2    0    0  0.00000000000E+00  0.00000000000E+00 -0.60354123322E+03  0.15425015540E+04  0.14195242245E+04 0.  0.
        2    1    3    3  502    0  0.59304168330E+03 -0.60331530707E+02  0.11686363363E+03  0.60744994905E+03  0.25500000920E-02 0.  1.
       -2    1    3    3    0  502 -0.59304168330E+03  0.60331530707E+02 -0.72040486685E+03  0.93505160495E+03  0.25500000920E-02 0. -1.
</event>
<event>
 5   0  0.1993623E-03  0.1506931E+04  0.7818609E-02  0.8879857E-01
       -2   -1    0    0    0  501  0.00000000000E+00  0.00000000000E+00  0.51312926481E+03  0.51312926482E+03  0.25500000920E-02 0. -1.
        2   -1    0    0  501    0  0.00000000000E+00  0.00000000000E+00 -0.11063695881E+04  0.11063695881E+04  0.25500000920E-02 0.  1.
    10030    2    1    2    0    0  0.00000000000E+00  0.00000000000E+00 -0.59324032332E+03  0.16194988530E+04  0.15069314694E+04 0.  0.
        4    1    3    3  502    0 -0.38423259109E+03  0.61431882887E+03 -0.74579047798E+02  0.72841331319E+03  0.12699999809E+01 0. -1.
       -4    1    3    3    0  502  0.38423259109E+03 -0.61431882887E+03 -0.51866127552E+03  0.89108553977E+03  0.12699999809E+01 0.  1.
</event>
<event>
 5   0  0.1087761E-03  0.1535896E+04  0.7818609E-02  0.8860927E-01
        1   -1    0    0  501    0  0.00000000000E+00  0.00000000000E+00  0.86288568210E+03  0.86288568211E+03  0.50400001928E-02 0. -1.
       -1   -1    0    0    0  501  0.00000000000E+00  0.00000000000E+00 -0.68345570156E+03  0.68345570158E+03  0.50400001928E-02 0.  1.
    10030    2    1    2    0    0  0.00000000000E+00  0.00000000000E+00  0.17942998054E+03  0.15463413837E+04  0.15358960111E+04 0.  0.
        3    1    3    3  502    0  0.41121118427E+03  0.58712357667E+02  0.74001975988E+03  0.84862891432E+03  0.10100000352E+00 0. -1.
       -3    1    3    3    0  502 -0.41121118427E+03 -0.58712357667E+02 -0.56058977934E+03  0.69771246937E+03  0.10100000352E+00 0.  1.
</event>
<event>
 5   0  0.2150197E-03  0.1496467E+04  0.7818609E-02  0.8886805E-01
       -2   -1    0    0    0  501  0.00000000000E+00  0.00000000000E+00  0.53032534112E+03  0.53032534113E+03  0.25500000920E-02 0. -1.
        2   -1    0    0  501    0  0.00000000000E+00  0.00000000000E+00 -0.10556797853E+04  0.10556797853E+04  0.25500000920E-02 0.  1.
    10030    2    1    2    0    0  0.00000000000E+00  0.00000000000E+00 -0.52535444414E+03  0.15860051264E+04  0.14964674968E+04 0.  0.
        3    1    3    3  502    0  0.67930152707E+03 -0.31299057885E+03 -0.24044434494E+03  0.78563805938E+03  0.10100000352E+00 0.  1.
       -3    1    3    3    0  502 -0.67930152707E+03  0.31299057885E+03 -0.28491009920E+03  0.80036706702E+03  0.10100000352E+00 0. -1.
</event>
<event>
 5   0  0.1077140E-03  0.1495178E+04  0.7818609E-02  0.8887666E-01
       -1   -1    0    0    0  501  0.00000000000E+00  0.00000000000E+00  0.85246994291E+03  0.85246994292E+03  0.50400001928E-02 0.  1.
        1   -1    0    0  501    0  0.00000000000E+00  0.00000000000E+00 -0.65561182145E+03  0.65561182147E+03  0.50400001928E-02 0. -1.
    10030    2    1    2    0    0  0.00000000000E+00  0.00000000000E+00  0.19685812146E+03  0.15080817644E+04  0.14951780791E+04 0.  0.
        1    1    3    3  502    0 -0.43000757459E+03 -0.29810199038E+03  0.63700175629E+03  0.82434370769E+03  0.50400001928E-02 0.  1.
       -1    1    3    3    0  502  0.43000757459E+03  0.29810199038E+03 -0.44014363482E+03  0.68373805670E+03  0.50400001928E-02 0. -1.
</event>
<event>
 5   0  0.2111533E-03  0.1473949E+04  0.7818609E-02  0.8901964E-01
        2   -1    0    0  501    0  0.00000000000E+00  0.00000000000E+00  0.17592723563E+04  0.17592723563E+04  0.25500000920E-02 0. -1.
       -2   -1    0    0    0  501  0.00000000000E+00  0.00000000000E+00 -0.30872495666E+03  0.30872495667E+03  0.25500000920E-02 0.  1.
    10030    2    1    2    0    0  0.00000000000E+00  0.00000000000E+00  0.14505473996E+04  0.20679973129E+04  0.14739488213E+04 0.  0.
        5    1    3    3  502    0  0.41302077879E+03 -0.42536550761E+03  0.11115711498E+03  0.60324122289E+03  0.46999998093E+01 0.  1.
       -5    1    3    3    0  502 -0.41302077879E+03  0.42536550761E+03  0.13393902846E+04  0.14647560900E+04  0.46999998093E+01 0. -1.
</event>
<event>
 5   0  0.1078018E-03  0.1534051E+04  0.7818609E-02  0.8862120E-01
        1   -1    0    0  501    0  0.00000000000E+00  0.00000000000E+00  0.53516568092E+03  0.53516568094E+03  0.50400001928E-02 0. -1.
       -1   -1    0    0    0  501  0.00000000000E+00  0.00000000000E+00 -0.10993386400E+04  0.10993386400E+04  0.50400001928E-02 0.  1.
    10030    2    1    2    0    0  0.00000000000E+00  0.00000000000E+00 -0.56417295907E+03  0.16345043209E+04  0.15340512532E+04 0.  0.
        4    1    3    3  502    0 -0.48000220145E+02  0.54467482785E+03  0.29105185164E+03  0.61942512257E+03  0.12699999809E+01 0.  1.
       -4    1    3    3    0  502  0.48000220145E+02 -0.54467482785E+03 -0.85522481071E+03  0.10150791984E+04  0.12699999809E+01 0. -1.
</event>
<event>
 5   0  0.1961098E-03  0.1462547E+04  0.7818609E-02  0.8909748E-01
        2   -1    0    0  501    0  0.00000000000E+00  0.00000000000E+00  0.93384493555E+03  0.93384493555E+03  0.25500000920E-02 0.  1.
       -2   -1    0    0    0  501  0.00000000000E+00  0.00000000000E+00 -0.57264388439E+03  0.57264388440E+03  0.25500000920E-02 0. -1.
    10030    2    1    2    0    0  0.00000000000E+00  0.00000000000E+00  0.36120105116E+03  0.15064888200E+04  0.14625465344E+04 0.  0.
        2    1    3    3  502    0 -0.32416470148E+03  0.50416189768E+03  0.61211271779E+03  0.85670528891E+03  0.25500000920E-02 0.  1.
       -2    1    3    3    0  502  0.32416470148E+03 -0.50416189768E+03 -0.25091166664E+03  0.64978353104E+03  0.25500000920E-02 0. -1.
</event>
<event>
 5   0  0.2150197E-03  0.1507647E+04  0.7818609E-02  0.8879384E-01
       -2   -1    0    0    0  501  0.00000000000E+00  0.00000000000E+00  0.51061786024E+03  0.51061786025E+03  0.25500000920E-02 0.  1.
        2   -1    0    0  501    0  0.00000000000E+00  0.00000000000E+00 -0.11128672898E+04  0.11128672898E+04  0.25500000920E-02 0. -1.
    10030    2    1    2    0    0  0.00000000000E+00  0.00000000000E+00 -0.60224942958E+03  0.16234851501E+04  0.15076470598E+04 0.  0.
        3    1    3    3  502    0 -0.70714438184E+03 -0.88107851201E+02 -0.56584568705E+03  0.90994369165E+03  0.10100000352E+00 0. -1.
       -3    1    3    3    0  502  0.70714438184E+03  0.88107851201E+02 -0.36403742525E+02  0.71354145842E+03  0.10100000352E+00 0.  1.
</event>
<event>
 5   0  0.1078787E-03  0.1513042E+04  0.7818609E-02  0.8875826E-01
        1   -1    0    0  501    0  0.00000000000E+00  0.00000000000E+00  0.14610315396E+04  0.14610315396E+04  0.50400001928E-02 0. -1.
       -1   -1    0    0    0  501  0.00000000000E+00  0.00000000000E+00 -0.39172604666E+03  0.39172604669E+03  0.50400001928E-02 0.  1.
    10030    2    1    2    0    0  0.00000000000E+00  0.00000000000E+00  0.10693054929E+04  0.18527575863E+04  0.15130421132E+04 0.  0.
        5    1    3    3  502    0 -0.72596409222E+03 -0.19980175718E+03  0.62428105009E+03  0.97810711318E+03  0.46999998093E+01 0. -1.
       -5    1    3    3    0  502  0.72596409222E+03  0.19980175718E+03  0.44502444283E+03  0.87465047309E+03  0.46999998093E+01 0.  1.
</event>
<event>
 5   0  0.1069697E-03  0.1490061E+04  0.7818609E-02  0.8891089E-01
       -1   -1    0    0    0  501  0.00000000000E+00  0.00000000000E+00  0.23998882442E+03  0.23998882447E+03  0.50400001928E-02 0. -1.
        1   -1    0    0  501    0  0.00000000000E+00  0.00000000000E+00 -0.23129004376E+04  0.23129004376E+04  0.50400001928E-02 0.  1.
    10030    2    1    2    0    0  0.00000000000E+00  0.00000000000E+00 -0.20729116132E+04  0.25528892621E+04  0.14900607465E+04 0.  0.
        2    1    3    3  502    0  0.56802950234E+01  0.41327136799E+03  0.25562453110E+02  0.41410014292E+03  0.25500000920E-02 0. -1.
       -2    1    3    3    0  502 -0.56802950234E+01 -0.41327136799E+03 -0.20984740663E+04  0.21387891192E+04  0.25500000920E-02 0.  1.
</event>
<event>
 5   0  0.1993623E-03  0.1478568E+04  0.7818609E-02  0.8898832E-01
        2   -1    0    0  501    0  0.00000000000E+00  0.00000000000E+00  0.64362391498E+03  0.64362391498E+03  0.25500000920E-02 0.  1.
       -2   -1    0    0    0  501  0.00000000000E+00  0.00000000000E+00 -0.84916136849E+03  0.84916136849E+03  0.25500000920E-02 0. -1.
    10030    2    1    2    0    0  0.00000000000E+00  0.00000000000E+00 -0.20553745351E+03  0.14927852835E+04  0.14785676372E+04 0.  0.
        4    1    3    3  502    0 -0.41621105636E+03  0.57692448259E+03  0.10032585314E+03  0.71842911394E+03  0.12699999809E+01 0. -1.
       -4    1    3    3    0  502  0.41621105636E+03 -0.57692448259E+03 -0.30586330665E+03  0.77435616954E+03  0.12699999809E+01 0.  1.
</event>
<event>
 5   0  0.1961098E-03  0.1506392E+04  0.7818609E-02  0.8880214E-01
       -2   -1    0    0    0  501  0.00000000000E+00  0.00000000000E+00  0.95645158369E+03  0.95645158369E+03  0.25500000920E-02 0.  1.
        2   -1    0    0  501    0  0.00000000000E+00  0.00000000000E+00 -0.59313398602E+03  0.59313398602E+03  0.25500000920E-02 0. -1.
    10030    2    1    2    0    0  0.00000000000E+00  0.00000000000E+00  0.36331759767E+03  0.15495855697E+04  0.15063916360E+04 0.  0.
        2    1    3    3  502    0  0.15488253637E+03  0.25707959711E+03  0.89228211442E+03  0.94140633684E+03  0.25500000920E-02 0.  1.
       -2    1    3    3    0  502 -0.15488253637E+03 -0.25707959711E+03 -0.52896451674E+03  0.60817923288E+03  0.25500000920E-02 0. -1.
</event>
<event>
 5   0  0.1069697E-03  0.1481799E+04  0.7818609E-02  0.8896647E-01
       -1   -1    0    0    0  501  0.00000000000E+00  0.00000000000E+00  0.45418445472E+03  0.45418445475E+03  0.50400001928E-02 0.  1.
        1   -1    0    0  501    0  0.00000000000E+00  0.00000000000E+00 -0.12086107797E+04  0.12086107797E+04  0.50400001928E-02 0. -1.
    10030    2    1    2    0    0  0.00000000000E+00  0.00000000000E+00 -0.75442632499E+03  0.16627952345E+04  0.14817992145E+04 0.  0.
        2    1    3    3  502    0  0.60016717033E+03  0.33523235806E+03 -0.68728075879E+03  0.97207829296E+03  0.25500000920E-02 0. -1.
       -2    1    3    3    0  502 -0.60016717033E+03 -0.33523235806E+03 -0.67145566192E+02  0.69071694151E+03  0.25500000920E-02 0.  1.
</event>
<event>
 5   0  0.1961098E-03  0.1450927E+04  0.7818609E-02  0.8917758E-01
       -2   -1    0    0    0  501  0.00000000000E+00  0.00000000000E+00  0.76549164284E+03  0.76549164284E+03  0.25500000920E-02 0. -1.
        2   -1    0    0  501    0  0.00000000000E+00  0.00000000000E+00 -0.68752848340E+03  0.68752848341E+03  0.25500000920E-02 0.  1.
    10030    2    1    2    0    0  0.00000000000E+00  0.00000000000E+00  0.77963159433E+02  0.14530201263E+04  0.14509270254E+04 0.  0.
        2    1    3    3  502    0 -0.71310467551E+02 -0.51226761126E+03 -0.47047031075E+03  0.69917494351E+03  0.25500000920E-02 0.  1.
       -2    1    3    3    0  502  0.71310467551E+02  0.51226761126E+03  0.54843347018E+03  0.75384518274E+03  0.25500000920E-02 0. -1.
</event>
<event>
 5   0  0.2111533E-03  0.1511473E+04  0.7818609E-02  0.8876859E-01
        2   -1    0    0  501    0  0.00000000000E+00  0.00000000000E+00  0.63930185567E+03  0.63930185568E+03  0.25500000920E-02 0.  1.
       -2   -1    0    0    0  501  0.00000000000E+00  0.00000000000E+00 -0.89337732808E+03  0.89337732808E+03  0.25500000920E-02 0. -1.
    10030    2    1    2    0    0  0.00000000000E+00  0.00000000000E+00 -0.25407547241E+03  0.15326791838E+04  0.15114731670E+04 0.  0.
        5    1    3    3  502    0 -0.56028744396E+02 -0.34751432885E+03  0.55108249128E+03  0.65392616644E+03  0.46999998093E+01 0.  1.
       -5    1    3    3    0  502  0.56028744396E+02  0.34751432885E+03 -0.80515796369E+03  0.87875301732E+03  0.46999998093E+01 0. -1.
</event>
<event>
 5   0  0.1993623E-03  0.1487930E+04  0.7818609E-02  0.8892519E-01
        2   -1    0    0  501    0  0.00000000000E+00  0.00000000000E+00  0.12340622275E+04  0.12340622275E+04  0.25500000920E-02 0.  1.
       -2   -1    0    0    0  501  0.00000000000E+00  0.00000000000E+00 -0.44850559954E+03  0.44850559954E+03  0.25500000920E-02 0. -1.
    10030    2    1    2    0    0  0.00000000000E+00  0.00000000000E+00  0.78555662794E+03  0.16825678270E+04  0.14879298629E+04 0.  0.
        4    1    3    3  502    0 -0.54416325278E+03  0.20600939384E+03  0.91702695854E+03  0.10860449215E+04  0.12699999809E+01 0.  1.
       -4    1    3    3    0  502  0.54416325278E+03 -0.20600939384E+03 -0.13147033060E+03  0.59652290547E+03  0.12699999809E+01 0. -1.
</event>
<event>
 5   0  0.1961098E-03  0.1483407E+04  0.7818609E-02  0.8895562E-01
        2   -1    0    0  501    0  0.00000000000E+00  0.00000000000E+00  0.20988263154E+04  0.20988263154E+04  0.25500000920E-02 0.  1.
       -2   -1    0    0    0  501  0.00000000000E+00  0.00000000000E+00 -0.26211046032E+03  0.26211046034E+03  0.25500000920E-02 0. -1.
    10030    2    1    2    0    0  0.00000000000E+00  0.00000000000E+00  0.18367158550E+04  0.23609367757E+04  0.14834073367E+04 0.  0.
        2    1    3    3  502    0 -0.10802126926E+03  0.45990543342E+03  0.18283964495E+04  0.18884425273E+04  0.25500000920E-02 0.  1.
       -2    1    3    3    0  502  0.10802126926E+03 -0.45990543342E+03  0.83194055719E+01  0.47249424845E+03  0.25500000920E-02 0. -1.
</event>
<event>
 5   0  0.7468375E-04  0.1570460E+04  0.7818609E-02  0.8838904E-01
       -4   -1    0    0    0  501  0.00000000000E+00  0.00000000000E+00  0.58095755442E+03  0.58095894256E+03  0.12699999809E+01 0. -1.
        4   -1    0    0  501    0  0.00000000000E+00  0.00000000000E+00 -0.10613243802E+04  0.10613251400E+04  0.12699999809E+01 0.  1.
    10030    2    1    2    0    0  0.00000000000E+00  0.00000000000E+00 -0.48036682576E+03  0.16422840826E+04  0.15704600347E+04 0.  0.
        3    1    3    3  502    0 -0.55476888979E+03 -0.30884872924E+03 -0.72329698709E+03  0.96245238863E+03  0.10100000352E+00 0.  1.
       -3    1    3    3    0  502  0.55476888979E+03  0.30884872924E+03  0.24293016133E+03  0.67983169397E+03  0.10100000352E+00 0. -1.
</event>
<event>
 5   0  0.1077140E-03  0.1564036E+04  0.7818609E-02  0.8842952E-01
       -1   -1    0    0    0  501  0.00000000000E+00  0.00000000000E+00  0.85399281371E+03  0.85399281372E+03  0.50400001928E-02 0. -1.
        1   -1    0    0  501    0  0.00000000000E+00  0.00000000000E+00 -0.71610925037E+03  0.71610925039E+03  0.50400001928E-02 0.  1.
    10030    2    1    2    0    0  0.00000000000E+00  0.00000000000E+00  0.13788356334E+03  0.15701020641E+04  0.15640360017E+04 0.  0.
        1    1    3    3  502    0 -0.27654843871E+03  0.60957886585E+03  0.47484489330E+03  0.82069671948E+03  0.50400001928E-02 0. -1.
       -1    1    3    3    0  502  0.27654843871E+03 -0.60957886585E+03 -0.33696132996E+03  0.74940534463E+03  0.50400001928E-02 0.  1.
</event>
<event>
 5   0  0.2150197E-03  0.1541533E+04  0.7818609E-02  0.8857294E-01
       -2   -1    0    0    0  501  0.00000000000E+00  0.00000000000E+00  0.39734499059E+03  0.39734499060E+03  0.25500000920E-02 0. -1.
        2   -1    0    0  501    0  0.00000000000E+00  0.00000000000E+00 -0.14951257522E+04  0.14951257522E+04  0.25500000920E-02 0.  1.
    10030    2    1    2    0    0  0.00000000000E+00  0.00000000000E+00 -0.10977807616E+04  0.18924707428E+04  0.15415326502E+04 0.  0.
        3    1    3    3  502    0  0.36040622308E+03  0.14672318570E+03 -0.13656829388E+04  0.14200388158E+04  0.10100000352E+00 0.  1.
       -3    1    3    3    0  502 -0.36040622308E+03 -0.14672318570E+03  0.26790217722E+03  0.47243192696E+03  0.10100000352E+00 0. -1.
</event>
<event>
 5   0  0.1077140E-03  0.1356405E+04  0.7818609E-02  0.8985994E-01
       -1   -1    0    0    0  501  0.00000000000E+00  0.00000000000E+00  0.13481216849E+04  0.13481216849E+04  0.50400001928E-02 0.  1.
        1   -1    0    0  501    0  0.00000000000E+00  0.00000000000E+00 -0.34118481327E+03  0.34118481330E+03  0.50400001928E-02 0. -1.
    10030    2    1    2    0    0  0.00000000000E+00  0.00000000000E+00  0.10069368716E+04  0.16893064982E+04  0.13564050212E+04 0.  0.
        1    1    3    3  502    0  0.26363947622E+03 -0.45831405275E+03  0.10324477092E+04  0.11599594030E+04  0.50400001928E-02 0.  1.
       -1    1    3    3    0  502 -0.26363947622E+03  0.45831405275E+03 -0.25510837535E+02  0.52934709523E+03  0.50400001928E-02 0. -1.
</event>
<event>
 5   0  0.1961098E-03  0.1497171E+04  0.7818609E-02  0.8886336E-01
        2   -1    0    0  501    0  0.00000000000E+00  0.00000000000E+00  0.16780660011E+04  0.16780660011E+04  0.25500000920E-02 0. -1.
       -2   -1    0    0    0  501  0.00000000000E+00  0.00000000000E+00 -0.33394425708E+03  0.33394425709E+03  0.25500000920E-02 0.  1.
    10030    2    1    2    0    0  0.00000000000E+00  0.00000000000E+00  0.13441217440E+04  0.20120102582E+04  0.14971713383E+04 0.  0.
        2    1    3    3  502    0  0.56351544443E+03  0.48980404098E+03  0.74471526940E+03  0.10545418376E+04  0.25500000920E-02 0. -1.
       -2    1    3    3    0  502 -0.56351544443E+03 -0.48980404098E+03  0.59940647458E+03  0.95746842060E+03  0.25500000920E-02 0.  1.
</event>
<event>
 5   0  0.2111533E-03  0.1513811E+04  0.7818609E-02  0.8875320E-01
        2   -1    0    0  501    0  0.00000000000E+00  0.00000000000E+00  0.39922747610E+03  0.39922747611E+03  0.25500000920E-02 0. -1.
       -2   -1    0    0    0  501  0.00000000000E+00  0.00000000000E+00 -0.14350362164E+04  0.14350362164E+04  0.25500000920E-02 0.  1.
    10030    2    1    2    0    0  0.00000000000E+00  0.00000000000E+00 -0.10358087403E+04  0.18342636925E+04  0.15138109351E+04 0.  0.
        5    1    3    3  502    0 -0.51500735088E+02  0.38991337131E+03  0.26567256565E+03  0.47464593645E+03  0.46999998093E+01 0. -1.
       -5    1    3    3    0  502  0.51500735088E+02 -0.38991337131E+03 -0.13014813059E+04  0.13596177560E+04  0.46999998093E+01 0.  1.
</event>
<event>
 5   0  0.1087761E-03  0.1491244E+04  0.7818609E-02  0.8890296E-01
       -1   -1    0    0    0  501  0.00000000000E+00  0.00000000000E+00  0.42924166995E+03  0.42924166998E+03  0.50400001928E-02 0. -1.
        1   -1    0    0  501    0  0.00000000000E+00  0.00000000000E+00 -0.12951968105E+04  0.12951968105E+04  0.50400001928E-02 0.  1.
    10030    2    1    2    0    0  0.00000000000E+00  0.00000000000E+00 -0.86595514050E+03  0.17244384805E+04  0.14912443688E+04 0.  0.
        3    1    3    3  502    0 -0.22600760792E+02  0.12650249047E+03 -0.12822948534E+04  0.12887178805E+04  0.10100000352E+00 0.  1.
       -3    1    3    3    0  502  0.22600760792E+02 -0.12650249047E+03  0.41633971285E+03  0.43572059991E+03  0.10100000352E+00 0. -1.
</event>
<event>
 5   0  0.1077140E-03  0.1460176E+04  0.7818609E-02  0.8911376E-01
       -1   -1    0    0    0  501  0.00000000000E+00  0.00000000000E+00  0.78218680532E+03  0.78218680534E+03  0.50400001928E-02 0. -1.
        1   -1    0    0  501    0  0.00000000000E+00  0.00000000000E+00 -0.68145961835E+03  0.68145961837E+03  0.50400001928E-02 0.  1.
    10030    2    1    2    0    0  0.00000000000E+00  0.00000000000E+00  0.10072718697E+03  0.14636464237E+04  0.14601763207E+04 0.  0.
        1    1    3    3  502    0 -0.48538645757E+03  0.12379060502E+03  0.58276102851E+03  0.76846245417E+03  0.50400001928E-02 0. -1.
       -1    1    3    3    0  502  0.48538645757E+03 -0.12379060502E+03 -0.48203384154E+03  0.69518396954E+03  0.50400001928E-02 0.  1.
</event>
<event>
 5   0  0.1078787E-03  0.1545929E+04  0.7818609E-02  0.8854472E-01
        1   -1    0    0  501    0  0.00000000000E+00  0.00000000000E+00  0.22368224716E+03  0.22368224722E+03  0.50400001928E-02 0. -1.
       -1   -1    0    0    0  501  0.00000000000E+00  0.00000000000E+00 -0.26710838753E+04  0.26710838753E+04  0.50400001928E-02 0.  1.
    10030    2    1    2    0    0  0.00000000000E+00  0.00000000000E+00 -0.24474016282E+04  0.28947661226E+04  0.15459289035E+04 0.  0.
        5    1    3    3  502    0  0.33621648998E+01  0.51372421250E+03 -0.14229134501E+03  0.53309735277E+03  0.46999998093E+01 0. -1.
       -5    1    3    3    0  502 -0.33621648998E+01 -0.51372421250E+03 -0.23051102832E+04  0.23616687698E+04  0.46999998093E+01 0.  1.
</event>
<event>
 5   0  0.7468375E-04  0.1501651E+04  0.7818609E-02  0.8883356E-01
        3   -1    0    0  501    0  0.00000000000E+00  0.00000000000E+00  0.96324915369E+03  0.96324915899E+03  0.10100000352E+00 0.  1.
       -3   -1    0    0    0  501  0.00000000000E+00  0.00000000000E+00 -0.58524692854E+03  0.58524693726E+03  0.10100000352E+00 0. -1.
    10030    2    1    2    0    0  0.00000000000E+00  0.00000000000E+00  0.37800222515E+03  0.15484960962E+04  0.15016505845E+04 0.  0.
        1    1    3    3  502    0 -0.30798903205E+03 -0.65197039526E+03  0.40485381319E+03  0.82693968960E+03  0.50400001928E-02 0.  1.
       -1    1    3    3    0  502  0.30798903205E+03  0.65197039526E+03 -0.26851588034E+02  0.72155640664E+03  0.50400001928E-02 0. -1.
</event>
<event>
 5   0  0.1087761E-03  0.1546496E+04  0.7818609E-02  0.8854109E-01
       -1   -1    0    0    0  501  0.00000000000E+00  0.00000000000E+00  0.49053409205E+03  0.49053409208E+03  0.50400001928E-02 0.  1.
        1   -1    0    0  501    0  0.00000000000E+00  0.00000000000E+00 -0.12189011800E+04  0.12189011800E+04  0.50400001928E-02 0. -1.
    10030    2    1    2    0    0  0.00000000000E+00  0.00000000000E+00 -0.72836708796E+03  0.17094352721E+04  0.15464961476E+04 0.  0.
        3    1    3    3  502    0 -0.96548014338E+02 -0.30782055898E+03 -0.11409596830E+04  0.11856913697E+04  0.10100000352E+00 0. -1.
       -3    1    3    3    0  502  0.96548014338E+02  0.30782055898E+03  0.41259259508E+03  0.52374390242E+03  0.10100000352E+00 0.  1.
</event>
<event>
 5   0  0.2111533E-03  0.1457297E+04  0.7818609E-02  0.8913357E-01
       -2   -1    0    0    0  501  0.00000000000E+00  0.00000000000E+00  0.40114614719E+03  0.40114614720E+03  0.25500000920E-02 0. -1.
        2   -1    0    0  501    0  0.00000000000E+00  0.00000000000E+00 -0.13235298618E+04  0.13235298618E+04  0.25500000920E-02 0.  1.
    10030    2    1    2    0    0  0.00000000000E+00  0.00000000000E+00 -0.92238371460E+03  0.17246760090E+04  0.14572973681E+04 0.  0.
        5    1    3    3  502    0 -0.71350609693E+03  0.14704043596E+03 -0.44466659495E+03  0.85350003563E+03  0.46999998093E+01 0.  1.
       -5    1    3    3    0  502  0.71350609693E+03 -0.14704043596E+03 -0.47771711964E+03  0.87117597336E+03  0.46999998093E+01 0. -1.
</event>
<event>
 5   0  0.7468375E-04  0.1475421E+04  0.7818609E-02  0.8900964E-01
       -3   -1    0    0    0  501  0.00000000000E+00  0.00000000000E+00  0.44588873087E+03  0.44588874231E+03  0.10100000352E+00 0.  1.
        3   -1    0    0  501    0  0.00000000000E+00  0.00000000000E+00 -0.12205216846E+04  0.12205216887E+04  0.10100000352E+00 0. -1.
    10030    2    1    2    0    0  0.00000000000E+00  0.00000000000E+00 -0.77463295368E+03  0.16664104310E+04  0.14754211303E+04 0.  0.
        1    1    3    3  502    0  0.83883655226E+02  0.34421319288E+03 -0.11181462942E+04  0.11729323617E+04  0.50400001928E-02 0. -1.
       -1    1    3    3    0  502 -0.83883655226E+02 -0.34421319288E+03  0.34351334055E+03  0.49347806935E+03  0.50400001928E-02 0.  1.
</event>
<event>
 5   0  0.2111533E-03  0.1467284E+04  0.7818609E-02  0.8906505E-01
       -2   -1    0    0    0  501  0.00000000000E+00  0.00000000000E+00  0.44841896847E+03  0.44841896848E+03  0.25500000920E-02 0.  1.
        2   -1    0    0  501    0  0.00000000000E+00  0.00000000000E+00 -0.12002858672E+04  0.12002858672E+04  0.25500000920E-02 0. -1.
    10030    2    1    2    0    0  0.00000000000E+00  0.00000000000E+00 -0.75186689874E+03  0.16487048357E+04  0.14672844993E+04 0.  0.
        5    1    3    3  502    0 -0.45398095726E+03 -0.41818062613E+03  0.69623634904E+02  0.62116284995E+03  0.46999998093E+01 0.  1.
       -5    1    3    3    0  502  0.45398095726E+03  0.41818062613E+03 -0.82149053364E+03  0.10275419857E+04  0.46999998093E+01 0. -1.
</event>
<event>
 5   0  0.1077140E-03  0.1317667E+04  0.7818609E-02  0.9015671E-01
       -1   -1    0    0    0  501  0.00000000000E+00  0.00000000000E+00  0.35095527496E+03  0.35095527499E+03  0.50400001928E-02 0.  1.
        1   -1    0    0  501    0  0.00000000000E+00  0.00000000000E+00 -0.12368008231E+04  0.12368008231E+04  0.50400001928E-02 0. -1.
    10030    2    1    2    0    0  0.00000000000E+00  0.00000000000E+00 -0.88584554814E+03  0.15877560981E+04  0.13176672918E+04 0.  0.
        1    1    3    3  502    0  0.61402607484E+03  0.23316859131E+03 -0.50514150667E+03  0.82859130718E+03  0.50400001928E-02 0. -1.
       -1    1    3    3    0  502 -0.61402607484E+03 -0.23316859131E+03 -0.38070404147E+03  0.75916479092E+03  0.50400001928E-02 0.  1.
</event>
<event>
 5   0  0.1078787E-03  0.1516967E+04  0.7818609E-02  0.8873248E-01
       -1   -1    0    0    0  501  0.00000000000E+00  0.00000000000E+00  0.78904119787E+03  0.78904119789E+03  0.50400001928E-02 0. -1.
        1   -1    0    0  501    0  0.00000000000E+00  0.00000000000E+00 -0.72910878124E+03  0.72910878126E+03  0.50400001928E-02 0.  1.
    10030    2    1    2    0    0  0.00000000000E+00  0.00000000000E+00  0.59932416630E+02  0.15181499792E+04  0.15169665338E+04 0.  0.
        5    1    3    3  502    0 -0.14098804876E+03 -0.45665614911E+03  0.61937584580E+03  0.78234327298E+03  0.46999998093E+01 0. -1.
       -5    1    3    3    0  502  0.14098804876E+03  0.45665614911E+03 -0.55944342917E+03  0.73580670617E+03  0.46999998093E+01 0.  1.
</event>
<event>
 5   0  0.2150197E-03  0.1509800E+04  0.7818609E-02  0.8877962E-01
       -2   -1    0    0    0  501  0.00000000000E+00  0.00000000000E+00  0.85810235898E+03  0.85810235899E+03  0.25500000920E-02 0.  1.
        2   -1    0    0  501    0  0.00000000000E+00  0.00000000000E+00 -0.66410943718E+03  0.66410943719E+03  0.25500000920E-02 0. -1.
    10030    2    1    2    0    0  0.00000000000E+00  0.00000000000E+00  0.19399292180E+03  0.15222117962E+04  0.15097998207E+04 0.  0.
        3    1    3    3  502    0 -0.12913781732E+03 -0.58573994159E+02 -0.65056137979E+03  0.66583602165E+03  0.10100000352E+00 0. -1.
       -3    1    3    3    0  502  0.12913781732E+03  0.58573994159E+02  0.84455430159E+03  0.85637577452E+03  0.10100000352E+00 0.  1.
</event>
<event>
 5   0  0.2111533E-03  0.9035455E+03  0.7818609E-02  0.9421160E-01
        2   -1    0    0  501    0  0.00000000000E+00  0.00000000000E+00  0.59277164794E+03  0.59277164794E+03  0.25500000920E-02 0.  1.
       -2   -1    0    0    0  501  0.00000000000E+00  0.00000000000E+00 -0.34431235605E+03  0.34431235605E+03  0.25500000920E-02 0. -1.
    10030    2    1    2    0    0  0.00000000000E+00  0.00000000000E+00  0.24845929189E+03  0.93708400400E+03  0.90354546693E+03 0.  0.
        5    1    3    3  502    0 -0.21395310696E+03 -0.24114895838E+03 -0.20397833267E+03  0.38152064467E+03  0.46999998093E+01 0. -1.
       -5    1    3    3    0  502  0.21395310696E+03  0.24114895838E+03  0.45243762457E+03  0.55556335933E+03  0.46999998093E+01 0.  1.
</event>
<event>
 5   0  0.7468375E-04  0.1557852E+04  0.7818609E-02  0.8846868E-01
        3   -1    0    0  501    0  0.00000000000E+00  0.00000000000E+00  0.62332622218E+03  0.62332623036E+03  0.10100000352E+00 0. -1.
       -3   -1    0    0    0  501  0.00000000000E+00  0.00000000000E+00 -0.97336743136E+03  0.97336743660E+03  0.10100000352E+00 0.  1.
    10030    2    1    2    0    0  0.00000000000E+00  0.00000000000E+00 -0.35004120918E+03  0.15966936670E+04  0.15578516675E+04 0.  0.
        3    1    3    3  502    0  0.20710354495E+03 -0.41999155020E+03 -0.81298743509E+03  0.93820752522E+03  0.10100000352E+00 0.  1.
       -3    1    3    3    0  502 -0.20710354495E+03  0.41999155020E+03  0.46294622591E+03  0.65848614173E+03  0.10100000352E+00 0. -1.
</event>
<event>
 5   0  0.1993623E-03  0.1525780E+04  0.7818609E-02  0.8867489E-01
       -2   -1    0    0    0  501  0.00000000000E+00  0.00000000000E+00  0.34660763255E+03  0.34660763256E+03  0.25500000920E-02 0.  1.
        2   -1    0    0  501    0  0.00000000000E+00  0.00000000000E+00 -0.16791344405E+04  0.16791344405E+04  0.25500000920E-02 0. -1.
    10030    2    1    2    0    0  0.00000000000E+00  0.00000000000E+00 -0.13325268079E+04  0.20257420730E+04  0.15257795557E+04 0.  0.
        4    1    3    3  502    0 -0.14863123829E+03 -0.38355405689E+03  0.18675651286E+03  0.45175719978E+03  0.12699999809E+01 0.  1.
       -4    1    3    3    0  502  0.14863123829E+03  0.38355405689E+03 -0.15192833208E+04  0.15739848732E+04  0.12699999809E+01 0. -1.
</event>
<event>
 5   0  0.1087761E-03  0.1545624E+04  0.7818609E-02  0.8854668E-01
       -1   -1    0    0    0  501  0.00000000000E+00  0.00000000000E+00  0.42582235126E+03  0.42582235129E+03  0.50400001928E-02 0.  1.
        1   -1    0    0  501    0  0.00000000000E+00  0.00000000000E+00 -0.14025530396E+04  0.14025530396E+04  0.50400001928E-02 0. -1.
    10030    2    1    2    0    0  0.00000000000E+00  0.00000000000E+00 -0.97673068836E+03  0.18283753909E+04  0.15456240593E+04 0.  0.
        3    1    3    3  502    0  0.70061718278E+03  0.21192598381E+02 -0.10336559460E+03  0.70851818564E+03  0.10100000352E+00 0. -1.
       -3    1    3    3    0  502 -0.70061718278E+03 -0.21192598381E+02 -0.87336509377E+03  0.11198572053E+04  0.10100000352E+00 0.  1.
</event>
<event>
 5   0  0.1078018E-03  0.1558433E+04  0.7818609E-02  0.8846499E-01
       -1   -1    0    0    0  501  0.00000000000E+00  0.00000000000E+00  0.48235025672E+03  0.48235025675E+03  0.50400001928E-02 0.  1.
        1   -1    0    0  501    0  0.00000000000E+00  0.00000000000E+00 -0.12587906212E+04  0.12587906212E+04  0.50400001928E-02 0. -1.
    10030    2    1    2    0    0  0.00000000000E+00  0.00000000000E+00 -0.77644036449E+03  0.17411408780E+04  0.15584325193E+04 0.  0.
        4    1    3    3  502    0  0.54935488824E+03  0.19744116359E+03 -0.96487391416E+03  0.11277220799E+04  0.12699999809E+01 0. -1.
       -4    1    3    3    0  502 -0.54935488824E+03 -0.19744116359E+03  0.18843354967E+03  0.61341879810E+03  0.12699999809E+01 0.  1.
</event>
<event>
 5   0  0.1078018E-03  0.1517024E+04  0.7818609E-02  0.8873210E-01
        1   -1    0    0  501    0  0.00000000000E+00  0.00000000000E+00  0.14251584873E+04  0.14251584873E+04  0.50400001928E-02 0. -1.
       -1   -1    0    0    0  501  0.00000000000E+00  0.00000000000E+00 -0.40370304458E+03  0.40370304461E+03  0.50400001928E-02 0.  1.
    10030    2    1    2    0    0  0.00000000000E+00  0.00000000000E+00  0.10214554427E+04  0.18288615319E+04  0.15170244828E+04 0.  0.
        4    1    3    3  502    0 -0.47485178059E+03  0.30683577259E+03 -0.98892516677E+02  0.57394577064E+03  0.12699999809E+01 0.  1.
       -4    1    3    3    0  502  0.47485178059E+03 -0.30683577259E+03  0.11203479594E+04  0.12549157613E+04  0.12699999809E+01 0. -1.
</event>
<event>
 5   0  0.1078018E-03  0.1508222E+04  0.7818609E-02  0.8879004E-01
        1   -1    0    0  501    0  0.00000000000E+00  0.00000000000E+00  0.15285651682E+04  0.15285651682E+04  0.50400001928E-02 0.  1.
       -1   -1    0    0    0  501  0.00000000000E+00  0.00000000000E+00 -0.37203749590E+03  0.37203749593E+03  0.50400001928E-02 0. -1.
    10030    2    1    2    0    0  0.00000000000E+00  0.00000000000E+00  0.11565276723E+04  0.19006026641E+04  0.15082222085E+04 0.  0.
        4    1    3    3  502    0  0.35223567803E+03 -0.43004488993E+03 -0.63890921650E+02  0.55954646188E+03  0.12699999809E+01 0. -1.
       -4    1    3    3    0  502 -0.35223567803E+03  0.43004488993E+03  0.12204185939E+04  0.13410562022E+04  0.12699999809E+01 0.  1.
</event>
<event>
 5   0  0.1077140E-03  0.1595947E+04  0.7818609E-02  0.8823042E-01
        1   -1    0    0  501    0  0.00000000000E+00  0.00000000000E+00  0.95843031350E+03  0.95843031351E+03  0.50400001928E-02 0.  1.
       -1   -1    0    0    0  501  0.00000000000E+00  0.00000000000E+00 -0.66437988493E+03  0.66437988494E+03  0.50400001928E-02 0. -1.
    10030    2    1    2    0    0  0.00000000000E+00  0.00000000000E+00  0.29405042857E+03  0.16228101985E+04  0.15959471438E+04 0.  0.
        1    1    3    3  502    0 -0.15336136096E+03  0.54177608894E+03 -0.42793084999E+03  0.70722404511E+03  0.50400001928E-02 0. -1.
       -1    1    3    3    0  502  0.15336136096E+03 -0.54177608894E+03  0.72198127856E+03  0.91558615335E+03  0.50400001928E-02 0.  1.
</event>
<event>
 5   0  0.1078787E-03  0.1482549E+04  0.7818609E-02  0.8896142E-01
       -1   -1    0    0    0  501  0.00000000000E+00  0.00000000000E+00  0.37588006006E+03  0.37588006010E+03  0.50400001928E-02 0. -1.
        1   -1    0    0  501    0  0.00000000000E+00  0.00000000000E+00 -0.14618695220E+04  0.14618695220E+04  0.50400001928E-02 0.  1.
    10030    2    1    2    0    0  0.00000000000E+00  0.00000000000E+00 -0.10859894620E+04  0.18377495821E+04  0.14825486215E+04 0.  0.
        5    1    3    3  502    0 -0.24685805460E+03 -0.94382603383E+02 -0.14014652157E+04  0.14261745390E+04  0.46999998093E+01 0.  1.
       -5    1    3    3    0  502  0.24685805460E+03  0.94382603383E+02  0.31547575372E+03  0.41157504313E+03  0.46999998093E+01 0. -1.
</event>
<event>
 5   0  0.1993623E-03  0.1587930E+04  0.7818609E-02  0.8827997E-01
       -2   -1    0    0    0  501  0.00000000000E+00  0.00000000000E+00  0.10842119935E+04  0.10842119935E+04  0.25500000920E-02 0. -1.
        2   -1    0    0  501    0  0.00000000000E+00  0.00000000000E+00 -0.58141821126E+03  0.58141821126E+03  0.25500000920E-02 0.  1.
    10030    2    1    2    0    0  0.00000000000E+00  0.00000000000E+00  0.50279378226E+03  0.16656302048E+04  0.15879302225E+04 0.  0.
        4    1    3    3  502    0 -0.84283683716E+02 -0.75864592453E+03  0.22230882512E+02  0.76363813628E+03  0.12699999809E+01 0. -1.
       -4    1    3    3    0  502  0.84283683716E+02  0.75864592453E+03  0.48056289975E+03  0.90199206851E+03  0.12699999809E+01 0.  1.
</event>
<event>
 5   0  0.1078787E-03  0.1464398E+04  0.7818609E-02  0.8908479E-01
        1   -1    0    0  501    0  0.00000000000E+00  0.00000000000E+00  0.15616697205E+04  0.15616697205E+04  0.50400001928E-02 0. -1.
       -1   -1    0    0    0  501  0.00000000000E+00  0.00000000000E+00 -0.34329629949E+03  0.34329629952E+03  0.50400001928E-02 0.  1.
    10030    2    1    2    0    0  0.00000000000E+00  0.00000000000E+00  0.12183734210E+04  0.19049660200E+04  0.14643980826E+04 0.  0.
        5    1    3    3  502    0  0.11747325030E+03 -0.63429570480E+03  0.15862887494E+03  0.66431635207E+03  0.46999998093E+01 0.  1.
       -5    1    3    3    0  502 -0.11747325030E+03  0.63429570480E+03  0.10597445461E+04  0.12406496679E+04  0.46999998093E+01 0. -1.
</event>
<event>
 5   0  0.1993623E-03  0.1489821E+04  0.7818609E-02  0.8891250E-01
       -2   -1    0    0    0  501  0.00000000000E+00  0.00000000000E+00  0.24311412954E+03  0.24311412955E+03  0.25500000920E-02 0.  1.
        2   -1    0    0  501    0  0.00000000000E+00  0.00000000000E+00 -0.22824324993E+04  0.22824324993E+04  0.25500000920E-02 0. -1.
    10030    2    1    2    0    0  0.00000000000E+00  0.00000000000E+00 -0.20393183697E+04  0.25255466288E+04  0.14898209158E+04 0.  0.
        4    1    3    3  502    0 -0.34927442226E+03  0.22059717217E+03 -0.20704574750E+04  0.21112677479E+04  0.12699999809E+01 0. -1.
       -4    1    3    3    0  502  0.34927442226E+03 -0.22059717217E+03  0.31139105305E+02  0.41427888094E+03  0.12699999809E+01 0.  1.
</event>
<event>
 5   0  0.1077140E-03  0.1494961E+04  0.7818609E-02  0.8887811E-01
       -1   -1    0    0    0  501  0.00000000000E+00  0.00000000000E+00  0.10359188990E+04  0.10359188990E+04  0.50400001928E-02 0.  1.
        1   -1    0    0  501    0  0.00000000000E+00  0.00000000000E+00 -0.53935374519E+03  0.53935374522E+03  0.50400001928E-02 0. -1.
    10030    2    1    2    0    0  0.00000000000E+00  0.00000000000E+00  0.49656515376E+03  0.15752726442E+04  0.14949605184E+04 0.  0.
        1    1    3    3  502    0 -0.15311864028E+03  0.73007438214E+03  0.19804737098E+03  0.77180093459E+03  0.50400001928E-02 0. -1.
       -1    1    3    3    0  502  0.15311864028E+03 -0.73007438214E+03  0.29851778279E+03  0.80347170960E+03  0.50400001928E-02 0.  1.
</event>
<event>
 5   0  0.2094566E-03  0.1556295E+04  0.7818609E-02  0.8847857E-01
        2   -1    0    0  501    0  0.00000000000E+00  0.00000000000E+00  0.10989556608E+04  0.10989556608E+04  0.25500000920E-02 0.  1.
       -2   -1    0    0    0  501  0.00000000000E+00  0.00000000000E+00 -0.55099002046E+03  0.55099002047E+03  0.25500000920E-02 0. -1.
    10030    2    1    2    0    0  0.00000000000E+00  0.00000000000E+00  0.54796564029E+03  0.16499456812E+04  0.15562950903E+04 0.  0.
        1    1    3    3  502    0  0.30267431419E+03 -0.17655221307E+03  0.10105805464E+04  0.10696052848E+04  0.50400001928E-02 0.  1.
       -1    1    3    3    0  502 -0.30267431419E+03  0.17655221307E+03 -0.46261490610E+03  0.58034039647E+03  0.50400001928E-02 0. -1.
</event>
<event>
 5   0  0.1087761E-03  0.1603959E+04  0.7818609E-02  0.8818119E-01
       -1   -1    0    0    0  501  0.00000000000E+00  0.00000000000E+00  0.96192876243E+03  0.96192876244E+03  0.50400001928E-02 0.  1.
        1   -1    0    0  501    0  0.00000000000E+00  0.00000000000E+00 -0.66862689671E+03  0.66862689672E+03  0.50400001928E-02 0. -1.
    10030    2    1    2    0    0  0.00000000000E+00  0.00000000000E+00  0.29330186572E+03  0.16305556592E+04  0.16039594051E+04 0.  0.
        3    1    3    3  502    0 -0.53453879220E+03 -0.57968962598E+03  0.29536278873E+03  0.84202789146E+03  0.10100000352E+00 0.  1.
       -3    1    3    3    0  502  0.53453879220E+03  0.57968962598E+03 -0.20609230138E+01  0.78852776770E+03  0.10100000352E+00 0. -1.
</event>
<event>
 5   0  0.1961098E-03  0.1353731E+04  0.7818609E-02  0.8988009E-01
        2   -1    0    0  501    0  0.00000000000E+00  0.00000000000E+00  0.73670363303E+03  0.73670363303E+03  0.25500000920E-02 0. -1.
       -2   -1    0    0    0  501  0.00000000000E+00  0.00000000000E+00 -0.62188721983E+03  0.62188721983E+03  0.25500000920E-02 0.  1.
    10030    2    1    2    0    0  0.00000000000E+00  0.00000000000E+00  0.11481641320E+03  0.13585908529E+04  0.13537305111E+04 0.  0.
        2    1    3    3  502    0 -0.71338823597E+02  0.46266006207E+03 -0.43322637688E+03  0.63783121154E+03  0.25500000920E-02 0.  1.
       -2    1    3    3    0  502  0.71338823597E+02 -0.46266006207E+03  0.54804279008E+03  0.72075964132E+03  0.25500000920E-02 0. -1.
</event>
<event>
 5   0  0.1077140E-03  0.1443401E+04  0.7818609E-02  0.8922988E-01
        1   -1    0    0  501    0  0.00000000000E+00  0.00000000000E+00  0.58590191700E+03  0.58590191702E+03  0.50400001928E-02 0. -1.
       -1   -1    0    0    0  501  0.00000000000E+00  0.00000000000E+00 -0.88897374036E+03  0.88897374037E+03  0.50400001928E-02 0.  1.
    10030    2    1    2    0    0  0.00000000000E+00  0.00000000000E+00 -0.30307182336E+03  0.14748756574E+04  0.14434007325E+04 0.  0.
        1    1    3    3  502    0 -0.28278251173E+03 -0.22268993770E+03  0.48764007078E+03  0.60609371878E+03  0.50400001928E-02 0. -1.
       -1    1    3    3    0  502  0.28278251173E+03  0.22268993770E+03 -0.79071189414E+03  0.86878193861E+03  0.50400001928E-02 0.  1.
</event>
<event>
 5   0  0.1087761E-03  0.1502917E+04  0.7818609E-02  0.8882515E-01
       -1   -1    0    0    0  501  0.00000000000E+00  0.00000000000E+00  0.53820376930E+03  0.53820376933E+03  0.50400001928E-02 0. -1.
        1   -1    0    0  501    0  0.00000000000E+00  0.00000000000E+00 -0.10492120816E+04  0.10492120816E+04  0.50400001928E-02 0.  1.
    10030    2    1    2    0    0  0.00000000000E+00  0.00000000000E+00 -0.51100831231E+03  0.15874158510E+04  0.15029170265E+04 0.  0.
        3    1    3    3  502    0 -0.48708290898E+03  0.24051686206E+03  0.29291045838E+03  0.61716664523E+03  0.10100000352E+00 0. -1.
       -3    1    3    3    0  502  0.48708290898E+03 -0.24051686206E+03 -0.80391877069E+03  0.97024920573E+03  0.10100000352E+00 0.  1.
</event>
<event>
 5   0  0.1077140E-03  0.1499073E+04  0.7818609E-02  0.8885070E-01
       -1   -1    0    0    0  501  0.00000000000E+00  0.00000000000E+00  0.54116010133E+03  0.54116010135E+03  0.50400001928E-02 0.  1.
        1   -1    0    0  501    0  0.00000000000E+00  0.00000000000E+00 -0.10381487656E+04  0.10381487657E+04  0.50400001928E-02 0. -1.
    10030    2    1    2    0    0  0.00000000000E+00  0.00000000000E+00 -0.49698866431E+03  0.15793088670E+04  0.14990726350E+04 0.  0.
        1    1    3    3  502    0 -0.56757837542E+03  0.40253372854E+03 -0.54202143966E+03  0.88202372753E+03  0.50400001928E-02 0. -1.
       -1    1    3    3    0  502  0.56757837542E+03 -0.40253372854E+03  0.45032775347E+02  0.69728513948E+03  0.50400001928E-02 0.  1.
</event>
<event>
 5   0  0.2111533E-03  0.1518286E+04  0.7818609E-02  0.8872383E-01
        2   -1    0    0  501    0  0.00000000000E+00  0.00000000000E+00  0.13573361003E+04  0.13573361004E+04  0.25500000920E-02 0.  1.
       -2   -1    0    0    0  501  0.00000000000E+00  0.00000000000E+00 -0.42458039587E+03  0.42458039588E+03  0.25500000920E-02 0. -1.
    10030    2    1    2    0    0  0.00000000000E+00  0.00000000000E+00  0.93275570448E+03  0.17819164962E+04  0.15182862692E+04 0.  0.
        5    1    3    3  502    0  0.34778546548E+03  0.45290451465E+03 -0.12067398404E+03  0.58366217096E+03  0.46999998093E+01 0. -1.
       -5    1    3    3    0  502 -0.34778546548E+03 -0.45290451465E+03  0.10534296885E+04  0.11982543253E+04  0.46999998093E+01 0.  1.
</event>
<event>
 5   0  0.2150197E-03  0.1475452E+04  0.7818609E-02  0.8900943E-01
        2   -1    0    0  501    0  0.00000000000E+00  0.00000000000E+00  0.11560381501E+04  0.11560381501E+04  0.25500000920E-02 0.  1.
       -2   -1    0    0    0  501  0.00000000000E+00  0.00000000000E+00 -0.47077990933E+03  0.47077990934E+03  0.25500000920E-02 0. -1.
    10030    2    1    2    0    0  0.00000000000E+00  0.00000000000E+00  0.68525824080E+03  0.16268180595E+04  0.14754518434E+04 0.  0.
        3    1    3    3  502    0 -0.66165467401E+03  0.31050984993E+03  0.23217047891E+03  0.76688096601E+03  0.10100000352E+00 0.  1.
       -3    1    3    3    0  502  0.66165467401E+03 -0.31050984993E+03  0.45308776189E+03  0.85993709347E+03  0.10100000352E+00 0. -1.
</event>
<event>
 5   0  0.2094566E-03  0.1498874E+04  0.7818609E-02  0.8885202E-01
        2   -1    0    0  501    0  0.00000000000E+00  0.00000000000E+00  0.69344335424E+03  0.69344335425E+03  0.25500000920E-02 0.  1.
       -2   -1    0    0    0  501  0.00000000000E+00  0.00000000000E+00 -0.80995187336E+03  0.80995187337E+03  0.25500000920E-02 0. -1.
    10030    2    1    2    0    0  0.00000000000E+00  0.00000000000E+00 -0.11650851912E+03  0.15033952276E+04  0.14988739024E+04 0.  0.
        1    1    3    3  502    0  0.24217957158E+03  0.67292137961E+03 -0.28294252411E+03  0.76911026517E+03  0.50400001928E-02 0. -1.
       -1    1    3    3    0  502 -0.24217957158E+03 -0.67292137961E+03  0.16643400499E+03  0.73428496244E+03  0.50400001928E-02 0.  1.
</event>
<event>
 5   0  0.1069697E-03  0.1508782E+04  0.7818609E-02  0.8878634E-01
        1   -1    0    0  501    0  0.00000000000E+00  0.00000000000E+00  0.17710089461E+04  0.17710089461E+04  0.50400001928E-02 0. -1.
       -1   -1    0    0    0  501  0.00000000000E+00  0.00000000000E+00 -0.32134565741E+03  0.32134565745E+03  0.50400001928E-02 0.  1.
    10030    2    1    2    0    0  0.00000000000E+00  0.00000000000E+00  0.14496632887E+04  0.20923546036E+04  0.15087823357E+04 0.  0.
        2    1    3    3  502    0 -0.61565997386E+03  0.43485842701E+03  0.68170782127E+03  0.10162994679E+04  0.25500000920E-02 0.  1.
       -2    1    3    3    0  502  0.61565997386E+03 -0.43485842701E+03  0.76795546743E+03  0.10760551356E+04  0.25500000920E-02 0. -1.
</event>
<event>
 5   0  0.1077140E-03  0.1516962E+04  0.7818609E-02  0.8873251E-01
        1   -1    0    0  501    0  0.00000000000E+00  0.00000000000E+00  0.11512491697E+04  0.11512491697E+04  0.50400001928E-02 0. -1.
       -1   -1    0    0    0  501  0.00000000000E+00  0.00000000000E+00 -0.49971224823E+03  0.49971224826E+03  0.50400001928E-02 0.  1.
    10030    2    1    2    0    0  0.00000000000E+00  0.00000000000E+00  0.65153692149E+03  0.16509614180E+04  0.15169618465E+04 0.  0.
        1    1    3    3  502    0  0.57057919495E+03  0.20994901545E+03 -0.16778131251E+03  0.63070577582E+03  0.50400001928E-02 0.  1.
       -1    1    3    3    0  502 -0.57057919495E+03 -0.20994901545E+03  0.81931823399E+03  0.10202556422E+04  0.50400001928E-02 0. -1.
</event>
<event>
 5   0  0.2111533E-03  0.1561121E+04  0.7818609E-02  0.8844795E-01
       -2   -1    0    0    0  501  0.00000000000E+00  0.00000000000E+00  0.34407428635E+03  0.34407428636E+03  0.25500000920E-02 0.  1.
        2   -1    0    0  501    0  0.00000000000E+00  0.00000000000E+00 -0.17707656415E+04  0.17707656415E+04  0.25500000920E-02 0. -1.
    10030    2    1    2    0    0  0.00000000000E+00  0.00000000000E+00 -0.14266913551E+04  0.21148399278E+04  0.15611212950E+04 0.  0.
        5    1    3    3  502    0 -0.69609200885E+03  0.79473865713E+02 -0.24721978072E+03  0.74296695087E+03  0.46999998093E+01 0.  1.
       -5    1    3    3    0  502  0.69609200885E+03 -0.79473865713E+02 -0.11794715744E+04  0.13718729770E+04  0.46999998093E+01 0. -1.
</event>
<event>
 5   0  0.1078787E-03  0.1461168E+04  0.7818609E-02  0.8910694E-01
        1   -1    0    0  501    0  0.00000000000E+00  0.00000000000E+00  0.55149189954E+03  0.55149189956E+03  0.50400001928E-02 0.  1.
       -1   -1    0    0    0  501  0.00000000000E+00  0.00000000000E+00 -0.96783457222E+03  0.96783457224E+03  0.50400001928E-02 0. -1.
    10030    2    1    2    0    0  0.00000000000E+00  0.00000000000E+00 -0.41634267269E+03  0.15193264718E+04  0.14611679256E+04 0.  0.
        5    1    3    3  502    0 -0.23793864341E+03 -0.54531989605E+03 -0.64900632923E+03  0.88046572474E+03  0.46999998093E+01 0. -1.
       -5    1    3    3    0  502  0.23793864341E+03  0.54531989605E+03  0.23266365655E+03  0.63886074706E+03  0.46999998093E+01 0.  1.
</event>
<event>
 5   0  0.1078018E-03  0.1539310E+04  0.7818609E-02  0.8858725E-01
        1   -1    0    0  501    0  0.00000000000E+00  0.00000000000E+00  0.10460806109E+04  0.10460806109E+04  0.50400001928E-02 0. -1.
       -1   -1    0    0    0  501  0.00000000000E+00  0.00000000000E+00 -0.56627447405E+03  0.56627447408E+03  0.50400001928E-02 0.  1.
    10030    2    1    2    0    0  0.00000000000E+00  0.00000000000E+00  0.47980613686E+03  0.16123550850E+04  0.15393099074E+04 0.  0.
        4    1    3    3  502    0  0.50049447778E+03 -0.33846616303E+03  0.73930110416E+03  0.95478887787E+03  0.12699999809E+01 0. -1.
       -4    1    3    3    0  502 -0.50049447778E+03  0.33846616303E+03 -0.25949496729E+03  0.65756620713E+03  0.12699999809E+01 0.  1.
</event>
<event>
 5   0  0.2111533E-03  0.1434980E+04  0.7818609E-02  0.8928881E-01
        2   -1    0    0  501    0  0.00000000000E+00  0.00000000000E+00  0.13487053014E+04  0.13487053014E+04  0.25500000920E-02 0.  1.
       -2   -1    0    0    0  501  0.00000000000E+00  0.00000000000E+00 -0.38169319460E+03  0.38169319460E+03  0.25500000920E-02 0. -1.
    10030    2    1    2    0    0  0.00000000000E+00  0.00000000000E+00  0.96701210685E+03  0.17303984961E+04  0.14349796306E+04 0.  0.
        5    1    3    3  502    0  0.53375419259E+03 -0.41796151230E+03  0.76678069207E+03  0.10235038269E+04  0.46999998093E+01 0.  1.
       -5    1    3    3    0  502 -0.53375419259E+03  0.41796151230E+03  0.20023141478E+03  0.70689466919E+03  0.46999998093E+01 0. -1.
</event>
<event>
 5   0  0.7468375E-04  0.1490207E+04  0.7818609E-02  0.8890991E-01
       -3   -1    0    0    0  501  0.00000000000E+00  0.00000000000E+00  0.86956622603E+03  0.86956623190E+03  0.10100000352E+00 0. -1.
        3   -1    0    0  501    0  0.00000000000E+00  0.00000000000E+00 -0.63845578375E+03  0.63845579174E+03  0.10100000352E+00 0.  1.
    10030    2    1    2    0    0  0.00000000000E+00  0.00000000000E+00  0.23111044229E+03  0.15080220236E+04  0.14902074980E+04 0.  0.
        4    1    3    3  502    0  0.40006923993E+03  0.61538429314E+03 -0.14135958927E+02  0.73413531669E+03  0.12699999809E+01 0.  1.
       -4    1    3    3    0  502 -0.40006923993E+03 -0.61538429314E+03  0.24524640121E+03  0.77388670695E+03  0.12699999809E+01 0. -1.
</event>
<event>
 5   0  0.2111533E-03  0.1486199E+04  0.7818609E-02  0.8893683E-01
        2   -1    0    0  501    0  0.00000000000E+00  0.00000000000E+00  0.17314717207E+04  0.17314717207E+04  0.25500000920E-02 0. -1.
       -2   -1    0    0    0  501  0.00000000000E+00  0.00000000000E+00 -0.31891761439E+03  0.31891761440E+03  0.25500000920E-02 0.  1.
    10030    2    1    2    0    0  0.00000000000E+00  0.00000000000E+00  0.14125541063E+04  0.20503893351E+04  0.14861989511E+04 0.  0.
        5    1    3    3  502    0 -0.25589249895E+03 -0.40158368798E+03  0.14932945377E+04  0.15673867091E+04  0.46999998093E+01 0. -1.
       -5    1    3    3    0  502  0.25589249895E+03  0.40158368798E+03 -0.80740431413E+02  0.48300262601E+03  0.46999998093E+01 0.  1.
</event>
<event>
 5   0  0.1993623E-03  0.1499032E+04  0.7818609E-02  0.8885097E-01
       -2   -1    0    0    0  501  0.00000000000E+00  0.00000000000E+00  0.55456867645E+03  0.55456867646E+03  0.25500000920E-02 0.  1.
        2   -1    0    0  501    0  0.00000000000E+00  0.00000000000E+00 -0.10129933336E+04  0.10129933337E+04  0.25500000920E-02 0. -1.
    10030    2    1    2    0    0  0.00000000000E+00  0.00000000000E+00 -0.45842465720E+03  0.15675620101E+04  0.14990321842E+04 0.  0.
        4    1    3    3  502    0  0.50783519518E+02  0.51535982270E+03  0.33740565403E+03  0.61807677596E+03  0.12699999809E+01 0.  1.
       -4    1    3    3    0  502 -0.50783519518E+02 -0.51535982270E+03 -0.79583031122E+03  0.94948523415E+03  0.12699999809E+01 0. -1.
</event>
<event>
 5   0  0.2094566E-03  0.1519967E+04  0.7818609E-02  0.8871283E-01
        2   -1    0    0  501    0  0.00000000000E+00  0.00000000000E+00  0.91678987569E+03  0.91678987570E+03  0.25500000920E-02 0.  1.
       -2   -1    0    0    0  501  0.00000000000E+00  0.00000000000E+00 -0.62999673835E+03  0.62999673835E+03  0.25500000920E-02 0. -1.
    10030    2    1    2    0    0  0.00000000000E+00  0.00000000000E+00  0.28679313735E+03  0.15467866140E+04  0.15199666200E+04 0.  0.
        1    1    3    3  502    0 -0.23348995601E+02 -0.44950034984E+03 -0.47976371288E+03  0.65785177686E+03  0.50400001928E-02 0. -1.
       -1    1    3    3    0  502  0.23348995601E+02  0.44950034984E+03  0.76655685022E+03  0.88893483718E+03  0.50400001928E-02 0.  1.
</event>
<event>
 5   0  0.2094566E-03  0.1489021E+04  0.7818609E-02  0.8891787E-01
        2   -1    0    0  501    0  0.00000000000E+00  0.00000000000E+00  0.31825414839E+03  0.31825414840E+03  0.25500000920E-02 0. -1.
       -2   -1    0    0    0  501  0.00000000000E+00  0.00000000000E+00 -0.17416763068E+04  0.17416763068E+04  0.25500000920E-02 0.  1.
    10030    2    1    2    0    0  0.00000000000E+00  0.00000000000E+00 -0.14234221584E+04  0.20599304552E+04  0.14890207652E+04 0.  0.
        1    1    3    3  502    0  0.50698208002E+03 -0.51923644921E+03 -0.94178386611E+03  0.11889466641E+04  0.50400001928E-02 0.  1.
       -1    1    3    3    0  502 -0.50698208002E+03  0.51923644921E+03 -0.48163829226E+03  0.87098379104E+03  0.50400001928E-02 0. -1.
</event>
<event>
 5   0  0.1069697E-03  0.1533177E+04  0.7818609E-02  0.8862685E-01
       -1   -1    0    0    0  501  0.00000000000E+00  0.00000000000E+00  0.38553600613E+03  0.38553600617E+03  0.50400001928E-02 0.  1.
        1   -1    0    0  501    0  0.00000000000E+00  0.00000000000E+00 -0.15242628019E+04  0.15242628019E+04  0.50400001928E-02 0. -1.
    10030    2    1    2    0    0  0.00000000000E+00  0.00000000000E+00 -0.11387267958E+04  0.19097988081E+04  0.15331773452E+04 0.  0.
        2    1    3    3  502    0 -0.80802477334E+02 -0.43241064729E+03  0.21267142472E+03  0.48860735068E+03  0.25500000920E-02 0.  1.
       -2    1    3    3    0  502  0.80802477334E+02  0.43241064729E+03 -0.13513982205E+04  0.14211914574E+04  0.25500000920E-02 0. -1.
</event>
<event>
 5   0  0.2094566E-03  0.1499353E+04  0.7818609E-02  0.8884883E-01
        2   -1    0    0  501    0  0.00000000000E+00  0.00000000000E+00  0.13277196173E+04  0.13277196173E+04  0.25500000920E-02 0. -1.
       -2   -1    0    0    0  501  0.00000000000E+00  0.00000000000E+00 -0.42329327502E+03  0.42329327503E+03  0.25500000920E-02 0.  1.
    10030    2    1    2    0    0  0.00000000000E+00  0.00000000000E+00  0.90442634229E+03  0.17510128923E+04  0.14993529073E+04 0.  0.
        1    1    3    3  502    0  0.46895447459E+02  0.74819826008E+03  0.44769529626E+03  0.87317289107E+03  0.50400001928E-02 0. -1.
       -1    1    3    3    0  502 -0.46895447459E+02 -0.74819826008E+03  0.45673104602E+03  0.87784000126E+03  0.50400001928E-02 0.  1.
</event>
<event>
 5   0  0.1078787E-03  0.1530963E+04  0.7818609E-02  0.8864120E-01
        1   -1    0    0  501    0  0.00000000000E+00  0.00000000000E+00  0.18719885027E+04  0.18719885027E+04  0.50400001928E-02 0.  1.
       -1   -1    0    0    0  501  0.00000000000E+00  0.00000000000E+00 -0.31301558704E+03  0.31301558708E+03  0.50400001928E-02 0. -1.
    10030    2    1    2    0    0  0.00000000000E+00  0.00000000000E+00  0.15589729156E+04  0.21850040897E+04  0.15309625471E+04 0.  0.
        5    1    3    3  502    0  0.72634118599E+03  0.91316610043E+02  0.10987135023E+04  0.13202665230E+04  0.46999998093E+01 0.  1.
       -5    1    3    3    0  502 -0.72634118599E+03 -0.91316610043E+02  0.46025941335E+03  0.86473756673E+03  0.46999998093E+01 0. -1.
</event>
<event>
 5   0  0.1087761E-03  0.1532523E+04  0.7818609E-02  0.8863109E-01
        1   -1    0    0  501    0  0.00000000000E+00  0.00000000000E+00  0.86032737977E+03  0.86032737979E+03  0.50400001928E-02 0. -1.
       -1   -1    0    0    0  501  0.00000000000E+00  0.00000000000E+00 -0.68248087514E+03  0.68248087516E+03  0.50400001928E-02 0.  1.
    10030    2    1    2    0    0  0.00000000000E+00  0.00000000000E+00  0.17784650463E+03  0.15428082549E+04  0.15325233872E+04 0.  0.
        3    1    3    3  502    0  0.68310983064E+03 -0.19603848811E+02 -0.26000579714E+03  0.73118149345E+03  0.10100000352E+00 0.  1.
       -3    1    3    3    0  502 -0.68310983064E+03  0.19603848811E+02  0.43785230177E+03  0.81162676150E+03  0.10100000352E+00 0. -1.
</event>
<event>
 5   0  0.1993623E-03  0.1480146E+04  0.7818609E-02  0.8897764E-01
       -2   -1    0    0    0  501  0.00000000000E+00  0.00000000000E+00  0.40429005100E+03  0.40429005101E+03  0.25500000920E-02 0.  1.
        2   -1    0    0  501    0  0.00000000000E+00  0.00000000000E+00 -0.13547395591E+04  0.13547395591E+04  0.25500000920E-02 0. -1.
    10030    2    1    2    0    0  0.00000000000E+00  0.00000000000E+00 -0.95044950807E+03  0.17590296101E+04  0.14801455678E+04 0.  0.
        4    1    3    3  502    0  0.29395078847E+03  0.63721377127E+03 -0.75458522299E+03  0.10304605417E+04  0.12699999809E+01 0. -1.
       -4    1    3    3    0  502 -0.29395078847E+03 -0.63721377127E+03 -0.19586428508E+03  0.72856906839E+03  0.12699999809E+01 0.  1.
</event>
<event>
 5   0  0.1077140E-03  0.1316658E+04  0.7818609E-02  0.9016459E-01
       -1   -1    0    0    0  501  0.00000000000E+00  0.00000000000E+00  0.24267865493E+03  0.24267865499E+03  0.50400001928E-02 0.  1.
        1   -1    0    0  501    0  0.00000000000E+00  0.00000000000E+00 -0.17858882106E+04  0.17858882106E+04  0.50400001928E-02 0. -1.
    10030    2    1    2    0    0  0.00000000000E+00  0.00000000000E+00 -0.15432095557E+04  0.20285668656E+04  0.13166578126E+04 0.  0.
        1    1    3    3  502    0  0.20739329970E+03 -0.60236237126E+03 -0.51590274360E+03  0.81976097001E+03  0.50400001928E-02 0.  1.
       -1    1    3    3    0  502 -0.20739329970E+03  0.60236237126E+03 -0.10273068121E+04  0.12088058956E+04  0.50400001928E-02 0. -1.
</event>
<event>
 5   0  0.2150197E-03  0.1490566E+04  0.7818609E-02  0.8890751E-01
        2   -1    0    0  501    0  0.00000000000E+00  0.00000000000E+00  0.98454282835E+03  0.98454282835E+03  0.25500000920E-02 0.  1.
       -2   -1    0    0    0  501  0.00000000000E+00  0.00000000000E+00 -0.56416720407E+03  0.56416720408E+03  0.25500000920E-02 0. -1.
    10030    2    1    2    0    0  0.00000000000E+00  0.00000000000E+00  0.42037562428E+03  0.15487100324E+04  0.14905660331E+04 0.  0.
        3    1    3    3  502    0  0.67624489657E+03  0.26844096366E+03  0.37797732132E+03  0.81989912595E+03  0.10100000352E+00 0.  1.
       -3    1    3    3    0  502 -0.67624489657E+03 -0.26844096366E+03  0.42398302959E+02  0.72881090648E+03  0.10100000352E+00 0. -1.
</event>
<event>
 5   0  0.2150197E-03  0.1509878E+04  0.7818609E-02  0.8877911E-01
        2   -1    0    0  501    0  0.00000000000E+00  0.00000000000E+00  0.12220780022E+04  0.12220780022E+04  0.25500000920E-02 0. -1.
       -2   -1    0    0    0  501  0.00000000000E+00  0.00000000000E+00 -0.46636345489E+03  0.46636345490E+03  0.25500000920E-02 0.  1.
    10030    2    1    2    0    0  0.00000000000E+00  0.00000000000E+00  0.75571454726E+03  0.16884414571E+04  0.15098775040E+04 0.  0.
        3    1    3    3  502    0 -0.72083569097E+03 -0.18913760559E+03  0.51277098633E+03  0.90460556147E+03  0.10100000352E+00 0. -1.
       -3    1    3    3    0  502  0.72083569097E+03  0.18913760559E+03  0.24294356093E+03  0.78383589559E+03  0.10100000352E+00 0.  1.
</event>
<event>
 5   0  0.2150197E-03  0.1507494E+04  0.7818609E-02  0.8879485E-01
       -2   -1    0    0    0  501  0.00000000000E+00  0.00000000000E+00  0.44876192478E+03  0.44876192479E+03  0.25500000920E-02 0.  1.
        2   -1    0    0  501    0  0.00000000000E+00  0.00000000000E+00 -0.12660035341E+04  0.12660035341E+04  0.25500000920E-02 0. -1.
    10030    2    1    2    0    0  0.00000000000E+00  0.00000000000E+00 -0.81724160931E+03  0.17147654589E+04  0.15074935260E+04 0.  0.
        3    1    3    3  502    0  0.56806319831E+03 -0.49231027301E+03 -0.34560556129E+03  0.82735023804E+03  0.10100000352E+00 0.  1.
       -3    1    3    3    0  502 -0.56806319831E+03  0.49231027301E+03 -0.47163604802E+03  0.88741522084E+03  0.10100000352E+00 0. -1.
</event>
<event>
 5   0  0.1069697E-03  0.1460271E+04  0.7818609E-02  0.8911311E-01
        1   -1    0    0  501    0  0.00000000000E+00  0.00000000000E+00  0.19039422649E+04  0.19039422649E+04  0.50400001928E-02 0. -1.
       -1   -1    0    0    0  501  0.00000000000E+00  0.00000000000E+00 -0.27999683468E+03  0.27999683472E+03  0.50400001928E-02 0.  1.
    10030    2    1    2    0    0  0.00000000000E+00  0.00000000000E+00  0.16239454302E+04  0.21839390996E+04  0.14602709442E+04 0.  0.
        2    1    3    3  502    0  0.26562202798E+03  0.60352991704E+03  0.34308221391E+03  0.74330937571E+03  0.25500000920E-02 0.  1.
       -2    1    3    3    0  502 -0.26562202798E+03 -0.60352991704E+03  0.12808632163E+04  0.14406297239E+04  0.25500000920E-02 0. -1.
</event>
<event>
 5   0  0.2111533E-03  0.1430906E+04  0.7818609E-02  0.8931746E-01
        2   -1    0    0  501    0  0.00000000000E+00  0.00000000000E+00  0.86596285629E+03  0.86596285629E+03  0.25500000920E-02 0. -1.
       -2   -1    0    0    0  501  0.00000000000E+00  0.00000000000E+00 -0.59110308177E+03  0.59110308178E+03  0.25500000920E-02 0.  1.
    10030    2    1    2    0    0  0.00000000000E+00  0.00000000000E+00  0.27485977451E+03  0.14570659381E+04  0.14309064443E+04 0.  0.
        5    1    3    3  502    0 -0.15315759356E+03  0.26414883390E+03 -0.52140657291E+03  0.60425057649E+03  0.46999998093E+01 0.  1.
       -5    1    3    3    0  502  0.15315759356E+03 -0.26414883390E+03  0.79626634742E+03  0.85281536158E+03  0.46999998093E+01 0. -1.
</event>
<event>
 5   0  0.2111533E-03  0.1645914E+04  0.7818609E-02  0.8792827E-01
       -2   -1    0    0    0  501  0.00000000000E+00  0.00000000000E+00  0.64665745773E+03  0.64665745773E+03  0.25500000920E-02 0.  1.
        2   -1    0    0  501    0  0.00000000000E+00  0.00000000000E+00 -0.10473218889E+04  0.10473218889E+04  0.25500000920E-02 0. -1.
    10030    2    1    2    0    0  0.00000000000E+00  0.00000000000E+00 -0.40066443120E+03  0.16939793467E+04  0.16459143479E+04 0.  0.
        5    1    3    3  502    0  0.59977708935E+03 -0.38618219248E+03  0.22197606347E+03  0.74710421324E+03  0.46999998093E+01 0.  1.
       -5    1    3    3    0  502 -0.59977708935E+03  0.38618219248E+03 -0.62264049466E+03  0.94687513342E+03  0.46999998093E+01 0. -1.
</event>
<event>
 5   0  0.1993623E-03  0.1419907E+04  0.7818609E-02  0.8939533E-01
        2   -1    0    0  501    0  0.00000000000E+00  0.00000000000E+00  0.92049524487E+03  0.92049524488E+03  0.25500000920E-02 0.  1.
       -2   -1    0    0    0  501  0.00000000000E+00  0.00000000000E+00 -0.54756862666E+03  0.54756862666E+03  0.25500000920E-02 0. -1.
    10030    2    1    2    0    0  0.00000000000E+00  0.00000000000E+00  0.37292661822E+03  0.14680638715E+04  0.14199074858E+04 0.  0.
        4    1    3    3  502    0  0.13980569271E+03 -0.47508047590E+03 -0.33949941628E+03  0.60042364781E+03  0.12699999809E+01 0. -1.
       -4    1    3    3    0  502 -0.13980569271E+03  0.47508047590E+03  0.71242603450E+03  0.86764022373E+03  0.12699999809E+01 0.  1.
</event>
<event>
 5   0  0.1993623E-03  0.1183367E+04  0.7818609E-02  0.9127541E-01
        2   -1    0    0  501    0  0.00000000000E+00  0.00000000000E+00  0.10422667907E+04  0.10422667907E+04  0.25500000920E-02 0.  1.
       -2   -1    0    0    0  501  0.00000000000E+00  0.00000000000E+00 -0.33589242800E+03  0.33589242801E+03  0.25500000920E-02 0. -1.
    10030    2    1    2    0    0  0.00000000000E+00  0.00000000000E+00  0.70637436268E+03  0.13781592187E+04  0.11833672683E+04 0.  0.
        4    1    3    3  502    0  0.19215232535E+03 -0.54520189583E+03  0.20624202202E+03  0.61376299000E+03  0.12699999809E+01 0. -1.
       -4    1    3    3    0  502 -0.19215232535E+03  0.54520189583E+03  0.50013234065E+03  0.76439622868E+03  0.12699999809E+01 0.  1.
</event>
<event>
 5   0  0.1078018E-03  0.1467117E+04  0.7818609E-02  0.8906619E-01
        1   -1    0    0  501    0  0.00000000000E+00  0.00000000000E+00  0.65665757044E+03  0.65665757046E+03  0.50400001928E-02 0. -1.
       -1   -1    0    0    0  501  0.00000000000E+00  0.00000000000E+00 -0.81946479118E+03  0.81946479120E+03  0.50400001928E-02 0.  1.
    10030    2    1    2    0    0  0.00000000000E+00  0.00000000000E+00 -0.16280722075E+03  0.14761223617E+04  0.14671165719E+04 0.  0.
        4    1    3    3  502    0 -0.47583586275E+03  0.23724139476E+03 -0.58987983074E+03  0.79414298163E+03  0.12699999809E+01 0.  1.
       -4    1    3    3    0  502  0.47583586275E+03 -0.23724139476E+03  0.42707260999E+03  0.68197938002E+03  0.12699999809E+01 0. -1.
</event>
<event>
 5   0  0.2150197E-03  0.1506436E+04  0.7818609E-02  0.8880185E-01
        2   -1    0    0  501    0  0.00000000000E+00  0.00000000000E+00  0.98984557486E+03  0.98984557486E+03  0.25500000920E-02 0.  1.
       -2   -1    0    0    0  501  0.00000000000E+00  0.00000000000E+00 -0.57315714530E+03  0.57315714530E+03  0.25500000920E-02 0. -1.
    10030    2    1    2    0    0  0.00000000000E+00  0.00000000000E+00  0.41668842956E+03  0.15630027202E+04  0.15064356129E+04 0.  0.
        3    1    3    3  502    0 -0.18785556062E+03 -0.20338381516E+03  0.93513495428E+03  0.97526000679E+03  0.10100000352E+00 0.  1.
       -3    1    3    3    0  502  0.18785556062E+03  0.20338381516E+03 -0.51844652473E+03  0.58774271337E+03  0.10100000352E+00 0. -1.
</event>
<event>
 5   0  0.1078018E-03  0.1476029E+04  0.7818609E-02  0.8900552E-01
       -1   -1    0    0    0  501  0.00000000000E+00  0.00000000000E+00  0.75586112687E+03  0.75586112688E+03  0.50400001928E-02 0. -1.
        1   -1    0    0  501    0  0.00000000000E+00  0.00000000000E+00 -0.72058897825E+03  0.72058897827E+03  0.50400001928E-02 0.  1.
    10030    2    1    2    0    0  0.00000000000E+00  0.00000000000E+00  0.35272148617E+02  0.14764501051E+04  0.14760287221E+04 0.  0.
        4    1    3    3  502    0 -0.37538650323E+03  0.67903953956E+02  0.64958982106E+03  0.75332232298E+03  0.12699999809E+01 0. -1.
       -4    1    3    3    0  502  0.37538650323E+03 -0.67903953956E+02 -0.61431767244E+03  0.72312778217E+03  0.12699999809E+01 0.  1.
</event>
<event>
 5   0  0.2094566E-03  0.1222798E+04  0.7818609E-02  0.9093133E-01
       -2   -1    0    0    0  501  0.00000000000E+00  0.00000000000E+00  0.28571338520E+03  0.28571338521E+03  0.25500000920E-02 0. -1.
        2   -1    0    0  501    0  0.00000000000E+00  0.00000000000E+00 -0.13083337227E+04  0.13083337227E+04  0.25500000920E-02 0.  1.
    10030    2    1    2    0    0  0.00000000000E+00  0.00000000000E+00 -0.10226203375E+04  0.15940471079E+04  0.12227975416E+04 0.  0.
        1    1    3    3  502    0  0.10204990710E+03 -0.33375505823E+03  0.14309759928E+03  0.37720491166E+03  0.50400001928E-02 0. -1.
       -1    1    3    3    0  502 -0.10204990710E+03  0.33375505823E+03 -0.11657179368E+04  0.12168421963E+04  0.50400001928E-02 0.  1.
</event>
<event>
 5   0  0.1961098E-03  0.1552988E+04  0.7818609E-02  0.8849961E-01
        2   -1    0    0  501    0  0.00000000000E+00  0.00000000000E+00  0.11599278780E+04  0.11599278780E+04  0.25500000920E-02 0.  1.
       -2   -1    0    0    0  501  0.00000000000E+00  0.00000000000E+00 -0.51981095467E+03  0.51981095468E+03  0.25500000920E-02 0. -1.
    10030    2    1    2    0    0  0.00000000000E+00  0.00000000000E+00  0.64011692333E+03  0.16797388327E+04  0.15529883678E+04 0.  0.
        2    1    3    3  502    0 -0.40238743054E+03  0.23151839230E+03 -0.35317918553E+03  0.58331119253E+03  0.25500000920E-02 0. -1.
       -2    1    3    3    0  502  0.40238743054E+03 -0.23151839230E+03  0.99329610886E+03  0.10964276402E+04  0.25500000920E-02 0.  1.
</event>
<event>
 5   0  0.1077140E-03  0.1493972E+04  0.7818609E-02  0.8888471E-01
       -1   -1    0    0    0  501  0.00000000000E+00  0.00000000000E+00  0.90529798001E+03  0.90529798003E+03  0.50400001928E-02 0.  1.
        1   -1    0    0  501    0  0.00000000000E+00  0.00000000000E+00 -0.61635860172E+03  0.61635860174E+03  0.50400001928E-02 0. -1.
    10030    2    1    2    0    0  0.00000000000E+00  0.00000000000E+00  0.28893937829E+03  0.15216565818E+04  0.14939721512E+04 0.  0.
        1    1    3    3  502    0  0.43143269434E+03  0.26016212047E+03 -0.41726613372E+03  0.65416322508E+03  0.50400001928E-02 0. -1.
       -1    1    3    3    0  502 -0.43143269434E+03 -0.26016212047E+03  0.70620551201E+03  0.86749335669E+03  0.50400001928E-02 0.  1.
</event>
<event>
 5   0  0.1069697E-03  0.1572460E+04  0.7818609E-02  0.8837648E-01
        1   -1    0    0  501    0  0.00000000000E+00  0.00000000000E+00  0.77577180230E+03  0.77577180232E+03  0.50400001928E-02 0. -1.
       -1   -1    0    0    0  501  0.00000000000E+00  0.00000000000E+00 -0.79682890257E+03  0.79682890259E+03  0.50400001928E-02 0.  1.
    10030    2    1    2    0    0  0.00000000000E+00  0.00000000000E+00 -0.21057100270E+02  0.15726007049E+04  0.15724597215E+04 0.  0.
        2    1    3    3  502    0 -0.35352856690E+03  0.35174538319E+03 -0.61840714238E+03  0.79443983785E+03  0.25500000920E-02 0.  1.
       -2    1    3    3    0  502  0.35352856690E+03 -0.35174538319E+03  0.59735004211E+03  0.77816086706E+03  0.25500000920E-02 0. -1.
</event>
<event>
 5   0  0.1993623E-03  0.1474785E+04  0.7818609E-02  0.8901396E-01
        2   -1    0    0  501    0  0.00000000000E+00  0.00000000000E+00  0.11457235850E+04  0.11457235850E+04  0.25500000920E-02 0.  1.
       -2   -1    0    0    0  501  0.00000000000E+00  0.00000000000E+00 -0.47458887154E+03  0.47458887155E+03  0.25500000920E-02 0. -1.
    10030    2    1    2    0    0  0.00000000000E+00  0.00000000000E+00  0.67113471341E+03  0.16203124565E+04  0.14747849515E+04 0.  0.
        4    1    3    3  502    0  0.73281084045E+03  0.26341256433E+02  0.25017773181E+03  0.77478777743E+03  0.12699999809E+01 0. -1.
       -4    1    3    3    0  502 -0.73281084045E+03 -0.26341256433E+02  0.42095698160E+03  0.84552467907E+03  0.12699999809E+01 0.  1.
</event>
<event>
 5   0  0.1993623E-03  0.1643099E+04  0.7818609E-02  0.8794500E-01
       -2   -1    0    0    0  501  0.00000000000E+00  0.00000000000E+00  0.92914701290E+03  0.92914701291E+03  0.25500000920E-02 0.  1.
        2   -1    0    0  501    0  0.00000000000E+00  0.00000000000E+00 -0.72641177594E+03  0.72641177594E+03  0.25500000920E-02 0. -1.
    10030    2    1    2    0    0  0.00000000000E+00  0.00000000000E+00  0.20273523697E+03  0.16555587888E+04  0.16430986967E+04 0.  0.
        4    1    3    3  502    0 -0.48089989923E+03  0.61738286382E+03  0.35329448294E+03  0.85862967465E+03  0.12699999809E+01 0. -1.
       -4    1    3    3    0  502  0.48089989923E+03 -0.61738286382E+03 -0.15055924598E+03  0.79692911420E+03  0.12699999809E+01 0.  1.
</event>
<event>
 5   0  0.1078018E-03  0.1489942E+04  0.7818609E-02  0.8891169E-01
       -1   -1    0    0    0  501  0.00000000000E+00  0.00000000000E+00  0.11379044234E+04  0.11379044234E+04  0.50400001928E-02 0. -1.
        1   -1    0    0  501    0  0.00000000000E+00  0.00000000000E+00 -0.48772296852E+03  0.48772296855E+03  0.50400001928E-02 0.  1.
    10030    2    1    2    0    0  0.00000000000E+00  0.00000000000E+00  0.65018145485E+03  0.16256273919E+04  0.14899424463E+04 0.  0.
        4    1    3    3  502    0  0.37409495558E+03  0.44788982559E+02 -0.37610774116E+03  0.53236428751E+03  0.12699999809E+01 0.  1.
       -4    1    3    3    0  502 -0.37409495558E+03 -0.44788982559E+02  0.10262891960E+04  0.10932631044E+04  0.12699999809E+01 0. -1.
</event>
<event>
 5   0  0.1069697E-03  0.1481551E+04  0.7818609E-02  0.8896815E-01
       -1   -1    0    0    0  501  0.00000000000E+00  0.00000000000E+00  0.50219517195E+03  0.50219517198E+03  0.50400001928E-02 0. -1.
        1   -1    0    0  501    0  0.00000000000E+00  0.00000000000E+00 -0.10926989291E+04  0.10926989291E+04  0.50400001928E-02 0.  1.
    10030    2    1    2    0    0  0.00000000000E+00  0.00000000000E+00 -0.59050375711E+03  0.15948941011E+04  0.14815507100E+04 0.  0.
        2    1    3    3  502    0  0.33720585582E+03  0.61539709201E+03 -0.55074117054E+03  0.89204103437E+03  0.25500000920E-02 0.  1.
       -2    1    3    3    0  502 -0.33720585582E+03 -0.61539709201E+03 -0.39762586570E+02  0.70285306669E+03  0.25500000920E-02 0. -1.
</event>
<event>
 5   0  0.2111533E-03  0.1488949E+04  0.7818609E-02  0.8891835E-01
        2   -1    0    0  501    0  0.00000000000E+00  0.00000000000E+00  0.18481974250E+04  0.18481974250E+04  0.25500000920E-02 0. -1.
       -2   -1    0    0    0  501  0.00000000000E+00  0.00000000000E+00 -0.29988246477E+03  0.29988246478E+03  0.25500000920E-02 0.  1.
    10030    2    1    2    0    0  0.00000000000E+00  0.00000000000E+00  0.15483149602E+04  0.21480798898E+04  0.14889486213E+04 0.  0.
        5    1    3    3  502    0  0.52341001347E+03 -0.47586128496E+03  0.43947412875E+03  0.83280346094E+03  0.46999998093E+01 0.  1.
       -5    1    3    3    0  502 -0.52341001347E+03  0.47586128496E+03  0.11088408315E+04  0.13152764288E+04  0.46999998093E+01 0. -1.
</event>
<event>
 5   0  0.7468375E-04  0.1499097E+04  0.7818609E-02  0.8885054E-01
        4   -1    0    0  501    0  0.00000000000E+00  0.00000000000E+00  0.54608133424E+03  0.54608281103E+03  0.12699999809E+01 0. -1.
       -4   -1    0    0    0  501  0.00000000000E+00  0.00000000000E+00 -0.10288234304E+04  0.10288242143E+04  0.12699999809E+01 0.  1.
    10030    2    1    2    0    0  0.00000000000E+00  0.00000000000E+00 -0.48274209617E+03  0.15749070253E+04  0.14990971306E+04 0.  0.
        3    1    3    3  502    0  0.53838657919E+03  0.22635696612E+03 -0.73494400843E+03  0.93874399625E+03  0.10100000352E+00 0.  1.
       -3    1    3    3    0  502 -0.53838657919E+03 -0.22635696612E+03  0.25220191226E+03  0.63616302904E+03  0.10100000352E+00 0. -1.
</event>
<event>
 5   0  0.1078787E-03  0.1502567E+04  0.7818609E-02  0.8882748E-01
        1   -1    0    0  501    0  0.00000000000E+00  0.00000000000E+00  0.16380630397E+04  0.16380630397E+04  0.50400001928E-02 0. -1.
       -1   -1    0    0    0  501  0.00000000000E+00  0.00000000000E+00 -0.34456951763E+03  0.34456951767E+03  0.50400001928E-02 0.  1.
    10030    2    1    2    0    0  0.00000000000E+00  0.00000000000E+00  0.12934935220E+04  0.19826325573E+04  0.15025665928E+04 0.  0.
        5    1    3    3  502    0 -0.26140171982E+03  0.52989005123E+03  0.12589852256E+04  0.13907480770E+04  0.46999998093E+01 0. -1.
       -5    1    3    3    0  502  0.26140171982E+03 -0.52989005123E+03  0.34508296452E+02  0.59188448032E+03  0.46999998093E+01 0.  1.
</event>
<event>
 5   0  0.1961098E-03  0.1643461E+04  0.7818609E-02  0.8794284E-01
        2   -1    0    0  501    0  0.00000000000E+00  0.00000000000E+00  0.12374037686E+04  0.12374037686E+04  0.25500000920E-02 0.  1.
       -2   -1    0    0    0  501  0.00000000000E+00  0.00000000000E+00 -0.54569153730E+03  0.54569153731E+03  0.25500000920E-02 0. -1.
    10030    2    1    2    0    0  0.00000000000E+00  0.00000000000E+00  0.69171223132E+03  0.17830953059E+04  0.16434606959E+04 0.  0.
        2    1    3    3  502    0 -0.20599938750E+03  0.79548475574E+03  0.34911471071E+03  0.89281175256E+03  0.25500000920E-02 0. -1.
       -2    1    3    3    0  502  0.20599938750E+03 -0.79548475574E+03  0.34259752061E+03  0.89028355337E+03  0.25500000920E-02 0.  1.
</event>
<event>
 5   0  0.1078018E-03  0.1578245E+04  0.7818609E-02  0.8834026E-01
        1   -1    0    0  501    0  0.00000000000E+00  0.00000000000E+00  0.14255407366E+04  0.14255407366E+04  0.50400001928E-02 0. -1.
       -1   -1    0    0    0  501  0.00000000000E+00  0.00000000000E+00 -0.43682658924E+03  0.43682658926E+03  0.50400001928E-02 0.  1.
    10030    2    1    2    0    0  0.00000000000E+00  0.00000000000E+00  0.98871414740E+03  0.18623673259E+04  0.15782447185E+04 0.  0.
        4    1    3    3  502    0 -0.72153451376E+02 -0.12581469191E+03  0.14096765724E+04  0.14171185938E+04  0.12699999809E+01 0. -1.
       -4    1    3    3    0  502  0.72153451376E+02  0.12581469191E+03 -0.42096242502E+03  0.44524873208E+03  0.12699999809E+01 0.  1.
</event>
<event>
 5   0  0.2150197E-03  0.1470894E+04  0.7818609E-02  0.8904042E-01
       -2   -1    0    0    0  501  0.00000000000E+00  0.00000000000E+00  0.69233482457E+03  0.69233482457E+03  0.25500000920E-02 0. -1.
        2   -1    0    0  501    0  0.00000000000E+00  0.00000000000E+00 -0.78124411624E+03  0.78124411625E+03  0.25500000920E-02 0.  1.
    10030    2    1    2    0    0  0.00000000000E+00  0.00000000000E+00 -0.88909291671E+02  0.14735789408E+04  0.14708942969E+04 0.  0.
        3    1    3    3  502    0 -0.37719709864E+03  0.51674414958E+03  0.31894745102E+03  0.71486338140E+03  0.10100000352E+00 0. -1.
       -3    1    3    3    0  502  0.37719709864E+03 -0.51674414958E+03 -0.40785674269E+03  0.75871555942E+03  0.10100000352E+00 0.  1.
</event>
<event>
 5   0  0.1069697E-03  0.1495690E+04  0.7818609E-02  0.8887324E-01
        1   -1    0    0  501    0  0.00000000000E+00  0.00000000000E+00  0.47612615586E+03  0.47612615588E+03  0.50400001928E-02 0.  1.
       -1   -1    0    0    0  501  0.00000000000E+00  0.00000000000E+00 -0.11746297894E+04  0.11746297894E+04  0.50400001928E-02 0. -1.
    10030    2    1    2    0    0  0.00000000000E+00  0.00000000000E+00 -0.69850363355E+03  0.16507559453E+04  0.14956897622E+04 0.  0.
        2    1    3    3  502    0 -0.47022092510E+03 -0.26221505748E+03  0.22360515015E+03  0.58297831688E+03  0.25500000920E-02 0.  1.
       -2    1    3    3    0  502  0.47022092510E+03  0.26221505748E+03 -0.92210878370E+03  0.10677776284E+04  0.25500000920E-02 0. -1.
</event>
<event>
 5   0  0.1961098E-03  0.1508993E+04  0.7818609E-02  0.8878495E-01
       -2   -1    0    0    0  501  0.00000000000E+00  0.00000000000E+00  0.80646357243E+03  0.80646357244E+03  0.25500000920E-02 0. -1.
        2   -1    0    0  501    0  0.00000000000E+00  0.00000000000E+00 -0.70587803120E+03  0.70587803121E+03  0.25500000920E-02 0.  1.
    10030    2    1    2    0    0  0.00000000000E+00  0.00000000000E+00  0.10058554123E+03  0.15123416036E+04  0.15089929340E+04 0.  0.
        2    1    3    3  502    0 -0.62690967499E+03  0.19457384736E+02  0.47059268500E+03  0.78412486608E+03  0.25500000920E-02 0. -1.
       -2    1    3    3    0  502  0.62690967499E+03 -0.19457384736E+02 -0.37000714377E+03  0.72821673756E+03  0.25500000920E-02 0.  1.
</event>
<event>
 5   0  0.1087761E-03  0.1494172E+04  0.7818609E-02  0.8888338E-01
       -1   -1    0    0    0  501  0.00000000000E+00  0.00000000000E+00  0.82108991818E+03  0.82108991820E+03  0.50400001928E-02 0.  1.
        1   -1    0    0  501    0  0.00000000000E+00  0.00000000000E+00 -0.67975189003E+03  0.67975189005E+03  0.50400001928E-02 0. -1.
    10030    2    1    2    0    0  0.00000000000E+00  0.00000000000E+00  0.14133802815E+03  0.15008418082E+04  0.14941719095E+04 0.  0.
        3    1    3    3  502    0  0.11916421365E+03 -0.91579723896E+02 -0.66441088876E+03  0.68119659053E+03  0.10100000352E+00 0. -1.
       -3    1    3    3    0  502 -0.11916421365E+03  0.91579723896E+02  0.80574891690E+03  0.81964521772E+03  0.10100000352E+00 0.  1.
</event>
<event>
 5   0  0.1961098E-03  0.1493777E+04  0.7818609E-02  0.8888602E-01
       -2   -1    0    0    0  501  0.00000000000E+00  0.00000000000E+00  0.27101831978E+03  0.27101831979E+03  0.25500000920E-02 0.  1.
        2   -1    0    0  501    0  0.00000000000E+00  0.00000000000E+00 -0.20583201883E+04  0.20583201883E+04  0.25500000920E-02 0. -1.
    10030    2    1    2    0    0  0.00000000000E+00  0.00000000000E+00 -0.17873018685E+04  0.23293385081E+04  0.14937770637E+04 0.  0.
        2    1    3    3  502    0  0.66137012846E+02  0.32096513977E+03  0.15292319856E+03  0.36163272816E+03  0.25500000920E-02 0.  1.
       -2    1    3    3    0  502 -0.66137012846E+02 -0.32096513977E+03 -0.19402250671E+04  0.19677057799E+04  0.25500000920E-02 0. -1.
</event>
<event>
 5   0  0.1078787E-03  0.1398965E+04  0.7818609E-02  0.8954568E-01
       -1   -1    0    0    0  501  0.00000000000E+00  0.00000000000E+00  0.93858857072E+03  0.93858857074E+03  0.50400001928E-02 0.  1.
        1   -1    0    0  501    0  0.00000000000E+00  0.00000000000E+00 -0.52128886176E+03  0.52128886178E+03  0.50400001928E-02 0. -1.
    10030    2    1    2    0    0  0.00000000000E+00  0.00000000000E+00  0.41729970896E+03  0.14598774325E+04  0.13989649999E+04 0.  0.
        5    1    3    3  502    0 -0.42587463889E+03  0.45353194146E+03 -0.12494600115E+03  0.63458177028E+03  0.46999998093E+01 0. -1.
       -5    1    3    3    0  502  0.42587463889E+03 -0.45353194146E+03  0.54224571011E+03  0.82529566224E+03  0.46999998093E+01 0.  1.
</event>
<event>
 5   0  0.1078018E-03  0.1441743E+04  0.7818609E-02  0.8924145E-01
       -1   -1    0    0    0  501  0.00000000000E+00  0.00000000000E+00  0.88941297287E+03  0.88941297288E+03  0.50400001928E-02 0.  1.
        1   -1    0    0  501    0  0.00000000000E+00  0.00000000000E+00 -0.58426787938E+03  0.58426787940E+03  0.50400001928E-02 0. -1.
    10030    2    1    2    0    0  0.00000000000E+00  0.00000000000E+00  0.30514509349E+03  0.14736808523E+04  0.14417426006E+04 0.  0.
        4    1    3    3  502    0 -0.42027988745E+03  0.56950303644E+03  0.29229345656E+03  0.76577148677E+03  0.12699999809E+01 0. -1.
       -4    1    3    3    0  502  0.42027988745E+03 -0.56950303644E+03  0.12851636931E+02  0.70790936551E+03  0.12699999809E+01 0.  1.
</event>
<event>
 5   0  0.2150197E-03  0.1494977E+04  0.7818609E-02  0.8887800E-01
        2   -1    0    0  501    0  0.00000000000E+00  0.00000000000E+00  0.10330830705E+04  0.10330830705E+04  0.25500000920E-02 0.  1.
       -2   -1    0    0    0  501  0.00000000000E+00  0.00000000000E+00 -0.54084632272E+03  0.54084632272E+03  0.25500000920E-02 0. -1.
    10030    2    1    2    0    0  0.00000000000E+00  0.00000000000E+00  0.49223674775E+03  0.15739293932E+04  0.14949771633E+04 0.  0.
        3    1    3    3  502    0 -0.51739646373E+03 -0.44309452995E+03  0.57011644873E+03  0.88829310392E+03  0.10100000352E+00 0.  1.
       -3    1    3    3    0  502  0.51739646373E+03  0.44309452995E+03 -0.77879700983E+02  0.68563628928E+03  0.10100000352E+00 0. -1.
</event>
<event>
 5   0  0.1087761E-03  0.1484983E+04  0.7818609E-02  0.8894501E-01
        1   -1    0    0  501    0  0.00000000000E+00  0.00000000000E+00  0.73652643341E+03  0.73652643343E+03  0.50400001928E-02 0.  1.
       -1   -1    0    0    0  501  0.00000000000E+00  0.00000000000E+00 -0.74850440881E+03  0.74850440882E+03  0.50400001928E-02 0. -1.
    10030    2    1    2    0    0  0.00000000000E+00  0.00000000000E+00 -0.11977975399E+02  0.14850308423E+04  0.14849825354E+04 0.  0.
        3    1    3    3  502    0 -0.16537661390E+03 -0.10770720110E+03  0.70981569282E+03  0.73674187716E+03  0.10100000352E+00 0.  1.
       -3    1    3    3    0  502  0.16537661390E+03  0.10770720110E+03 -0.72179366822E+03  0.74828896509E+03  0.10100000352E+00 0. -1.
</event>
<event>
 5   0  0.1069697E-03  0.1493690E+04  0.7818609E-02  0.8888660E-01
       -1   -1    0    0    0  501  0.00000000000E+00  0.00000000000E+00  0.91597308035E+03  0.91597308037E+03  0.50400001928E-02 0. -1.
        1   -1    0    0  501    0  0.00000000000E+00  0.00000000000E+00 -0.60894552471E+03  0.60894552473E+03  0.50400001928E-02 0.  1.
    10030    2    1    2    0    0  0.00000000000E+00  0.00000000000E+00  0.30702755564E+03  0.15249186051E+04  0.14936903402E+04 0.  0.
        2    1    3    3  502    0  0.27228938666E+02  0.73261654052E+03  0.80236445578E+01  0.73316627679E+03  0.25500000920E-02 0.  1.
       -2    1    3    3    0  502 -0.27228938666E+02 -0.73261654052E+03  0.29900391108E+03  0.79175232831E+03  0.25500000920E-02 0. -1.
</event>
<event>
 5   0  0.1069697E-03  0.1464137E+04  0.7818609E-02  0.8908658E-01
       -1   -1    0    0    0  501  0.00000000000E+00  0.00000000000E+00  0.77080023539E+03  0.77080023541E+03  0.50400001928E-02 0.  1.
        1   -1    0    0  501    0  0.00000000000E+00  0.00000000000E+00 -0.69528321218E+03  0.69528321220E+03  0.50400001928E-02 0. -1.
    10030    2    1    2    0    0  0.00000000000E+00  0.00000000000E+00  0.75517023211E+02  0.14660834476E+04  0.14641372390E+04 0.  0.
        2    1    3    3  502    0  0.54506052229E+03 -0.10540251453E+02  0.52700023144E+03  0.75824225272E+03  0.25500000920E-02 0.  1.
       -2    1    3    3    0  502 -0.54506052229E+03  0.10540251453E+02 -0.45148320823E+03  0.70784119489E+03  0.25500000920E-02 0. -1.
</event>
<event>
 5   0  0.1993623E-03  0.1436321E+04  0.7818609E-02  0.8927939E-01
       -2   -1    0    0    0  501  0.00000000000E+00  0.00000000000E+00  0.32595326519E+03  0.32595326520E+03  0.25500000920E-02 0.  1.
        2   -1    0    0  501    0  0.00000000000E+00  0.00000000000E+00 -0.15822968438E+04  0.15822968438E+04  0.25500000920E-02 0. -1.
    10030    2    1    2    0    0  0.00000000000E+00  0.00000000000E+00 -0.12563435786E+04  0.19082501090E+04  0.14363214442E+04 0.  0.
        4    1    3    3  502    0 -0.61078363123E+03  0.72361023502E+02 -0.13559660473E+03  0.62982601885E+03  0.12699999809E+01 0.  1.
       -4    1    3    3    0  502  0.61078363123E+03 -0.72361023502E+02 -0.11207469739E+04  0.12784240901E+04  0.12699999809E+01 0. -1.
</event>
<event>
 5   0  0.1077140E-03  0.1526851E+04  0.7818609E-02  0.8866791E-01
        1   -1    0    0  501    0  0.00000000000E+00  0.00000000000E+00  0.15358459978E+04  0.15358459978E+04  0.50400001928E-02 0. -1.
       -1   -1    0    0    0  501  0.00000000000E+00  0.00000000000E+00 -0.37947736502E+03  0.37947736505E+03  0.50400001928E-02 0.  1.
    10030    2    1    2    0    0  0.00000000000E+00  0.00000000000E+00  0.11563686328E+04  0.19153233629E+04  0.15268513908E+04 0.  0.
        1    1    3    3  502    0 -0.61332574399E+03  0.16955681685E+03  0.11072800991E+04  0.12771010924E+04  0.50400001928E-02 0. -1.
       -1    1    3    3    0  502  0.61332574399E+03 -0.16955681685E+03  0.49088533749E+02  0.63822227049E+03  0.50400001928E-02 0.  1.
</event>
<event>
 5   0  0.1077140E-03  0.1525772E+04  0.7818609E-02  0.8867493E-01
       -1   -1    0    0    0  501  0.00000000000E+00  0.00000000000E+00  0.33471080150E+03  0.33471080154E+03  0.50400001928E-02 0. -1.
        1   -1    0    0  501    0  0.00000000000E+00  0.00000000000E+00 -0.17387998250E+04  0.17387998250E+04  0.50400001928E-02 0.  1.
    10030    2    1    2    0    0  0.00000000000E+00  0.00000000000E+00 -0.14040890235E+04  0.20735106265E+04  0.15257720447E+04 0.  0.
        1    1    3    3  502    0 -0.92733419771E+01  0.12293046502E+03 -0.17251736558E+04  0.17295727902E+04  0.50400001928E-02 0.  1.
       -1    1    3    3    0  502  0.92733419771E+01 -0.12293046502E+03  0.32108463230E+03  0.34393783629E+03  0.50400001928E-02 0. -1.
</event>
<event>
 5   0  0.2111533E-03  0.1319717E+04  0.7818609E-02  0.9014074E-01
        2   -1    0    0  501    0  0.00000000000E+00  0.00000000000E+00  0.14494063391E+04  0.14494063391E+04  0.25500000920E-02 0.  1.
       -2   -1    0    0    0  501  0.00000000000E+00  0.00000000000E+00 -0.30040802028E+03  0.30040802029E+03  0.25500000920E-02 0. -1.
    10030    2    1    2    0    0  0.00000000000E+00  0.00000000000E+00  0.11489983188E+04  0.17498143594E+04  0.13197170741E+04 0.  0.
        5    1    3    3  502    0 -0.40046451147E+03  0.29307882458E+03 -0.21141541501E+01  0.49627974169E+03  0.46999998093E+01 0. -1.
       -5    1    3    3    0  502  0.40046451147E+03 -0.29307882458E+03  0.11511124730E+04  0.12535346177E+04  0.46999998093E+01 0.  1.
</event>
<event>
 5   0  0.2094566E-03  0.1724752E+04  0.7818609E-02  0.8747372E-01
        2   -1    0    0  501    0  0.00000000000E+00  0.00000000000E+00  0.69878810548E+03  0.69878810548E+03  0.25500000920E-02 0.  1.
       -2   -1    0    0    0  501  0.00000000000E+00  0.00000000000E+00 -0.10642604976E+04  0.10642604976E+04  0.25500000920E-02 0. -1.
    10030    2    1    2    0    0  0.00000000000E+00  0.00000000000E+00 -0.36547239212E+03  0.17630486031E+04  0.17247522452E+04 0.  0.
        1    1    3    3  502    0  0.79746724212E+03 -0.10610349701E+03 -0.50024634699E+03  0.94734279014E+03  0.50400001928E-02 0. -1.
       -1    1    3    3    0  502 -0.79746724212E+03  0.10610349701E+03  0.13477395486E+03  0.81570581295E+03  0.50400001928E-02 0.  1.
</event>
<event>
 5   0  0.2094566E-03  0.1475359E+04  0.7818609E-02  0.8901006E-01
        2   -1    0    0  501    0  0.00000000000E+00  0.00000000000E+00  0.89562147381E+03  0.89562147381E+03  0.25500000920E-02 0. -1.
       -2   -1    0    0    0  501  0.00000000000E+00  0.00000000000E+00 -0.60759071035E+03  0.60759071035E+03  0.25500000920E-02 0.  1.
    10030    2    1    2    0    0  0.00000000000E+00  0.00000000000E+00  0.28803076346E+03  0.15032121842E+04  0.14753593291E+04 0.  0.
        1    1    3    3  502    0 -0.79583529557E+01 -0.13070336694E+03  0.88368523118E+03  0.89333436816E+03  0.50400001928E-02 0. -1.
       -1    1    3    3    0  502  0.79583529557E+01  0.13070336694E+03 -0.59565446772E+03  0.60987781600E+03  0.50400001928E-02 0.  1.
</event>
<event>
 5   0  0.1087761E-03  0.1431692E+04  0.7818609E-02  0.8931192E-01
       -1   -1    0    0    0  501  0.00000000000E+00  0.00000000000E+00  0.49018567697E+03  0.49018567699E+03  0.50400001928E-02 0. -1.
        1   -1    0    0  501    0  0.00000000000E+00  0.00000000000E+00 -0.10453909061E+04  0.10453909061E+04  0.50400001928E-02 0.  1.
    10030    2    1    2    0    0  0.00000000000E+00  0.00000000000E+00 -0.55520522910E+03  0.15355765831E+04  0.14316922142E+04 0.  0.
        3    1    3    3  502    0 -0.61705356146E+03  0.38489711149E+02  0.10941058787E+03  0.62785925375E+03  0.10100000352E+00 0.  1.
       -3    1    3    3    0  502  0.61705356146E+03 -0.38489711149E+02 -0.66461581697E+03  0.90771732932E+03  0.10100000352E+00 0. -1.
</event>
<event>
 5   0  0.2111533E-03  0.1495776E+04  0.7818609E-02  0.8887267E-01
        2   -1    0    0  501    0  0.00000000000E+00  0.00000000000E+00  0.15434381449E+04  0.15434381449E+04  0.25500000920E-02 0.  1.
       -2   -1    0    0    0  501  0.00000000000E+00  0.00000000000E+00 -0.36239630706E+03  0.36239630707E+03  0.25500000920E-02 0. -1.
    10030    2    1    2    0    0  0.00000000000E+00  0.00000000000E+00  0.11810418378E+04  0.19058344520E+04  0.14957757638E+04 0.  0.
        5    1    3    3  502    0  0.56564434967E+03 -0.48849090099E+03  0.55592365513E+03  0.93147737009E+03  0.46999998093E+01 0. -1.
       -5    1    3    3    0  502 -0.56564434967E+03  0.48849090099E+03  0.62511818271E+03  0.97435708188E+03  0.46999998093E+01 0.  1.
</event>
<event>
 5   0  0.1961098E-03  0.9363824E+03  0.7818609E-02  0.9381211E-01
        2   -1    0    0  501    0  0.00000000000E+00  0.00000000000E+00  0.21504842955E+03  0.21504842956E+03  0.25500000920E-02 0. -1.
       -2   -1    0    0    0  501  0.00000000000E+00  0.00000000000E+00 -0.10193191763E+04  0.10193191763E+04  0.25500000920E-02 0.  1.
    10030    2    1    2    0    0  0.00000000000E+00  0.00000000000E+00 -0.80427074676E+03  0.12343676059E+04  0.93638237507E+03 0.  0.
        2    1    3    3  502    0 -0.26350141031E+02 -0.39138539232E+03 -0.65209191918E+02  0.39765449070E+03  0.25500000920E-02 0. -1.
       -2    1    3    3    0  502  0.26350141031E+02  0.39138539232E+03 -0.73906155485E+03  0.83671311518E+03  0.25500000920E-02 0.  1.
</event>
<event>
 5   0  0.1078787E-03  0.1486874E+04  0.7818609E-02  0.8893229E-01
        1   -1    0    0  501    0  0.00000000000E+00  0.00000000000E+00  0.15927343821E+04  0.15927343821E+04  0.50400001928E-02 0. -1.
       -1   -1    0    0    0  501  0.00000000000E+00  0.00000000000E+00 -0.34701223104E+03  0.34701223108E+03  0.50400001928E-02 0.  1.
    10030    2    1    2    0    0  0.00000000000E+00  0.00000000000E+00  0.12457221510E+04  0.19397466132E+04  0.14868736482E+04 0.  0.
        5    1    3    3  502    0  0.29050580125E+03 -0.26563898629E+03 -0.19987179774E+03  0.44150709748E+03  0.46999998093E+01 0.  1.
       -5    1    3    3    0  502 -0.29050580125E+03  0.26563898629E+03  0.14455939488E+04  0.14982395157E+04  0.46999998093E+01 0. -1.
</event>
<event>
 5   0  0.2094566E-03  0.1517895E+04  0.7818609E-02  0.8872639E-01
        2   -1    0    0  501    0  0.00000000000E+00  0.00000000000E+00  0.11787058913E+04  0.11787058913E+04  0.25500000920E-02 0. -1.
       -2   -1    0    0    0  501  0.00000000000E+00  0.00000000000E+00 -0.48867257349E+03  0.48867257349E+03  0.25500000920E-02 0.  1.
    10030    2    1    2    0    0  0.00000000000E+00  0.00000000000E+00  0.69003331785E+03  0.16673784648E+04  0.15178949125E+04 0.  0.
        1    1    3    3  502    0  0.72597273543E+03 -0.18252420718E+03  0.48243543644E+03  0.89055906550E+03  0.50400001928E-02 0.  1.
       -1    1    3    3    0  502 -0.72597273543E+03  0.18252420718E+03  0.20759788141E+03  0.77681939933E+03  0.50400001928E-02 0. -1.
</event>
<event>
 5   0  0.1993623E-03  0.1491551E+04  0.7818609E-02  0.8890091E-01
        2   -1    0    0  501    0  0.00000000000E+00  0.00000000000E+00  0.17200333775E+04  0.17200333775E+04  0.25500000920E-02 0.  1.
       -2   -1    0    0    0  501  0.00000000000E+00  0.00000000000E+00 -0.32335463495E+03  0.32335463496E+03  0.25500000920E-02 0. -1.
    10030    2    1    2    0    0  0.00000000000E+00  0.00000000000E+00  0.13966787426E+04  0.20433880125E+04  0.14915505555E+04 0.  0.
        4    1    3    3  502    0 -0.34975656089E+03  0.26530004725E+03  0.15242715589E+04  0.15862279676E+04  0.12699999809E+01 0.  1.
       -4    1    3    3    0  502  0.34975656089E+03 -0.26530004725E+03 -0.12759281634E+03  0.45716004489E+03  0.12699999809E+01 0. -1.
</event>
<event>
 5   0  0.2094566E-03  0.1512712E+04  0.7818609E-02  0.8876043E-01
       -2   -1    0    0    0  501  0.00000000000E+00  0.00000000000E+00  0.66655974744E+03  0.66655974744E+03  0.25500000920E-02 0. -1.
        2   -1    0    0  501    0  0.00000000000E+00  0.00000000000E+00 -0.85824927342E+03  0.85824927342E+03  0.25500000920E-02 0.  1.
    10030    2    1    2    0    0  0.00000000000E+00  0.00000000000E+00 -0.19168952598E+03  0.15248090209E+04  0.15127120267E+04 0.  0.
        1    1    3    3  502    0  0.21655929090E+03 -0.72368206153E+03 -0.13437037599E+03  0.76724771138E+03  0.50400001928E-02 0. -1.
       -1    1    3    3    0  502 -0.21655929090E+03  0.72368206153E+03 -0.57319149991E+02  0.75756130949E+03  0.50400001928E-02 0.  1.
</event>
<event>
 5   0  0.1961098E-03  0.1478314E+04  0.7818609E-02  0.8899003E-01
        2   -1    0    0  501    0  0.00000000000E+00  0.00000000000E+00  0.13186996538E+04  0.13186996538E+04  0.25500000920E-02 0.  1.
       -2   -1    0    0    0  501  0.00000000000E+00  0.00000000000E+00 -0.41431223139E+03  0.41431223140E+03  0.25500000920E-02 0. -1.
    10030    2    1    2    0    0  0.00000000000E+00  0.00000000000E+00  0.90438742243E+03  0.17330118852E+04  0.14783144403E+04 0.  0.
        2    1    3    3  502    0  0.27784419462E+03 -0.66257270951E+03  0.24862881082E+03  0.76027381741E+03  0.25500000920E-02 0. -1.
       -2    1    3    3    0  502 -0.27784419462E+03  0.66257270951E+03  0.65575861161E+03  0.97273806782E+03  0.25500000920E-02 0.  1.
</event>
<event>
 5   0  0.1069697E-03  0.1503690E+04  0.7818609E-02  0.8882003E-01
        1   -1    0    0  501    0  0.00000000000E+00  0.00000000000E+00  0.76882791486E+03  0.76882791488E+03  0.50400001928E-02 0.  1.
       -1   -1    0    0    0  501  0.00000000000E+00  0.00000000000E+00 -0.73523688189E+03  0.73523688191E+03  0.50400001928E-02 0. -1.
    10030    2    1    2    0    0  0.00000000000E+00  0.00000000000E+00  0.33591032968E+02  0.15040647968E+04  0.15036896473E+04 0.  0.
        2    1    3    3  502    0 -0.30768625045E+03  0.12069699728E+03  0.69226544221E+03  0.76711800680E+03  0.25500000920E-02 0.  1.
       -2    1    3    3    0  502  0.30768625045E+03 -0.12069699728E+03 -0.65867440925E+03  0.73694678999E+03  0.25500000920E-02 0. -1.
</event>
<event>
 5   0  0.1069697E-03  0.1493807E+04  0.7818609E-02  0.8888582E-01
       -1   -1    0    0    0  501  0.00000000000E+00  0.00000000000E+00  0.10907514059E+04  0.10907514059E+04  0.50400001928E-02 0. -1.
        1   -1    0    0  501    0  0.00000000000E+00  0.00000000000E+00 -0.51145017777E+03  0.51145017779E+03  0.50400001928E-02 0.  1.
    10030    2    1    2    0    0  0.00000000000E+00  0.00000000000E+00  0.57930122816E+03  0.16022015837E+04  0.14938072171E+04 0.  0.
        2    1    3    3  502    0  0.61782880502E+03  0.10633191166E+03 -0.14582308678E+03  0.64364841365E+03  0.25500000920E-02 0.  1.
       -2    1    3    3    0  502 -0.61782880502E+03 -0.10633191166E+03  0.72512431494E+03  0.95855317008E+03  0.25500000920E-02 0. -1.
</event>
<event>
 5   0  0.2094566E-03  0.1433110E+04  0.7818609E-02  0.8930194E-01
       -2   -1    0    0    0  501  0.00000000000E+00  0.00000000000E+00  0.62114771181E+03  0.62114771181E+03  0.25500000920E-02 0. -1.
        2   -1    0    0  501    0  0.00000000000E+00  0.00000000000E+00 -0.82661723352E+03  0.82661723353E+03  0.25500000920E-02 0.  1.
    10030    2    1    2    0    0  0.00000000000E+00  0.00000000000E+00 -0.20546952171E+03  0.14477649453E+04  0.14331104677E+04 0.  0.
        1    1    3    3  502    0 -0.59540644452E+02 -0.44090602326E+03 -0.67017967729E+03  0.80441532157E+03  0.50400001928E-02 0.  1.
       -1    1    3    3    0  502  0.59540644452E+02  0.44090602326E+03  0.46471015558E+03  0.64334962377E+03  0.50400001928E-02 0. -1.
</event>
<event>
 5   0  0.1077140E-03  0.1489307E+04  0.7818609E-02  0.8891595E-01
       -1   -1    0    0    0  501  0.00000000000E+00  0.00000000000E+00  0.94171249662E+03  0.94171249663E+03  0.50400001928E-02 0.  1.
        1   -1    0    0  501    0  0.00000000000E+00  0.00000000000E+00 -0.58883005209E+03  0.58883005211E+03  0.50400001928E-02 0. -1.
    10030    2    1    2    0    0  0.00000000000E+00  0.00000000000E+00  0.35288244453E+03  0.15305425487E+04  0.14893067091E+04 0.  0.
        1    1    3    3  502    0  0.73846707363E+03  0.39000007383E+02  0.26635069746E+03  0.78600083555E+03  0.50400001928E-02 0.  1.
       -1    1    3    3    0  502 -0.73846707363E+03 -0.39000007383E+02  0.86531747071E+02  0.74454171320E+03  0.50400001928E-02 0. -1.
</event>
<event>
 5   0  0.1078787E-03  0.1429178E+04  0.7818609E-02  0.8932965E-01
       -1   -1    0    0    0  501  0.00000000000E+00  0.00000000000E+00  0.49082689515E+03  0.49082689517E+03  0.50400001928E-02 0.  1.
        1   -1    0    0  501    0  0.00000000000E+00  0.00000000000E+00 -0.10403616098E+04  0.10403616098E+04  0.50400001928E-02 0. -1.
    10030    2    1    2    0    0  0.00000000000E+00  0.00000000000E+00 -0.54953471461E+03  0.15311885049E+04  0.14291780278E+04 0.  0.
        5    1    3    3  502    0  0.10099513598E+03  0.65420363291E+03  0.13576324696E+02  0.66210936966E+03  0.46999998093E+01 0.  1.
       -5    1    3    3    0  502 -0.10099513598E+03 -0.65420363291E+03 -0.56311103930E+03  0.86907913528E+03  0.46999998093E+01 0. -1.
</event>
<event>
 5   0  0.2150197E-03  0.1508329E+04  0.7818609E-02  0.8878933E-01
       -2   -1    0    0    0  501  0.00000000000E+00  0.00000000000E+00  0.45776834940E+03  0.45776834941E+03  0.25500000920E-02 0. -1.
        2   -1    0    0  501    0  0.00000000000E+00  0.00000000000E+00 -0.12424708441E+04  0.12424708441E+04  0.25500000920E-02 0.  1.
    10030    2    1    2    0    0  0.00000000000E+00  0.00000000000E+00 -0.78470249472E+03  0.17002391935E+04  0.15083286479E+04 0.  0.
        3    1    3    3  502    0 -0.12297558297E+03 -0.65055109903E+02  0.44317826054E+03  0.46450203675E+03  0.10100000352E+00 0. -1.
       -3    1    3    3    0  502  0.12297558297E+03  0.65055109903E+02 -0.12278807553E+04  0.12357371568E+04  0.10100000352E+00 0.  1.
</event>
<event>
 5   0  0.1078018E-03  0.1484955E+04  0.7818609E-02  0.8894520E-01
        1   -1    0    0  501    0  0.00000000000E+00  0.00000000000E+00  0.11549903667E+04  0.11549903667E+04  0.50400001928E-02 0.  1.
       -1   -1    0    0    0  501  0.00000000000E+00  0.00000000000E+00 -0.47729641198E+03  0.47729641201E+03  0.50400001928E-02 0. -1.
    10030    2    1    2    0    0  0.00000000000E+00  0.00000000000E+00  0.67769395473E+03  0.16322867787E+04  0.14849548922E+04 0.  0.
        4    1    3    3  502    0 -0.33024296437E+03 -0.42198724718E+03  0.90378164583E+03  0.10506933561E+04  0.12699999809E+01 0.  1.
       -4    1    3    3    0  502  0.33024296437E+03  0.42198724718E+03 -0.22608769110E+03  0.58159342264E+03  0.12699999809E+01 0. -1.
</event>
<event>
 5   0  0.1961098E-03  0.1533717E+04  0.7818609E-02  0.8862336E-01
        2   -1    0    0  501    0  0.00000000000E+00  0.00000000000E+00  0.16079140572E+04  0.16079140572E+04  0.25500000920E-02 0.  1.
       -2   -1    0    0    0  501  0.00000000000E+00  0.00000000000E+00 -0.36573581943E+03  0.36573581944E+03  0.25500000920E-02 0. -1.
    10030    2    1    2    0    0  0.00000000000E+00  0.00000000000E+00  0.12421782377E+04  0.19736498766E+04  0.15337167474E+04 0.  0.
        2    1    3    3  502    0 -0.64615677500E+03  0.41231410572E+03  0.59090273132E+03  0.96782619180E+03  0.25500000920E-02 0. -1.
       -2    1    3    3    0  502  0.64615677500E+03 -0.41231410572E+03  0.65127550642E+03  0.10058236848E+04  0.25500000920E-02 0.  1.
</event>
<event>
 5   0  0.1077140E-03  0.1503764E+04  0.7818609E-02  0.8881954E-01
       -1   -1    0    0    0  501  0.00000000000E+00  0.00000000000E+00  0.42814198072E+03  0.42814198075E+03  0.50400001928E-02 0. -1.
        1   -1    0    0  501    0  0.00000000000E+00  0.00000000000E+00 -0.13204176163E+04  0.13204176163E+04  0.50400001928E-02 0.  1.
    10030    2    1    2    0    0  0.00000000000E+00  0.00000000000E+00 -0.89227563555E+03  0.17485595970E+04  0.15037635634E+04 0.  0.
        1    1    3    3  502    0  0.64558875047E+03 -0.37785393951E+03 -0.35782877078E+03  0.82921641540E+03  0.50400001928E-02 0.  1.
       -1    1    3    3    0  502 -0.64558875047E+03  0.37785393951E+03 -0.53444686476E+03  0.91934318163E+03  0.50400001928E-02 0. -1.
</event>
<event>
 5   0  0.1077140E-03  0.1497370E+04  0.7818609E-02  0.8886204E-01
       -1   -1    0    0    0  501  0.00000000000E+00  0.00000000000E+00  0.46543412570E+03  0.46543412572E+03  0.50400001928E-02 0.  1.
        1   -1    0    0  501    0  0.00000000000E+00  0.00000000000E+00 -0.12043145377E+04  0.12043145377E+04  0.50400001928E-02 0. -1.
    10030    2    1    2    0    0  0.00000000000E+00  0.00000000000E+00 -0.73888041200E+03  0.16697486634E+04  0.14973698060E+04 0.  0.
        1    1    3    3  502    0 -0.46746428359E+03 -0.10309204544E+03  0.27248442204E+03  0.55081629111E+03  0.50400001928E-02 0.  1.
       -1    1    3    3    0  502  0.46746428359E+03  0.10309204544E+03 -0.10113648340E+04  0.11189323723E+04  0.50400001928E-02 0. -1.
</event>
<event>
 5   0  0.2111533E-03  0.7653178E+03  0.7818609E-02  0.9611621E-01
       -2   -1    0    0    0  501  0.00000000000E+00  0.00000000000E+00  0.22744098757E+03  0.22744098759E+03  0.25500000920E-02 0. -1.
        2   -1    0    0  501    0  0.00000000000E+00  0.00000000000E+00 -0.64380585227E+03  0.64380585227E+03  0.25500000920E-02 0.  1.
    10030    2    1    2    0    0  0.00000000000E+00  0.00000000000E+00 -0.41636486470E+03  0.87124683986E+03  0.76531781334E+03 0.  0.
        5    1    3    3  502    0  0.29757579723E+03 -0.14711561680E+03  0.84492568340E+01  0.33209613027E+03  0.46999998093E+01 0. -1.
       -5    1    3    3    0  502 -0.29757579723E+03  0.14711561680E+03 -0.42481412153E+03  0.53915070959E+03  0.46999998093E+01 0.  1.
</event>
<event>
 5   0  0.1087761E-03  0.1554131E+04  0.7818609E-02  0.8849234E-01
       -1   -1    0    0    0  501  0.00000000000E+00  0.00000000000E+00  0.63821902328E+03  0.63821902330E+03  0.50400001928E-02 0.  1.
        1   -1    0    0  501    0  0.00000000000E+00  0.00000000000E+00 -0.94611806855E+03  0.94611806856E+03  0.50400001928E-02 0. -1.
    10030    2    1    2    0    0  0.00000000000E+00  0.00000000000E+00 -0.30789904527E+03  0.15843370919E+04  0.15541306890E+04 0.  0.
        3    1    3    3  502    0 -0.17516354561E+03  0.56698523099E+03 -0.66537336614E+03  0.89155832475E+03  0.10100000352E+00 0. -1.
       -3    1    3    3    0  502  0.17516354561E+03 -0.56698523099E+03  0.35747432087E+03  0.69277876710E+03  0.10100000352E+00 0.  1.
</event>
<event>
 5   0  0.1078787E-03  0.1232841E+04  0.7818609E-02  0.9084587E-01
       -1   -1    0    0    0  501  0.00000000000E+00  0.00000000000E+00  0.31446065464E+03  0.31446065468E+03  0.50400001928E-02 0.  1.
        1   -1    0    0  501    0  0.00000000000E+00  0.00000000000E+00 -0.12083357415E+04  0.12083357415E+04  0.50400001928E-02 0. -1.
    10030    2    1    2    0    0  0.00000000000E+00  0.00000000000E+00 -0.89387508684E+03  0.15227963962E+04  0.12328407007E+04 0.  0.
        5    1    3    3  502    0 -0.25928895388E+03 -0.55826438923E+03 -0.48719173694E+03  0.78502724057E+03  0.46999998093E+01 0.  1.
       -5    1    3    3    0  502  0.25928895388E+03  0.55826438923E+03 -0.40668334990E+03  0.73776915561E+03  0.46999998093E+01 0. -1.
</event>
<event>
 5   0  0.1961098E-03  0.1499072E+04  0.7818609E-02  0.8885070E-01
       -2   -1    0    0    0  501  0.00000000000E+00  0.00000000000E+00  0.19420141229E+03  0.19420141231E+03  0.25500000920E-02 0.  1.
        2   -1    0    0  501    0  0.00000000000E+00  0.00000000000E+00 -0.28928953498E+04  0.28928953498E+04  0.25500000920E-02 0. -1.
    10030    2    1    2    0    0  0.00000000000E+00  0.00000000000E+00 -0.26986939375E+04  0.30870967621E+04  0.14990721965E+04 0.  0.
        2    1    3    3  502    0 -0.64173335490E+03  0.28185793255E+03 -0.80240451708E+03  0.10654194488E+04  0.25500000920E-02 0.  1.
       -2    1    3    3    0  502  0.64173335490E+03 -0.28185793255E+03 -0.18962894204E+04  0.20216773133E+04  0.25500000920E-02 0. -1.
</event>
<event>
 5   0  0.1993623E-03  0.1472140E+04  0.7818609E-02  0.8903193E-01
       -2   -1    0    0    0  501  0.00000000000E+00  0.00000000000E+00  0.40614589790E+03  0.40614589791E+03  0.25500000920E-02 0. -1.
        2   -1    0    0  501    0  0.00000000000E+00  0.00000000000E+00 -0.13340018541E+04  0.13340018541E+04  0.25500000920E-02 0.  1.
    10030    2    1    2    0    0  0.00000000000E+00  0.00000000000E+00 -0.92785595623E+03  0.17401477520E+04  0.14721404564E+04 0.  0.
        4    1    3    3  502    0  0.13140236047E+03 -0.53081977536E+03 -0.10463353066E+04  0.11806165343E+04  0.12699999809E+01 0.  1.
       -4    1    3    3    0  502 -0.13140236047E+03  0.53081977536E+03  0.11847935042E+03  0.55953121774E+03  0.12699999809E+01 0. -1.
</event>
<event>
 5   0  0.1087761E-03  0.1504929E+04  0.7818609E-02  0.8881182E-01
        1   -1    0    0  501    0  0.00000000000E+00  0.00000000000E+00  0.19379569821E+04  0.19379569822E+04  0.50400001928E-02 0. -1.
       -1   -1    0    0    0  501  0.00000000000E+00  0.00000000000E+00 -0.29216462335E+03  0.29216462339E+03  0.50400001928E-02 0.  1.
    10030    2    1    2    0    0  0.00000000000E+00  0.00000000000E+00  0.16457923588E+04  0.22301216055E+04  0.15049285323E+04 0.  0.
        3    1    3    3  502    0 -0.77736341768E+02 -0.68256001097E+03  0.36790545623E+03  0.77928527660E+03  0.10100000352E+00 0.  1.
       -3    1    3    3    0  502  0.77736341768E+02  0.68256001097E+03  0.12778869026E+04  0.14508363289E+04  0.10100000352E+00 0. -1.
</event>
<event>
 5   0  0.1961098E-03  0.1509530E+04  0.7818609E-02  0.8878140E-01
        2   -1    0    0  501    0  0.00000000000E+00  0.00000000000E+00  0.78365174483E+03  0.78365174484E+03  0.25500000920E-02 0.  1.
       -2   -1    0    0    0  501  0.00000000000E+00  0.00000000000E+00 -0.72694278995E+03  0.72694278996E+03  0.25500000920E-02 0. -1.
    10030    2    1    2    0    0  0.00000000000E+00  0.00000000000E+00  0.56708954881E+02  0.15105945348E+04  0.15095297092E+04 0.  0.
        2    1    3    3  502    0  0.37535472614E+03  0.22212276208E+03  0.64477624760E+03  0.77843824504E+03  0.25500000920E-02 0.  1.
       -2    1    3    3    0  502 -0.37535472614E+03 -0.22212276208E+03 -0.58806729271E+03  0.73215628976E+03  0.25500000920E-02 0. -1.
</event>
<event>
 5   0  0.1993623E-03  0.1450036E+04  0.7818609E-02  0.8918376E-01
       -2   -1    0    0    0  501  0.00000000000E+00  0.00000000000E+00  0.25813016151E+03  0.25813016152E+03  0.25500000920E-02 0.  1.
        2   -1    0    0  501    0  0.00000000000E+00  0.00000000000E+00 -0.20363788737E+04  0.20363788737E+04  0.25500000920E-02 0. -1.
    10030    2    1    2    0    0  0.00000000000E+00  0.00000000000E+00 -0.17782487122E+04  0.22945090352E+04  0.14500355962E+04 0.  0.
        4    1    3    3  502    0 -0.25409755172E+03  0.18842465440E+03  0.14316535954E+03  0.34722809398E+03  0.12699999809E+01 0.  1.
       -4    1    3    3    0  502  0.25409755172E+03 -0.18842465440E+03 -0.19214140717E+04  0.19472809412E+04  0.12699999809E+01 0. -1.
</event>
<event>
 5   0  0.2150197E-03  0.7481501E+03  0.7818609E-02  0.9638257E-01
       -2   -1    0    0    0  501  0.00000000000E+00  0.00000000000E+00  0.17581906074E+03  0.17581906075E+03  0.25500000920E-02 0.  1.
        2   -1    0    0  501    0  0.00000000000E+00  0.00000000000E+00 -0.79588716615E+03  0.79588716616E+03  0.25500000920E-02 0. -1.
    10030    2    1    2    0    0  0.00000000000E+00  0.00000000000E+00 -0.62006810542E+03  0.97170622691E+03  0.74815007590E+03 0.  0.
        3    1    3    3  502    0 -0.26337467524E+03  0.98649884754E+02 -0.63038043306E+03  0.69027351094E+03  0.10100000352E+00 0. -1.
       -3    1    3    3    0  502  0.26337467524E+03 -0.98649884754E+02  0.10312327643E+02  0.28143271597E+03  0.10100000352E+00 0.  1.
</event>
<event>
 5   0  0.1078787E-03  0.1495582E+04  0.7818609E-02  0.8887396E-01
        1   -1    0    0  501    0  0.00000000000E+00  0.00000000000E+00  0.87899251816E+03  0.87899251817E+03  0.50400001928E-02 0.  1.
       -1   -1    0    0    0  501  0.00000000000E+00  0.00000000000E+00 -0.63617283599E+03  0.63617283601E+03  0.50400001928E-02 0. -1.
    10030    2    1    2    0    0  0.00000000000E+00  0.00000000000E+00  0.24281968216E+03  0.15151653542E+04  0.14955817104E+04 0.  0.
        5    1    3    3  502    0 -0.84242022494E+02 -0.24221779406E+03  0.83303408005E+03  0.87162724064E+03  0.46999998093E+01 0.  1.
       -5    1    3    3    0  502  0.84242022494E+02  0.24221779406E+03 -0.59021439788E+03  0.64353811354E+03  0.46999998093E+01 0. -1.
</event>
<event>
 5   0  0.1961098E-03  0.1518700E+04  0.7818609E-02  0.8872112E-01
        2   -1    0    0  501    0  0.00000000000E+00  0.00000000000E+00  0.69541495409E+03  0.69541495409E+03  0.25500000920E-02 0. -1.
       -2   -1    0    0    0  501  0.00000000000E+00  0.00000000000E+00 -0.82916258853E+03  0.82916258854E+03  0.25500000920E-02 0.  1.
    10030    2    1    2    0    0  0.00000000000E+00  0.00000000000E+00 -0.13374763445E+03  0.15245775426E+04  0.15186995272E+04 0.  0.
        2    1    3    3  502    0 -0.14138540226E+03  0.30380922646E+02 -0.81521140280E+03  0.82793868353E+03  0.25500000920E-02 0.  1.
       -2    1    3    3    0  502  0.14138540226E+03 -0.30380922646E+02  0.68146376835E+03  0.69663885910E+03  0.25500000920E-02 0. -1.
</event>
<event>
 5   0  0.7468375E-04  0.1487809E+04  0.7818609E-02  0.8892601E-01
        3   -1    0    0  501    0  0.00000000000E+00  0.00000000000E+00  0.72362777503E+03  0.72362778208E+03  0.10100000352E+00 0.  1.
       -3   -1    0    0    0  501  0.00000000000E+00  0.00000000000E+00 -0.76474911481E+03  0.76474912148E+03  0.10100000352E+00 0. -1.
    10030    2    1    2    0    0  0.00000000000E+00  0.00000000000E+00 -0.41121339779E+02  0.14883769036E+04  0.14878087385E+04 0.  0.
        1    1    3    3  502    0  0.31698923660E+03  0.38170142380E+03 -0.57504262772E+03  0.75950785168E+03  0.50400001928E-02 0. -1.
       -1    1    3    3    0  502 -0.31698923660E+03 -0.38170142380E+03  0.53392128794E+03  0.72886905188E+03  0.50400001928E-02 0.  1.
</event>
<event>
 5   0  0.1078018E-03  0.1493818E+04  0.7818609E-02  0.8888574E-01
       -1   -1    0    0    0  501  0.00000000000E+00  0.00000000000E+00  0.25380999343E+03  0.25380999348E+03  0.50400001928E-02 0. -1.
        1   -1    0    0  501    0  0.00000000000E+00  0.00000000000E+00 -0.21979945418E+04  0.21979945418E+04  0.50400001928E-02 0.  1.
    10030    2    1    2    0    0  0.00000000000E+00  0.00000000000E+00 -0.19441845483E+04  0.24518045352E+04  0.14938179009E+04 0.  0.
        4    1    3    3  502    0 -0.29054860074E+02  0.28236898143E+03 -0.21060101455E+04  0.21250545339E+04  0.12699999809E+01 0.  1.
       -4    1    3    3    0  502  0.29054860074E+02 -0.28236898143E+03  0.16182559712E+03  0.32675000130E+03  0.12699999809E+01 0. -1.
</event>
<event>
 5   0  0.1961098E-03  0.1496759E+04  0.7818609E-02  0.8886611E-01
       -2   -1    0    0    0  501  0.00000000000E+00  0.00000000000E+00  0.53116403031E+03  0.53116403032E+03  0.25500000920E-02 0. -1.
        2   -1    0    0  501    0  0.00000000000E+00  0.00000000000E+00 -0.10544235796E+04  0.10544235796E+04  0.25500000920E-02 0.  1.
    10030    2    1    2    0    0  0.00000000000E+00  0.00000000000E+00 -0.52325954930E+03  0.15855876099E+04  0.14967590029E+04 0.  0.
        2    1    3    3  502    0  0.45047903392E+03  0.49859155075E+03  0.87387758302E+02  0.67761457687E+03  0.25500000920E-02 0. -1.
       -2    1    3    3    0  502 -0.45047903392E+03 -0.49859155075E+03 -0.61064730760E+03  0.90797303306E+03  0.25500000920E-02 0.  1.
</event>
<event>
 5   0  0.1078787E-03  0.1495287E+04  0.7818609E-02  0.8887593E-01
       -1   -1    0    0    0  501  0.00000000000E+00  0.00000000000E+00  0.22444492113E+03  0.22444492118E+03  0.50400001928E-02 0. -1.
        1   -1    0    0  501    0  0.00000000000E+00  0.00000000000E+00 -0.24904581591E+04  0.24904581591E+04  0.50400001928E-02 0.  1.
    10030    2    1    2    0    0  0.00000000000E+00  0.00000000000E+00 -0.22660132380E+04  0.27149030803E+04  0.14952868423E+04 0.  0.
        5    1    3    3  502    0  0.43689048537E+03  0.39883611697E+02 -0.33854803998E+02  0.44003663079E+03  0.46999998093E+01 0. -1.
       -5    1    3    3    0  502 -0.43689048537E+03 -0.39883611697E+02 -0.22321584340E+04  0.22748664495E+04  0.46999998093E+01 0.  1.
</event>
<event>
 5   0  0.1078787E-03  0.1546220E+04  0.7818609E-02  0.8854285E-01
       -1   -1    0    0    0  501  0.00000000000E+00  0.00000000000E+00  0.46075903305E+03  0.46075903308E+03  0.50400001928E-02 0. -1.
        1   -1    0    0  501    0  0.00000000000E+00  0.00000000000E+00 -0.12972061508E+04  0.12972061508E+04  0.50400001928E-02 0.  1.
    10030    2    1    2    0    0  0.00000000000E+00  0.00000000000E+00 -0.83644711779E+03  0.17579651839E+04  0.15462204911E+04 0.  0.
        5    1    3    3  502    0  0.38256727460E+03  0.66898445928E+03 -0.34832756116E+03  0.84572578666E+03  0.46999998093E+01 0. -1.
       -5    1    3    3    0  502 -0.38256727460E+03 -0.66898445928E+03 -0.48811955663E+03  0.91223939726E+03  0.46999998093E+01 0.  1.
</event>
<event>
 5   0  0.1087761E-03  0.1445630E+04  0.7818609E-02  0.8921436E-01
        1   -1    0    0  501    0  0.00000000000E+00  0.00000000000E+00  0.12915616621E+04  0.12915616621E+04  0.50400001928E-02 0. -1.
       -1   -1    0    0    0  501  0.00000000000E+00  0.00000000000E+00 -0.40451927067E+03  0.40451927070E+03  0.50400001928E-02 0.  1.
    10030    2    1    2    0    0  0.00000000000E+00  0.00000000000E+00  0.88704239146E+03  0.16960809328E+04  0.14456300794E+04 0.  0.
        3    1    3    3  502    0 -0.14118925136E+03 -0.56270243166E+02 -0.38555917106E+03  0.41443531408E+03  0.10100000352E+00 0.  1.
       -3    1    3    3    0  502  0.14118925136E+03  0.56270243166E+02  0.12726015625E+04  0.12816456188E+04  0.10100000352E+00 0. -1.
</event>
<event>
 5   0  0.1069697E-03  0.1421348E+04  0.7818609E-02  0.8938509E-01
        1   -1    0    0  501    0  0.00000000000E+00  0.00000000000E+00  0.49993542380E+03  0.49993542382E+03  0.50400001928E-02 0.  1.
       -1   -1    0    0    0  501  0.00000000000E+00  0.00000000000E+00 -0.10102460021E+04  0.10102460021E+04  0.50400001928E-02 0. -1.
    10030    2    1    2    0    0  0.00000000000E+00  0.00000000000E+00 -0.51031057831E+03  0.15101814259E+04  0.14213483222E+04 0.  0.
        2    1    3    3  502    0 -0.39438510010E+03  0.22037841688E+03 -0.83803221881E+03  0.95205265274E+03  0.25500000920E-02 0. -1.
       -2    1    3    3    0  502  0.39438510010E+03 -0.22037841688E+03  0.32772164050E+03  0.55812877320E+03  0.25500000920E-02 0.  1.
</event>
<event>
 5   0  0.2111533E-03  0.1534948E+04  0.7818609E-02  0.8861540E-01
        2   -1    0    0  501    0  0.00000000000E+00  0.00000000000E+00  0.14994985803E+04  0.14994985803E+04  0.25500000920E-02 0.  1.
       -2   -1    0    0    0  501  0.00000000000E+00  0.00000000000E+00 -0.39280909642E+03  0.39280909643E+03  0.25500000920E-02 0. -1.
    10030    2    1    2    0    0  0.00000000000E+00  0.00000000000E+00  0.11066894839E+04  0.18923076767E+04  0.15349484453E+04 0.  0.
        5    1    3    3  502    0 -0.76685941423E+03  0.21270013285E+02  0.52665158217E+03  0.93054271995E+03  0.46999998093E+01 0.  1.
       -5    1    3    3    0  502  0.76685941423E+03 -0.21270013285E+02  0.58003790171E+03  0.96176495677E+03  0.46999998093E+01 0. -1.
</event>
<event>
 5   0  0.1078018E-03  0.1491498E+04  0.7818609E-02  0.8890126E-01
        1   -1    0    0  501    0  0.00000000000E+00  0.00000000000E+00  0.14609502981E+04  0.14609502981E+04  0.50400001928E-02 0.  1.
       -1   -1    0    0    0  501  0.00000000000E+00  0.00000000000E+00 -0.38067113071E+03  0.38067113074E+03  0.50400001928E-02 0. -1.
    10030    2    1    2    0    0  0.00000000000E+00  0.00000000000E+00  0.10802791674E+04  0.18416214288E+04  0.14914980415E+04 0.  0.
        4    1    3    3  502    0  0.72511632385E+03  0.12416396652E+03  0.38926989953E+03  0.83231186539E+03  0.12699999809E+01 0. -1.
       -4    1    3    3    0  502 -0.72511632385E+03 -0.12416396652E+03  0.69100926785E+03  0.10093095634E+04  0.12699999809E+01 0.  1.
</event>
<event>
 5   0  0.1078787E-03  0.1079151E+04  0.7818609E-02  0.9225754E-01
        1   -1    0    0  501    0  0.00000000000E+00  0.00000000000E+00  0.96720661316E+03  0.96720661318E+03  0.50400001928E-02 0. -1.
       -1   -1    0    0    0  501  0.00000000000E+00  0.00000000000E+00 -0.30101315437E+03  0.30101315441E+03  0.50400001928E-02 0.  1.
    10030    2    1    2    0    0  0.00000000000E+00  0.00000000000E+00  0.66619345880E+03  0.12682197676E+04  0.10791513584E+04 0.  0.
        5    1    3    3  502    0 -0.16665107820E+03 -0.26151819609E+03  0.85199219349E+03  0.90668469520E+03  0.46999998093E+01 0. -1.
       -5    1    3    3    0  502  0.16665107820E+03  0.26151819609E+03 -0.18579873469E+03  0.36153507238E+03  0.46999998093E+01 0.  1.
</event>
<event>
 5   0  0.1961098E-03  0.1269706E+04  0.7818609E-02  0.9053940E-01
       -2   -1    0    0    0  501  0.00000000000E+00  0.00000000000E+00  0.54867720583E+03  0.54867720583E+03  0.25500000920E-02 0. -1.
        2   -1    0    0  501    0  0.00000000000E+00  0.00000000000E+00 -0.73456350432E+03  0.73456350433E+03  0.25500000920E-02 0.  1.
    10030    2    1    2    0    0  0.00000000000E+00  0.00000000000E+00 -0.18588629850E+03  0.12832407102E+04  0.12697058731E+04 0.  0.
        2    1    3    3  502    0 -0.58960636026E+03  0.22289491481E+03 -0.16503265184E+02  0.63054750881E+03  0.25500000920E-02 0.  1.
       -2    1    3    3    0  502  0.58960636026E+03 -0.22289491481E+03 -0.16938303332E+03  0.65269320135E+03  0.25500000920E-02 0. -1.
</event>
<event>
 5   0  0.1069697E-03  0.1502044E+04  0.7818609E-02  0.8883095E-01
        1   -1    0    0  501    0  0.00000000000E+00  0.00000000000E+00  0.85220781276E+03  0.85220781277E+03  0.50400001928E-02 0. -1.
       -1   -1    0    0    0  501  0.00000000000E+00  0.00000000000E+00 -0.66185049093E+03  0.66185049095E+03  0.50400001928E-02 0.  1.
    10030    2    1    2    0    0  0.00000000000E+00  0.00000000000E+00  0.19035732183E+03  0.15140583037E+04  0.15020441528E+04 0.  0.
        2    1    3    3  502    0  0.26924309954E+03 -0.44403165293E+03  0.64208470871E+03  0.82578976054E+03  0.25500000920E-02 0. -1.
       -2    1    3    3    0  502 -0.26924309954E+03  0.44403165293E+03 -0.45172738688E+03  0.68826854317E+03  0.25500000920E-02 0.  1.
</event>
<event>
 5   0  0.2111533E-03  0.1418541E+04  0.7818609E-02  0.8940506E-01
        2   -1    0    0  501    0  0.00000000000E+00  0.00000000000E+00  0.12482084537E+04  0.12482084537E+04  0.25500000920E-02 0. -1.
       -2   -1    0    0    0  501  0.00000000000E+00  0.00000000000E+00 -0.40302946487E+03  0.40302946488E+03  0.25500000920E-02 0.  1.
    10030    2    1    2    0    0  0.00000000000E+00  0.00000000000E+00  0.84517898881E+03  0.16512379186E+04  0.14185412016E+04 0.  0.
        5    1    3    3  502    0 -0.70859084550E+03 -0.29305631132E+02  0.43318729284E+03  0.83104339659E+03  0.46999998093E+01 0.  1.
       -5    1    3    3    0  502  0.70859084550E+03  0.29305631132E+02  0.41199169598E+03  0.82019452198E+03  0.46999998093E+01 0. -1.
</event>
<event>
 5   0  0.1077140E-03  0.1499772E+04  0.7818609E-02  0.8884605E-01
       -1   -1    0    0    0  501  0.00000000000E+00  0.00000000000E+00  0.37673406374E+03  0.37673406377E+03  0.50400001928E-02 0.  1.
        1   -1    0    0  501    0  0.00000000000E+00  0.00000000000E+00 -0.14926414456E+04  0.14926414456E+04  0.50400001928E-02 0. -1.
    10030    2    1    2    0    0  0.00000000000E+00  0.00000000000E+00 -0.11159073818E+04  0.18693755093E+04  0.14997718194E+04 0.  0.
        1    1    3    3  502    0 -0.21175846573E+03  0.71283112948E+03 -0.67853675855E+03  0.10066687636E+04  0.50400001928E-02 0. -1.
       -1    1    3    3    0  502  0.21175846573E+03 -0.71283112948E+03 -0.43737062327E+03  0.86270674571E+03  0.50400001928E-02 0.  1.
</event>
<event>
 5   0  0.2150197E-03  0.1494247E+04  0.7818609E-02  0.8888288E-01
        2   -1    0    0  501    0  0.00000000000E+00  0.00000000000E+00  0.16871159694E+04  0.16871159694E+04  0.25500000920E-02 0. -1.
       -2   -1    0    0    0  501  0.00000000000E+00  0.00000000000E+00 -0.33085659697E+03  0.33085659698E+03  0.25500000920E-02 0.  1.
    10030    2    1    2    0    0  0.00000000000E+00  0.00000000000E+00  0.13562593724E+04  0.20179725664E+04  0.14942468984E+04 0.  0.
        3    1    3    3  502    0  0.21110850760E+02  0.14785797023E+03  0.16667488293E+04  0.16734274163E+04  0.10100000352E+00 0. -1.
       -3    1    3    3    0  502 -0.21110850760E+02 -0.14785797023E+03 -0.31048945691E+03  0.34454515007E+03  0.10100000352E+00 0.  1.
</event>
<event>
 5   0  0.7468375E-04  0.1543406E+04  0.7818609E-02  0.8856091E-01
        4   -1    0    0  501    0  0.00000000000E+00  0.00000000000E+00  0.80327366591E+03  0.80327466986E+03  0.12699999809E+01 0. -1.
       -4   -1    0    0    0  501  0.00000000000E+00  0.00000000000E+00 -0.74137079196E+03  0.74137187975E+03  0.12699999809E+01 0.  1.
    10030    2    1    2    0    0  0.00000000000E+00  0.00000000000E+00  0.61902873946E+02  0.15446465496E+04  0.15434056490E+04 0.  0.
        2    1    3    3  502    0  0.71389018826E+00  0.46895141695E+03  0.64431391709E+03  0.79690423820E+03  0.25500000920E-02 0. -1.
       -2    1    3    3    0  502 -0.71389018826E+00 -0.46895141695E+03 -0.58241104314E+03  0.74774231141E+03  0.25500000920E-02 0.  1.
</event>
<event>
 5   0  0.1077140E-03  0.1503155E+04  0.7818609E-02  0.8882357E-01
        1   -1    0    0  501    0  0.00000000000E+00  0.00000000000E+00  0.71631961347E+03  0.71631961349E+03  0.50400001928E-02 0. -1.
       -1   -1    0    0    0  501  0.00000000000E+00  0.00000000000E+00 -0.78857120484E+03  0.78857120486E+03  0.50400001928E-02 0.  1.
    10030    2    1    2    0    0  0.00000000000E+00  0.00000000000E+00 -0.72251591375E+02  0.15048908183E+04  0.15031553754E+04 0.  0.
        1    1    3    3  502    0  0.17493931278E+03  0.39276550477E+03  0.58102772554E+03  0.72281513734E+03  0.50400001928E-02 0. -1.
       -1    1    3    3    0  502 -0.17493931278E+03 -0.39276550477E+03 -0.65327931691E+03  0.78207568101E+03  0.50400001928E-02 0.  1.
</event>
<event>
 5   0  0.1961098E-03  0.1476426E+04  0.7818609E-02  0.8900282E-01
        2   -1    0    0  501    0  0.00000000000E+00  0.00000000000E+00  0.13549529308E+04  0.13549529308E+04  0.25500000920E-02 0.  1.
       -2   -1    0    0    0  501  0.00000000000E+00  0.00000000000E+00 -0.40219754112E+03  0.40219754113E+03  0.25500000920E-02 0. -1.
    10030    2    1    2    0    0  0.00000000000E+00  0.00000000000E+00  0.95275538964E+03  0.17571504719E+04  0.14764264114E+04 0.  0.
        2    1    3    3  502    0  0.36289258534E+03  0.87047671577E+02  0.12344218779E+04  0.12895990456E+04  0.25500000920E-02 0.  1.
       -2    1    3    3    0  502 -0.36289258534E+03 -0.87047671577E+02 -0.28166648830E+03  0.46755142632E+03  0.25500000920E-02 0. -1.
</event>
<event>
 5   0  0.2111533E-03  0.1477106E+04  0.7818609E-02  0.8899821E-01
        2   -1    0    0  501    0  0.00000000000E+00  0.00000000000E+00  0.60392095634E+03  0.60392095634E+03  0.25500000920E-02 0. -1.
       -2   -1    0    0    0  501  0.00000000000E+00  0.00000000000E+00 -0.90319899494E+03  0.90319899494E+03  0.25500000920E-02 0.  1.
    10030    2    1    2    0    0  0.00000000000E+00  0.00000000000E+00 -0.29927803860E+03  0.15071199513E+04  0.14771063615E+04 0.  0.
        5    1    3    3  502    0  0.77952499150E+02 -0.35711523682E+03 -0.80441912571E+03  0.88358367137E+03  0.46999998093E+01 0.  1.
       -5    1    3    3    0  502 -0.77952499150E+02  0.35711523682E+03  0.50514108711E+03  0.62353627992E+03  0.46999998093E+01 0. -1.
</event>
<event>
 5   0  0.1069697E-03  0.1521025E+04  0.7818609E-02  0.8870591E-01
       -1   -1    0    0    0  501  0.00000000000E+00  0.00000000000E+00  0.10263150447E+04  0.10263150447E+04  0.50400001928E-02 0. -1.
        1   -1    0    0  501    0  0.00000000000E+00  0.00000000000E+00 -0.56354950845E+03  0.56354950848E+03  0.50400001928E-02 0.  1.
    10030    2    1    2    0    0  0.00000000000E+00  0.00000000000E+00  0.46276553620E+03  0.15898645531E+04  0.15210251003E+04 0.  0.
        2    1    3    3  502    0  0.19302398570E+03  0.73319177731E+03  0.29366910908E+03  0.81306210526E+03  0.25500000920E-02 0.  1.
       -2    1    3    3    0  502 -0.19302398570E+03 -0.73319177731E+03  0.16909642713E+03  0.77680244789E+03  0.25500000920E-02 0. -1.
</event>
<event>
 5   0  0.2111533E-03  0.1228485E+04  0.7818609E-02  0.9088282E-01
        2   -1    0    0  501    0  0.00000000000E+00  0.00000000000E+00  0.22277553332E+04  0.22277553332E+04  0.25500000920E-02 0. -1.
       -2   -1    0    0    0  501  0.00000000000E+00  0.00000000000E+00 -0.16936061146E+03  0.16936061148E+03  0.25500000920E-02 0.  1.
    10030    2    1    2    0    0  0.00000000000E+00  0.00000000000E+00  0.20583947217E+04  0.23971159446E+04  0.12284852550E+04 0.  0.
        5    1    3    3  502    0  0.33648528861E+03  0.26629663725E+03  0.17166536279E+03  0.46219837218E+03  0.46999998093E+01 0.  1.
       -5    1    3    3    0  502 -0.33648528861E+03 -0.26629663725E+03  0.18867293589E+04  0.19349175725E+04  0.46999998093E+01 0. -1.
</event>
<event>
 5   0  0.1078018E-03  0.1524399E+04  0.7818609E-02  0.8868388E-01
        1   -1    0    0  501    0  0.00000000000E+00  0.00000000000E+00  0.15280930438E+04  0.15280930438E+04  0.50400001928E-02 0.  1.
       -1   -1    0    0    0  501  0.00000000000E+00  0.00000000000E+00 -0.38017844291E+03  0.38017844295E+03  0.50400001928E-02 0. -1.
    10030    2    1    2    0    0  0.00000000000E+00  0.00000000000E+00  0.11479146009E+04  0.19082714868E+04  0.15243989426E+04 0.  0.
        4    1    3    3  502    0  0.10097095796E+03  0.28698278387E+02  0.15189999386E+04  0.15226231155E+04  0.12699999809E+01 0.  1.
       -4    1    3    3    0  502 -0.10097095796E+03 -0.28698278387E+02 -0.37108533768E+03  0.38564837128E+03  0.12699999809E+01 0. -1.
</event>
<event>
 5   0  0.1078787E-03  0.1471394E+04  0.7818609E-02  0.8903701E-01
        1   -1    0    0  501    0  0.00000000000E+00  0.00000000000E+00  0.24653545671E+04  0.24653545671E+04  0.50400001928E-02 0.  1.
       -1   -1    0    0    0  501  0.00000000000E+00  0.00000000000E+00 -0.21954262689E+03  0.21954262695E+03  0.50400001928E-02 0. -1.
    10030    2    1    2    0    0  0.00000000000E+00  0.00000000000E+00  0.22458119402E+04  0.26848971941E+04  0.14713944651E+04 0.  0.
        5    1    3    3  502    0 -0.10511564189E+02 -0.22095837115E+03 -0.15739288843E+03  0.27152846276E+03  0.46999998093E+01 0. -1.
       -5    1    3    3    0  502  0.10511564189E+02  0.22095837115E+03  0.24032048287E+04  0.24133687313E+04  0.46999998093E+01 0.  1.
</event>
<event>
 5   0  0.1078787E-03  0.1481590E+04  0.7818609E-02  0.8896789E-01
       -1   -1    0    0    0  501  0.00000000000E+00  0.00000000000E+00  0.82148475383E+03  0.82148475384E+03  0.50400001928E-02 0.  1.
        1   -1    0    0  501    0  0.00000000000E+00  0.00000000000E+00 -0.66803063872E+03  0.66803063873E+03  0.50400001928E-02 0. -1.
    10030    2    1    2    0    0  0.00000000000E+00  0.00000000000E+00  0.15345411511E+03  0.14895153926E+04  0.14815896663E+04 0.  0.
        5    1    3    3  502    0 -0.10827250498E+03 -0.50402785960E+03  0.61153884443E+03  0.79985552872E+03  0.46999998093E+01 0.  1.
       -5    1    3    3    0  502  0.10827250498E+03  0.50402785960E+03 -0.45808472932E+03  0.68965986386E+03  0.46999998093E+01 0. -1.
</event>
<event>
 5   0  0.7468375E-04  0.1490426E+04  0.7818609E-02  0.8890844E-01
        3   -1    0    0  501    0  0.00000000000E+00  0.00000000000E+00  0.10235716913E+04  0.10235716963E+04  0.10100000352E+00 0. -1.
       -3   -1    0    0    0  501  0.00000000000E+00  0.00000000000E+00 -0.54255368075E+03  0.54255369015E+03  0.10100000352E+00 0.  1.
    10030    2    1    2    0    0  0.00000000000E+00  0.00000000000E+00  0.48101801056E+03  0.15661253864E+04  0.14904262476E+04 0.  0.
        3    1    3    3  502    0  0.15685902083E+03  0.51235064791E+03 -0.30370971790E+03  0.61591195944E+03  0.10100000352E+00 0.  1.
       -3    1    3    3    0  502 -0.15685902083E+03 -0.51235064791E+03  0.78472772846E+03  0.95021342699E+03  0.10100000352E+00 0. -1.
</event>
<event>
 5   0  0.2111533E-03  0.1329247E+04  0.7818609E-02  0.9006688E-01
       -2   -1    0    0    0  501  0.00000000000E+00  0.00000000000E+00  0.23151446034E+03  0.23151446035E+03  0.25500000920E-02 0. -1.
        2   -1    0    0  501    0  0.00000000000E+00  0.00000000000E+00 -0.19079773532E+04  0.19079773532E+04  0.25500000920E-02 0.  1.
    10030    2    1    2    0    0  0.00000000000E+00  0.00000000000E+00 -0.16764628929E+04  0.21394918136E+04  0.13292469256E+04 0.  0.
        5    1    3    3  502    0  0.60639685250E+03 -0.26543345058E+03 -0.93386372193E+03  0.11446814406E+04  0.46999998093E+01 0. -1.
       -5    1    3    3    0  502 -0.60639685250E+03  0.26543345058E+03 -0.74259917097E+03  0.99481037295E+03  0.46999998093E+01 0.  1.
</event>
<event>
 5   0  0.1078787E-03  0.8421981E+03  0.7818609E-02  0.9500869E-01
        1   -1    0    0  501    0  0.00000000000E+00  0.00000000000E+00  0.11081516388E+04  0.11081516388E+04  0.50400001928E-02 0.  1.
       -1   -1    0    0    0  501  0.00000000000E+00  0.00000000000E+00 -0.16001817642E+03  0.16001817650E+03  0.50400001928E-02 0. -1.
    10030    2    1    2    0    0  0.00000000000E+00  0.00000000000E+00  0.94813346236E+03  0.12681698153E+04  0.84219808713E+03 0.  0.
        5    1    3    3  502    0  0.24055575459E+01  0.35685419560E+03  0.81060767657E+03  0.88569610981E+03  0.46999998093E+01 0.  1.
       -5    1    3    3    0  502 -0.24055575459E+01 -0.35685419560E+03  0.13752578579E+03  0.38247370548E+03  0.46999998093E+01 0. -1.
</event>
<event>
 5   0  0.1078787E-03  0.1508552E+04  0.7818609E-02  0.8878786E-01
       -1   -1    0    0    0  501  0.00000000000E+00  0.00000000000E+00  0.32033226750E+03  0.32033226754E+03  0.50400001928E-02 0.  1.
        1   -1    0    0  501    0  0.00000000000E+00  0.00000000000E+00 -0.17760697063E+04  0.17760697063E+04  0.50400001928E-02 0. -1.
    10030    2    1    2    0    0  0.00000000000E+00  0.00000000000E+00 -0.14557374388E+04  0.20964019738E+04  0.15085522017E+04 0.  0.
        5    1    3    3  502    0 -0.20681071670E+03  0.72476960428E+03 -0.76835332410E+03  0.10763134174E+04  0.46999998093E+01 0.  1.
       -5    1    3    3    0  502  0.20681071670E+03 -0.72476960428E+03 -0.68738411468E+03  0.10200885564E+04  0.46999998093E+01 0. -1.
</event>
<event>
 5   0  0.2150197E-03  0.1462267E+04  0.7818609E-02  0.8909940E-01
       -2   -1    0    0    0  501  0.00000000000E+00  0.00000000000E+00  0.44376050254E+03  0.44376050255E+03  0.25500000920E-02 0. -1.
        2   -1    0    0  501    0  0.00000000000E+00  0.00000000000E+00 -0.12046058045E+04  0.12046058045E+04  0.25500000920E-02 0.  1.
    10030    2    1    2    0    0  0.00000000000E+00  0.00000000000E+00 -0.76084530199E+03  0.16483663071E+04  0.14622673862E+04 0.  0.
        3    1    3    3  502    0 -0.38895461825E+03 -0.34914588128E+02 -0.10771903801E+04  0.11457939818E+04  0.10100000352E+00 0.  1.
       -3    1    3    3    0  502  0.38895461825E+03  0.34914588128E+02  0.31634507810E+03  0.50257232530E+03  0.10100000352E+00 0. -1.
</event>
<event>
 5   0  0.2094566E-03  0.1506829E+04  0.7818609E-02  0.8879925E-01
        2   -1    0    0  501    0  0.00000000000E+00  0.00000000000E+00  0.22275549833E+04  0.22275549833E+04  0.25500000920E-02 0.  1.
       -2   -1    0    0    0  501  0.00000000000E+00  0.00000000000E+00 -0.25482337148E+03  0.25482337149E+03  0.25500000920E-02 0. -1.
    10030    2    1    2    0    0  0.00000000000E+00  0.00000000000E+00  0.19727316118E+04  0.24823783548E+04  0.15068285517E+04 0.  0.
        1    1    3    3  502    0 -0.74209491823E+03  0.36390390501E+02  0.11921544046E+04  0.14047281775E+04  0.50400001928E-02 0.  1.
       -1    1    3    3    0  502  0.74209491823E+03 -0.36390390501E+02  0.78057720717E+03  0.10776501773E+04  0.50400001928E-02 0. -1.
</event>
<event>
 5   0  0.1993623E-03  0.1477567E+04  0.7818609E-02  0.8899509E-01
        2   -1    0    0  501    0  0.00000000000E+00  0.00000000000E+00  0.18450921726E+04  0.18450921726E+04  0.25500000920E-02 0. -1.
       -2   -1    0    0    0  501  0.00000000000E+00  0.00000000000E+00 -0.29581246851E+03  0.29581246853E+03  0.25500000920E-02 0.  1.
    10030    2    1    2    0    0  0.00000000000E+00  0.00000000000E+00  0.15492797041E+04  0.21409046411E+04  0.14775672847E+04 0.  0.
        4    1    3    3  502    0 -0.10727479826E+03  0.61035426016E+03  0.13573933521E+04  0.14921657181E+04  0.12699999809E+01 0. -1.
       -4    1    3    3    0  502  0.10727479826E+03 -0.61035426016E+03  0.19188635205E+03  0.64873892302E+03  0.12699999809E+01 0.  1.
</event>
<event>
 5   0  0.1069697E-03  0.1355696E+04  0.7818609E-02  0.8986527E-01
        1   -1    0    0  501    0  0.00000000000E+00  0.00000000000E+00  0.57912392217E+03  0.57912392219E+03  0.50400001928E-02 0.  1.
       -1   -1    0    0    0  501  0.00000000000E+00  0.00000000000E+00 -0.79340184050E+03  0.79340184051E+03  0.50400001928E-02 0. -1.
    10030    2    1    2    0    0  0.00000000000E+00  0.00000000000E+00 -0.21427791833E+03  0.13725257627E+04  0.13556961101E+04 0.  0.
        2    1    3    3  502    0  0.68813156206E+02  0.43900625867E+03 -0.62536861294E+03  0.76716859143E+03  0.25500000920E-02 0. -1.
       -2    1    3    3    0  502 -0.68813156206E+02 -0.43900625867E+03  0.41109069461E+03  0.60535717128E+03  0.25500000920E-02 0.  1.
</event>
<event>
 5   0  0.7468375E-04  0.1492292E+04  0.7818609E-02  0.8889595E-01
       -4   -1    0    0    0  501  0.00000000000E+00  0.00000000000E+00  0.49709894462E+03  0.49710056693E+03  0.12699999809E+01 0. -1.
        4   -1    0    0  501    0  0.00000000000E+00  0.00000000000E+00 -0.11199625315E+04  0.11199632516E+04  0.12699999809E+01 0.  1.
    10030    2    1    2    0    0  0.00000000000E+00  0.00000000000E+00 -0.62286358692E+03  0.16170638185E+04  0.14922923123E+04 0.  0.
        1    1    3    3  502    0 -0.71716191633E+03 -0.30893089508E+02 -0.90793955256E+02  0.72354622489E+03  0.50400001928E-02 0. -1.
       -1    1    3    3    0  502  0.71716191633E+03  0.30893089508E+02 -0.53206963166E+03  0.89351759366E+03  0.50400001928E-02 0.  1.
</event>
<event>
 5   0  0.1078018E-03  0.1191421E+04  0.7818609E-02  0.9120399E-01
       -1   -1    0    0    0  501  0.00000000000E+00  0.00000000000E+00  0.23969024610E+03  0.23969024616E+03  0.50400001928E-02 0. -1.
        1   -1    0    0  501    0  0.00000000000E+00  0.00000000000E+00 -0.14805394608E+04  0.14805394608E+04  0.50400001928E-02 0.  1.
    10030    2    1    2    0    0  0.00000000000E+00  0.00000000000E+00 -0.12408492147E+04  0.17202297070E+04  0.11914207784E+04 0.  0.
        4    1    3    3  502    0 -0.92690428650E+01 -0.53091374828E+03 -0.23054858046E+03  0.57888650366E+03  0.12699999809E+01 0. -1.
       -4    1    3    3    0  502  0.92690428650E+01  0.53091374828E+03 -0.10103006342E+04  0.11413432033E+04  0.12699999809E+01 0.  1.
</event>
<event>
 5   0  0.2094566E-03  0.1514560E+04  0.7818609E-02  0.8874828E-01
       -2   -1    0    0    0  501  0.00000000000E+00  0.00000000000E+00  0.54297841187E+03  0.54297841187E+03  0.25500000920E-02 0.  1.
        2   -1    0    0  501    0  0.00000000000E+00  0.00000000000E+00 -0.10561622952E+04  0.10561622952E+04  0.25500000920E-02 0. -1.
    10030    2    1    2    0    0  0.00000000000E+00  0.00000000000E+00 -0.51318388329E+03  0.15991407070E+04  0.15145604322E+04 0.  0.
        1    1    3    3  502    0  0.18656655932E+03 -0.10506291072E+03 -0.10235365545E+04  0.10456922945E+04  0.50400001928E-02 0. -1.
       -1    1    3    3    0  502 -0.18656655932E+03  0.10506291072E+03  0.51035267125E+03  0.55344841254E+03  0.50400001928E-02 0.  1.
</event>
<event>
 5   0  0.7468375E-04  0.1356162E+04  0.7818609E-02  0.8986176E-01
       -4   -1    0    0    0  501  0.00000000000E+00  0.00000000000E+00  0.13014156765E+04  0.13014162961E+04  0.12699999809E+01 0.  1.
        4   -1    0    0  501    0  0.00000000000E+00  0.00000000000E+00 -0.35330118443E+03  0.35330346704E+03  0.12699999809E+01 0. -1.
    10030    2    1    2    0    0  0.00000000000E+00  0.00000000000E+00  0.94811449204E+03  0.16547197632E+04  0.13561623814E+04 0.  0.
        3    1    3    3  502    0  0.51255108813E+03  0.38771926498E+03  0.73790080943E+03  0.97853587626E+03  0.10100000352E+00 0.  1.
       -3    1    3    3    0  502 -0.51255108813E+03 -0.38771926498E+03  0.21021368261E+03  0.67618388692E+03  0.10100000352E+00 0. -1.
</event>
<event>
 5   0  0.1961098E-03  0.1518608E+04  0.7818609E-02  0.8872172E-01
       -2   -1    0    0    0  501  0.00000000000E+00  0.00000000000E+00  0.48349578914E+03  0.48349578915E+03  0.25500000920E-02 0. -1.
        2   -1    0    0  501    0  0.00000000000E+00  0.00000000000E+00 -0.11924459375E+04  0.11924459375E+04  0.25500000920E-02 0.  1.
    10030    2    1    2    0    0  0.00000000000E+00  0.00000000000E+00 -0.70895014837E+03  0.16759417267E+04  0.15186080331E+04 0.  0.
        2    1    3    3  502    0  0.19555542436E+03 -0.40267335796E+03  0.32238133211E+03  0.55164978066E+03  0.25500000920E-02 0. -1.
       -2    1    3    3    0  502 -0.19555542436E+03  0.40267335796E+03 -0.10313314805E+04  0.11242919460E+04  0.25500000920E-02 0.  1.
</event>
<event>
 5   0  0.1077140E-03  0.1476419E+04  0.7818609E-02  0.8900287E-01
        1   -1    0    0  501    0  0.00000000000E+00  0.00000000000E+00  0.53245575223E+03  0.53245575226E+03  0.50400001928E-02 0. -1.
       -1   -1    0    0    0  501  0.00000000000E+00  0.00000000000E+00 -0.10234717544E+04  0.10234717544E+04  0.50400001928E-02 0.  1.
    10030    2    1    2    0    0  0.00000000000E+00  0.00000000000E+00 -0.49101600217E+03  0.15559275067E+04  0.14764192127E+04 0.  0.
        1    1    3    3  502    0 -0.27400236284E+03 -0.60324030150E+03  0.97564594004E+02  0.66969769764E+03  0.50400001928E-02 0. -1.
       -1    1    3    3    0  502  0.27400236284E+03  0.60324030150E+03 -0.58858059617E+03  0.88622980903E+03  0.50400001928E-02 0.  1.
</event>
<event>
 5   0  0.1078018E-03  0.1492810E+04  0.7818609E-02  0.8889248E-01
        1   -1    0    0  501    0  0.00000000000E+00  0.00000000000E+00  0.16817731862E+04  0.16817731862E+04  0.50400001928E-02 0.  1.
       -1   -1    0    0    0  501  0.00000000000E+00  0.00000000000E+00 -0.33126985281E+03  0.33126985285E+03  0.50400001928E-02 0. -1.
    10030    2    1    2    0    0  0.00000000000E+00  0.00000000000E+00  0.13505033334E+04  0.20130430391E+04  0.14928104447E+04 0.  0.
        4    1    3    3  502    0 -0.59462787253E+03 -0.42465435158E+03  0.46983105031E+03  0.86870964875E+03  0.12699999809E+01 0. -1.
       -4    1    3    3    0  502  0.59462787253E+03  0.42465435158E+03  0.88067228312E+03  0.11443333903E+04  0.12699999809E+01 0.  1.
</event>
<event>
 5   0  0.1961098E-03  0.1519224E+04  0.7818609E-02  0.8871769E-01
        2   -1    0    0  501    0  0.00000000000E+00  0.00000000000E+00  0.13651081256E+04  0.13651081256E+04  0.25500000920E-02 0. -1.
       -2   -1    0    0    0  501  0.00000000000E+00  0.00000000000E+00 -0.42268452693E+03  0.42268452694E+03  0.25500000920E-02 0.  1.
    10030    2    1    2    0    0  0.00000000000E+00  0.00000000000E+00  0.94242359868E+03  0.17877926526E+04  0.15192235942E+04 0.  0.
        2    1    3    3  502    0 -0.51362952570E+03  0.44019535879E+03  0.87787900039E+03  0.11082683713E+04  0.25500000920E-02 0. -1.
       -2    1    3    3    0  502  0.51362952570E+03 -0.44019535879E+03  0.64544598291E+02  0.67952428121E+03  0.25500000920E-02 0.  1.
</event>
<event>
 5   0  0.7468375E-04  0.1469694E+04  0.7818609E-02  0.8904860E-01
       -4   -1    0    0    0  501  0.00000000000E+00  0.00000000000E+00  0.12899584854E+04  0.12899591106E+04  0.12699999809E+01 0.  1.
        4   -1    0    0  501    0  0.00000000000E+00  0.00000000000E+00 -0.41861642488E+03  0.41861835135E+03  0.12699999809E+01 0. -1.
    10030    2    1    2    0    0  0.00000000000E+00  0.00000000000E+00  0.87134206053E+03  0.17085774619E+04  0.14696938310E+04 0.  0.
        2    1    3    3  502    0 -0.16564436816E+03 -0.71470841801E+03  0.38698559662E+03  0.82946008432E+03  0.25500000920E-02 0. -1.
       -2    1    3    3    0  502  0.16564436816E+03  0.71470841801E+03  0.48435646390E+03  0.87911737761E+03  0.25500000920E-02 0.  1.
</event>
<event>
 5   0  0.1077140E-03  0.1495476E+04  0.7818609E-02  0.8887467E-01
        1   -1    0    0  501    0  0.00000000000E+00  0.00000000000E+00  0.81426538482E+03  0.81426538484E+03  0.50400001928E-02 0.  1.
       -1   -1    0    0    0  501  0.00000000000E+00  0.00000000000E+00 -0.68664649187E+03  0.68664649189E+03  0.50400001928E-02 0. -1.
    10030    2    1    2    0    0  0.00000000000E+00  0.00000000000E+00  0.12761889295E+03  0.15009118767E+04  0.14954764725E+04 0.  0.
        1    1    3    3  502    0 -0.22749934631E+03 -0.65773376371E+03  0.33819442384E+03  0.77378622684E+03  0.50400001928E-02 0.  1.
       -1    1    3    3    0  502  0.22749934631E+03  0.65773376371E+03 -0.21057553089E+03  0.72712564989E+03  0.50400001928E-02 0. -1.
</event>
<event>
 5   0  0.1069697E-03  0.1465363E+04  0.7818609E-02  0.8907818E-01
        1   -1    0    0  501    0  0.00000000000E+00  0.00000000000E+00  0.11867920073E+04  0.11867920073E+04  0.50400001928E-02 0.  1.
       -1   -1    0    0    0  501  0.00000000000E+00  0.00000000000E+00 -0.45233049733E+03  0.45233049736E+03  0.50400001928E-02 0. -1.
    10030    2    1    2    0    0  0.00000000000E+00  0.00000000000E+00  0.73446150998E+03  0.16391225047E+04  0.14653630525E+04 0.  0.
        2    1    3    3  502    0  0.27843392200E+02  0.42061992186E+03  0.10375620679E+04  0.11199247376E+04  0.25500000920E-02 0.  1.
       -2    1    3    3    0  502 -0.27843392200E+02 -0.42061992186E+03 -0.30310055789E+03  0.51919776710E+03  0.25500000920E-02 0. -1.
</event>
<event>
 5   0  0.1993623E-03  0.7524820E+03  0.7818609E-02  0.9631464E-01
       -2   -1    0    0    0  501  0.00000000000E+00  0.00000000000E+00  0.19833270991E+03  0.19833270993E+03  0.25500000920E-02 0. -1.
        2   -1    0    0  501    0  0.00000000000E+00  0.00000000000E+00 -0.71373656537E+03  0.71373656538E+03  0.25500000920E-02 0.  1.
    10030    2    1    2    0    0  0.00000000000E+00  0.00000000000E+00 -0.51540385546E+03  0.91206927530E+03  0.75248204546E+03 0.  0.
        4    1    3    3  502    0  0.28342726445E+03  0.10380762136E+03  0.14540928278E+02  0.30219213752E+03  0.12699999809E+01 0. -1.
       -4    1    3    3    0  502 -0.28342726445E+03 -0.10380762136E+03 -0.52994478374E+03  0.60987713778E+03  0.12699999809E+01 0.  1.
</event>
<event>
 5   0  0.7468375E-04  0.1490709E+04  0.7818609E-02  0.8890655E-01
       -3   -1    0    0    0  501  0.00000000000E+00  0.00000000000E+00  0.42710473173E+03  0.42710474367E+03  0.10100000352E+00 0. -1.
        3   -1    0    0  501    0  0.00000000000E+00  0.00000000000E+00 -0.13007423634E+04  0.13007423674E+04  0.10100000352E+00 0.  1.
    10030    2    1    2    0    0  0.00000000000E+00  0.00000000000E+00 -0.87363763172E+03  0.17278471110E+04  0.14907088675E+04 0.  0.
        4    1    3    3  502    0  0.47518087738E+03 -0.15807626593E+02  0.22852082023E+03  0.52751315193E+03  0.12699999809E+01 0. -1.
       -4    1    3    3    0  502 -0.47518087738E+03  0.15807626593E+02 -0.11021584519E+04  0.12003339591E+04  0.12699999809E+01 0.  1.
</event>
<event>
 5   0  0.1993623E-03  0.1496975E+04  0.7818609E-02  0.8886467E-01
       -2   -1    0    0    0  501  0.00000000000E+00  0.00000000000E+00  0.13897426714E+04  0.13897426714E+04  0.25500000920E-02 0. -1.
        2   -1    0    0  501    0  0.00000000000E+00  0.00000000000E+00 -0.40312014623E+03  0.40312014624E+03  0.25500000920E-02 0.  1.
    10030    2    1    2    0    0  0.00000000000E+00  0.00000000000E+00  0.98662252519E+03  0.17928628177E+04  0.14969746410E+04 0.  0.
        4    1    3    3  502    0  0.14848222228E+03  0.48164602366E+03  0.11560410365E+04  0.12611353430E+04  0.12699999809E+01 0. -1.
       -4    1    3    3    0  502 -0.14848222228E+03 -0.48164602366E+03 -0.16941851130E+03  0.53172747466E+03  0.12699999809E+01 0.  1.
</event>
<event>
 5   0  0.1993623E-03  0.1512245E+04  0.7818609E-02  0.8876351E-01
       -2   -1    0    0    0  501  0.00000000000E+00  0.00000000000E+00  0.99665210078E+03  0.99665210078E+03  0.25500000920E-02 0. -1.
        2   -1    0    0  501    0  0.00000000000E+00  0.00000000000E+00 -0.57364164116E+03  0.57364164116E+03  0.25500000920E-02 0.  1.
    10030    2    1    2    0    0  0.00000000000E+00  0.00000000000E+00  0.42301045962E+03  0.15702937419E+04  0.15122448833E+04 0.  0.
        4    1    3    3  502    0  0.64466231886E+03 -0.36774692875E+03  0.36159501022E+03  0.82557850825E+03  0.12699999809E+01 0. -1.
       -4    1    3    3    0  502 -0.64466231886E+03  0.36774692875E+03  0.61415449397E+02  0.74471523369E+03  0.12699999809E+01 0.  1.
</event>
<event>
 5   0  0.2111533E-03  0.1504834E+04  0.7818609E-02  0.8881245E-01
        2   -1    0    0  501    0  0.00000000000E+00  0.00000000000E+00  0.21245274213E+04  0.21245274213E+04  0.25500000920E-02 0.  1.
       -2   -1    0    0    0  501  0.00000000000E+00  0.00000000000E+00 -0.26647410693E+03  0.26647410694E+03  0.25500000920E-02 0. -1.
    10030    2    1    2    0    0  0.00000000000E+00  0.00000000000E+00  0.18580533144E+04  0.23910015283E+04  0.15048342730E+04 0.  0.
        5    1    3    3  502    0  0.46023007201E+03  0.24291316727E+03  0.17924349878E+04  0.18664575541E+04  0.46999998093E+01 0.  1.
       -5    1    3    3    0  502 -0.46023007201E+03 -0.24291316727E+03  0.65618326629E+02  0.52454397414E+03  0.46999998093E+01 0. -1.
</event>
<event>
 5   0  0.1069697E-03  0.1462069E+04  0.7818609E-02  0.8910076E-01
       -1   -1    0    0    0  501  0.00000000000E+00  0.00000000000E+00  0.54211302455E+03  0.54211302457E+03  0.50400001928E-02 0.  1.
        1   -1    0    0  501    0  0.00000000000E+00  0.00000000000E+00 -0.98579332204E+03  0.98579332205E+03  0.50400001928E-02 0. -1.
    10030    2    1    2    0    0  0.00000000000E+00  0.00000000000E+00 -0.44368029749E+03  0.15279063466E+04  0.14620689442E+04 0.  0.
        2    1    3    3  502    0 -0.48022450365E+03  0.44890013449E+02  0.35224276604E+03  0.59724840179E+03  0.25500000920E-02 0.  1.
       -2    1    3    3    0  502  0.48022450365E+03 -0.44890013449E+02 -0.79592306353E+03  0.93065794483E+03  0.25500000920E-02 0. -1.
</event>
<event>
 5   0  0.1077140E-03  0.1454397E+04  0.7818609E-02  0.8915358E-01
       -1   -1    0    0    0  501  0.00000000000E+00  0.00000000000E+00  0.23763558831E+03  0.23763558836E+03  0.50400001928E-02 0. -1.
        1   -1    0    0  501    0  0.00000000000E+00  0.00000000000E+00 -0.22253315904E+04  0.22253315904E+04  0.50400001928E-02 0.  1.
    10030    2    1    2    0    0  0.00000000000E+00  0.00000000000E+00 -0.19876960021E+04  0.24629671787E+04  0.14543974446E+04 0.  0.
        1    1    3    3  502    0  0.65915681035E+03  0.22187772747E+02 -0.15126060590E+04  0.16501385056E+04  0.50400001928E-02 0.  1.
       -1    1    3    3    0  502 -0.65915681035E+03 -0.22187772747E+02 -0.47508994311E+03  0.81282867319E+03  0.50400001928E-02 0. -1.
</event>
<event>
 5   0  0.7468375E-04  0.1536050E+04  0.7818609E-02  0.8860827E-01
        3   -1    0    0  501    0  0.00000000000E+00  0.00000000000E+00  0.11489453017E+04  0.11489453061E+04  0.10100000352E+00 0.  1.
       -3   -1    0    0    0  501  0.00000000000E+00  0.00000000000E+00 -0.51339498228E+03  0.51339499221E+03  0.10100000352E+00 0. -1.
    10030    2    1    2    0    0  0.00000000000E+00  0.00000000000E+00  0.63555031941E+03  0.16623402983E+04  0.15360504741E+04 0.  0.
        2    1    3    3  502    0  0.21462245057E+03  0.65659857575E+03  0.68104935430E+03  0.97005809566E+03  0.25500000920E-02 0.  1.
       -2    1    3    3    0  502 -0.21462245057E+03 -0.65659857575E+03 -0.45499034886E+02  0.69228220268E+03  0.25500000920E-02 0. -1.
</event>
<event>
 5   0  0.2094566E-03  0.1545440E+04  0.7818609E-02  0.8854786E-01
        2   -1    0    0  501    0  0.00000000000E+00  0.00000000000E+00  0.86845911587E+03  0.86845911588E+03  0.25500000920E-02 0.  1.
       -2   -1    0    0    0  501  0.00000000000E+00  0.00000000000E+00 -0.68753491074E+03  0.68753491075E+03  0.25500000920E-02 0. -1.
    10030    2    1    2    0    0  0.00000000000E+00  0.00000000000E+00  0.18092420513E+03  0.15559940266E+04  0.15454396924E+04 0.  0.
        1    1    3    3  502    0  0.42665416242E+03  0.63104802688E+03 -0.40195387238E+02  0.76280472974E+03  0.50400001928E-02 0. -1.
       -1    1    3    3    0  502 -0.42665416242E+03 -0.63104802688E+03  0.22111959237E+03  0.79318929688E+03  0.50400001928E-02 0.  1.
</event>
<event>
 5   0  0.7468375E-04  0.1510669E+04  0.7818609E-02  0.8877389E-01
       -4   -1    0    0    0  501  0.00000000000E+00  0.00000000000E+00  0.65853843142E+03  0.65853965603E+03  0.12699999809E+01 0.  1.
        4   -1    0    0  501    0  0.00000000000E+00  0.00000000000E+00 -0.86635567028E+03  0.86635660113E+03  0.12699999809E+01 0. -1.
    10030    2    1    2    0    0  0.00000000000E+00  0.00000000000E+00 -0.20781723886E+03  0.15248962572E+04  0.15106689215E+04 0.  0.
        1    1    3    3  502    0  0.61674137715E+03 -0.22477364649E+02  0.33568678129E+03  0.70253880559E+03  0.50400001928E-02 0.  1.
       -1    1    3    3    0  502 -0.61674137715E+03  0.22477364649E+02 -0.54350402014E+03  0.82235745156E+03  0.50400001928E-02 0. -1.
</event>
<event>
 5   0  0.1993623E-03  0.1000472E+04  0.7818609E-02  0.9308027E-01
       -2   -1    0    0    0  501  0.00000000000E+00  0.00000000000E+00  0.70535357498E+03  0.70535357499E+03  0.25500000920E-02 0. -1.
        2   -1    0    0  501    0  0.00000000000E+00  0.00000000000E+00 -0.35476680850E+03  0.35476680850E+03  0.25500000920E-02 0.  1.
    10030    2    1    2    0    0  0.00000000000E+00  0.00000000000E+00  0.35058676649E+03  0.10601203835E+04  0.10004719620E+04 0.  0.
        4    1    3    3  502    0  0.34957022511E+03  0.42065520678E+02 -0.20123068339E+03  0.40554192280E+03  0.12699999809E+01 0.  1.
       -4    1    3    3    0  502 -0.34957022511E+03 -0.42065520678E+02  0.55181744988E+03  0.65457846069E+03  0.12699999809E+01 0. -1.
</event>
<event>
 5   0  0.1078787E-03  0.1495351E+04  0.7818609E-02  0.8887550E-01
        1   -1    0    0  501    0  0.00000000000E+00  0.00000000000E+00  0.91325149251E+03  0.91325149253E+03  0.50400001928E-02 0.  1.
       -1   -1    0    0    0  501  0.00000000000E+00  0.00000000000E+00 -0.61211909771E+03  0.61211909773E+03  0.50400001928E-02 0. -1.
    10030    2    1    2    0    0  0.00000000000E+00  0.00000000000E+00  0.30113239480E+03  0.15253705903E+04  0.14953510352E+04 0.  0.
        5    1    3    3  502    0 -0.69351775023E+03 -0.16741033188E+03  0.37866994324E+03  0.80771659945E+03  0.46999998093E+01 0.  1.
       -5    1    3    3    0  502  0.69351775023E+03  0.16741033188E+03 -0.77537548444E+02  0.71765399081E+03  0.46999998093E+01 0. -1.
</event>
<event>
 5   0  0.1087761E-03  0.1396024E+04  0.7818609E-02  0.8956702E-01
       -1   -1    0    0    0  501  0.00000000000E+00  0.00000000000E+00  0.42889616209E+03  0.42889616212E+03  0.50400001928E-02 0. -1.
        1   -1    0    0  501    0  0.00000000000E+00  0.00000000000E+00 -0.11359875763E+04  0.11359875763E+04  0.50400001928E-02 0.  1.
    10030    2    1    2    0    0  0.00000000000E+00  0.00000000000E+00 -0.70709141417E+03  0.15648837384E+04  0.13960239420E+04 0.  0.
        3    1    3    3  502    0 -0.47520891550E+02  0.19914506851E+03 -0.11015728669E+04  0.11204373185E+04  0.10100000352E+00 0.  1.
       -3    1    3    3    0  502  0.47520891550E+02 -0.19914506851E+03  0.39448145269E+03  0.44444641990E+03  0.10100000352E+00 0. -1.
</event>
<event>
 5   0  0.1069697E-03  0.1495864E+04  0.7818609E-02  0.8887208E-01
        1   -1    0    0  501    0  0.00000000000E+00  0.00000000000E+00  0.11682991781E+04  0.11682991781E+04  0.50400001928E-02 0. -1.
       -1   -1    0    0    0  501  0.00000000000E+00  0.00000000000E+00 -0.47881744939E+03  0.47881744942E+03  0.50400001928E-02 0.  1.
    10030    2    1    2    0    0  0.00000000000E+00  0.00000000000E+00  0.68948172870E+03  0.16471166275E+04  0.14958636738E+04 0.  0.
        2    1    3    3  502    0 -0.68808750093E+03 -0.26991165592E+03  0.21878321792E+03  0.77083254173E+03  0.25500000920E-02 0. -1.
       -2    1    3    3    0  502  0.68808750093E+03  0.26991165592E+03  0.47069851079E+03  0.87628408579E+03  0.25500000920E-02 0.  1.
</event>
<event>
 5   0  0.1069697E-03  0.1498601E+04  0.7818609E-02  0.8885384E-01
        1   -1    0    0  501    0  0.00000000000E+00  0.00000000000E+00  0.75497915067E+03  0.75497915069E+03  0.50400001928E-02 0. -1.
       -1   -1    0    0    0  501  0.00000000000E+00  0.00000000000E+00 -0.74366421883E+03  0.74366421885E+03  0.50400001928E-02 0.  1.
    10030    2    1    2    0    0  0.00000000000E+00  0.00000000000E+00  0.11314931842E+02  0.14986433695E+04  0.14986006544E+04 0.  0.
        2    1    3    3  502    0  0.27863686227E+03  0.40958341693E+03  0.56786020635E+03  0.75356638088E+03  0.25500000920E-02 0. -1.
       -2    1    3    3    0  502 -0.27863686227E+03 -0.40958341693E+03 -0.55654527451E+03  0.74507698865E+03  0.25500000920E-02 0.  1.
</event>
<event>
 5   0  0.1078787E-03  0.1456011E+04  0.7818609E-02  0.8914244E-01
        1   -1    0    0  501    0  0.00000000000E+00  0.00000000000E+00  0.79843162598E+03  0.79843162600E+03  0.50400001928E-02 0.  1.
       -1   -1    0    0    0  501  0.00000000000E+00  0.00000000000E+00 -0.66379105931E+03  0.66379105933E+03  0.50400001928E-02 0. -1.
    10030    2    1    2    0    0  0.00000000000E+00  0.00000000000E+00  0.13464056667E+03  0.14622226853E+04  0.14560106797E+04 0.  0.
        5    1    3    3  502    0  0.48145067475E+03  0.16907517763E+03  0.58875465053E+03  0.77912469890E+03  0.46999998093E+01 0.  1.
       -5    1    3    3    0  502 -0.48145067475E+03 -0.16907517763E+03 -0.45411408386E+03  0.68309798643E+03  0.46999998093E+01 0. -1.
</event>
<event>
 5   0  0.2094566E-03  0.1509110E+04  0.7818609E-02  0.8878418E-01
        2   -1    0    0  501    0  0.00000000000E+00  0.00000000000E+00  0.10532397986E+04  0.10532397986E+04  0.25500000920E-02 0.  1.
       -2   -1    0    0    0  501  0.00000000000E+00  0.00000000000E+00 -0.54057305751E+03  0.54057305752E+03  0.25500000920E-02 0. -1.
    10030    2    1    2    0    0  0.00000000000E+00  0.00000000000E+00  0.51266674104E+03  0.15938128561E+04  0.15091097484E+04 0.  0.
        1    1    3    3  502    0 -0.69608291668E+03  0.17012984178E+03  0.50598526223E+03  0.87720959615E+03  0.50400001928E-02 0. -1.
       -1    1    3    3    0  502  0.69608291668E+03 -0.17012984178E+03  0.66814788184E+01  0.71660325993E+03  0.50400001928E-02 0.  1.
</event>
<event>
 5   0  0.1078018E-03  0.1476582E+04  0.7818609E-02  0.8900176E-01
        1   -1    0    0  501    0  0.00000000000E+00  0.00000000000E+00  0.19848028841E+04  0.19848028841E+04  0.50400001928E-02 0.  1.
       -1   -1    0    0    0  501  0.00000000000E+00  0.00000000000E+00 -0.27462370411E+03  0.27462370416E+03  0.50400001928E-02 0. -1.
    10030    2    1    2    0    0  0.00000000000E+00  0.00000000000E+00  0.17101791799E+04  0.22594265882E+04  0.14765824325E+04 0.  0.
        4    1    3    3  502    0  0.29336601690E+03  0.67749993073E+03  0.85265517828E+03  0.11278706672E+04  0.12699999809E+01 0. -1.
       -4    1    3    3    0  502 -0.29336601690E+03 -0.67749993073E+03  0.85752400166E+03  0.11315559210E+04  0.12699999809E+01 0.  1.
</event>
<event>
 5   0  0.1077140E-03  0.1116179E+04  0.7818609E-02  0.9189565E-01
        1   -1    0    0  501    0  0.00000000000E+00  0.00000000000E+00  0.64870309963E+03  0.64870309965E+03  0.50400001928E-02 0.  1.
       -1   -1    0    0    0  501  0.00000000000E+00  0.00000000000E+00 -0.48013309138E+03  0.48013309141E+03  0.50400001928E-02 0. -1.
    10030    2    1    2    0    0  0.00000000000E+00  0.00000000000E+00  0.16857000824E+03  0.11288361911E+04  0.11161788829E+04 0.  0.
        1    1    3    3  502    0  0.35065944406E+03 -0.23330321107E+03 -0.28602477402E+03  0.50911944117E+03  0.50400001928E-02 0. -1.
       -1    1    3    3    0  502 -0.35065944406E+03  0.23330321107E+03  0.45459478226E+03  0.61971674988E+03  0.50400001928E-02 0.  1.
</event>
<event>
 5   0  0.1993623E-03  0.1558170E+04  0.7818609E-02  0.8846666E-01
        2   -1    0    0  501    0  0.00000000000E+00  0.00000000000E+00  0.14430258340E+04  0.14430258340E+04  0.25500000920E-02 0. -1.
       -2   -1    0    0    0  501  0.00000000000E+00  0.00000000000E+00 -0.42062542977E+03  0.42062542978E+03  0.25500000920E-02 0.  1.
    10030    2    1    2    0    0  0.00000000000E+00  0.00000000000E+00  0.10224004042E+04  0.18636512637E+04  0.15581699029E+04 0.  0.
        4    1    3    3  502    0 -0.46043448299E+03 -0.36900785670E+03 -0.97265634800E+02  0.59802084249E+03  0.12699999809E+01 0.  1.
       -4    1    3    3    0  502  0.46043448299E+03  0.36900785670E+03  0.11196660390E+04  0.12656304213E+04  0.12699999809E+01 0. -1.
</event>
<event>
 5   0  0.1078787E-03  0.1508156E+04  0.7818609E-02  0.8879048E-01
        1   -1    0    0  501    0  0.00000000000E+00  0.00000000000E+00  0.63383629851E+03  0.63383629853E+03  0.50400001928E-02 0. -1.
       -1   -1    0    0    0  501  0.00000000000E+00  0.00000000000E+00 -0.89712970611E+03  0.89712970612E+03  0.50400001928E-02 0.  1.
    10030    2    1    2    0    0  0.00000000000E+00  0.00000000000E+00 -0.26329340760E+03  0.15309660047E+04  0.15081556581E+04 0.  0.
        5    1    3    3  502    0 -0.25171503234E+03 -0.40455483632E+03  0.46164673259E+03  0.66344922097E+03  0.46999998093E+01 0. -1.
       -5    1    3    3    0  502  0.25171503234E+03  0.40455483632E+03 -0.72494014019E+03  0.86751678368E+03  0.46999998093E+01 0.  1.
</event>
<event>
 5   0  0.1078787E-03  0.8158210E+03  0.7818609E-02  0.9537395E-01
        1   -1    0    0  501    0  0.00000000000E+00  0.00000000000E+00  0.38710058454E+03  0.38710058457E+03  0.50400001928E-02 0.  1.
       -1   -1    0    0    0  501  0.00000000000E+00  0.00000000000E+00 -0.42983910048E+03  0.42983910051E+03  0.50400001928E-02 0. -1.
    10030    2    1    2    0    0  0.00000000000E+00  0.00000000000E+00 -0.42738515947E+02  0.81693968508E+03  0.81582097810E+03 0.  0.
        5    1    3    3  502    0  0.39090063358E+03  0.11131325442E+03 -0.55693529720E+02  0.41026553011E+03  0.46999998093E+01 0. -1.
       -5    1    3    3    0  502 -0.39090063358E+03 -0.11131325442E+03  0.12955013772E+02  0.40667415497E+03  0.46999998093E+01 0.  1.
</event>
<event>
 5   0  0.1078018E-03  0.1484817E+04  0.7818609E-02  0.8894613E-01
        1   -1    0    0  501    0  0.00000000000E+00  0.00000000000E+00  0.29378679505E+03  0.29378679510E+03  0.50400001928E-02 0.  1.
       -1   -1    0    0    0  501  0.00000000000E+00  0.00000000000E+00 -0.18760900436E+04  0.18760900436E+04  0.50400001928E-02 0. -1.
    10030    2    1    2    0    0  0.00000000000E+00  0.00000000000E+00 -0.15823032486E+04  0.21698768387E+04  0.14848171351E+04 0.  0.
        4    1    3    3  502    0 -0.24945587918E+03 -0.19907689112E+03 -0.17707198377E+04  0.17992526784E+04  0.12699999809E+01 0. -1.
       -4    1    3    3    0  502  0.24945587918E+03  0.19907689112E+03  0.18841658915E+03  0.37062416030E+03  0.12699999809E+01 0.  1.
</event>
<event>
 5   0  0.2094566E-03  0.1510341E+04  0.7818609E-02  0.8877606E-01
        2   -1    0    0  501    0  0.00000000000E+00  0.00000000000E+00  0.19427795962E+04  0.19427795962E+04  0.25500000920E-02 0.  1.
       -2   -1    0    0    0  501  0.00000000000E+00  0.00000000000E+00 -0.29353927779E+03  0.29353927781E+03  0.25500000920E-02 0. -1.
    10030    2    1    2    0    0  0.00000000000E+00  0.00000000000E+00  0.16492403184E+04  0.22363188740E+04  0.15103405174E+04 0.  0.
        1    1    3    3  502    0 -0.53277128140E+03  0.27714088600E+03  0.15025509772E+04  0.16181198188E+04  0.50400001928E-02 0.  1.
       -1    1    3    3    0  502  0.53277128140E+03 -0.27714088600E+03  0.14668934121E+03  0.61819905518E+03  0.50400001928E-02 0. -1.
</event>
<event>
 5   0  0.1078018E-03  0.1591841E+04  0.7818609E-02  0.8825576E-01
       -1   -1    0    0    0  501  0.00000000000E+00  0.00000000000E+00  0.41432707912E+03  0.41432707915E+03  0.50400001928E-02 0. -1.
        1   -1    0    0  501    0  0.00000000000E+00  0.00000000000E+00 -0.15289591286E+04  0.15289591286E+04  0.50400001928E-02 0.  1.
    10030    2    1    2    0    0  0.00000000000E+00  0.00000000000E+00 -0.11146320495E+04  0.19432862078E+04  0.15918406577E+04 0.  0.
        4    1    3    3  502    0  0.77159713223E+03 -0.14590136686E+03 -0.71572696932E+03  0.10625046121E+04  0.12699999809E+01 0.  1.
       -4    1    3    3    0  502 -0.77159713223E+03  0.14590136686E+03 -0.39890508017E+03  0.88078159563E+03  0.12699999809E+01 0. -1.
</event>
<event>
 5   0  0.2094566E-03  0.1503068E+04  0.7818609E-02  0.8882415E-01
        2   -1    0    0  501    0  0.00000000000E+00  0.00000000000E+00  0.20233387311E+04  0.20233387311E+04  0.25500000920E-02 0. -1.
       -2   -1    0    0    0  501  0.00000000000E+00  0.00000000000E+00 -0.27914434437E+03  0.27914434438E+03  0.25500000920E-02 0.  1.
    10030    2    1    2    0    0  0.00000000000E+00  0.00000000000E+00  0.17441943867E+04  0.23024830755E+04  0.15030682799E+04 0.  0.
        1    1    3    3  502    0  0.24199570955E+03 -0.12050540141E+03 -0.20208194158E+03  0.33752123836E+03  0.50400001928E-02 0.  1.
       -1    1    3    3    0  502 -0.24199570955E+03  0.12050540141E+03  0.19462763283E+04  0.19649618371E+04  0.50400001928E-02 0. -1.
</event>
<event>
 5   0  0.2150197E-03  0.1513222E+04  0.7818609E-02  0.8875708E-01
       -2   -1    0    0    0  501  0.00000000000E+00  0.00000000000E+00  0.36681309113E+03  0.36681309114E+03  0.25500000920E-02 0.  1.
        2   -1    0    0  501    0  0.00000000000E+00  0.00000000000E+00 -0.15606323805E+04  0.15606323805E+04  0.25500000920E-02 0. -1.
    10030    2    1    2    0    0  0.00000000000E+00  0.00000000000E+00 -0.11938192893E+04  0.19274454716E+04  0.15132222409E+04 0.  0.
        3    1    3    3  502    0  0.15419850350E+03 -0.16613550175E+03 -0.15163689263E+04  0.15332165255E+04  0.10100000352E+00 0. -1.
       -3    1    3    3    0  502 -0.15419850350E+03  0.16613550175E+03  0.32254963694E+03  0.39422894607E+03  0.10100000352E+00 0.  1.
</event>
<event>
 5   0  0.2150197E-03  0.1531168E+04  0.7818609E-02  0.8863987E-01
       -2   -1    0    0    0  501  0.00000000000E+00  0.00000000000E+00  0.30365777731E+03  0.30365777733E+03  0.25500000920E-02 0.  1.
        2   -1    0    0  501    0  0.00000000000E+00  0.00000000000E+00 -0.19301944594E+04  0.19301944594E+04  0.25500000920E-02 0. -1.
    10030    2    1    2    0    0  0.00000000000E+00  0.00000000000E+00 -0.16265366820E+04  0.22338522367E+04  0.15311676059E+04 0.  0.
        3    1    3    3  502    0 -0.36981899037E+02 -0.72417538050E+03 -0.11715838778E+04  0.13778267073E+04  0.10100000352E+00 0. -1.
       -3    1    3    3    0  502  0.36981899037E+02  0.72417538050E+03 -0.45495280426E+03  0.85602552934E+03  0.10100000352E+00 0.  1.
</event>
<event>
 5   0  0.1077140E-03  0.1480042E+04  0.7818609E-02  0.8897834E-01
        1   -1    0    0  501    0  0.00000000000E+00  0.00000000000E+00  0.13917862924E+04  0.13917862924E+04  0.50400001928E-02 0.  1.
       -1   -1    0    0    0  501  0.00000000000E+00  0.00000000000E+00 -0.39347380445E+03  0.39347380448E+03  0.50400001928E-02 0. -1.
    10030    2    1    2    0    0  0.00000000000E+00  0.00000000000E+00  0.99831248793E+03  0.17852600969E+04  0.14800424960E+04 0.  0.
        1    1    3    3  502    0 -0.71720237255E+03  0.35887888270E+02  0.71481131028E+03  0.10132237626E+04  0.50400001928E-02 0.  1.
       -1    1    3    3    0  502  0.71720237255E+03 -0.35887888270E+02  0.28350117764E+03  0.77203633429E+03  0.50400001928E-02 0. -1.
</event>
<event>
 5   0  0.1078787E-03  0.1628031E+04  0.7818609E-02  0.8803510E-01
        1   -1    0    0  501    0  0.00000000000E+00  0.00000000000E+00  0.15511897827E+04  0.15511897827E+04  0.50400001928E-02 0.  1.
       -1   -1    0    0    0  501  0.00000000000E+00  0.00000000000E+00 -0.42716959265E+03  0.42716959268E+03  0.50400001928E-02 0. -1.
    10030    2    1    2    0    0  0.00000000000E+00  0.00000000000E+00  0.11240201900E+04  0.19783593754E+04  0.16280308445E+04 0.  0.
        5    1    3    3  502    0 -0.64107177040E+01 -0.52560715834E+03 -0.19325970603E+03  0.56006730504E+03  0.46999998093E+01 0. -1.
       -5    1    3    3    0  502  0.64107177040E+01  0.52560715834E+03  0.13172798961E+04  0.14182920703E+04  0.46999998093E+01 0.  1.
</event>
<event>
 5   0  0.2150197E-03  0.1475669E+04  0.7818609E-02  0.8900796E-01
       -2   -1    0    0    0  501  0.00000000000E+00  0.00000000000E+00  0.32147679314E+03  0.32147679315E+03  0.25500000920E-02 0.  1.
        2   -1    0    0  501    0  0.00000000000E+00  0.00000000000E+00 -0.16934334459E+04  0.16934334459E+04  0.25500000920E-02 0. -1.
    10030    2    1    2    0    0  0.00000000000E+00  0.00000000000E+00 -0.13719566528E+04  0.20149102391E+04  0.14756687346E+04 0.  0.
        3    1    3    3  502    0 -0.46181695690E+03 -0.49761051945E+03 -0.10805554861E+04  0.12761235439E+04  0.10100000352E+00 0. -1.
       -3    1    3    3    0  502  0.46181695690E+03  0.49761051945E+03 -0.29140116672E+03  0.73878669514E+03  0.10100000352E+00 0.  1.
</event>
<event>
 5   0  0.1078787E-03  0.1537235E+04  0.7818609E-02  0.8860063E-01
       -1   -1    0    0    0  501  0.00000000000E+00  0.00000000000E+00  0.39695339658E+03  0.39695339662E+03  0.50400001928E-02 0.  1.
        1   -1    0    0  501    0  0.00000000000E+00  0.00000000000E+00 -0.14882674374E+04  0.14882674374E+04  0.50400001928E-02 0. -1.
    10030    2    1    2    0    0  0.00000000000E+00  0.00000000000E+00 -0.10913140408E+04  0.18852208340E+04  0.15372349389E+04 0.  0.
        5    1    3    3  502    0 -0.13813126854E+02 -0.14893950128E+03  0.37891386035E+03  0.40739609851E+03  0.46999998093E+01 0.  1.
       -5    1    3    3    0  502  0.13813126854E+02  0.14893950128E+03 -0.14702279012E+04  0.14778247355E+04  0.46999998093E+01 0. -1.
</event>
<event>
 5   0  0.1961098E-03  0.1536484E+04  0.7818609E-02  0.8860547E-01
        2   -1    0    0  501    0  0.00000000000E+00  0.00000000000E+00  0.67305862045E+03  0.67305862045E+03  0.25500000920E-02 0.  1.
       -2   -1    0    0    0  501  0.00000000000E+00  0.00000000000E+00 -0.87688647621E+03  0.87688647622E+03  0.25500000920E-02 0. -1.
    10030    2    1    2    0    0  0.00000000000E+00  0.00000000000E+00 -0.20382785577E+03  0.15499450967E+04  0.15364843012E+04 0.  0.
        2    1    3    3  502    0 -0.64155230770E+01  0.22383874509E+03 -0.84323372526E+03  0.87246092070E+03  0.25500000920E-02 0. -1.
       -2    1    3    3    0  502  0.64155230770E+01 -0.22383874509E+03  0.63940586949E+03  0.67748417597E+03  0.25500000920E-02 0.  1.
</event>
<event>
 5   0  0.1087761E-03  0.1525539E+04  0.7818609E-02  0.8867645E-01
       -1   -1    0    0    0  501  0.00000000000E+00  0.00000000000E+00  0.47162646082E+03  0.47162646085E+03  0.50400001928E-02 0. -1.
        1   -1    0    0  501    0  0.00000000000E+00  0.00000000000E+00 -0.12336393401E+04  0.12336393401E+04  0.50400001928E-02 0.  1.
    10030    2    1    2    0    0  0.00000000000E+00  0.00000000000E+00 -0.76201287927E+03  0.17052658010E+04  0.15255385356E+04 0.  0.
        3    1    3    3  502    0  0.42732463746E+03 -0.51823785329E+03 -0.78503047069E+03  0.10331745586E+04  0.10100000352E+00 0.  1.
       -3    1    3    3    0  502 -0.42732463746E+03  0.51823785329E+03  0.23017591427E+02  0.67209124238E+03  0.10100000352E+00 0. -1.
</event>
<event>
 5   0  0.1077140E-03  0.1492590E+04  0.7818609E-02  0.8889395E-01
       -1   -1    0    0    0  501  0.00000000000E+00  0.00000000000E+00  0.91671948989E+03  0.91671948990E+03  0.50400001928E-02 0. -1.
        1   -1    0    0  501    0  0.00000000000E+00  0.00000000000E+00 -0.60755371655E+03  0.60755371657E+03  0.50400001928E-02 0.  1.
    10030    2    1    2    0    0  0.00000000000E+00  0.00000000000E+00  0.30916577334E+03  0.15242732065E+04  0.14925901422E+04 0.  0.
        1    1    3    3  502    0  0.12119457354E+02 -0.50683311238E+03 -0.40470053442E+03  0.64869808666E+03  0.50400001928E-02 0.  1.
       -1    1    3    3    0  502 -0.12119457354E+02  0.50683311238E+03  0.71386630776E+03  0.87557511981E+03  0.50400001928E-02 0. -1.
</event>
<event>
 5   0  0.1078018E-03  0.1521198E+04  0.7818609E-02  0.8870478E-01
        1   -1    0    0  501    0  0.00000000000E+00  0.00000000000E+00  0.10108759110E+04  0.10108759110E+04  0.50400001928E-02 0. -1.
       -1   -1    0    0    0  501  0.00000000000E+00  0.00000000000E+00 -0.57228655852E+03  0.57228655854E+03  0.50400001928E-02 0.  1.
    10030    2    1    2    0    0  0.00000000000E+00  0.00000000000E+00  0.43858935244E+03  0.15831624695E+04  0.15211978125E+04 0.  0.
        4    1    3    3  502    0 -0.46689566249E+03  0.30835911150E+03  0.75548204924E+03  0.94012320518E+03  0.12699999809E+01 0. -1.
       -4    1    3    3    0  502  0.46689566249E+03 -0.30835911150E+03 -0.31689269680E+03  0.64303926434E+03  0.12699999809E+01 0.  1.
</event>
<event>
 5   0  0.1993623E-03  0.1065898E+04  0.7818609E-02  0.9239083E-01
        2   -1    0    0  501    0  0.00000000000E+00  0.00000000000E+00  0.26765962117E+03  0.26765962118E+03  0.25500000920E-02 0.  1.
       -2   -1    0    0    0  501  0.00000000000E+00  0.00000000000E+00 -0.10611782536E+04  0.10611782536E+04  0.25500000920E-02 0. -1.
    10030    2    1    2    0    0  0.00000000000E+00  0.00000000000E+00 -0.79351863243E+03  0.13288378748E+04  0.10658978738E+04 0.  0.
        4    1    3    3  502    0  0.30028645120E+01 -0.40369736527E+03 -0.83051288604E+03  0.92343589204E+03  0.12699999809E+01 0. -1.
       -4    1    3    3    0  502 -0.30028645120E+01  0.40369736527E+03  0.36994253614E+02  0.40540198275E+03  0.12699999809E+01 0.  1.
</event>
<event>
 5   0  0.1087761E-03  0.1496076E+04  0.7818609E-02  0.8887067E-01
        1   -1    0    0  501    0  0.00000000000E+00  0.00000000000E+00  0.12142174366E+04  0.12142174366E+04  0.50400001928E-02 0.  1.
       -1   -1    0    0    0  501  0.00000000000E+00  0.00000000000E+00 -0.46084054824E+03  0.46084054827E+03  0.50400001928E-02 0. -1.
    10030    2    1    2    0    0  0.00000000000E+00  0.00000000000E+00  0.75337688838E+03  0.16750579849E+04  0.14960757056E+04 0.  0.
        3    1    3    3  502    0 -0.30020308095E+03  0.60582671330E+03  0.18383145310E+02  0.67637700034E+03  0.10100000352E+00 0. -1.
       -3    1    3    3    0  502  0.30020308095E+03 -0.60582671330E+03  0.73499374307E+03  0.99868098455E+03  0.10100000352E+00 0.  1.
</event>
<event>
 5   0  0.1078787E-03  0.1286156E+04  0.7818609E-02  0.9040616E-01
        1   -1    0    0  501    0  0.00000000000E+00  0.00000000000E+00  0.36512486521E+03  0.36512486524E+03  0.50400001928E-02 0. -1.
       -1   -1    0    0    0  501  0.00000000000E+00  0.00000000000E+00 -0.11326240661E+04  0.11326240661E+04  0.50400001928E-02 0.  1.
    10030    2    1    2    0    0  0.00000000000E+00  0.00000000000E+00 -0.76749920086E+03  0.14977489313E+04  0.12861558373E+04 0.  0.
        5    1    3    3  502    0  0.59334540952E+03  0.24792687514E+03 -0.38284078181E+03  0.74840875505E+03  0.46999998093E+01 0. -1.
       -5    1    3    3    0  502 -0.59334540952E+03 -0.24792687514E+03 -0.38465841905E+03  0.74934017627E+03  0.46999998093E+01 0.  1.
</event>
<event>
 5   0  0.1078018E-03  0.1538947E+04  0.7818609E-02  0.8858959E-01
       -1   -1    0    0    0  501  0.00000000000E+00  0.00000000000E+00  0.56572441409E+03  0.56572441411E+03  0.50400001928E-02 0.  1.
        1   -1    0    0  501    0  0.00000000000E+00  0.00000000000E+00 -0.10466045263E+04  0.10466045263E+04  0.50400001928E-02 0. -1.
    10030    2    1    2    0    0  0.00000000000E+00  0.00000000000E+00 -0.48088011224E+03  0.16123289405E+04  0.15389473447E+04 0.  0.
        4    1    3    3  502    0  0.63134629364E+03  0.43556603232E+03 -0.30478697213E+03  0.82535605789E+03  0.12699999809E+01 0. -1.
       -4    1    3    3    0  502 -0.63134629364E+03 -0.43556603232E+03 -0.17609314011E+03  0.78697288257E+03  0.12699999809E+01 0.  1.
</event>
<event>
 5   0  0.1961098E-03  0.9993914E+03  0.7818609E-02  0.9309213E-01
       -2   -1    0    0    0  501  0.00000000000E+00  0.00000000000E+00  0.12113207166E+03  0.12113207169E+03  0.25500000920E-02 0.  1.
        2   -1    0    0  501    0  0.00000000000E+00  0.00000000000E+00 -0.20613515358E+04  0.20613515358E+04  0.25500000920E-02 0. -1.
    10030    2    1    2    0    0  0.00000000000E+00  0.00000000000E+00 -0.19402194642E+04  0.21824836075E+04  0.99939137876E+03 0.  0.
        2    1    3    3  502    0  0.24734884180E+03  0.43359532865E+03 -0.92082018344E+03  0.10474235861E+04  0.25500000920E-02 0.  1.
       -2    1    3    3    0  502 -0.24734884180E+03 -0.43359532865E+03 -0.10193992807E+04  0.11350600214E+04  0.25500000920E-02 0. -1.
</event>
<event>
 5   0  0.1993623E-03  0.1524646E+04  0.7818609E-02  0.8868227E-01
        2   -1    0    0  501    0  0.00000000000E+00  0.00000000000E+00  0.55210572030E+03  0.55210572030E+03  0.25500000920E-02 0. -1.
       -2   -1    0    0    0  501  0.00000000000E+00  0.00000000000E+00 -0.10525813363E+04  0.10525813363E+04  0.25500000920E-02 0.  1.
    10030    2    1    2    0    0  0.00000000000E+00  0.00000000000E+00 -0.50047561596E+03  0.16046870566E+04  0.15246457645E+04 0.  0.
        4    1    3    3  502    0  0.23005056720E+03  0.72448962953E+03 -0.18953796635E+03  0.78341224165E+03  0.12699999809E+01 0. -1.
       -4    1    3    3    0  502 -0.23005056720E+03 -0.72448962953E+03 -0.31093764961E+03  0.82127481492E+03  0.12699999809E+01 0.  1.
</event>
<event>
 5   0  0.1993623E-03  0.1511533E+04  0.7818609E-02  0.8876820E-01
        2   -1    0    0  501    0  0.00000000000E+00  0.00000000000E+00  0.95973618525E+03  0.95973618525E+03  0.25500000920E-02 0.  1.
       -2   -1    0    0    0  501  0.00000000000E+00  0.00000000000E+00 -0.59514559982E+03  0.59514559982E+03  0.25500000920E-02 0. -1.
    10030    2    1    2    0    0  0.00000000000E+00  0.00000000000E+00  0.36459058543E+03  0.15548817851E+04  0.15115326892E+04 0.  0.
        4    1    3    3  502    0 -0.59626005149E+02  0.68366350772E+03 -0.14337558096E+03  0.70107718719E+03  0.12699999809E+01 0. -1.
       -4    1    3    3    0  502  0.59626005149E+02 -0.68366350772E+03  0.50796616639E+03  0.85380459789E+03  0.12699999809E+01 0.  1.
</event>
<event>
 5   0  0.1078018E-03  0.1493456E+04  0.7818609E-02  0.8888816E-01
       -1   -1    0    0    0  501  0.00000000000E+00  0.00000000000E+00  0.63999816644E+03  0.63999816646E+03  0.50400001928E-02 0.  1.
        1   -1    0    0  501    0  0.00000000000E+00  0.00000000000E+00 -0.87125700818E+03  0.87125700819E+03  0.50400001928E-02 0. -1.
    10030    2    1    2    0    0  0.00000000000E+00  0.00000000000E+00 -0.23125884174E+03  0.15112551747E+04  0.14934562434E+04 0.  0.
        4    1    3    3  502    0 -0.37148617650E+02  0.37808457039E+03  0.53489556039E+03  0.65608142450E+03  0.12699999809E+01 0.  1.
       -4    1    3    3    0  502  0.37148617650E+02 -0.37808457039E+03 -0.76615440212E+03  0.85517375015E+03  0.12699999809E+01 0. -1.
</event>
<event>
 5   0  0.1961098E-03  0.1522816E+04  0.7818609E-02  0.8869421E-01
        2   -1    0    0  501    0  0.00000000000E+00  0.00000000000E+00  0.79428646291E+03  0.79428646292E+03  0.25500000920E-02 0.  1.
       -2   -1    0    0    0  501  0.00000000000E+00  0.00000000000E+00 -0.72989020715E+03  0.72989020716E+03  0.25500000920E-02 0. -1.
    10030    2    1    2    0    0  0.00000000000E+00  0.00000000000E+00  0.64396255761E+02  0.15241766701E+04  0.15228156960E+04 0.  0.
        2    1    3    3  502    0  0.19782452647E+03 -0.71460752193E+03 -0.14099830240E+03  0.75477080956E+03  0.25500000920E-02 0. -1.
       -2    1    3    3    0  502 -0.19782452647E+03  0.71460752193E+03  0.20539455816E+03  0.76940586052E+03  0.25500000920E-02 0.  1.
</event>
<event>
 5   0  0.1993623E-03  0.1473854E+04  0.7818609E-02  0.8902028E-01
        2   -1    0    0  501    0  0.00000000000E+00  0.00000000000E+00  0.36238929903E+03  0.36238929904E+03  0.25500000920E-02 0. -1.
       -2   -1    0    0    0  501  0.00000000000E+00  0.00000000000E+00 -0.14985585253E+04  0.14985585253E+04  0.25500000920E-02 0.  1.
    10030    2    1    2    0    0  0.00000000000E+00  0.00000000000E+00 -0.11361692263E+04  0.18609478244E+04  0.14738542310E+04 0.  0.
        4    1    3    3  502    0 -0.67911911401E+03  0.15742510125E+03 -0.86973287383E+03  0.11146399949E+04  0.12699999809E+01 0.  1.
       -4    1    3    3    0  502  0.67911911401E+03 -0.15742510125E+03 -0.26643635247E+03  0.74630782948E+03  0.12699999809E+01 0. -1.
</event>
<event>
 5   0  0.2111533E-03  0.1539217E+04  0.7818609E-02  0.8858785E-01
        2   -1    0    0  501    0  0.00000000000E+00  0.00000000000E+00  0.12446183150E+04  0.12446183150E+04  0.25500000920E-02 0. -1.
       -2   -1    0    0    0  501  0.00000000000E+00  0.00000000000E+00 -0.47588653840E+03  0.47588653841E+03  0.25500000920E-02 0.  1.
    10030    2    1    2    0    0  0.00000000000E+00  0.00000000000E+00  0.76873177656E+03  0.17205048534E+04  0.15392168158E+04 0.  0.
        5    1    3    3  502    0 -0.21317645724E+03 -0.47803421155E+03 -0.24627778395E+03  0.57847709220E+03  0.46999998093E+01 0.  1.
       -5    1    3    3    0  502  0.21317645724E+03  0.47803421155E+03  0.10150095605E+04  0.11420277612E+04  0.46999998093E+01 0. -1.
</event>
<event>
 5   0  0.1069697E-03  0.1512331E+04  0.7818609E-02  0.8876294E-01
       -1   -1    0    0    0  501  0.00000000000E+00  0.00000000000E+00  0.33694250684E+03  0.33694250688E+03  0.50400001928E-02 0.  1.
        1   -1    0    0  501    0  0.00000000000E+00  0.00000000000E+00 -0.16969838143E+04  0.16969838143E+04  0.50400001928E-02 0. -1.
    10030    2    1    2    0    0  0.00000000000E+00  0.00000000000E+00 -0.13600413075E+04  0.20339263212E+04  0.15123306259E+04 0.  0.
        2    1    3    3  502    0 -0.33990235254E+03 -0.65157989473E+03 -0.91945738835E+03  0.11770691813E+04  0.25500000920E-02 0. -1.
       -2    1    3    3    0  502  0.33990235254E+03  0.65157989473E+03 -0.44058391914E+03  0.85685713996E+03  0.25500000920E-02 0.  1.
</event>
<event>
 5   0  0.2111533E-03  0.1240005E+04  0.7818609E-02  0.9078544E-01
       -2   -1    0    0    0  501  0.00000000000E+00  0.00000000000E+00  0.40523469513E+03  0.40523469514E+03  0.25500000920E-02 0.  1.
        2   -1    0    0  501    0  0.00000000000E+00  0.00000000000E+00 -0.94859310127E+03  0.94859310127E+03  0.25500000920E-02 0. -1.
    10030    2    1    2    0    0  0.00000000000E+00  0.00000000000E+00 -0.54335840614E+03  0.13538277964E+04  0.12400045745E+04 0.  0.
        5    1    3    3  502    0  0.33401510390E+03  0.33307147431E+03 -0.71095180938E+03  0.85321583547E+03  0.46999998093E+01 0. -1.
       -5    1    3    3    0  502 -0.33401510390E+03 -0.33307147431E+03  0.16759340324E+03  0.50061196095E+03  0.46999998093E+01 0.  1.
</event>
<event>
 5   0  0.7468375E-04  0.1475927E+04  0.7818609E-02  0.8900621E-01
       -3   -1    0    0    0  501  0.00000000000E+00  0.00000000000E+00  0.14514604195E+04  0.14514604230E+04  0.10100000352E+00 0.  1.
        3   -1    0    0  501    0  0.00000000000E+00  0.00000000000E+00 -0.37520156745E+03  0.37520158105E+03  0.10100000352E+00 0. -1.
    10030    2    1    2    0    0  0.00000000000E+00  0.00000000000E+00  0.10762588520E+04  0.18266620040E+04  0.14759271528E+04 0.  0.
        2    1    3    3  502    0  0.13370045098E+03 -0.59251956770E+01  0.14363156843E+04  0.14425372313E+04  0.25500000920E-02 0.  1.
       -2    1    3    3    0  502 -0.13370045098E+03  0.59251956770E+01 -0.36005683232E+03  0.38412477276E+03  0.25500000920E-02 0. -1.
</event>
<event>
 5   0  0.1069697E-03  0.1503524E+04  0.7818609E-02  0.8882113E-01
       -1   -1    0    0    0  501  0.00000000000E+00  0.00000000000E+00  0.34682418086E+03  0.34682418090E+03  0.50400001928E-02 0. -1.
        1   -1    0    0  501    0  0.00000000000E+00  0.00000000000E+00 -0.16294883562E+04  0.16294883562E+04  0.50400001928E-02 0.  1.
    10030    2    1    2    0    0  0.00000000000E+00  0.00000000000E+00 -0.12826641754E+04  0.19763125371E+04  0.15035238135E+04 0.  0.
        2    1    3    3  502    0 -0.30717833882E+03 -0.64625975464E+03 -0.94432939678E+03  0.11848072467E+04  0.25500000920E-02 0.  1.
       -2    1    3    3    0  502  0.30717833882E+03  0.64625975464E+03 -0.33833477859E+03  0.79150529039E+03  0.25500000920E-02 0. -1.
</event>
<event>
 5   0  0.2094566E-03  0.1427919E+04  0.7818609E-02  0.8933854E-01
        2   -1    0    0  501    0  0.00000000000E+00  0.00000000000E+00  0.12794474246E+04  0.12794474246E+04  0.25500000920E-02 0. -1.
       -2   -1    0    0    0  501  0.00000000000E+00  0.00000000000E+00 -0.39840494410E+03  0.39840494411E+03  0.25500000920E-02 0.  1.
    10030    2    1    2    0    0  0.00000000000E+00  0.00000000000E+00  0.88104248054E+03  0.16778523688E+04  0.14279190169E+04 0.  0.
        1    1    3    3  502    0 -0.17910567202E+03 -0.56978350056E+03 -0.19104710436E+02  0.59757599454E+03  0.50400001928E-02 0.  1.
       -1    1    3    3    0  502  0.17910567202E+03  0.56978350056E+03  0.90014719098E+03  0.10802763742E+04  0.50400001928E-02 0. -1.
</event>
<event>
 5   0  0.1078018E-03  0.1517745E+04  0.7818609E-02  0.8872737E-01
        1   -1    0    0  501    0  0.00000000000E+00  0.00000000000E+00  0.14578707744E+04  0.14578707745E+04  0.50400001928E-02 0.  1.
       -1   -1    0    0    0  501  0.00000000000E+00  0.00000000000E+00 -0.39501980418E+03  0.39501980421E+03  0.50400001928E-02 0. -1.
    10030    2    1    2    0    0  0.00000000000E+00  0.00000000000E+00  0.10628509703E+04  0.18528905787E+04  0.15177454699E+04 0.  0.
        4    1    3    3  502    0 -0.28899536108E+03  0.66354485122E+03  0.81001846276E+03  0.10862511732E+04  0.12699999809E+01 0.  1.
       -4    1    3    3    0  502  0.28899536108E+03 -0.66354485122E+03  0.25283250751E+03  0.76663940549E+03  0.12699999809E+01 0. -1.
</event>
<event>
 5   0  0.2111533E-03  0.1484046E+04  0.7818609E-02  0.8895132E-01
        2   -1    0    0  501    0  0.00000000000E+00  0.00000000000E+00  0.10017570630E+04  0.10017570630E+04  0.25500000920E-02 0.  1.
       -2   -1    0    0    0  501  0.00000000000E+00  0.00000000000E+00 -0.54963264974E+03  0.54963264975E+03  0.25500000920E-02 0. -1.
    10030    2    1    2    0    0  0.00000000000E+00  0.00000000000E+00  0.45212441328E+03  0.15513897128E+04  0.14840463456E+04 0.  0.
        5    1    3    3  502    0  0.39571564933E+03  0.62483213325E+03  0.16359940136E+03  0.75749120391E+03  0.46999998093E+01 0.  1.
       -5    1    3    3    0  502 -0.39571564933E+03 -0.62483213325E+03  0.28852501192E+03  0.79389850886E+03  0.46999998093E+01 0. -1.
</event>
<event>
 5   0  0.1078787E-03  0.1660364E+04  0.7818609E-02  0.8784299E-01
        1   -1    0    0  501    0  0.00000000000E+00  0.00000000000E+00  0.12040503523E+04  0.12040503523E+04  0.50400001928E-02 0.  1.
       -1   -1    0    0    0  501  0.00000000000E+00  0.00000000000E+00 -0.57240337778E+03  0.57240337780E+03  0.50400001928E-02 0. -1.
    10030    2    1    2    0    0  0.00000000000E+00  0.00000000000E+00  0.63164697454E+03  0.17764537301E+04  0.16603644042E+04 0.  0.
        5    1    3    3  502    0  0.27166222791E+03  0.53120738274E+03  0.93341620621E+03  0.11078219864E+04  0.46999998093E+01 0.  1.
       -5    1    3    3    0  502 -0.27166222791E+03 -0.53120738274E+03 -0.30176923167E+03  0.66863174373E+03  0.46999998093E+01 0. -1.
</event>
<event>
 5   0  0.1087761E-03  0.1497690E+04  0.7818609E-02  0.8885990E-01
       -1   -1    0    0    0  501  0.00000000000E+00  0.00000000000E+00  0.92785977219E+03  0.92785977220E+03  0.50400001928E-02 0. -1.
        1   -1    0    0  501    0  0.00000000000E+00  0.00000000000E+00 -0.60436829766E+03  0.60436829768E+03  0.50400001928E-02 0.  1.
    10030    2    1    2    0    0  0.00000000000E+00  0.00000000000E+00  0.32349147453E+03  0.15322280699E+04  0.14976902630E+04 0.  0.
        3    1    3    3  502    0 -0.42792685180E+03 -0.39754629896E+03  0.64117230290E+03  0.86733291331E+03  0.10100000352E+00 0. -1.
       -3    1    3    3    0  502  0.42792685180E+03  0.39754629896E+03 -0.31768082837E+03  0.66489515656E+03  0.10100000352E+00 0.  1.
</event>
<event>
 5   0  0.7468375E-04  0.1483139E+04  0.7818609E-02  0.8895743E-01
       -3   -1    0    0    0  501  0.00000000000E+00  0.00000000000E+00  0.13935834979E+04  0.13935835016E+04  0.10100000352E+00 0. -1.
        3   -1    0    0  501    0  0.00000000000E+00  0.00000000000E+00 -0.39461240911E+03  0.39461242204E+03  0.10100000352E+00 0.  1.
    10030    2    1    2    0    0  0.00000000000E+00  0.00000000000E+00  0.99897108882E+03  0.17881959236E+04  0.14831390444E+04 0.  0.
        3    1    3    3  502    0 -0.39318662560E+03 -0.18140092345E+03 -0.22635513560E+03  0.48860891845E+03  0.10100000352E+00 0.  1.
       -3    1    3    3    0  502  0.39318662560E+03  0.18140092345E+03  0.12253262244E+04  0.12995870052E+04  0.10100000352E+00 0. -1.
</event>
<event>
 5   0  0.1961098E-03  0.1583660E+04  0.7818609E-02  0.8830649E-01
       -2   -1    0    0    0  501  0.00000000000E+00  0.00000000000E+00  0.21392747433E+04  0.21392747433E+04  0.25500000920E-02 0. -1.
        2   -1    0    0  501    0  0.00000000000E+00  0.00000000000E+00 -0.29308763424E+03  0.29308763425E+03  0.25500000920E-02 0.  1.
    10030    2    1    2    0    0  0.00000000000E+00  0.00000000000E+00  0.18461871090E+04  0.24323623775E+04  0.15836602837E+04 0.  0.
        2    1    3    3  502    0 -0.93180887526E+02 -0.67751497210E+03  0.15360854403E+04  0.16814480947E+04  0.25500000920E-02 0. -1.
       -2    1    3    3    0  502  0.93180887526E+02  0.67751497210E+03  0.31010166873E+03  0.75091428284E+03  0.25500000920E-02 0.  1.
</event>
<event>
 5   0  0.2111533E-03  0.1519057E+04  0.7818609E-02  0.8871878E-01
        2   -1    0    0  501    0  0.00000000000E+00  0.00000000000E+00  0.74845807522E+03  0.74845807522E+03  0.25500000920E-02 0. -1.
       -2   -1    0    0    0  501  0.00000000000E+00  0.00000000000E+00 -0.77076291275E+03  0.77076291276E+03  0.25500000920E-02 0.  1.
    10030    2    1    2    0    0  0.00000000000E+00  0.00000000000E+00 -0.22304837533E+02  0.15192209880E+04  0.15190572420E+04 0.  0.
        5    1    3    3  502    0 -0.38116674385E+03  0.20508556261E+03 -0.63532983012E+03  0.76877451678E+03  0.46999998093E+01 0.  1.
       -5    1    3    3    0  502  0.38116674385E+03 -0.20508556261E+03  0.61302499259E+03  0.75044647120E+03  0.46999998093E+01 0. -1.
</event>
<event>
 5   0  0.1078018E-03  0.1473415E+04  0.7818609E-02  0.8902327E-01
        1   -1    0    0  501    0  0.00000000000E+00  0.00000000000E+00  0.72168101958E+03  0.72168101960E+03  0.50400001928E-02 0. -1.
       -1   -1    0    0    0  501  0.00000000000E+00  0.00000000000E+00 -0.75204695699E+03  0.75204695700E+03  0.50400001928E-02 0.  1.
    10030    2    1    2    0    0  0.00000000000E+00  0.00000000000E+00 -0.30365937403E+02  0.14737279766E+04  0.14734151007E+04 0.  0.
        4    1    3    3  502    0  0.38513613143E+03  0.12836228704E+03  0.59970743389E+03  0.72419426650E+03  0.12699999809E+01 0. -1.
       -4    1    3    3    0  502 -0.38513613143E+03 -0.12836228704E+03 -0.63007337130E+03  0.74953371010E+03  0.12699999809E+01 0.  1.
</event>
<event>
 5   0  0.1993623E-03  0.1520695E+04  0.7818609E-02  0.8870806E-01
       -2   -1    0    0    0  501  0.00000000000E+00  0.00000000000E+00  0.81612065658E+03  0.81612065658E+03  0.25500000920E-02 0. -1.
        2   -1    0    0  501    0  0.00000000000E+00  0.00000000000E+00 -0.70838607810E+03  0.70838607811E+03  0.25500000920E-02 0.  1.
    10030    2    1    2    0    0  0.00000000000E+00  0.00000000000E+00  0.10773457848E+03  0.15245067347E+04  0.15206952504E+04 0.  0.
        4    1    3    3  502    0  0.73700017443E+02 -0.51314130375E+03  0.61148187238E+03  0.80165914411E+03  0.12699999809E+01 0. -1.
       -4    1    3    3    0  502 -0.73700017443E+02  0.51314130375E+03 -0.50374729390E+03  0.72284759058E+03  0.12699999809E+01 0.  1.
</event>
<event>
 5   0  0.1078787E-03  0.1490944E+04  0.7818609E-02  0.8890498E-01
        1   -1    0    0  501    0  0.00000000000E+00  0.00000000000E+00  0.10751987552E+04  0.10751987552E+04  0.50400001928E-02 0. -1.
       -1   -1    0    0    0  501  0.00000000000E+00  0.00000000000E+00 -0.51686109595E+03  0.51686109598E+03  0.50400001928E-02 0.  1.
    10030    2    1    2    0    0  0.00000000000E+00  0.00000000000E+00  0.55833765923E+03  0.15920598512E+04  0.14909438715E+04 0.  0.
        5    1    3    3  502    0 -0.10647131657E+03 -0.70304890851E+03  0.40176451495E+02  0.71221495790E+03  0.46999998093E+01 0.  1.
       -5    1    3    3    0  502  0.10647131657E+03  0.70304890851E+03  0.51816120773E+03  0.87984489327E+03  0.46999998093E+01 0. -1.
</event>
<event>
 5   0  0.1961098E-03  0.1433382E+04  0.7818609E-02  0.8930003E-01
       -2   -1    0    0    0  501  0.00000000000E+00  0.00000000000E+00  0.26921590773E+03  0.26921590774E+03  0.25500000920E-02 0.  1.
        2   -1    0    0  501    0  0.00000000000E+00  0.00000000000E+00 -0.19079326159E+04  0.19079326159E+04  0.25500000920E-02 0. -1.
    10030    2    1    2    0    0  0.00000000000E+00  0.00000000000E+00 -0.16387167082E+04  0.21771485236E+04  0.14333817511E+04 0.  0.
        2    1    3    3  502    0 -0.11388083633E+03  0.76301142895E+02  0.24911873046E+03  0.28434284089E+03  0.25500000920E-02 0.  1.
       -2    1    3    3    0  502  0.11388083633E+03 -0.76301142895E+02 -0.18878354386E+04  0.18928056827E+04  0.25500000920E-02 0. -1.
</event>
<event>
 5   0  0.2150197E-03  0.1496103E+04  0.7818609E-02  0.8887048E-01
        2   -1    0    0  501    0  0.00000000000E+00  0.00000000000E+00  0.47154959496E+03  0.47154959497E+03  0.25500000920E-02 0. -1.
       -2   -1    0    0    0  501  0.00000000000E+00  0.00000000000E+00 -0.11866860770E+04  0.11866860771E+04  0.25500000920E-02 0.  1.
    10030    2    1    2    0    0  0.00000000000E+00  0.00000000000E+00 -0.71513648209E+03  0.16582356720E+04  0.14961033908E+04 0.  0.
        3    1    3    3  502    0 -0.70164188473E+03  0.25749278254E+03 -0.39222073006E+03  0.84406218892E+03  0.10100000352E+00 0.  1.
       -3    1    3    3    0  502  0.70164188473E+03 -0.25749278254E+03 -0.32291575203E+03  0.81417348310E+03  0.10100000352E+00 0. -1.
</event>
<event>
 5   0  0.1069697E-03  0.9435893E+03  0.7818609E-02  0.9372675E-01
        1   -1    0    0  501    0  0.00000000000E+00  0.00000000000E+00  0.42590433654E+03  0.42590433657E+03  0.50400001928E-02 0.  1.
       -1   -1    0    0    0  501  0.00000000000E+00  0.00000000000E+00 -0.52262949749E+03  0.52262949751E+03  0.50400001928E-02 0. -1.
    10030    2    1    2    0    0  0.00000000000E+00  0.00000000000E+00 -0.96725160953E+02  0.94853383408E+03  0.94358925261E+03 0.  0.
        2    1    3    3  502    0  0.11600003613E+03  0.19643342458E+03  0.36677614393E+03  0.43193383572E+03  0.25500000920E-02 0.  1.
       -2    1    3    3    0  502 -0.11600003613E+03 -0.19643342458E+03 -0.46350130488E+03  0.51659999836E+03  0.25500000920E-02 0. -1.
</event>
<event>
 5   0  0.1078787E-03  0.1511314E+04  0.7818609E-02  0.8876964E-01
       -1   -1    0    0    0  501  0.00000000000E+00  0.00000000000E+00  0.47495355878E+03  0.47495355881E+03  0.50400001928E-02 0. -1.
        1   -1    0    0  501    0  0.00000000000E+00  0.00000000000E+00 -0.12022598983E+04  0.12022598983E+04  0.50400001928E-02 0.  1.
    10030    2    1    2    0    0  0.00000000000E+00  0.00000000000E+00 -0.72730633955E+03  0.16772134572E+04  0.15113141531E+04 0.  0.
        5    1    3    3  502    0 -0.17934796083E+03 -0.71139351606E+03 -0.16282099829E+03  0.75151792608E+03  0.46999998093E+01 0. -1.
       -5    1    3    3    0  502  0.17934796083E+03  0.71139351606E+03 -0.56448534126E+03  0.92569553107E+03  0.46999998093E+01 0.  1.
</event>
<event>
 5   0  0.2150197E-03  0.1477278E+04  0.7818609E-02  0.8899705E-01
        2   -1    0    0  501    0  0.00000000000E+00  0.00000000000E+00  0.10715927127E+04  0.10715927127E+04  0.25500000920E-02 0.  1.
       -2   -1    0    0    0  501  0.00000000000E+00  0.00000000000E+00 -0.50913695456E+03  0.50913695457E+03  0.25500000920E-02 0. -1.
    10030    2    1    2    0    0  0.00000000000E+00  0.00000000000E+00  0.56245575813E+03  0.15807296673E+04  0.14772778348E+04 0.  0.
        3    1    3    3  502    0  0.20618824914E+02  0.40595263228E+03  0.94115436951E+03  0.10251800979E+04  0.10100000352E+00 0.  1.
       -3    1    3    3    0  502 -0.20618824914E+02 -0.40595263228E+03 -0.37869861138E+03  0.55554956940E+03  0.10100000352E+00 0. -1.
</event>
<event>
 5   0  0.2150197E-03  0.1482278E+04  0.7818609E-02  0.8896324E-01
       -2   -1    0    0    0  501  0.00000000000E+00  0.00000000000E+00  0.26236249810E+03  0.26236249811E+03  0.25500000920E-02 0.  1.
        2   -1    0    0  501    0  0.00000000000E+00  0.00000000000E+00 -0.20936180927E+04  0.20936180927E+04  0.25500000920E-02 0. -1.
    10030    2    1    2    0    0  0.00000000000E+00  0.00000000000E+00 -0.18312555946E+04  0.23559805908E+04  0.14822778051E+04 0.  0.
        3    1    3    3  502    0 -0.50677901916E+03  0.53684379666E+03 -0.10193755815E+04  0.12586313291E+04  0.10100000352E+00 0. -1.
       -3    1    3    3    0  502  0.50677901916E+03 -0.53684379666E+03 -0.81188001312E+03  0.10973492617E+04  0.10100000352E+00 0.  1.
</event>
<event>
 5   0  0.1961098E-03  0.1649364E+04  0.7818609E-02  0.8790783E-01
        2   -1    0    0  501    0  0.00000000000E+00  0.00000000000E+00  0.13033486950E+04  0.13033486950E+04  0.25500000920E-02 0. -1.
       -2   -1    0    0    0  501  0.00000000000E+00  0.00000000000E+00 -0.52180983841E+03  0.52180983841E+03  0.25500000920E-02 0.  1.
    10030    2    1    2    0    0  0.00000000000E+00  0.00000000000E+00  0.78153885663E+03  0.18251585334E+04  0.16493637221E+04 0.  0.
        2    1    3    3  502    0  0.59890710877E+03 -0.35262773382E+01  0.10181134282E+04  0.11812100204E+04  0.25500000920E-02 0. -1.
       -2    1    3    3    0  502 -0.59890710877E+03  0.35262773382E+01 -0.23657457157E+03  0.64394851307E+03  0.25500000920E-02 0.  1.
</event>
<event>
 5   0  0.1077140E-03  0.1635765E+04  0.7818609E-02  0.8798873E-01
       -1   -1    0    0    0  501  0.00000000000E+00  0.00000000000E+00  0.47436913164E+03  0.47436913167E+03  0.50400001928E-02 0. -1.
        1   -1    0    0  501    0  0.00000000000E+00  0.00000000000E+00 -0.14101500148E+04  0.14101500148E+04  0.50400001928E-02 0.  1.
    10030    2    1    2    0    0  0.00000000000E+00  0.00000000000E+00 -0.93578088318E+03  0.18845191465E+04  0.16357648218E+04 0.  0.
        1    1    3    3  502    0  0.78749092730E+03  0.21492612494E+03 -0.40918630692E+03  0.91310932179E+03  0.50400001928E-02 0.  1.
       -1    1    3    3    0  502 -0.78749092730E+03 -0.21492612494E+03 -0.52659457626E+03  0.97140982470E+03  0.50400001928E-02 0. -1.
</event>
<event>
 5   0  0.1993623E-03  0.1513736E+04  0.7818609E-02  0.8875370E-01
       -2   -1    0    0    0  501  0.00000000000E+00  0.00000000000E+00  0.67463804793E+03  0.67463804794E+03  0.25500000920E-02 0. -1.
        2   -1    0    0  501    0  0.00000000000E+00  0.00000000000E+00 -0.84912032938E+03  0.84912032938E+03  0.25500000920E-02 0.  1.
    10030    2    1    2    0    0  0.00000000000E+00  0.00000000000E+00 -0.17448228145E+03  0.15237583773E+04  0.15137356196E+04 0.  0.
        4    1    3    3  502    0  0.34849999053E+03 -0.61061322712E+03  0.19487603542E+03  0.72957456001E+03  0.12699999809E+01 0.  1.
       -4    1    3    3    0  502 -0.34849999053E+03  0.61061322712E+03 -0.36935831687E+03  0.79418381731E+03  0.12699999809E+01 0. -1.
</event>
<event>
 5   0  0.2150197E-03  0.1531919E+04  0.7818609E-02  0.8863500E-01
       -2   -1    0    0    0  501  0.00000000000E+00  0.00000000000E+00  0.14296842095E+04  0.14296842095E+04  0.25500000920E-02 0.  1.
        2   -1    0    0  501    0  0.00000000000E+00  0.00000000000E+00 -0.41036597778E+03  0.41036597779E+03  0.25500000920E-02 0. -1.
    10030    2    1    2    0    0  0.00000000000E+00  0.00000000000E+00  0.10193182317E+04  0.18400501873E+04  0.15319187427E+04 0.  0.
        3    1    3    3  502    0  0.61951732204E+03 -0.79919161787E+02 -0.22793176701E+02  0.62506665551E+03  0.10100000352E+00 0. -1.
       -3    1    3    3    0  502 -0.61951732204E+03  0.79919161787E+02  0.10421114084E+04  0.12149835317E+04  0.10100000352E+00 0.  1.
</event>
<event>
 5   0  0.1069697E-03  0.1489814E+04  0.7818609E-02  0.8891255E-01
        1   -1    0    0  501    0  0.00000000000E+00  0.00000000000E+00  0.58924578746E+03  0.58924578748E+03  0.50400001928E-02 0. -1.
       -1   -1    0    0    0  501  0.00000000000E+00  0.00000000000E+00 -0.94168864626E+03  0.94168864627E+03  0.50400001928E-02 0.  1.
    10030    2    1    2    0    0  0.00000000000E+00  0.00000000000E+00 -0.35244285880E+03  0.15309344338E+04  0.14898135023E+04 0.  0.
        2    1    3    3  502    0  0.69678074402E+03  0.73478250455E+02  0.83710154454E+02  0.70562727306E+03  0.25500000920E-02 0. -1.
       -2    1    3    3    0  502 -0.69678074402E+03 -0.73478250455E+02 -0.43615301325E+03  0.82530716070E+03  0.25500000920E-02 0.  1.
</event>
<event>
 5   0  0.1077140E-03  0.1597337E+04  0.7818609E-02  0.8822186E-01
       -1   -1    0    0    0  501  0.00000000000E+00  0.00000000000E+00  0.39629858153E+03  0.39629858156E+03  0.50400001928E-02 0. -1.
        1   -1    0    0  501    0  0.00000000000E+00  0.00000000000E+00 -0.16095725015E+04  0.16095725015E+04  0.50400001928E-02 0.  1.
    10030    2    1    2    0    0  0.00000000000E+00  0.00000000000E+00 -0.12132739200E+04  0.20058710831E+04  0.15973369078E+04 0.  0.
        1    1    3    3  502    0  0.72080931025E+03 -0.15369091140E+03 -0.99304448197E+03  0.12366585225E+04  0.50400001928E-02 0.  1.
       -1    1    3    3    0  502 -0.72080931025E+03  0.15369091140E+03 -0.22022943799E+03  0.76921256059E+03  0.50400001928E-02 0. -1.
</event>
<event>
 5   0  0.2094566E-03  0.1450041E+04  0.7818609E-02  0.8918372E-01
        2   -1    0    0  501    0  0.00000000000E+00  0.00000000000E+00  0.93555221621E+03  0.93555221621E+03  0.25500000920E-02 0.  1.
       -2   -1    0    0    0  501  0.00000000000E+00  0.00000000000E+00 -0.56186611201E+03  0.56186611202E+03  0.25500000920E-02 0. -1.
    10030    2    1    2    0    0  0.00000000000E+00  0.00000000000E+00  0.37368610420E+03  0.14974183282E+04  0.14500414978E+04 0.  0.
        1    1    3    3  502    0 -0.65911894642E+02 -0.69941250806E+03  0.17298683541E+01  0.70251350645E+03  0.50400001928E-02 0.  1.
       -1    1    3    3    0  502  0.65911894642E+02  0.69941250806E+03  0.37195623584E+03  0.79490482178E+03  0.50400001928E-02 0. -1.
</event>
<event>
 5   0  0.1078787E-03  0.1509071E+04  0.7818609E-02  0.8878443E-01
       -1   -1    0    0    0  501  0.00000000000E+00  0.00000000000E+00  0.10615693988E+04  0.10615693988E+04  0.50400001928E-02 0. -1.
        1   -1    0    0  501    0  0.00000000000E+00  0.00000000000E+00 -0.53630388675E+03  0.53630388677E+03  0.50400001928E-02 0.  1.
    10030    2    1    2    0    0  0.00000000000E+00  0.00000000000E+00  0.52526551208E+03  0.15978732856E+04  0.15090709654E+04 0.  0.
        5    1    3    3  502    0 -0.73661392307E+03  0.49310961637E+02  0.42758875580E+03  0.85316228039E+03  0.46999998093E+01 0. -1.
       -5    1    3    3    0  502  0.73661392307E+03 -0.49310961637E+02  0.97676756280E+02  0.74471100523E+03  0.46999998093E+01 0.  1.
</event>
<event>
 5   0  0.1077140E-03  0.1521175E+04  0.7818609E-02  0.8870492E-01
       -1   -1    0    0    0  501  0.00000000000E+00  0.00000000000E+00  0.13398683295E+04  0.13398683295E+04  0.50400001928E-02 0. -1.
        1   -1    0    0  501    0  0.00000000000E+00  0.00000000000E+00 -0.43175410312E+03  0.43175410315E+03  0.50400001928E-02 0.  1.
    10030    2    1    2    0    0  0.00000000000E+00  0.00000000000E+00  0.90811422634E+03  0.17716224326E+04  0.15211753994E+04 0.  0.
        1    1    3    3  502    0 -0.58956493600E+03 -0.25737817477E+03 -0.18539166398E+02  0.64356354723E+03  0.50400001928E-02 0.  1.
       -1    1    3    3    0  502  0.58956493600E+03  0.25737817477E+03  0.92665339274E+03  0.11280588854E+04  0.50400001928E-02 0. -1.
</event>
<event>
 5   0  0.2150197E-03  0.1488585E+04  0.7818609E-02  0.8892079E-01
       -2   -1    0    0    0  501  0.00000000000E+00  0.00000000000E+00  0.58622526740E+03  0.58622526741E+03  0.25500000920E-02 0.  1.
        2   -1    0    0  501    0  0.00000000000E+00  0.00000000000E+00 -0.94498057773E+03  0.94498057773E+03  0.25500000920E-02 0. -1.
    10030    2    1    2    0    0  0.00000000000E+00  0.00000000000E+00 -0.35875531033E+03  0.15312058451E+04  0.14885852235E+04 0.  0.
        3    1    3    3  502    0  0.25269561178E+03  0.80763236332E+02  0.53594206173E+03  0.59800641827E+03  0.10100000352E+00 0.  1.
       -3    1    3    3    0  502 -0.25269561178E+03 -0.80763236332E+02 -0.89469737205E+03  0.93319942687E+03  0.10100000352E+00 0. -1.
</event>
<event>
 5   0  0.1077140E-03  0.1511429E+04  0.7818609E-02  0.8876888E-01
        1   -1    0    0  501    0  0.00000000000E+00  0.00000000000E+00  0.96938783295E+03  0.96938783296E+03  0.50400001928E-02 0. -1.
       -1   -1    0    0    0  501  0.00000000000E+00  0.00000000000E+00 -0.58913914493E+03  0.58913914495E+03  0.50400001928E-02 0.  1.
    10030    2    1    2    0    0  0.00000000000E+00  0.00000000000E+00  0.38024868802E+03  0.15585269779E+04  0.15114288856E+04 0.  0.
        1    1    3    3  502    0  0.39479212154E+03 -0.43528391044E+02 -0.47283200761E+03  0.61751570628E+03  0.50400001928E-02 0.  1.
       -1    1    3    3    0  502 -0.39479212154E+03  0.43528391044E+02  0.85308069563E+03  0.94101127163E+03  0.50400001928E-02 0. -1.
</event>
<event>
 5   0  0.1077140E-03  0.1408145E+04  0.7818609E-02  0.8947943E-01
        1   -1    0    0  501    0  0.00000000000E+00  0.00000000000E+00  0.93638201963E+03  0.93638201964E+03  0.50400001928E-02 0.  1.
       -1   -1    0    0    0  501  0.00000000000E+00  0.00000000000E+00 -0.52939761339E+03  0.52939761342E+03  0.50400001928E-02 0. -1.
    10030    2    1    2    0    0  0.00000000000E+00  0.00000000000E+00  0.40698440624E+03  0.14657796331E+04  0.14081454562E+04 0.  0.
        1    1    3    3  502    0 -0.50502275281E+03  0.42009026977E+03  0.46722879043E+03  0.80611820364E+03  0.50400001928E-02 0.  1.
       -1    1    3    3    0  502  0.50502275281E+03 -0.42009026977E+03 -0.60244384198E+02  0.65966142942E+03  0.50400001928E-02 0. -1.
</event>
<event>
 5   0  0.1069697E-03  0.1510484E+04  0.7818609E-02  0.8877511E-01
        1   -1    0    0  501    0  0.00000000000E+00  0.00000000000E+00  0.14397114943E+04  0.14397114943E+04  0.50400001928E-02 0. -1.
       -1   -1    0    0    0  501  0.00000000000E+00  0.00000000000E+00 -0.39618410528E+03  0.39618410532E+03  0.50400001928E-02 0.  1.
    10030    2    1    2    0    0  0.00000000000E+00  0.00000000000E+00  0.10435273890E+04  0.18358955996E+04  0.15104844392E+04 0.  0.
        2    1    3    3  502    0 -0.62291128341E+02  0.59526030976E+03 -0.38096561552E+02  0.59972190976E+03  0.25500000920E-02 0.  1.
       -2    1    3    3    0  502  0.62291128341E+02 -0.59526030976E+03  0.10816239505E+04  0.12361736898E+04  0.25500000920E-02 0. -1.
</event>
<event>
 5   0  0.2094566E-03  0.1527201E+04  0.7818609E-02  0.8866563E-01
        2   -1    0    0  501    0  0.00000000000E+00  0.00000000000E+00  0.13011937776E+04  0.13011937776E+04  0.25500000920E-02 0.  1.
       -2   -1    0    0    0  501  0.00000000000E+00  0.00000000000E+00 -0.44811623384E+03  0.44811623384E+03  0.25500000920E-02 0. -1.
    10030    2    1    2    0    0  0.00000000000E+00  0.00000000000E+00  0.85307754379E+03  0.17493100115E+04  0.15272014342E+04 0.  0.
        1    1    3    3  502    0  0.44953565169E+03  0.59407659205E+03  0.23460830472E+03  0.78105720406E+03  0.50400001928E-02 0. -1.
       -1    1    3    3    0  502 -0.44953565169E+03 -0.59407659205E+03  0.61846923907E+03  0.96825280741E+03  0.50400001928E-02 0.  1.
</event>
<event>
 5   0  0.7468375E-04  0.1401518E+04  0.7818609E-02  0.8952721E-01
       -3   -1    0    0    0  501  0.00000000000E+00  0.00000000000E+00  0.36686978253E+03  0.36686979644E+03  0.10100000352E+00 0. -1.
        3   -1    0    0  501    0  0.00000000000E+00  0.00000000000E+00 -0.13385210602E+04  0.13385210640E+04  0.10100000352E+00 0.  1.
    10030    2    1    2    0    0  0.00000000000E+00  0.00000000000E+00 -0.97165127762E+03  0.17053908604E+04  0.14015176708E+04 0.  0.
        3    1    3    3  502    0 -0.50486962155E+03 -0.24223405154E+03  0.26817404976E+02  0.56061560262E+03  0.10100000352E+00 0. -1.
       -3    1    3    3    0  502  0.50486962155E+03  0.24223405154E+03 -0.99846868260E+03  0.11447752578E+04  0.10100000352E+00 0.  1.
</event>
<event>
 5   0  0.2150197E-03  0.1484426E+04  0.7818609E-02  0.8894876E-01
       -2   -1    0    0    0  501  0.00000000000E+00  0.00000000000E+00  0.69360780442E+03  0.69360780443E+03  0.25500000920E-02 0. -1.
        2   -1    0    0  501    0  0.00000000000E+00  0.00000000000E+00 -0.79422428200E+03  0.79422428201E+03  0.25500000920E-02 0.  1.
    10030    2    1    2    0    0  0.00000000000E+00  0.00000000000E+00 -0.10061647758E+03  0.14878320864E+04  0.14844260311E+04 0.  0.
        3    1    3    3  502    0  0.61209954401E+03  0.41626970741E+03  0.39808772743E+01  0.74024467487E+03  0.10100000352E+00 0. -1.
       -3    1    3    3    0  502 -0.61209954401E+03 -0.41626970741E+03 -0.10459735486E+03  0.74758741156E+03  0.10100000352E+00 0.  1.
</event>
<event>
 5   0  0.1961098E-03  0.1482997E+04  0.7818609E-02  0.8895839E-01
       -2   -1    0    0    0  501  0.00000000000E+00  0.00000000000E+00  0.43519028791E+03  0.43519028792E+03  0.25500000920E-02 0. -1.
        2   -1    0    0  501    0  0.00000000000E+00  0.00000000000E+00 -0.12634015423E+04  0.12634015423E+04  0.25500000920E-02 0.  1.
    10030    2    1    2    0    0  0.00000000000E+00  0.00000000000E+00 -0.82821125440E+03  0.16985918302E+04  0.14829970748E+04 0.  0.
        2    1    3    3  502    0  0.56891885066E+03 -0.14476161015E+03  0.10473341764E+03  0.59631675407E+03  0.25500000920E-02 0. -1.
       -2    1    3    3    0  502 -0.56891885066E+03  0.14476161015E+03 -0.93294467205E+03  0.11022750762E+04  0.25500000920E-02 0.  1.
</event>
<event>
 5   0  0.1993623E-03  0.1586374E+04  0.7818609E-02  0.8828963E-01
       -2   -1    0    0    0  501  0.00000000000E+00  0.00000000000E+00  0.46414839706E+03  0.46414839707E+03  0.25500000920E-02 0. -1.
        2   -1    0    0  501    0  0.00000000000E+00  0.00000000000E+00 -0.13554837331E+04  0.13554837331E+04  0.25500000920E-02 0.  1.
    10030    2    1    2    0    0  0.00000000000E+00  0.00000000000E+00 -0.89133533601E+03  0.18196321301E+04  0.15863739811E+04 0.  0.
        4    1    3    3  502    0  0.57793556347E+03 -0.35042877111E+03  0.30504153723E+02  0.67656629789E+03  0.12699999809E+01 0. -1.
       -4    1    3    3    0  502 -0.57793556347E+03  0.35042877111E+03 -0.92183948974E+03  0.11430658323E+04  0.12699999809E+01 0.  1.
</event>
<event>
 5   0  0.2150197E-03  0.1424143E+04  0.7818609E-02  0.8936525E-01
       -2   -1    0    0    0  501  0.00000000000E+00  0.00000000000E+00  0.90467838285E+03  0.90467838285E+03  0.25500000920E-02 0. -1.
        2   -1    0    0  501    0  0.00000000000E+00  0.00000000000E+00 -0.56047107593E+03  0.56047107593E+03  0.25500000920E-02 0.  1.
    10030    2    1    2    0    0  0.00000000000E+00  0.00000000000E+00  0.34420730692E+03  0.14651494588E+04  0.14241433448E+04 0.  0.
        3    1    3    3  502    0 -0.48708125432E+03 -0.18729241274E+03 -0.32632473866E+03  0.61547903412E+03  0.10100000352E+00 0.  1.
       -3    1    3    3    0  502  0.48708125432E+03  0.18729241274E+03  0.67053204559E+03  0.84967042466E+03  0.10100000352E+00 0. -1.
</event>
<event>
 5   0  0.1077140E-03  0.1550887E+04  0.7818609E-02  0.8851301E-01
       -1   -1    0    0    0  501  0.00000000000E+00  0.00000000000E+00  0.83888789138E+03  0.83888789140E+03  0.50400001928E-02 0.  1.
        1   -1    0    0  501    0  0.00000000000E+00  0.00000000000E+00 -0.71679765116E+03  0.71679765118E+03  0.50400001928E-02 0. -1.
    10030    2    1    2    0    0  0.00000000000E+00  0.00000000000E+00  0.12209024022E+03  0.15556855426E+04  0.15508873204E+04 0.  0.
        1    1    3    3  502    0  0.14612662490E+03  0.68887171715E+03 -0.26463712930E+03  0.75228322023E+03  0.50400001928E-02 0. -1.
       -1    1    3    3    0  502 -0.14612662490E+03 -0.68887171715E+03  0.38672736952E+03  0.80340232236E+03  0.50400001928E-02 0.  1.
</event>
<event>
 5   0  0.7468375E-04  0.1477077E+04  0.7818609E-02  0.8899841E-01
       -3   -1    0    0    0  501  0.00000000000E+00  0.00000000000E+00  0.60615051036E+03  0.60615051877E+03  0.10100000352E+00 0. -1.
        3   -1    0    0  501    0  0.00000000000E+00  0.00000000000E+00 -0.89984158625E+03  0.89984159191E+03  0.10100000352E+00 0.  1.
    10030    2    1    2    0    0  0.00000000000E+00  0.00000000000E+00 -0.29369107589E+03  0.15059921107E+04  0.14770774487E+04 0.  0.
        1    1    3    3  502    0  0.12477640932E+03 -0.13628977593E+03 -0.87589227158E+03  0.89517111593E+03  0.50400001928E-02 0.  1.
       -1    1    3    3    0  502 -0.12477640932E+03  0.13628977593E+03  0.58220119570E+03  0.61082099476E+03  0.50400001928E-02 0. -1.
</event>
<event>
 5   0  0.1993623E-03  0.1489105E+04  0.7818609E-02  0.8891730E-01
        2   -1    0    0  501    0  0.00000000000E+00  0.00000000000E+00  0.15308650926E+04  0.15308650926E+04  0.25500000920E-02 0. -1.
       -2   -1    0    0    0  501  0.00000000000E+00  0.00000000000E+00 -0.36212118811E+03  0.36212118812E+03  0.25500000920E-02 0.  1.
    10030    2    1    2    0    0  0.00000000000E+00  0.00000000000E+00  0.11687439045E+04  0.18929862807E+04  0.14891053504E+04 0.  0.
        4    1    3    3  502    0  0.65204266627E+03 -0.28854937022E+03  0.85683142886E+03  0.11147116614E+04  0.12699999809E+01 0. -1.
       -4    1    3    3    0  502 -0.65204266627E+03  0.28854937022E+03  0.31191247561E+03  0.77827461929E+03  0.12699999809E+01 0.  1.
</event>
<event>
 5   0  0.1961098E-03  0.1486759E+04  0.7818609E-02  0.8893306E-01
       -2   -1    0    0    0  501  0.00000000000E+00  0.00000000000E+00  0.38690915449E+03  0.38690915450E+03  0.25500000920E-02 0.  1.
        2   -1    0    0  501    0  0.00000000000E+00  0.00000000000E+00 -0.14282757650E+04  0.14282757650E+04  0.25500000920E-02 0. -1.
    10030    2    1    2    0    0  0.00000000000E+00  0.00000000000E+00 -0.10413666105E+04  0.18151849195E+04  0.14867588488E+04 0.  0.
        2    1    3    3  502    0 -0.11974262354E+03 -0.32774367221E+03  0.28071386654E+03  0.44783309998E+03  0.25500000920E-02 0.  1.
       -2    1    3    3    0  502  0.11974262354E+03  0.32774367221E+03 -0.13220804770E+04  0.13673518195E+04  0.25500000920E-02 0. -1.
</event>
<event>
 5   0  0.1069697E-03  0.1492113E+04  0.7818609E-02  0.8889714E-01
       -1   -1    0    0    0  501  0.00000000000E+00  0.00000000000E+00  0.55247173050E+03  0.55247173052E+03  0.50400001928E-02 0.  1.
        1   -1    0    0  501    0  0.00000000000E+00  0.00000000000E+00 -0.10074734266E+04  0.10074734267E+04  0.50400001928E-02 0. -1.
    10030    2    1    2    0    0  0.00000000000E+00  0.00000000000E+00 -0.45500169614E+03  0.15599451572E+04  0.14921133837E+04 0.  0.
        2    1    3    3  502    0  0.68635786801E+03 -0.29218193249E+03 -0.21499097383E+03  0.77632372339E+03  0.25500000920E-02 0. -1.
       -2    1    3    3    0  502 -0.68635786801E+03  0.29218193249E+03 -0.24001072231E+03  0.78362143379E+03  0.25500000920E-02 0.  1.
</event>
<event>
 5   0  0.1069697E-03  0.1468835E+04  0.7818609E-02  0.8905446E-01
       -1   -1    0    0    0  501  0.00000000000E+00  0.00000000000E+00  0.86601614494E+03  0.86601614496E+03  0.50400001928E-02 0.  1.
        1   -1    0    0  501    0  0.00000000000E+00  0.00000000000E+00 -0.62281677574E+03  0.62281677576E+03  0.50400001928E-02 0. -1.
    10030    2    1    2    0    0  0.00000000000E+00  0.00000000000E+00  0.24319936921E+03  0.14888329207E+04  0.14688354341E+04 0.  0.
        2    1    3    3  502    0  0.54160506303E+03  0.29481110304E+03 -0.28272929472E+03  0.67836972579E+03  0.25500000920E-02 0. -1.
       -2    1    3    3    0  502 -0.54160506303E+03 -0.29481110304E+03  0.52592866392E+03  0.81046319492E+03  0.25500000920E-02 0.  1.
</event>
<event>
 5   0  0.2094566E-03  0.1484635E+04  0.7818609E-02  0.8894735E-01
       -2   -1    0    0    0  501  0.00000000000E+00  0.00000000000E+00  0.49111049902E+03  0.49111049903E+03  0.25500000920E-02 0. -1.
        2   -1    0    0  501    0  0.00000000000E+00  0.00000000000E+00 -0.11220193559E+04  0.11220193559E+04  0.25500000920E-02 0.  1.
    10030    2    1    2    0    0  0.00000000000E+00  0.00000000000E+00 -0.63090885686E+03  0.16131298549E+04  0.14846352896E+04 0.  0.
        1    1    3    3  502    0  0.30157305947E+02 -0.17256578358E+03  0.46832905510E+03  0.50002051622E+03  0.50400001928E-02 0. -1.
       -1    1    3    3    0  502 -0.30157305947E+02  0.17256578358E+03 -0.10992379120E+04  0.11131093387E+04  0.50400001928E-02 0.  1.
</event>
<event>
 5   0  0.1077140E-03  0.1527926E+04  0.7818609E-02  0.8866092E-01
       -1   -1    0    0    0  501  0.00000000000E+00  0.00000000000E+00  0.48835358729E+03  0.48835358732E+03  0.50400001928E-02 0. -1.
        1   -1    0    0  501    0  0.00000000000E+00  0.00000000000E+00 -0.11951160902E+04  0.11951160902E+04  0.50400001928E-02 0.  1.
    10030    2    1    2    0    0  0.00000000000E+00  0.00000000000E+00 -0.70676250287E+03  0.16834696775E+04  0.15279256918E+04 0.  0.
        1    1    3    3  502    0  0.39672455804E+03  0.64688022575E+03 -0.45065739513E+03  0.88257378685E+03  0.50400001928E-02 0.  1.
       -1    1    3    3    0  502 -0.39672455804E+03 -0.64688022575E+03 -0.25610510773E+03  0.80089589064E+03  0.50400001928E-02 0. -1.
</event>
<event>
 5   0  0.1078787E-03  0.1517498E+04  0.7818609E-02  0.8872899E-01
       -1   -1    0    0    0  501  0.00000000000E+00  0.00000000000E+00  0.72082359320E+03  0.72082359322E+03  0.50400001928E-02 0.  1.
        1   -1    0    0  501    0  0.00000000000E+00  0.00000000000E+00 -0.79867014009E+03  0.79867014011E+03  0.50400001928E-02 0. -1.
    10030    2    1    2    0    0  0.00000000000E+00  0.00000000000E+00 -0.77846546887E+02  0.15194937333E+04  0.15174983100E+04 0.  0.
        5    1    3    3  502    0 -0.49758854462E+03  0.15748223342E+03  0.51251239916E+03  0.73149577092E+03  0.46999998093E+01 0.  1.
       -5    1    3    3    0  502  0.49758854462E+03 -0.15748223342E+03 -0.59035894605E+03  0.78799796241E+03  0.46999998093E+01 0. -1.
</event>
<event>
 5   0  0.1077140E-03  0.1469413E+04  0.7818609E-02  0.8905052E-01
        1   -1    0    0  501    0  0.00000000000E+00  0.00000000000E+00  0.81315635961E+03  0.81315635963E+03  0.50400001928E-02 0. -1.
       -1   -1    0    0    0  501  0.00000000000E+00  0.00000000000E+00 -0.66382510965E+03  0.66382510967E+03  0.50400001928E-02 0.  1.
    10030    2    1    2    0    0  0.00000000000E+00  0.00000000000E+00  0.14933124996E+03  0.14769814693E+04  0.14694129571E+04 0.  0.
        1    1    3    3  502    0  0.43796610861E+03  0.42417121553E+02  0.66606685253E+03  0.79828477159E+03  0.50400001928E-02 0. -1.
       -1    1    3    3    0  502 -0.43796610861E+03 -0.42417121553E+02 -0.51673560257E+03  0.67869669771E+03  0.50400001928E-02 0.  1.
</event>
<event>
 5   0  0.1087761E-03  0.1508259E+04  0.7818609E-02  0.8878980E-01
        1   -1    0    0  501    0  0.00000000000E+00  0.00000000000E+00  0.13441250423E+04  0.13441250423E+04  0.50400001928E-02 0. -1.
       -1   -1    0    0    0  501  0.00000000000E+00  0.00000000000E+00 -0.42310869377E+03  0.42310869380E+03  0.50400001928E-02 0.  1.
    10030    2    1    2    0    0  0.00000000000E+00  0.00000000000E+00  0.92101634850E+03  0.17672337361E+04  0.15082585865E+04 0.  0.
        3    1    3    3  502    0  0.42970660745E+03 -0.56792859519E+03  0.75112950735E+03  0.10350778738E+04  0.10100000352E+00 0.  1.
       -3    1    3    3    0  502 -0.42970660745E+03  0.56792859519E+03  0.16988684114E+03  0.73215586231E+03  0.10100000352E+00 0. -1.
</event>
<event>
 5   0  0.2150197E-03  0.1484598E+04  0.7818609E-02  0.8894760E-01
        2   -1    0    0  501    0  0.00000000000E+00  0.00000000000E+00  0.21184875070E+04  0.21184875070E+04  0.25500000920E-02 0.  1.
       -2   -1    0    0    0  501  0.00000000000E+00  0.00000000000E+00 -0.26009503449E+03  0.26009503451E+03  0.25500000920E-02 0. -1.
    10030    2    1    2    0    0  0.00000000000E+00  0.00000000000E+00  0.18583924725E+04  0.23785825415E+04  0.14845983716E+04 0.  0.
        3    1    3    3  502    0 -0.70024652805E+03  0.23654491041E+01  0.13237904360E+04  0.14975887032E+04  0.10100000352E+00 0. -1.
       -3    1    3    3    0  502  0.70024652805E+03 -0.23654491041E+01  0.53460203644E+03  0.88099383821E+03  0.10100000352E+00 0.  1.
</event>
<event>
 5   0  0.2094566E-03  0.1477499E+04  0.7818609E-02  0.8899555E-01
       -2   -1    0    0    0  501  0.00000000000E+00  0.00000000000E+00  0.39543902929E+03  0.39543902930E+03  0.25500000920E-02 0. -1.
        2   -1    0    0  501    0  0.00000000000E+00  0.00000000000E+00 -0.13801135607E+04  0.13801135607E+04  0.25500000920E-02 0.  1.
    10030    2    1    2    0    0  0.00000000000E+00  0.00000000000E+00 -0.98467453143E+03  0.17755525900E+04  0.14774989229E+04 0.  0.
        1    1    3    3  502    0 -0.58132679053E+03  0.39403003895E+03 -0.76781962426E+03  0.10405515290E+04  0.50400001928E-02 0.  1.
       -1    1    3    3    0  502  0.58132679053E+03 -0.39403003895E+03 -0.21685490717E+03  0.73500106107E+03  0.50400001928E-02 0. -1.
</event>
<event>
 5   0  0.7468375E-04  0.1292823E+04  0.7818609E-02  0.9035276E-01
       -3   -1    0    0    0  501  0.00000000000E+00  0.00000000000E+00  0.67925726056E+03  0.67925726807E+03  0.10100000352E+00 0. -1.
        3   -1    0    0  501    0  0.00000000000E+00  0.00000000000E+00 -0.61515372991E+03  0.61515373821E+03  0.10100000352E+00 0.  1.
    10030    2    1    2    0    0  0.00000000000E+00  0.00000000000E+00  0.64103530650E+02  0.12944110063E+04  0.12928227220E+04 0.  0.
        3    1    3    3  502    0 -0.28541437931E+03  0.56978999051E+03  0.14046977469E+03  0.65257472293E+03  0.10100000352E+00 0.  1.
       -3    1    3    3    0  502  0.28541437931E+03 -0.56978999051E+03 -0.76366244043E+02  0.64183628335E+03  0.10100000352E+00 0. -1.
</event>
<event>
 5   0  0.1993623E-03  0.1502569E+04  0.7818609E-02  0.8882746E-01
        2   -1    0    0  501    0  0.00000000000E+00  0.00000000000E+00  0.12168501763E+04  0.12168501763E+04  0.25500000920E-02 0. -1.
       -2   -1    0    0    0  501  0.00000000000E+00  0.00000000000E+00 -0.46384375566E+03  0.46384375566E+03  0.25500000920E-02 0.  1.
    10030    2    1    2    0    0  0.00000000000E+00  0.00000000000E+00  0.75300642061E+03  0.16806939319E+04  0.15025689413E+04 0.  0.
        4    1    3    3  502    0  0.10108988747E+03 -0.62150387628E+03 -0.81883436261E+02  0.63497460076E+03  0.12699999809E+01 0.  1.
       -4    1    3    3    0  502 -0.10108988747E+03  0.62150387628E+03  0.83488985687E+03  0.10457193312E+04  0.12699999809E+01 0. -1.
</event>
<event>
 5   0  0.1069697E-03  0.1518931E+04  0.7818609E-02  0.8871961E-01
       -1   -1    0    0    0  501  0.00000000000E+00  0.00000000000E+00  0.65131230692E+03  0.65131230694E+03  0.50400001928E-02 0. -1.
        1   -1    0    0  501    0  0.00000000000E+00  0.00000000000E+00 -0.88557798796E+03  0.88557798797E+03  0.50400001928E-02 0.  1.
    10030    2    1    2    0    0  0.00000000000E+00  0.00000000000E+00 -0.23426568104E+03  0.15368902949E+04  0.15189309956E+04 0.  0.
        2    1    3    3  502    0  0.55074254284E+03  0.18820586030E+03  0.37653865073E+03  0.69319560720E+03  0.25500000920E-02 0. -1.
       -2    1    3    3    0  502 -0.55074254284E+03 -0.18820586030E+03 -0.61080433178E+03  0.84369468771E+03  0.25500000920E-02 0.  1.
</event>
<event>
 5   0  0.2111533E-03  0.1549696E+04  0.7818609E-02  0.8852062E-01
       -2   -1    0    0    0  501  0.00000000000E+00  0.00000000000E+00  0.41471359352E+03  0.41471359353E+03  0.25500000920E-02 0. -1.
        2   -1    0    0  501    0  0.00000000000E+00  0.00000000000E+00 -0.14477206259E+04  0.14477206260E+04  0.25500000920E-02 0.  1.
    10030    2    1    2    0    0  0.00000000000E+00  0.00000000000E+00 -0.10330070324E+04  0.18624342195E+04  0.15496960001E+04 0.  0.
        5    1    3    3  502    0 -0.65590180670E+03 -0.32069799090E+03 -0.82830899954E+03  0.11041613424E+04  0.46999998093E+01 0.  1.
       -5    1    3    3    0  502  0.65590180670E+03  0.32069799090E+03 -0.20469803289E+03  0.75827287705E+03  0.46999998093E+01 0. -1.
</event>
<event>
 5   0  0.2111533E-03  0.1530726E+04  0.7818609E-02  0.8864274E-01
        2   -1    0    0  501    0  0.00000000000E+00  0.00000000000E+00  0.20561340039E+04  0.20561340039E+04  0.25500000920E-02 0. -1.
       -2   -1    0    0    0  501  0.00000000000E+00  0.00000000000E+00 -0.28489418495E+03  0.28489418496E+03  0.25500000920E-02 0.  1.
    10030    2    1    2    0    0  0.00000000000E+00  0.00000000000E+00  0.17712398190E+04  0.23410281889E+04  0.15307261299E+04 0.  0.
        5    1    3    3  502    0  0.10142520925E+03 -0.28582111928E+03 -0.18904954192E+03  0.35741097437E+03  0.46999998093E+01 0.  1.
       -5    1    3    3    0  502 -0.10142520925E+03  0.28582111928E+03  0.19602893609E+04  0.19836172145E+04  0.46999998093E+01 0. -1.
</event>
<event>
 5   0  0.2150197E-03  0.1427193E+04  0.7818609E-02  0.8934367E-01
        2   -1    0    0  501    0  0.00000000000E+00  0.00000000000E+00  0.20210786264E+04  0.20210786264E+04  0.25500000920E-02 0. -1.
       -2   -1    0    0    0  501  0.00000000000E+00  0.00000000000E+00 -0.25195439649E+03  0.25195439650E+03  0.25500000920E-02 0.  1.
    10030    2    1    2    0    0  0.00000000000E+00  0.00000000000E+00  0.17691242299E+04  0.22730330229E+04  0.14271925526E+04 0.  0.
        3    1    3    3  502    0 -0.11571329597E+03  0.17995984510E+03 -0.19966946165E+03  0.29264828178E+03  0.10100000352E+00 0.  1.
       -3    1    3    3    0  502  0.11571329597E+03 -0.17995984510E+03  0.19687936915E+04  0.19803847411E+04  0.10100000352E+00 0. -1.
</event>
<event>
 5   0  0.2111533E-03  0.1543063E+04  0.7818609E-02  0.8856311E-01
       -2   -1    0    0    0  501  0.00000000000E+00  0.00000000000E+00  0.63682855379E+03  0.63682855379E+03  0.25500000920E-02 0. -1.
        2   -1    0    0  501    0  0.00000000000E+00  0.00000000000E+00 -0.93472761980E+03  0.93472761980E+03  0.25500000920E-02 0.  1.
    10030    2    1    2    0    0  0.00000000000E+00  0.00000000000E+00 -0.29789906601E+03  0.15715561736E+04  0.15430634962E+04 0.  0.
        5    1    3    3  502    0  0.37133038282E+03  0.38077456765E+03  0.42026546926E+03  0.67787954624E+03  0.46999998093E+01 0. -1.
       -5    1    3    3    0  502 -0.37133038282E+03 -0.38077456765E+03 -0.71816453527E+03  0.89367662735E+03  0.46999998093E+01 0.  1.
</event>
<event>
 5   0  0.1961098E-03  0.1489408E+04  0.7818609E-02  0.8891527E-01
        2   -1    0    0  501    0  0.00000000000E+00  0.00000000000E+00  0.17265635611E+04  0.17265635611E+04  0.25500000920E-02 0. -1.
       -2   -1    0    0    0  501  0.00000000000E+00  0.00000000000E+00 -0.32120679721E+03  0.32120679722E+03  0.25500000920E-02 0.  1.
    10030    2    1    2    0    0  0.00000000000E+00  0.00000000000E+00  0.14053567639E+04  0.20477703584E+04  0.14894078712E+04 0.  0.
        2    1    3    3  502    0 -0.45854977228E+03  0.57680573627E+03  0.55452684140E+03  0.92221080502E+03  0.25500000920E-02 0. -1.
       -2    1    3    3    0  502  0.45854977228E+03 -0.57680573627E+03  0.85082992252E+03  0.11255595533E+04  0.25500000920E-02 0.  1.
</event>
<event>
 5   0  0.2111533E-03  0.1482017E+04  0.7818609E-02  0.8896500E-01
       -2   -1    0    0    0  501  0.00000000000E+00  0.00000000000E+00  0.62277565279E+03  0.62277565279E+03  0.25500000920E-02 0. -1.
        2   -1    0    0  501    0  0.00000000000E+00  0.00000000000E+00 -0.88168757284E+03  0.88168757285E+03  0.25500000920E-02 0.  1.
    10030    2    1    2    0    0  0.00000000000E+00  0.00000000000E+00 -0.25891192006E+03  0.15044632256E+04  0.14820169415E+04 0.  0.
        5    1    3    3  502    0  0.44213298023E+03  0.60890241274E+02  0.47101135974E+03  0.64889366208E+03  0.46999998093E+01 0. -1.
       -5    1    3    3    0  502 -0.44213298023E+03 -0.60890241274E+02 -0.72992327980E+03  0.85556956355E+03  0.46999998093E+01 0.  1.
</event>
<event>
 5   0  0.1961098E-03  0.1460446E+04  0.7818609E-02  0.8911190E-01
       -2   -1    0    0    0  501  0.00000000000E+00  0.00000000000E+00  0.49987527110E+03  0.49987527110E+03  0.25500000920E-02 0. -1.
        2   -1    0    0  501    0  0.00000000000E+00  0.00000000000E+00 -0.10667174799E+04  0.10667174799E+04  0.25500000920E-02 0.  1.
    10030    2    1    2    0    0  0.00000000000E+00  0.00000000000E+00 -0.56684220877E+03  0.15665927510E+04  0.14604460818E+04 0.  0.
        2    1    3    3  502    0  0.49260988483E+03 -0.34724410812E+03  0.15883412019E+03  0.62327461605E+03  0.25500000920E-02 0. -1.
       -2    1    3    3    0  502 -0.49260988483E+03  0.34724410812E+03 -0.72567632897E+03  0.94331813493E+03  0.25500000920E-02 0.  1.
</event>
<event>
 5   0  0.1993623E-03  0.1491457E+04  0.7818609E-02  0.8890154E-01
        2   -1    0    0  501    0  0.00000000000E+00  0.00000000000E+00  0.19155523260E+04  0.19155523260E+04  0.25500000920E-02 0. -1.
       -2   -1    0    0    0  501  0.00000000000E+00  0.00000000000E+00 -0.29031355146E+03  0.29031355147E+03  0.25500000920E-02 0.  1.
    10030    2    1    2    0    0  0.00000000000E+00  0.00000000000E+00  0.16252387745E+04  0.22058658774E+04  0.14914567359E+04 0.  0.
        4    1    3    3  502    0 -0.39834388261E+03 -0.53177681054E+03  0.13133977421E+04  0.14718966223E+04  0.12699999809E+01 0. -1.
       -4    1    3    3    0  502  0.39834388261E+03  0.53177681054E+03  0.31184103243E+03  0.73396925511E+03  0.12699999809E+01 0.  1.
</event>
<event>
 5   0  0.2094566E-03  0.1454661E+04  0.7818609E-02  0.8915175E-01
       -2   -1    0    0    0  501  0.00000000000E+00  0.00000000000E+00  0.32999850412E+03  0.32999850413E+03  0.25500000920E-02 0. -1.
        2   -1    0    0  501    0  0.00000000000E+00  0.00000000000E+00 -0.16030669583E+04  0.16030669583E+04  0.25500000920E-02 0.  1.
    10030    2    1    2    0    0  0.00000000000E+00  0.00000000000E+00 -0.12730684541E+04  0.19330654624E+04  0.14546610578E+04 0.  0.
        1    1    3    3  502    0  0.11681993801E+03 -0.69151112085E+03 -0.38031528676E+03  0.79779336018E+03  0.50400001928E-02 0. -1.
       -1    1    3    3    0  502 -0.11681993801E+03  0.69151112085E+03 -0.89275316737E+03  0.11352721022E+04  0.50400001928E-02 0.  1.
</event>
<event>
 5   0  0.1077140E-03  0.1490304E+04  0.7818609E-02  0.8890926E-01
        1   -1    0    0  501    0  0.00000000000E+00  0.00000000000E+00  0.39459217068E+03  0.39459217072E+03  0.50400001928E-02 0.  1.
       -1   -1    0    0    0  501  0.00000000000E+00  0.00000000000E+00 -0.14071529263E+04  0.14071529263E+04  0.50400001928E-02 0. -1.
    10030    2    1    2    0    0  0.00000000000E+00  0.00000000000E+00 -0.10125607556E+04  0.18017450970E+04  0.14903040330E+04 0.  0.
        1    1    3    3  502    0 -0.35145698361E+03  0.10117294482E+03  0.27861891822E+03  0.45976785197E+03  0.50400001928E-02 0.  1.
       -1    1    3    3    0  502  0.35145698361E+03 -0.10117294482E+03 -0.12911796738E+04  0.13419772450E+04  0.50400001928E-02 0. -1.
</event>
<event>
 5   0  0.1078787E-03  0.1509580E+04  0.7818609E-02  0.8878107E-01
       -1   -1    0    0    0  501  0.00000000000E+00  0.00000000000E+00  0.57903240324E+03  0.57903240326E+03  0.50400001928E-02 0. -1.
        1   -1    0    0  501    0  0.00000000000E+00  0.00000000000E+00 -0.98389708186E+03  0.98389708187E+03  0.50400001928E-02 0.  1.
    10030    2    1    2    0    0  0.00000000000E+00  0.00000000000E+00 -0.40486467862E+03  0.15629294851E+04  0.15095804608E+04 0.  0.
        5    1    3    3  502    0  0.43674134261E+03 -0.42814014001E+03  0.25551029917E+03  0.66283827802E+03  0.46999998093E+01 0. -1.
       -5    1    3    3    0  502 -0.43674134261E+03  0.42814014001E+03 -0.66037497779E+03  0.90009120711E+03  0.46999998093E+01 0.  1.
</event>
<event>
 5   0  0.1069697E-03  0.1452070E+04  0.7818609E-02  0.8916966E-01
       -1   -1    0    0    0  501  0.00000000000E+00  0.00000000000E+00  0.54850749462E+03  0.54850749464E+03  0.50400001928E-02 0.  1.
        1   -1    0    0  501    0  0.00000000000E+00  0.00000000000E+00 -0.96102092158E+03  0.96102092160E+03  0.50400001928E-02 0. -1.
    10030    2    1    2    0    0  0.00000000000E+00  0.00000000000E+00 -0.41251342696E+03  0.15095284162E+04  0.14520704914E+04 0.  0.
        2    1    3    3  502    0 -0.33744695148E+03  0.23819420655E+03 -0.82697665210E+03  0.92439023590E+03  0.25500000920E-02 0. -1.
       -2    1    3    3    0  502  0.33744695148E+03 -0.23819420655E+03  0.41446322513E+03  0.58513818034E+03  0.25500000920E-02 0.  1.
</event>
<event>
 5   0  0.1078787E-03  0.1471789E+04  0.7818609E-02  0.8903433E-01
        1   -1    0    0  501    0  0.00000000000E+00  0.00000000000E+00  0.11305991743E+04  0.11305991743E+04  0.50400001928E-02 0.  1.
       -1   -1    0    0    0  501  0.00000000000E+00  0.00000000000E+00 -0.47898565716E+03  0.47898565719E+03  0.50400001928E-02 0. -1.
    10030    2    1    2    0    0  0.00000000000E+00  0.00000000000E+00  0.65161351716E+03  0.16095848315E+04  0.14717890997E+04 0.  0.
        5    1    3    3  502    0  0.40034507177E+03 -0.40437337151E+03 -0.18448921003E+03  0.59820762173E+03  0.46999998093E+01 0. -1.
       -5    1    3    3    0  502 -0.40034507177E+03  0.40437337151E+03  0.83610272718E+03  0.10113772098E+04  0.46999998093E+01 0.  1.
</event>
<event>
 5   0  0.2094566E-03  0.1080817E+04  0.7818609E-02  0.9224093E-01
       -2   -1    0    0    0  501  0.00000000000E+00  0.00000000000E+00  0.50761640365E+03  0.50761640365E+03  0.25500000920E-02 0. -1.
        2   -1    0    0  501    0  0.00000000000E+00  0.00000000000E+00 -0.57531879363E+03  0.57531879364E+03  0.25500000920E-02 0.  1.
    10030    2    1    2    0    0  0.00000000000E+00  0.00000000000E+00 -0.67702389984E+02  0.10829351973E+04  0.10808168337E+04 0.  0.
        1    1    3    3  502    0 -0.47164571897E+03 -0.24464583857E+03  0.65033606123E+02  0.53528556911E+03  0.50400001928E-02 0.  1.
       -1    1    3    3    0  502  0.47164571897E+03  0.24464583857E+03 -0.13273599611E+03  0.54764962817E+03  0.50400001928E-02 0. -1.
</event>
<event>
 5   0  0.1993623E-03  0.1437564E+04  0.7818609E-02  0.8927068E-01
       -2   -1    0    0    0  501  0.00000000000E+00  0.00000000000E+00  0.58289624609E+03  0.58289624610E+03  0.25500000920E-02 0. -1.
        2   -1    0    0  501    0  0.00000000000E+00  0.00000000000E+00 -0.88634516853E+03  0.88634516853E+03  0.25500000920E-02 0.  1.
    10030    2    1    2    0    0  0.00000000000E+00  0.00000000000E+00 -0.30344892244E+03  0.14692414146E+04  0.14375635937E+04 0.  0.
        4    1    3    3  502    0  0.64080558397E+03  0.29560262804E+03 -0.12213963890E+02  0.70580698776E+03  0.12699999809E+01 0. -1.
       -4    1    3    3    0  502 -0.64080558397E+03 -0.29560262804E+03 -0.29123495855E+03  0.76343442687E+03  0.12699999809E+01 0.  1.
</event>
<event>
 5   0  0.1078018E-03  0.1592194E+04  0.7818609E-02  0.8825358E-01
        1   -1    0    0  501    0  0.00000000000E+00  0.00000000000E+00  0.25994117392E+04  0.25994117392E+04  0.50400001928E-02 0.  1.
       -1   -1    0    0    0  501  0.00000000000E+00  0.00000000000E+00 -0.24381316085E+03  0.24381316090E+03  0.50400001928E-02 0. -1.
    10030    2    1    2    0    0  0.00000000000E+00  0.00000000000E+00  0.23555985783E+04  0.28432249001E+04  0.15921944511E+04 0.  0.
        4    1    3    3  502    0 -0.11524391673E+03  0.14052913258E+03 -0.20627127366E+03  0.27491643946E+03  0.12699999809E+01 0. -1.
       -4    1    3    3    0  502  0.11524391673E+03 -0.14052913258E+03  0.25618698520E+04  0.25683084606E+04  0.12699999809E+01 0.  1.
</event>
<event>
 5   0  0.1069697E-03  0.9710412E+03  0.7818609E-02  0.9340889E-01
       -1   -1    0    0    0  501  0.00000000000E+00  0.00000000000E+00  0.13152297551E+04  0.13152297551E+04  0.50400001928E-02 0. -1.
        1   -1    0    0  501    0  0.00000000000E+00  0.00000000000E+00 -0.17923122573E+03  0.17923122580E+03  0.50400001928E-02 0.  1.
    10030    2    1    2    0    0  0.00000000000E+00  0.00000000000E+00  0.11359985294E+04  0.14944609809E+04  0.97104117561E+03 0.  0.
        2    1    3    3  502    0  0.22996156743E+02  0.63571875321E+02  0.13079508585E+04  0.13096967797E+04  0.25500000920E-02 0. -1.
       -2    1    3    3    0  502 -0.22996156743E+02 -0.63571875321E+02 -0.17195232911E+03  0.18476420121E+03  0.25500000920E-02 0.  1.
</event>
<event>
 5   0  0.1069697E-03  0.1514077E+04  0.7818609E-02  0.8875146E-01
        1   -1    0    0  501    0  0.00000000000E+00  0.00000000000E+00  0.79514073072E+03  0.79514073074E+03  0.50400001928E-02 0. -1.
       -1   -1    0    0    0  501  0.00000000000E+00  0.00000000000E+00 -0.72076170995E+03  0.72076170997E+03  0.50400001928E-02 0.  1.
    10030    2    1    2    0    0  0.00000000000E+00  0.00000000000E+00  0.74379020771E+02  0.15159024407E+04  0.15140766067E+04 0.  0.
        2    1    3    3  502    0  0.73902911257E+03  0.13642830029E+03  0.12856995465E+03  0.76243487826E+03  0.25500000920E-02 0. -1.
       -2    1    3    3    0  502 -0.73902911257E+03 -0.13642830029E+03 -0.54190933880E+02  0.75346756245E+03  0.25500000920E-02 0.  1.
</event>
<event>
 5   0  0.1961098E-03  0.1490694E+04  0.7818609E-02  0.8890665E-01
       -2   -1    0    0    0  501  0.00000000000E+00  0.00000000000E+00  0.71033360763E+03  0.71033360764E+03  0.25500000920E-02 0. -1.
        2   -1    0    0  501    0  0.00000000000E+00  0.00000000000E+00 -0.78208573681E+03  0.78208573682E+03  0.25500000920E-02 0.  1.
    10030    2    1    2    0    0  0.00000000000E+00  0.00000000000E+00 -0.71752129182E+02  0.14924193445E+04  0.14906935069E+04 0.  0.
        2    1    3    3  502    0  0.69858979707E+03 -0.12624301709E+03  0.19149208017E+03  0.73527832873E+03  0.25500000920E-02 0.  1.
       -2    1    3    3    0  502 -0.69858979707E+03  0.12624301709E+03 -0.26324420935E+03  0.75714101572E+03  0.25500000920E-02 0. -1.
</event>
<event>
 5   0  0.1077140E-03  0.1541718E+04  0.7818609E-02  0.8857175E-01
        1   -1    0    0  501    0  0.00000000000E+00  0.00000000000E+00  0.96719734580E+03  0.96719734582E+03  0.50400001928E-02 0. -1.
       -1   -1    0    0    0  501  0.00000000000E+00  0.00000000000E+00 -0.61437680519E+03  0.61437680521E+03  0.50400001928E-02 0.  1.
    10030    2    1    2    0    0  0.00000000000E+00  0.00000000000E+00  0.35282054061E+03  0.15815741510E+04  0.15417180226E+04 0.  0.
        1    1    3    3  502    0  0.22988380574E+03 -0.18227506798E+03  0.90768706469E+03  0.95392168021E+03  0.50400001928E-02 0. -1.
       -1    1    3    3    0  502 -0.22988380574E+03  0.18227506798E+03 -0.55486652408E+03  0.62765247081E+03  0.50400001928E-02 0.  1.
</event>
<event>
 5   0  0.1078018E-03  0.1386428E+04  0.7818609E-02  0.8963701E-01
        1   -1    0    0  501    0  0.00000000000E+00  0.00000000000E+00  0.15547443994E+04  0.15547443994E+04  0.50400001928E-02 0.  1.
       -1   -1    0    0    0  501  0.00000000000E+00  0.00000000000E+00 -0.30908357642E+03  0.30908357646E+03  0.50400001928E-02 0. -1.
    10030    2    1    2    0    0  0.00000000000E+00  0.00000000000E+00  0.12456608230E+04  0.18638279759E+04  0.13864284467E+04 0.  0.
        4    1    3    3  502    0  0.12636270973E+03 -0.37729526416E+03 -0.14028117263E+03  0.42190007237E+03  0.12699999809E+01 0. -1.
       -4    1    3    3    0  502 -0.12636270973E+03  0.37729526416E+03  0.13859419956E+04  0.14419279035E+04  0.12699999809E+01 0.  1.
</event>
<event>
 5   0  0.1087761E-03  0.9432472E+03  0.7818609E-02  0.9373079E-01
       -1   -1    0    0    0  501  0.00000000000E+00  0.00000000000E+00  0.66757848131E+03  0.66757848133E+03  0.50400001928E-02 0. -1.
        1   -1    0    0  501    0  0.00000000000E+00  0.00000000000E+00 -0.33318755197E+03  0.33318755201E+03  0.50400001928E-02 0.  1.
    10030    2    1    2    0    0  0.00000000000E+00  0.00000000000E+00  0.33439092934E+03  0.10007660333E+04  0.94324724217E+03 0.  0.
        3    1    3    3  502    0  0.32830303408E+03 -0.23003660798E+03  0.43079947205E+03  0.58846233398E+03  0.10100000352E+00 0. -1.
       -3    1    3    3    0  502 -0.32830303408E+03  0.23003660798E+03 -0.96408542705E+02  0.41230369936E+03  0.10100000352E+00 0.  1.
</event>
<event>
 5   0  0.1078018E-03  0.1486403E+04  0.7818609E-02  0.8893546E-01
       -1   -1    0    0    0  501  0.00000000000E+00  0.00000000000E+00  0.76747743687E+03  0.76747743689E+03  0.50400001928E-02 0. -1.
        1   -1    0    0  501    0  0.00000000000E+00  0.00000000000E+00 -0.71969297546E+03  0.71969297548E+03  0.50400001928E-02 0.  1.
    10030    2    1    2    0    0  0.00000000000E+00  0.00000000000E+00  0.47784461410E+02  0.14871704124E+04  0.14864025298E+04 0.  0.
        4    1    3    3  502    0 -0.13827499858E+03 -0.65992343251E+03  0.33666786022E+03  0.75363503966E+03  0.12699999809E+01 0. -1.
       -4    1    3    3    0  502  0.13827499858E+03  0.65992343251E+03 -0.28888339881E+03  0.73353537271E+03  0.12699999809E+01 0.  1.
</event>
<event>
 5   0  0.1993623E-03  0.1489635E+04  0.7818609E-02  0.8891375E-01
       -2   -1    0    0    0  501  0.00000000000E+00  0.00000000000E+00  0.73000962085E+03  0.73000962085E+03  0.25500000920E-02 0. -1.
        2   -1    0    0  501    0  0.00000000000E+00  0.00000000000E+00 -0.75992558443E+03  0.75992558444E+03  0.25500000920E-02 0.  1.
    10030    2    1    2    0    0  0.00000000000E+00  0.00000000000E+00 -0.29915963587E+02  0.14899352053E+04  0.14896348382E+04 0.  0.
        4    1    3    3  502    0  0.26793235195E+03  0.19198514558E+03 -0.68300383001E+03  0.75838109553E+03  0.12699999809E+01 0.  1.
       -4    1    3    3    0  502 -0.26793235195E+03 -0.19198514558E+03  0.65308786642E+03  0.73155410976E+03  0.12699999809E+01 0. -1.
</event>
<event>
 5   0  0.1961098E-03  0.1498466E+04  0.7818609E-02  0.8885473E-01
        2   -1    0    0  501    0  0.00000000000E+00  0.00000000000E+00  0.11907759757E+04  0.11907759757E+04  0.25500000920E-02 0.  1.
       -2   -1    0    0    0  501  0.00000000000E+00  0.00000000000E+00 -0.47141552141E+03  0.47141552142E+03  0.25500000920E-02 0. -1.
    10030    2    1    2    0    0  0.00000000000E+00  0.00000000000E+00  0.71936045428E+03  0.16621914971E+04  0.14984662525E+04 0.  0.
        2    1    3    3  502    0 -0.18092813645E+03  0.32200548593E+03  0.10827690338E+04  0.11440329121E+04  0.25500000920E-02 0.  1.
       -2    1    3    3    0  502  0.18092813645E+03 -0.32200548593E+03 -0.36340857950E+03  0.51815858498E+03  0.25500000920E-02 0. -1.
</event>
<event>
 5   0  0.2111533E-03  0.1504071E+04  0.7818609E-02  0.8881750E-01
        2   -1    0    0  501    0  0.00000000000E+00  0.00000000000E+00  0.51122102175E+03  0.51122102176E+03  0.25500000920E-02 0.  1.
       -2   -1    0    0    0  501  0.00000000000E+00  0.00000000000E+00 -0.11062879646E+04  0.11062879646E+04  0.25500000920E-02 0. -1.
    10030    2    1    2    0    0  0.00000000000E+00  0.00000000000E+00 -0.59506694285E+03  0.16175089864E+04  0.15040713595E+04 0.  0.
        5    1    3    3  502    0  0.23098954684E+03 -0.37928755806E+03 -0.95019966606E+03  0.10488644897E+04  0.46999998093E+01 0. -1.
       -5    1    3    3    0  502 -0.23098954684E+03  0.37928755806E+03  0.35513272321E+03  0.56864449663E+03  0.46999998093E+01 0.  1.
</event>
<event>
 5   0  0.2150197E-03  0.1517606E+04  0.7818609E-02  0.8872829E-01
       -2   -1    0    0    0  501  0.00000000000E+00  0.00000000000E+00  0.30181498420E+03  0.30181498421E+03  0.25500000920E-02 0. -1.
        2   -1    0    0  501    0  0.00000000000E+00  0.00000000000E+00 -0.19077313507E+04  0.19077313507E+04  0.25500000920E-02 0.  1.
    10030    2    1    2    0    0  0.00000000000E+00  0.00000000000E+00 -0.16059163665E+04  0.22095463349E+04  0.15176058875E+04 0.  0.
        3    1    3    3  502    0 -0.69046881612E+03 -0.11131906941E+03 -0.12315168575E+04  0.14162531206E+04  0.10100000352E+00 0.  1.
       -3    1    3    3    0  502  0.69046881612E+03  0.11131906941E+03 -0.37439950898E+03  0.79329321425E+03  0.10100000352E+00 0. -1.
</event>
<event>
 5   0  0.2094566E-03  0.1517078E+04  0.7818609E-02  0.8873175E-01
       -2   -1    0    0    0  501  0.00000000000E+00  0.00000000000E+00  0.11609245768E+04  0.11609245769E+04  0.25500000920E-02 0. -1.
        2   -1    0    0  501    0  0.00000000000E+00  0.00000000000E+00 -0.49562341703E+03  0.49562341704E+03  0.25500000920E-02 0.  1.
    10030    2    1    2    0    0  0.00000000000E+00  0.00000000000E+00  0.66530115981E+03  0.16565479939E+04  0.15170779884E+04 0.  0.
        1    1    3    3  502    0  0.65984553559E+03 -0.58874656606E+02  0.73610338928E+03  0.99030831348E+03  0.50400001928E-02 0. -1.
       -1    1    3    3    0  502 -0.65984553559E+03  0.58874656606E+02 -0.70802229461E+02  0.66623968041E+03  0.50400001928E-02 0.  1.
</event>
<event>
 5   0  0.1087761E-03  0.1528403E+04  0.7818609E-02  0.8865782E-01
        1   -1    0    0  501    0  0.00000000000E+00  0.00000000000E+00  0.12233708723E+04  0.12233708724E+04  0.50400001928E-02 0. -1.
       -1   -1    0    0    0  501  0.00000000000E+00  0.00000000000E+00 -0.47737263821E+03  0.47737263824E+03  0.50400001928E-02 0.  1.
    10030    2    1    2    0    0  0.00000000000E+00  0.00000000000E+00  0.74599823413E+03  0.17007435106E+04  0.15284028015E+04 0.  0.
        3    1    3    3  502    0 -0.66300583686E+03 -0.37310914108E+03  0.29262897087E+03  0.81511894571E+03  0.10100000352E+00 0. -1.
       -3    1    3    3    0  502  0.66300583686E+03  0.37310914108E+03  0.45336926327E+03  0.88562456489E+03  0.10100000352E+00 0.  1.
</event>
<event>
 5   0  0.1087761E-03  0.1524087E+04  0.7818609E-02  0.8868591E-01
        1   -1    0    0  501    0  0.00000000000E+00  0.00000000000E+00  0.12819333570E+04  0.12819333570E+04  0.50400001928E-02 0.  1.
       -1   -1    0    0    0  501  0.00000000000E+00  0.00000000000E+00 -0.45299572608E+03  0.45299572611E+03  0.50400001928E-02 0. -1.
    10030    2    1    2    0    0  0.00000000000E+00  0.00000000000E+00  0.82893763090E+03  0.17349290831E+04  0.15240870472E+04 0.  0.
        3    1    3    3  502    0 -0.55752927988E+03  0.17052196186E+03 -0.14412291370E+03  0.60057311116E+03  0.10100000352E+00 0. -1.
       -3    1    3    3    0  502  0.55752927988E+03 -0.17052196186E+03  0.97306054460E+03  0.11343559719E+04  0.10100000352E+00 0.  1.
</event>
<event>
 5   0  0.2111533E-03  0.1460767E+04  0.7818609E-02  0.8910970E-01
       -2   -1    0    0    0  501  0.00000000000E+00  0.00000000000E+00  0.42078998347E+03  0.42078998348E+03  0.25500000920E-02 0. -1.
        2   -1    0    0  501    0  0.00000000000E+00  0.00000000000E+00 -0.12677584693E+04  0.12677584693E+04  0.25500000920E-02 0.  1.
    10030    2    1    2    0    0  0.00000000000E+00  0.00000000000E+00 -0.84696848586E+03  0.16885484528E+04  0.14607670113E+04 0.  0.
        5    1    3    3  502    0 -0.45528898069E+03 -0.37059774801E+03 -0.92575961423E+03  0.10962133461E+04  0.46999998093E+01 0.  1.
       -5    1    3    3    0  502  0.45528898069E+03  0.37059774801E+03  0.78791128372E+02  0.59233510674E+03  0.46999998093E+01 0. -1.
</event>
<event>
 5   0  0.1078018E-03  0.1532612E+04  0.7818609E-02  0.8863051E-01
       -1   -1    0    0    0  501  0.00000000000E+00  0.00000000000E+00  0.88308479294E+03  0.88308479296E+03  0.50400001928E-02 0.  1.
        1   -1    0    0  501    0  0.00000000000E+00  0.00000000000E+00 -0.66496994227E+03  0.66496994229E+03  0.50400001928E-02 0. -1.
    10030    2    1    2    0    0  0.00000000000E+00  0.00000000000E+00  0.21811485067E+03  0.15480547353E+04  0.15326119454E+04 0.  0.
        4    1    3    3  502    0  0.51814364721E+01  0.58940288579E+03 -0.38557121372E+03  0.70433612914E+03  0.12699999809E+01 0. -1.
       -4    1    3    3    0  502 -0.51814364721E+01 -0.58940288579E+03  0.60368606439E+03  0.84371860611E+03  0.12699999809E+01 0.  1.
</event>
<event>
 5   0  0.2094566E-03  0.1326672E+04  0.7818609E-02  0.9008677E-01
        2   -1    0    0  501    0  0.00000000000E+00  0.00000000000E+00  0.16208019822E+04  0.16208019822E+04  0.25500000920E-02 0.  1.
       -2   -1    0    0    0  501  0.00000000000E+00  0.00000000000E+00 -0.27147974465E+03  0.27147974467E+03  0.25500000920E-02 0. -1.
    10030    2    1    2    0    0  0.00000000000E+00  0.00000000000E+00  0.13493222375E+04  0.18922817268E+04  0.13266723910E+04 0.  0.
        1    1    3    3  502    0 -0.38716839185E+03  0.43937633050E+03  0.11190376991E+04  0.12630108058E+04  0.50400001928E-02 0.  1.
       -1    1    3    3    0  502  0.38716839185E+03 -0.43937633050E+03  0.23028453842E+03  0.62927092107E+03  0.50400001928E-02 0. -1.
</event>
<event>
 5   0  0.2150197E-03  0.1519565E+04  0.7818609E-02  0.8871545E-01
       -2   -1    0    0    0  501  0.00000000000E+00  0.00000000000E+00  0.63025180839E+03  0.63025180840E+03  0.25500000920E-02 0. -1.
        2   -1    0    0  501    0  0.00000000000E+00  0.00000000000E+00 -0.91593506315E+03  0.91593506315E+03  0.25500000920E-02 0.  1.
    10030    2    1    2    0    0  0.00000000000E+00  0.00000000000E+00 -0.28568325476E+03  0.15461868716E+04  0.15195653720E+04 0.  0.
        3    1    3    3  502    0 -0.21208351623E+03  0.43791784259E+03  0.45092091850E+03  0.66338611658E+03  0.10100000352E+00 0. -1.
       -3    1    3    3    0  502  0.21208351623E+03 -0.43791784259E+03 -0.73660417326E+03  0.88280075498E+03  0.10100000352E+00 0.  1.
</event>
<event>
 5   0  0.1087761E-03  0.1577606E+04  0.7818609E-02  0.8834425E-01
       -1   -1    0    0    0  501  0.00000000000E+00  0.00000000000E+00  0.53452837817E+03  0.53452837819E+03  0.50400001928E-02 0.  1.
        1   -1    0    0  501    0  0.00000000000E+00  0.00000000000E+00 -0.11640356880E+04  0.11640356881E+04  0.50400001928E-02 0. -1.
    10030    2    1    2    0    0  0.00000000000E+00  0.00000000000E+00 -0.62950730988E+03  0.16985640662E+04  0.15776059185E+04 0.  0.
        3    1    3    3  502    0  0.95449259083E+02  0.39653608568E+03  0.41218625835E+03  0.57986976993E+03  0.10100000352E+00 0.  1.
       -3    1    3    3    0  502 -0.95449259083E+02 -0.39653608568E+03 -0.10416935682E+04  0.11186942963E+04  0.10100000352E+00 0. -1.
</event>
<event>
 5   0  0.2150197E-03  0.1472605E+04  0.7818609E-02  0.8902877E-01
        2   -1    0    0  501    0  0.00000000000E+00  0.00000000000E+00  0.22134012991E+04  0.22134012991E+04  0.25500000920E-02 0. -1.
       -2   -1    0    0    0  501  0.00000000000E+00  0.00000000000E+00 -0.24493591248E+03  0.24493591249E+03  0.25500000920E-02 0.  1.
    10030    2    1    2    0    0  0.00000000000E+00  0.00000000000E+00  0.19684653866E+04  0.24583372116E+04  0.14726051295E+04 0.  0.
        3    1    3    3  502    0 -0.62664669658E+03 -0.38607418143E+03  0.10177078491E+04  0.12559731814E+04  0.10100000352E+00 0. -1.
       -3    1    3    3    0  502  0.62664669658E+03  0.38607418143E+03  0.95075753745E+03  0.12023640302E+04  0.10100000352E+00 0.  1.
</event>
<event>
 5   0  0.2094566E-03  0.1519786E+04  0.7818609E-02  0.8871401E-01
       -2   -1    0    0    0  501  0.00000000000E+00  0.00000000000E+00  0.12519534856E+04  0.12519534856E+04  0.25500000920E-02 0. -1.
        2   -1    0    0  501    0  0.00000000000E+00  0.00000000000E+00 -0.46122900213E+03  0.46122900214E+03  0.25500000920E-02 0.  1.
    10030    2    1    2    0    0  0.00000000000E+00  0.00000000000E+00  0.79072448349E+03  0.17131824878E+04  0.15197858493E+04 0.  0.
        1    1    3    3  502    0 -0.52360260885E+03  0.29576733656E+03  0.91901837303E+03  0.10982862921E+04  0.50400001928E-02 0. -1.
       -1    1    3    3    0  502  0.52360260885E+03 -0.29576733656E+03 -0.12829388953E+03  0.61489619569E+03  0.50400001928E-02 0.  1.
</event>
<event>
 5   0  0.1069697E-03  0.1599331E+04  0.7818609E-02  0.8820959E-01
        1   -1    0    0  501    0  0.00000000000E+00  0.00000000000E+00  0.56471063428E+03  0.56471063430E+03  0.50400001928E-02 0. -1.
       -1   -1    0    0    0  501  0.00000000000E+00  0.00000000000E+00 -0.11323757499E+04  0.11323757499E+04  0.50400001928E-02 0.  1.
    10030    2    1    2    0    0  0.00000000000E+00  0.00000000000E+00 -0.56766511562E+03  0.16970863842E+04  0.15993306450E+04 0.  0.
        2    1    3    3  502    0 -0.33584743827E+03  0.17012074287E+03  0.46478950989E+03  0.59813364515E+03  0.25500000920E-02 0. -1.
       -2    1    3    3    0  502  0.33584743827E+03 -0.17012074287E+03 -0.10324546255E+04  0.10989527391E+04  0.25500000920E-02 0.  1.
</event>
<event>
 5   0  0.1993623E-03  0.1487248E+04  0.7818609E-02  0.8892977E-01
        2   -1    0    0  501    0  0.00000000000E+00  0.00000000000E+00  0.89272957861E+03  0.89272957862E+03  0.25500000920E-02 0. -1.
       -2   -1    0    0    0  501  0.00000000000E+00  0.00000000000E+00 -0.61942231994E+03  0.61942231994E+03  0.25500000920E-02 0.  1.
    10030    2    1    2    0    0  0.00000000000E+00  0.00000000000E+00  0.27330725868E+03  0.15121518986E+04  0.14872479641E+04 0.  0.
        4    1    3    3  502    0  0.70466361038E+03 -0.16021191217E+03  0.31496517131E+03  0.78830408640E+03  0.12699999809E+01 0. -1.
       -4    1    3    3    0  502 -0.70466361038E+03  0.16021191217E+03 -0.41657912629E+02  0.72384781217E+03  0.12699999809E+01 0.  1.
</event>
<event>
 5   0  0.1961098E-03  0.1436629E+04  0.7818609E-02  0.8927723E-01
        2   -1    0    0  501    0  0.00000000000E+00  0.00000000000E+00  0.14058472917E+04  0.14058472917E+04  0.25500000920E-02 0. -1.
       -2   -1    0    0    0  501  0.00000000000E+00  0.00000000000E+00 -0.36702119339E+03  0.36702119340E+03  0.25500000920E-02 0.  1.
    10030    2    1    2    0    0  0.00000000000E+00  0.00000000000E+00  0.10388260983E+04  0.17728684851E+04  0.14366290415E+04 0.  0.
        2    1    3    3  502    0  0.23408567387E+03 -0.67062492424E+03  0.65141494674E+03  0.96378178265E+03  0.25500000920E-02 0. -1.
       -2    1    3    3    0  502 -0.23408567387E+03  0.67062492424E+03  0.38741115157E+03  0.80908670246E+03  0.25500000920E-02 0.  1.
</event>
<event>
 5   0  0.1087761E-03  0.1507480E+04  0.7818609E-02  0.8879494E-01
        1   -1    0    0  501    0  0.00000000000E+00  0.00000000000E+00  0.72823958512E+03  0.72823958514E+03  0.50400001928E-02 0. -1.
       -1   -1    0    0    0  501  0.00000000000E+00  0.00000000000E+00 -0.78013377050E+03  0.78013377051E+03  0.50400001928E-02 0.  1.
    10030    2    1    2    0    0  0.00000000000E+00  0.00000000000E+00 -0.51894185377E+02  0.15083733556E+04  0.15074804057E+04 0.  0.
        3    1    3    3  502    0 -0.24950320966E+03 -0.64456312793E+03  0.27491491279E+03  0.74383579976E+03  0.10100000352E+00 0. -1.
       -3    1    3    3    0  502  0.24950320966E+03  0.64456312793E+03 -0.32680909817E+03  0.76453755589E+03  0.10100000352E+00 0.  1.
</event>
<event>
 5   0  0.1078018E-03  0.1526618E+04  0.7818609E-02  0.8866943E-01
       -1   -1    0    0    0  501  0.00000000000E+00  0.00000000000E+00  0.71539965617E+03  0.71539965619E+03  0.50400001928E-02 0.  1.
        1   -1    0    0  501    0  0.00000000000E+00  0.00000000000E+00 -0.81442651343E+03  0.81442651345E+03  0.50400001928E-02 0. -1.
    10030    2    1    2    0    0  0.00000000000E+00  0.00000000000E+00 -0.99026857264E+02  0.15298261696E+04  0.15266177619E+04 0.  0.
        4    1    3    3  502    0 -0.65686339017E+02 -0.23997792260E+03  0.67362268230E+03  0.71810391273E+03  0.12699999809E+01 0.  1.
       -4    1    3    3    0  502  0.65686339017E+02  0.23997792260E+03 -0.77264953956E+03  0.81172225691E+03  0.12699999809E+01 0. -1.
</event>
<event>
 5   0  0.1078787E-03  0.1508502E+04  0.7818609E-02  0.8878819E-01
        1   -1    0    0  501    0  0.00000000000E+00  0.00000000000E+00  0.11963024910E+04  0.11963024910E+04  0.50400001928E-02 0.  1.
       -1   -1    0    0    0  501  0.00000000000E+00  0.00000000000E+00 -0.47554381364E+03  0.47554381367E+03  0.50400001928E-02 0. -1.
    10030    2    1    2    0    0  0.00000000000E+00  0.00000000000E+00  0.72075867736E+03  0.16718463047E+04  0.15085015729E+04 0.  0.
        5    1    3    3  502    0 -0.59372813012E+03 -0.45768256670E+03  0.45234500448E+03  0.87557096653E+03  0.46999998093E+01 0.  1.
       -5    1    3    3    0  502  0.59372813012E+03  0.45768256670E+03  0.26841367288E+03  0.79627533815E+03  0.46999998093E+01 0. -1.
</event>
<event>
 5   0  0.1078018E-03  0.1405582E+04  0.7818609E-02  0.8949788E-01
       -1   -1    0    0    0  501  0.00000000000E+00  0.00000000000E+00  0.94727388603E+03  0.94727388604E+03  0.50400001928E-02 0. -1.
        1   -1    0    0  501    0  0.00000000000E+00  0.00000000000E+00 -0.52140661277E+03  0.52140661279E+03  0.50400001928E-02 0.  1.
    10030    2    1    2    0    0  0.00000000000E+00  0.00000000000E+00  0.42586727326E+03  0.14686804988E+04  0.14055815427E+04 0.  0.
        4    1    3    3  502    0  0.77155876046E+02  0.81750423923E+02 -0.51195097282E+03  0.52414842601E+03  0.12699999809E+01 0.  1.
       -4    1    3    3    0  502 -0.77155876046E+02 -0.81750423923E+02  0.93781824608E+03  0.94453207282E+03  0.12699999809E+01 0. -1.
</event>
<event>
 5   0  0.1077140E-03  0.1473649E+04  0.7818609E-02  0.8902168E-01
        1   -1    0    0  501    0  0.00000000000E+00  0.00000000000E+00  0.37654767471E+03  0.37654767474E+03  0.50400001928E-02 0.  1.
       -1   -1    0    0    0  501  0.00000000000E+00  0.00000000000E+00 -0.14418097764E+04  0.14418097764E+04  0.50400001928E-02 0. -1.
    10030    2    1    2    0    0  0.00000000000E+00  0.00000000000E+00 -0.10652621017E+04  0.18183574512E+04  0.14736486945E+04 0.  0.
        1    1    3    3  502    0  0.83882346114E+02 -0.21214014920E+03  0.33187638151E+03  0.40271779638E+03  0.50400001928E-02 0.  1.
       -1    1    3    3    0  502 -0.83882346114E+02  0.21214014920E+03 -0.13971384832E+04  0.14156396548E+04  0.50400001928E-02 0. -1.
</event>
<event>
 5   0  0.2111533E-03  0.1501519E+04  0.7818609E-02  0.8883443E-01
       -2   -1    0    0    0  501  0.00000000000E+00  0.00000000000E+00  0.39550971661E+03  0.39550971662E+03  0.25500000920E-02 0. -1.
        2   -1    0    0  501    0  0.00000000000E+00  0.00000000000E+00 -0.14250977448E+04  0.14250977448E+04  0.25500000920E-02 0.  1.
    10030    2    1    2    0    0  0.00000000000E+00  0.00000000000E+00 -0.10295880282E+04  0.18206074614E+04  0.15015192376E+04 0.  0.
        5    1    3    3  502    0  0.16833679545E+03  0.56840071360E+03  0.43752575084E+02  0.59443504754E+03  0.46999998093E+01 0. -1.
       -5    1    3    3    0  502 -0.16833679545E+03 -0.56840071360E+03 -0.10733406033E+04  0.12261724139E+04  0.46999998093E+01 0.  1.
</event>
<event>
 5   0  0.1078018E-03  0.1499786E+04  0.7818609E-02  0.8884595E-01
        1   -1    0    0  501    0  0.00000000000E+00  0.00000000000E+00  0.16009775847E+04  0.16009775847E+04  0.50400001928E-02 0.  1.
       -1   -1    0    0    0  501  0.00000000000E+00  0.00000000000E+00 -0.35124764257E+03  0.35124764261E+03  0.50400001928E-02 0. -1.
    10030    2    1    2    0    0  0.00000000000E+00  0.00000000000E+00  0.12497299421E+04  0.19522252273E+04  0.14997861214E+04 0.  0.
        4    1    3    3  502    0 -0.70616239205E+03 -0.14251675383E+03  0.89591748676E+03  0.11496286814E+04  0.12699999809E+01 0.  1.
       -4    1    3    3    0  502  0.70616239205E+03  0.14251675383E+03  0.35381245537E+03  0.80259654594E+03  0.12699999809E+01 0. -1.
</event>
<event>
 5   0  0.1069697E-03  0.1513331E+04  0.7818609E-02  0.8875636E-01
        1   -1    0    0  501    0  0.00000000000E+00  0.00000000000E+00  0.57947728191E+03  0.57947728193E+03  0.50400001928E-02 0.  1.
       -1   -1    0    0    0  501  0.00000000000E+00  0.00000000000E+00 -0.98803257586E+03  0.98803257588E+03  0.50400001928E-02 0. -1.
    10030    2    1    2    0    0  0.00000000000E+00  0.00000000000E+00 -0.40855529396E+03  0.15675098578E+04  0.15133306731E+04 0.  0.
        2    1    3    3  502    0 -0.33503524608E+03 -0.20240538061E+02 -0.90670377942E+03  0.96683506304E+03  0.25500000920E-02 0. -1.
       -2    1    3    3    0  502  0.33503524608E+03  0.20240538061E+02  0.49814848546E+03  0.60067479477E+03  0.25500000920E-02 0.  1.
</event>
<event>
 5   0  0.2150197E-03  0.1523946E+04  0.7818609E-02  0.8868684E-01
       -2   -1    0    0    0  501  0.00000000000E+00  0.00000000000E+00  0.11567059784E+04  0.11567059784E+04  0.25500000920E-02 0.  1.
        2   -1    0    0  501    0  0.00000000000E+00  0.00000000000E+00 -0.50194483117E+03  0.50194483118E+03  0.25500000920E-02 0. -1.
    10030    2    1    2    0    0  0.00000000000E+00  0.00000000000E+00  0.65476114720E+03  0.16586508096E+04  0.15239456513E+04 0.  0.
        3    1    3    3  502    0 -0.43302340237E+03 -0.52692291513E+03 -0.42425540467E+02  0.68334249259E+03  0.10100000352E+00 0. -1.
       -3    1    3    3    0  502  0.43302340237E+03  0.52692291513E+03  0.69718668766E+03  0.97530831697E+03  0.10100000352E+00 0.  1.
</event>
<event>
 5   0  0.2150197E-03  0.1432197E+04  0.7818609E-02  0.8930837E-01
       -2   -1    0    0    0  501  0.00000000000E+00  0.00000000000E+00  0.28313725877E+03  0.28313725878E+03  0.25500000920E-02 0.  1.
        2   -1    0    0  501    0  0.00000000000E+00  0.00000000000E+00 -0.18111263491E+04  0.18111263491E+04  0.25500000920E-02 0. -1.
    10030    2    1    2    0    0  0.00000000000E+00  0.00000000000E+00 -0.15279890903E+04  0.20942636079E+04  0.14321974023E+04 0.  0.
        3    1    3    3  502    0  0.21448637586E+03  0.53100939006E+02 -0.17600302884E+04  0.17738463128E+04  0.10100000352E+00 0. -1.
       -3    1    3    3    0  502 -0.21448637586E+03 -0.53100939006E+02  0.23204119810E+03  0.32041729505E+03  0.10100000352E+00 0.  1.
</event>
<event>
 5   0  0.1078787E-03  0.1497866E+04  0.7818609E-02  0.8885873E-01
        1   -1    0    0  501    0  0.00000000000E+00  0.00000000000E+00  0.26169495126E+04  0.26169495126E+04  0.50400001928E-02 0. -1.
       -1   -1    0    0    0  501  0.00000000000E+00  0.00000000000E+00 -0.21433386442E+03  0.21433386448E+03  0.50400001928E-02 0.  1.
    10030    2    1    2    0    0  0.00000000000E+00  0.00000000000E+00  0.24026156482E+04  0.28312833771E+04  0.14978663520E+04 0.  0.
        5    1    3    3  502    0  0.99585236938E+01 -0.74327542756E+03  0.10288808095E+04  0.12693208198E+04  0.46999998093E+01 0.  1.
       -5    1    3    3    0  502 -0.99585236938E+01  0.74327542756E+03  0.13737348388E+04  0.15619625574E+04  0.46999998093E+01 0. -1.
</event>
<event>
 5   0  0.2111533E-03  0.1465735E+04  0.7818609E-02  0.8907564E-01
        2   -1    0    0  501    0  0.00000000000E+00  0.00000000000E+00  0.95693537659E+03  0.95693537660E+03  0.25500000920E-02 0. -1.
       -2   -1    0    0    0  501  0.00000000000E+00  0.00000000000E+00 -0.56126570780E+03  0.56126570780E+03  0.25500000920E-02 0.  1.
    10030    2    1    2    0    0  0.00000000000E+00  0.00000000000E+00  0.39566966879E+03  0.15182010844E+04  0.14657353260E+04 0.  0.
        5    1    3    3  502    0  0.67274107409E+03  0.60471951503E+02  0.49232774096E+03  0.83585052743E+03  0.46999998093E+01 0. -1.
       -5    1    3    3    0  502 -0.67274107409E+03 -0.60471951503E+02 -0.96658072162E+02  0.68235055697E+03  0.46999998093E+01 0.  1.
</event>
<event>
 5   0  0.2150197E-03  0.1570822E+04  0.7818609E-02  0.8838676E-01
        2   -1    0    0  501    0  0.00000000000E+00  0.00000000000E+00  0.98098619963E+03  0.98098619963E+03  0.25500000920E-02 0.  1.
       -2   -1    0    0    0  501  0.00000000000E+00  0.00000000000E+00 -0.62882686429E+03  0.62882686430E+03  0.25500000920E-02 0. -1.
    10030    2    1    2    0    0  0.00000000000E+00  0.00000000000E+00  0.35215933533E+03  0.16098130639E+04  0.15708220470E+04 0.  0.
        3    1    3    3  502    0  0.18666023841E+03 -0.59716514374E+03 -0.31049199549E+03  0.69846513368E+03  0.10100000352E+00 0. -1.
       -3    1    3    3    0  502 -0.18666023841E+03  0.59716514374E+03  0.66265133083E+03  0.91134793024E+03  0.10100000352E+00 0.  1.
</event>
<event>
 5   0  0.1087761E-03  0.1492584E+04  0.7818609E-02  0.8889399E-01
       -1   -1    0    0    0  501  0.00000000000E+00  0.00000000000E+00  0.64377789323E+03  0.64377789325E+03  0.50400001928E-02 0.  1.
        1   -1    0    0  501    0  0.00000000000E+00  0.00000000000E+00 -0.86513056807E+03  0.86513056809E+03  0.50400001928E-02 0. -1.
    10030    2    1    2    0    0  0.00000000000E+00  0.00000000000E+00 -0.22135267484E+03  0.15089084613E+04  0.14925842482E+04 0.  0.
        3    1    3    3  502    0 -0.55642956299E+03 -0.14132352987E+03 -0.59272017865E+03  0.82516872156E+03  0.10100000352E+00 0. -1.
       -3    1    3    3    0  502  0.55642956299E+03  0.14132352987E+03  0.37136750381E+03  0.68373973977E+03  0.10100000352E+00 0.  1.
</event>
<event>
 5   0  0.1087761E-03  0.1478315E+04  0.7818609E-02  0.8899003E-01
        1   -1    0    0  501    0  0.00000000000E+00  0.00000000000E+00  0.10898748075E+04  0.10898748075E+04  0.50400001928E-02 0.  1.
       -1   -1    0    0    0  501  0.00000000000E+00  0.00000000000E+00 -0.50129958712E+03  0.50129958715E+03  0.50400001928E-02 0. -1.
    10030    2    1    2    0    0  0.00000000000E+00  0.00000000000E+00  0.58857522037E+03  0.15911743947E+04  0.14783149746E+04 0.  0.
        3    1    3    3  502    0 -0.67957643701E+03 -0.70101340678E+02  0.59799088859E+03  0.90792700408E+03  0.10100000352E+00 0. -1.
       -3    1    3    3    0  502  0.67957643701E+03  0.70101340678E+02 -0.94156682198E+01  0.68324739057E+03  0.10100000352E+00 0.  1.
</event>
<event>
 5   0  0.1078018E-03  0.1492504E+04  0.7818609E-02  0.8889453E-01
        1   -1    0    0  501    0  0.00000000000E+00  0.00000000000E+00  0.87163396869E+03  0.87163396870E+03  0.50400001928E-02 0. -1.
       -1   -1    0    0    0  501  0.00000000000E+00  0.00000000000E+00 -0.63890605371E+03  0.63890605373E+03  0.50400001928E-02 0.  1.
    10030    2    1    2    0    0  0.00000000000E+00  0.00000000000E+00  0.23272791498E+03  0.15105400224E+04  0.14925042301E+04 0.  0.
        4    1    3    3  502    0 -0.47767586197E+03 -0.18124949435E+03 -0.43414382206E+03  0.67045363706E+03  0.12699999809E+01 0.  1.
       -4    1    3    3    0  502  0.47767586197E+03  0.18124949435E+03  0.66687173704E+03  0.84008638537E+03  0.12699999809E+01 0. -1.
</event>
<event>
 5   0  0.2094566E-03  0.1454295E+04  0.7818609E-02  0.8915429E-01
        2   -1    0    0  501    0  0.00000000000E+00  0.00000000000E+00  0.84179899846E+03  0.84179899846E+03  0.25500000920E-02 0.  1.
       -2   -1    0    0    0  501  0.00000000000E+00  0.00000000000E+00 -0.62811098143E+03  0.62811098144E+03  0.25500000920E-02 0. -1.
    10030    2    1    2    0    0  0.00000000000E+00  0.00000000000E+00  0.21368801703E+03  0.14699099799E+04  0.14542945989E+04 0.  0.
        1    1    3    3  502    0 -0.46220436238E+03  0.26052455151E+03 -0.39572456315E+03  0.66189413387E+03  0.50400001928E-02 0. -1.
       -1    1    3    3    0  502  0.46220436238E+03 -0.26052455151E+03  0.60941258018E+03  0.80801584603E+03  0.50400001928E-02 0.  1.
</event>
<event>
 5   0  0.7468375E-04  0.1470160E+04  0.7818609E-02  0.8904542E-01
        4   -1    0    0  501    0  0.00000000000E+00  0.00000000000E+00  0.56052278112E+03  0.56052421987E+03  0.12699999809E+01 0.  1.
       -4   -1    0    0    0  501  0.00000000000E+00  0.00000000000E+00 -0.96399467403E+03  0.96399551060E+03  0.12699999809E+01 0. -1.
    10030    2    1    2    0    0  0.00000000000E+00  0.00000000000E+00 -0.40347189291E+03  0.15245197305E+04  0.14701601410E+04 0.  0.
        5    1    3    3  502    0 -0.14520170967E+03 -0.87147718325E+02 -0.94347586397E+03  0.95856510326E+03  0.46999998093E+01 0. -1.
       -5    1    3    3    0  502  0.14520170967E+03  0.87147718325E+02  0.54000397106E+03  0.56595462721E+03  0.46999998093E+01 0.  1.
</event>
<event>
 5   0  0.1961098E-03  0.1469949E+04  0.7818609E-02  0.8904686E-01
       -2   -1    0    0    0  501  0.00000000000E+00  0.00000000000E+00  0.25081847789E+03  0.25081847791E+03  0.25500000920E-02 0.  1.
        2   -1    0    0  501    0  0.00000000000E+00  0.00000000000E+00 -0.21537003330E+04  0.21537003330E+04  0.25500000920E-02 0. -1.
    10030    2    1    2    0    0  0.00000000000E+00  0.00000000000E+00 -0.19028818551E+04  0.24045188109E+04  0.14699494405E+04 0.  0.
        2    1    3    3  502    0  0.23963178154E+03  0.46051113246E+03 -0.10037137668E+03  0.52874219342E+03  0.25500000920E-02 0. -1.
       -2    1    3    3    0  502 -0.23963178154E+03 -0.46051113246E+03 -0.18025104784E+04  0.18757766175E+04  0.25500000920E-02 0.  1.
</event>
<event>
 5   0  0.2150197E-03  0.1473840E+04  0.7818609E-02  0.8902038E-01
        2   -1    0    0  501    0  0.00000000000E+00  0.00000000000E+00  0.28942870127E+04  0.28942870127E+04  0.25500000920E-02 0.  1.
       -2   -1    0    0    0  501  0.00000000000E+00  0.00000000000E+00 -0.18762854865E+03  0.18762854867E+03  0.25500000920E-02 0. -1.
    10030    2    1    2    0    0  0.00000000000E+00  0.00000000000E+00  0.27066584641E+04  0.30819155614E+04  0.14738397085E+04 0.  0.
        3    1    3    3  502    0  0.48929461596E+03  0.45915019915E+03  0.71624381754E+03  0.98144451853E+03  0.10100000352E+00 0. -1.
       -3    1    3    3    0  502 -0.48929461596E+03 -0.45915019915E+03  0.19904146465E+04  0.21004710428E+04  0.10100000352E+00 0.  1.
</event>
<event>
 5   0  0.1078018E-03  0.1431713E+04  0.7818609E-02  0.8931178E-01
        1   -1    0    0  501    0  0.00000000000E+00  0.00000000000E+00  0.64449648408E+03  0.64449648410E+03  0.50400001928E-02 0.  1.
       -1   -1    0    0    0  501  0.00000000000E+00  0.00000000000E+00 -0.79511717783E+03  0.79511717785E+03  0.50400001928E-02 0. -1.
    10030    2    1    2    0    0  0.00000000000E+00  0.00000000000E+00 -0.15062069375E+03  0.14396136620E+04  0.14317125767E+04 0.  0.
        4    1    3    3  502    0 -0.62080321136E+03 -0.32406215467E+03  0.73953145144E+02  0.70419002258E+03  0.12699999809E+01 0.  1.
       -4    1    3    3    0  502  0.62080321136E+03  0.32406215467E+03 -0.22457383890E+03  0.73542363937E+03  0.12699999809E+01 0. -1.
</event>
<event>
 5   0  0.1077140E-03  0.1482890E+04  0.7818609E-02  0.8895912E-01
       -1   -1    0    0    0  501  0.00000000000E+00  0.00000000000E+00  0.51476707696E+03  0.51476707699E+03  0.50400001928E-02 0.  1.
        1   -1    0    0  501    0  0.00000000000E+00  0.00000000000E+00 -0.10679400875E+04  0.10679400875E+04  0.50400001928E-02 0. -1.
    10030    2    1    2    0    0  0.00000000000E+00  0.00000000000E+00 -0.55317301054E+03  0.15827071645E+04  0.14828896078E+04 0.  0.
        1    1    3    3  502    0 -0.46181358028E+02  0.73983383188E+03 -0.29358262402E+03  0.79729390677E+03  0.50400001928E-02 0.  1.
       -1    1    3    3    0  502  0.46181358028E+02 -0.73983383188E+03 -0.25959038652E+03  0.78541325773E+03  0.50400001928E-02 0. -1.
</event>
<event>
 5   0  0.2150197E-03  0.1445891E+04  0.7818609E-02  0.8921254E-01
       -2   -1    0    0    0  501  0.00000000000E+00  0.00000000000E+00  0.39947205412E+03  0.39947205413E+03  0.25500000920E-02 0.  1.
        2   -1    0    0  501    0  0.00000000000E+00  0.00000000000E+00 -0.13083522831E+04  0.13083522831E+04  0.25500000920E-02 0. -1.
    10030    2    1    2    0    0  0.00000000000E+00  0.00000000000E+00 -0.90888022897E+03  0.17078243372E+04  0.14458909697E+04 0.  0.
        3    1    3    3  502    0  0.31454320418E+03  0.46941664261E+02  0.31241124259E+03  0.44580460051E+03  0.10100000352E+00 0.  1.
       -3    1    3    3    0  502 -0.31454320418E+03 -0.46941664261E+02 -0.12212914716E+04  0.12620197367E+04  0.10100000352E+00 0. -1.
</event>
<event>
 5   0  0.2111533E-03  0.1517520E+04  0.7818609E-02  0.8872886E-01
       -2   -1    0    0    0  501  0.00000000000E+00  0.00000000000E+00  0.37960728662E+03  0.37960728663E+03  0.25500000920E-02 0. -1.
        2   -1    0    0  501    0  0.00000000000E+00  0.00000000000E+00 -0.15166104834E+04  0.15166104834E+04  0.25500000920E-02 0.  1.
    10030    2    1    2    0    0  0.00000000000E+00  0.00000000000E+00 -0.11370031967E+04  0.18962177700E+04  0.15175195425E+04 0.  0.
        5    1    3    3  502    0 -0.50278642036E+03 -0.31908665598E+03 -0.11560347834E+04  0.13004033947E+04  0.46999998093E+01 0.  1.
       -5    1    3    3    0  502  0.50278642036E+03  0.31908665598E+03  0.19031586648E+02  0.59581437530E+03  0.46999998093E+01 0. -1.
</event>
<event>
 5   0  0.1087761E-03  0.1498256E+04  0.7818609E-02  0.8885614E-01
       -1   -1    0    0    0  501  0.00000000000E+00  0.00000000000E+00  0.14265141962E+04  0.14265141962E+04  0.50400001928E-02 0. -1.
        1   -1    0    0  501    0  0.00000000000E+00  0.00000000000E+00 -0.39340133140E+03  0.39340133143E+03  0.50400001928E-02 0.  1.
    10030    2    1    2    0    0  0.00000000000E+00  0.00000000000E+00  0.10331128648E+04  0.18199155276E+04  0.14982557647E+04 0.  0.
        3    1    3    3  502    0 -0.68773828800E+03 -0.20631945800E+03  0.77605943313E+03  0.10572700343E+04  0.10100000352E+00 0. -1.
       -3    1    3    3    0  502  0.68773828800E+03  0.20631945800E+03  0.25705343166E+03  0.76264549331E+03  0.10100000352E+00 0.  1.
</event>
<event>
 5   0  0.1078018E-03  0.1475133E+04  0.7818609E-02  0.8901160E-01
        1   -1    0    0  501    0  0.00000000000E+00  0.00000000000E+00  0.91487786676E+03  0.91487786677E+03  0.50400001928E-02 0.  1.
       -1   -1    0    0    0  501  0.00000000000E+00  0.00000000000E+00 -0.59461948426E+03  0.59461948428E+03  0.50400001928E-02 0. -1.
    10030    2    1    2    0    0  0.00000000000E+00  0.00000000000E+00  0.32025838249E+03  0.15094973511E+04  0.14751328148E+04 0.  0.
        4    1    3    3  502    0 -0.35342221422E+03  0.70372834907E+02 -0.49840206214E+03  0.61503319084E+03  0.12699999809E+01 0. -1.
       -4    1    3    3    0  502  0.35342221422E+03 -0.70372834907E+02  0.81866044463E+03  0.89446416021E+03  0.12699999809E+01 0.  1.
</event>
<event>
 5   0  0.1069697E-03  0.1527358E+04  0.7818609E-02  0.8866461E-01
       -1   -1    0    0    0  501  0.00000000000E+00  0.00000000000E+00  0.38810851218E+03  0.38810851221E+03  0.50400001928E-02 0.  1.
        1   -1    0    0  501    0  0.00000000000E+00  0.00000000000E+00 -0.15026879388E+04  0.15026879388E+04  0.50400001928E-02 0. -1.
    10030    2    1    2    0    0  0.00000000000E+00  0.00000000000E+00 -0.11145794266E+04  0.18907964510E+04  0.15273584782E+04 0.  0.
        2    1    3    3  502    0 -0.88734588994E+02  0.73466473623E+03 -0.79086562625E+03  0.10830856572E+04  0.25500000920E-02 0. -1.
       -2    1    3    3    0  502  0.88734588994E+02 -0.73466473623E+03 -0.32371380033E+03  0.80771079383E+03  0.25500000920E-02 0.  1.
</event>
<event>
 5   0  0.1993623E-03  0.1298682E+04  0.7818609E-02  0.9030611E-01
        2   -1    0    0  501    0  0.00000000000E+00  0.00000000000E+00  0.92924276321E+03  0.92924276322E+03  0.25500000920E-02 0.  1.
       -2   -1    0    0    0  501  0.00000000000E+00  0.00000000000E+00 -0.45374976974E+03  0.45374976975E+03  0.25500000920E-02 0. -1.
    10030    2    1    2    0    0  0.00000000000E+00  0.00000000000E+00  0.47549299347E+03  0.13829925330E+04  0.12986819316E+04 0.  0.
        4    1    3    3  502    0  0.59225985917E+03 -0.23919148368E+03  0.11329304707E+03  0.64870735626E+03  0.12699999809E+01 0. -1.
       -4    1    3    3    0  502 -0.59225985917E+03  0.23919148368E+03  0.36219994641E+03  0.73428517670E+03  0.12699999809E+01 0.  1.
</event>
<event>
 5   0  0.1078787E-03  0.1420199E+04  0.7818609E-02  0.8939326E-01
       -1   -1    0    0    0  501  0.00000000000E+00  0.00000000000E+00  0.45529757033E+03  0.45529757035E+03  0.50400001928E-02 0.  1.
        1   -1    0    0  501    0  0.00000000000E+00  0.00000000000E+00 -0.11074984455E+04  0.11074984455E+04  0.50400001928E-02 0. -1.
    10030    2    1    2    0    0  0.00000000000E+00  0.00000000000E+00 -0.65220087520E+03  0.15627960159E+04  0.14201990726E+04 0.  0.
        5    1    3    3  502    0  0.53940458022E+03 -0.27794168189E+03 -0.73192572085E+03  0.95076086927E+03  0.46999998093E+01 0.  1.
       -5    1    3    3    0  502 -0.53940458022E+03  0.27794168189E+03  0.79724845651E+02  0.61203514662E+03  0.46999998093E+01 0. -1.
</event>
<event>
 5   0  0.2111533E-03  0.1508566E+04  0.7818609E-02  0.8878777E-01
        2   -1    0    0  501    0  0.00000000000E+00  0.00000000000E+00  0.16325715378E+04  0.16325715378E+04  0.25500000920E-02 0. -1.
       -2   -1    0    0    0  501  0.00000000000E+00  0.00000000000E+00 -0.34849468781E+03  0.34849468782E+03  0.25500000920E-02 0.  1.
    10030    2    1    2    0    0  0.00000000000E+00  0.00000000000E+00  0.12840768500E+04  0.19810662256E+04  0.15085655550E+04 0.  0.
        5    1    3    3  502    0  0.61139430622E+03  0.40939503118E+02  0.12196148990E+04  0.13649035249E+04  0.46999998093E+01 0. -1.
       -5    1    3    3    0  502 -0.61139430622E+03 -0.40939503118E+02  0.64461951015E+02  0.61616270069E+03  0.46999998093E+01 0.  1.
</event>
<event>
 5   0  0.1069697E-03  0.1526337E+04  0.7818609E-02  0.8867126E-01
       -1   -1    0    0    0  501  0.00000000000E+00  0.00000000000E+00  0.50953586963E+03  0.50953586965E+03  0.50400001928E-02 0. -1.
        1   -1    0    0  501    0  0.00000000000E+00  0.00000000000E+00 -0.11430525009E+04  0.11430525010E+04  0.50400001928E-02 0.  1.
    10030    2    1    2    0    0  0.00000000000E+00  0.00000000000E+00 -0.63351663132E+03  0.16525883706E+04  0.15263371189E+04 0.  0.
        2    1    3    3  502    0  0.16752398705E+02 -0.31193676868E+03  0.43714199485E+03  0.53728792485E+03  0.25500000920E-02 0. -1.
       -2    1    3    3    0  502 -0.16752398705E+02  0.31193676868E+03 -0.10706586262E+04  0.11153004458E+04  0.25500000920E-02 0.  1.
</event>
<event>
 5   0  0.2094566E-03  0.1460653E+04  0.7818609E-02  0.8911049E-01
       -2   -1    0    0    0  501  0.00000000000E+00  0.00000000000E+00  0.63815254017E+03  0.63815254018E+03  0.25500000920E-02 0. -1.
        2   -1    0    0  501    0  0.00000000000E+00  0.00000000000E+00 -0.83581343571E+03  0.83581343571E+03  0.25500000920E-02 0.  1.
    10030    2    1    2    0    0  0.00000000000E+00  0.00000000000E+00 -0.19766089553E+03  0.14739659759E+04  0.14606525488E+04 0.  0.
        1    1    3    3  502    0 -0.53895135078E+03 -0.44384505055E+03  0.11738749114E+03  0.70798786042E+03  0.50400001928E-02 0. -1.
       -1    1    3    3    0  502  0.53895135078E+03  0.44384505055E+03 -0.31504838667E+03  0.76597811547E+03  0.50400001928E-02 0.  1.
</event>
<event>
 5   0  0.1078787E-03  0.1487802E+04  0.7818609E-02  0.8892605E-01
       -1   -1    0    0    0  501  0.00000000000E+00  0.00000000000E+00  0.28899075470E+03  0.28899075474E+03  0.50400001928E-02 0. -1.
        1   -1    0    0  501    0  0.00000000000E+00  0.00000000000E+00 -0.19149020019E+04  0.19149020019E+04  0.50400001928E-02 0.  1.
    10030    2    1    2    0    0  0.00000000000E+00  0.00000000000E+00 -0.16259112472E+04  0.22038927567E+04  0.14878023723E+04 0.  0.
        5    1    3    3  502    0  0.40164734037E+03 -0.62459952157E+03 -0.74801863890E+03  0.10540394312E+04  0.46999998093E+01 0.  1.
       -5    1    3    3    0  502 -0.40164734037E+03  0.62459952157E+03 -0.87789260833E+03  0.11498533255E+04  0.46999998093E+01 0. -1.
</event>
<event>
 5   0  0.1069697E-03  0.1502987E+04  0.7818609E-02  0.8882469E-01
       -1   -1    0    0    0  501  0.00000000000E+00  0.00000000000E+00  0.56279643916E+03  0.56279643918E+03  0.50400001928E-02 0.  1.
        1   -1    0    0  501    0  0.00000000000E+00  0.00000000000E+00 -0.10034572039E+04  0.10034572039E+04  0.50400001928E-02 0. -1.
    10030    2    1    2    0    0  0.00000000000E+00  0.00000000000E+00 -0.44066076475E+03  0.15662536431E+04  0.15029865485E+04 0.  0.
        2    1    3    3  502    0  0.23561785651E+03 -0.31731412738E+03 -0.88640562084E+03  0.97052509210E+03  0.25500000920E-02 0. -1.
       -2    1    3    3    0  502 -0.23561785651E+03  0.31731412738E+03  0.44574485608E+03  0.59572855100E+03  0.25500000920E-02 0.  1.
</event>
<event>
 5   0  0.1961098E-03  0.1470394E+04  0.7818609E-02  0.8904383E-01
        2   -1    0    0  501    0  0.00000000000E+00  0.00000000000E+00  0.60095325905E+03  0.60095325905E+03  0.25500000920E-02 0.  1.
       -2   -1    0    0    0  501  0.00000000000E+00  0.00000000000E+00 -0.89942917887E+03  0.89942917887E+03  0.25500000920E-02 0. -1.
    10030    2    1    2    0    0  0.00000000000E+00  0.00000000000E+00 -0.29847591982E+03  0.15003824379E+04  0.14703943639E+04 0.  0.
        2    1    3    3  502    0  0.71655378227E+03  0.16701003269E+01 -0.31710072783E+03  0.78358470105E+03  0.25500000920E-02 0. -1.
       -2    1    3    3    0  502 -0.71655378227E+03 -0.16701003269E+01  0.18624808008E+02  0.71679773688E+03  0.25500000920E-02 0.  1.
</event>
<event>
 5   0  0.1961098E-03  0.1471284E+04  0.7818609E-02  0.8903777E-01
        2   -1    0    0  501    0  0.00000000000E+00  0.00000000000E+00  0.63957552449E+03  0.63957552449E+03  0.25500000920E-02 0.  1.
       -2   -1    0    0    0  501  0.00000000000E+00  0.00000000000E+00 -0.84613745379E+03  0.84613745379E+03  0.25500000920E-02 0. -1.
    10030    2    1    2    0    0  0.00000000000E+00  0.00000000000E+00 -0.20656192930E+03  0.14857129783E+04  0.14712835292E+04 0.  0.
        2    1    3    3  502    0 -0.14491534888E+03 -0.52002827211E+03 -0.60792097341E+03  0.81301769479E+03  0.25500000920E-02 0. -1.
       -2    1    3    3    0  502  0.14491534888E+03  0.52002827211E+03  0.40135904411E+03  0.67269528349E+03  0.25500000920E-02 0.  1.
</event>
<event>
 5   0  0.1993623E-03  0.1490829E+04  0.7818609E-02  0.8890574E-01
        2   -1    0    0  501    0  0.00000000000E+00  0.00000000000E+00  0.10996512223E+04  0.10996512224E+04  0.25500000920E-02 0. -1.
       -2   -1    0    0    0  501  0.00000000000E+00  0.00000000000E+00 -0.50529026719E+03  0.50529026720E+03  0.25500000920E-02 0.  1.
    10030    2    1    2    0    0  0.00000000000E+00  0.00000000000E+00  0.59436095515E+03  0.16049414895E+04  0.14908293799E+04 0.  0.
        4    1    3    3  502    0 -0.36535290340E+03 -0.58129300370E+02  0.99384559499E+03  0.10604680284E+04  0.12699999809E+01 0. -1.
       -4    1    3    3    0  502  0.36535290340E+03  0.58129300370E+02 -0.39948463983E+03  0.54447346120E+03  0.12699999809E+01 0.  1.
</event>
<event>
 5   0  0.1961098E-03  0.1646467E+04  0.7818609E-02  0.8792499E-01
       -2   -1    0    0    0  501  0.00000000000E+00  0.00000000000E+00  0.43662242528E+03  0.43662242529E+03  0.25500000920E-02 0.  1.
        2   -1    0    0  501    0  0.00000000000E+00  0.00000000000E+00 -0.15521727589E+04  0.15521727589E+04  0.25500000920E-02 0. -1.
    10030    2    1    2    0    0  0.00000000000E+00  0.00000000000E+00 -0.11155503336E+04  0.19887951841E+04  0.16464670473E+04 0.  0.
        2    1    3    3  502    0  0.79976902976E+03  0.19342176682E+03 -0.52648677382E+03  0.97684738002E+03  0.25500000920E-02 0.  1.
       -2    1    3    3    0  502 -0.79976902976E+03 -0.19342176682E+03 -0.58906355976E+03  0.10119478041E+04  0.25500000920E-02 0. -1.
</event>
<event>
 5   0  0.1961098E-03  0.7652211E+03  0.7818609E-02  0.9611769E-01
        2   -1    0    0  501    0  0.00000000000E+00  0.00000000000E+00  0.75613353482E+03  0.75613353482E+03  0.25500000920E-02 0. -1.
       -2   -1    0    0    0  501  0.00000000000E+00  0.00000000000E+00 -0.19360447653E+03  0.19360447655E+03  0.25500000920E-02 0.  1.
    10030    2    1    2    0    0  0.00000000000E+00  0.00000000000E+00  0.56252905829E+03  0.94973801137E+03  0.76522111107E+03 0.  0.
        2    1    3    3  502    0  0.10182428505E+03  0.23857733773E+03 -0.67807253406E+02  0.26811407036E+03  0.25500000920E-02 0.  1.
       -2    1    3    3    0  502 -0.10182428505E+03 -0.23857733773E+03  0.63033631170E+03  0.68162394101E+03  0.25500000920E-02 0. -1.
</event>
<event>
 5   0  0.2150197E-03  0.1518980E+04  0.7818609E-02  0.8871928E-01
        2   -1    0    0  501    0  0.00000000000E+00  0.00000000000E+00  0.83953143640E+03  0.83953143640E+03  0.25500000920E-02 0.  1.
       -2   -1    0    0    0  501  0.00000000000E+00  0.00000000000E+00 -0.68708005368E+03  0.68708005369E+03  0.25500000920E-02 0. -1.
    10030    2    1    2    0    0  0.00000000000E+00  0.00000000000E+00  0.15245138272E+03  0.15266114901E+04  0.15189803217E+04 0.  0.
        3    1    3    3  502    0  0.63886171056E+03  0.22784444360E+03 -0.26720424425E+03  0.72900994098E+03  0.10100000352E+00 0. -1.
       -3    1    3    3    0  502 -0.63886171056E+03 -0.22784444360E+03  0.41965562697E+03  0.79760154911E+03  0.10100000352E+00 0.  1.
</event>
<event>
 5   0  0.1078018E-03  0.1538765E+04  0.7818609E-02  0.8859076E-01
        1   -1    0    0  501    0  0.00000000000E+00  0.00000000000E+00  0.10526299061E+04  0.10526299061E+04  0.50400001928E-02 0.  1.
       -1   -1    0    0    0  501  0.00000000000E+00  0.00000000000E+00 -0.56235293522E+03  0.56235293524E+03  0.50400001928E-02 0. -1.
    10030    2    1    2    0    0  0.00000000000E+00  0.00000000000E+00  0.49027697090E+03  0.16149828414E+04  0.15387651119E+04 0.  0.
        4    1    3    3  502    0 -0.78785146573E+02  0.70851934215E+03 -0.58575670040E+02  0.71528978711E+03  0.12699999809E+01 0.  1.
       -4    1    3    3    0  502  0.78785146573E+02 -0.70851934215E+03  0.54885264094E+03  0.89969305426E+03  0.12699999809E+01 0. -1.
</event>
<event>
 5   0  0.1077140E-03  0.1517853E+04  0.7818609E-02  0.8872667E-01
        1   -1    0    0  501    0  0.00000000000E+00  0.00000000000E+00  0.10377500091E+04  0.10377500091E+04  0.50400001928E-02 0.  1.
       -1   -1    0    0    0  501  0.00000000000E+00  0.00000000000E+00 -0.55501720839E+03  0.55501720842E+03  0.50400001928E-02 0. -1.
    10030    2    1    2    0    0  0.00000000000E+00  0.00000000000E+00  0.48273280071E+03  0.15927672175E+04  0.15178525793E+04 0.  0.
        1    1    3    3  502    0 -0.68967726061E+03  0.31379097723E+03  0.19623664106E+03  0.78270576880E+03  0.50400001928E-02 0.  1.
       -1    1    3    3    0  502  0.68967726061E+03 -0.31379097723E+03  0.28649615965E+03  0.81006144873E+03  0.50400001928E-02 0. -1.
</event>
<event>
 5   0  0.1087761E-03  0.1219682E+04  0.7818609E-02  0.9095801E-01
       -1   -1    0    0    0  501  0.00000000000E+00  0.00000000000E+00  0.55909280339E+03  0.55909280341E+03  0.50400001928E-02 0.  1.
        1   -1    0    0  501    0  0.00000000000E+00  0.00000000000E+00 -0.66519562294E+03  0.66519562296E+03  0.50400001928E-02 0. -1.
    10030    2    1    2    0    0  0.00000000000E+00  0.00000000000E+00 -0.10610281955E+03  0.12242884264E+04  0.12196820662E+04 0.  0.
        3    1    3    3  502    0 -0.32957017216E+03  0.10680774034E+03  0.45072218427E+03  0.56848473099E+03  0.10100000352E+00 0.  1.
       -3    1    3    3    0  502  0.32957017216E+03 -0.10680774034E+03 -0.55682500383E+03  0.65580369537E+03  0.10100000352E+00 0. -1.
</event>
<event>
 5   0  0.1069697E-03  0.1536593E+04  0.7818609E-02  0.8860477E-01
        1   -1    0    0  501    0  0.00000000000E+00  0.00000000000E+00  0.79823326049E+03  0.79823326051E+03  0.50400001928E-02 0.  1.
       -1   -1    0    0    0  501  0.00000000000E+00  0.00000000000E+00 -0.73948250005E+03  0.73948250007E+03  0.50400001928E-02 0. -1.
    10030    2    1    2    0    0  0.00000000000E+00  0.00000000000E+00  0.58750760440E+02  0.15377157606E+04  0.15365930198E+04 0.  0.
        2    1    3    3  502    0 -0.12652032804E+03 -0.74804263465E+03 -0.91974717926E+02  0.76422151593E+03  0.25500000920E-02 0. -1.
       -2    1    3    3    0  502  0.12652032804E+03  0.74804263465E+03  0.15072547837E+03  0.77349424465E+03  0.25500000920E-02 0.  1.
</event>
<event>
 5   0  0.1087761E-03  0.1490024E+04  0.7818609E-02  0.8891114E-01
       -1   -1    0    0    0  501  0.00000000000E+00  0.00000000000E+00  0.77288814479E+03  0.77288814481E+03  0.50400001928E-02 0.  1.
        1   -1    0    0  501    0  0.00000000000E+00  0.00000000000E+00 -0.71814123837E+03  0.71814123839E+03  0.50400001928E-02 0. -1.
    10030    2    1    2    0    0  0.00000000000E+00  0.00000000000E+00  0.54746906423E+02  0.14910293832E+04  0.14900239588E+04 0.  0.
        3    1    3    3  502    0 -0.33101708055E+03 -0.15722802806E+03 -0.62171659425E+03  0.72168171252E+03  0.10100000352E+00 0. -1.
       -3    1    3    3    0  502  0.33101708055E+03  0.15722802806E+03  0.67646350068E+03  0.76934767067E+03  0.10100000352E+00 0.  1.
</event>
<event>
 5   0  0.1993623E-03  0.1508163E+04  0.7818609E-02  0.8879043E-01
       -2   -1    0    0    0  501  0.00000000000E+00  0.00000000000E+00  0.11790200162E+04  0.11790200162E+04  0.25500000920E-02 0. -1.
        2   -1    0    0  501    0  0.00000000000E+00  0.00000000000E+00 -0.48229793921E+03  0.48229793922E+03  0.25500000920E-02 0.  1.
    10030    2    1    2    0    0  0.00000000000E+00  0.00000000000E+00  0.69672207703E+03  0.16613179555E+04  0.15081630205E+04 0.  0.
        4    1    3    3  502    0 -0.17663734908E+03  0.30102230797E+01  0.11559017245E+04  0.11693246872E+04  0.12699999809E+01 0. -1.
       -4    1    3    3    0  502  0.17663734908E+03 -0.30102230797E+01 -0.45917964743E+03  0.49199326829E+03  0.12699999809E+01 0.  1.
</event>
<event>
 5   0  0.1993623E-03  0.1380203E+04  0.7818609E-02  0.8968275E-01
       -2   -1    0    0    0  501  0.00000000000E+00  0.00000000000E+00  0.72213762233E+03  0.72213762234E+03  0.25500000920E-02 0. -1.
        2   -1    0    0  501    0  0.00000000000E+00  0.00000000000E+00 -0.65948616233E+03  0.65948616233E+03  0.25500000920E-02 0.  1.
    10030    2    1    2    0    0  0.00000000000E+00  0.00000000000E+00  0.62651460006E+02  0.13816237847E+04  0.13802025492E+04 0.  0.
        4    1    3    3  502    0  0.28385789176E+03 -0.33425046612E+03  0.56473414985E+03  0.71499996484E+03  0.12699999809E+01 0. -1.
       -4    1    3    3    0  502 -0.28385789176E+03  0.33425046612E+03 -0.50208268985E+03  0.66662381982E+03  0.12699999809E+01 0.  1.
</event>
<event>
 5   0  0.1961098E-03  0.1481029E+04  0.7818609E-02  0.8897167E-01
        2   -1    0    0  501    0  0.00000000000E+00  0.00000000000E+00  0.51183996465E+03  0.51183996466E+03  0.25500000920E-02 0. -1.
       -2   -1    0    0    0  501  0.00000000000E+00  0.00000000000E+00 -0.10713537837E+04  0.10713537837E+04  0.25500000920E-02 0.  1.
    10030    2    1    2    0    0  0.00000000000E+00  0.00000000000E+00 -0.55951381902E+03  0.15831937483E+04  0.14810289434E+04 0.  0.
        2    1    3    3  502    0 -0.80313443822E+02 -0.69078740665E+03 -0.55171616286E+03  0.88770953291E+03  0.25500000920E-02 0.  1.
       -2    1    3    3    0  502  0.80313443822E+02  0.69078740665E+03 -0.77976561508E+01  0.69548421542E+03  0.25500000920E-02 0. -1.
</event>
<event>
 5   0  0.7468375E-04  0.1523333E+04  0.7818609E-02  0.8869084E-01
       -3   -1    0    0    0  501  0.00000000000E+00  0.00000000000E+00  0.74547429580E+03  0.74547430264E+03  0.10100000352E+00 0.  1.
        3   -1    0    0  501    0  0.00000000000E+00  0.00000000000E+00 -0.77821004025E+03  0.77821004681E+03  0.10100000352E+00 0. -1.
    10030    2    1    2    0    0  0.00000000000E+00  0.00000000000E+00 -0.32735744453E+02  0.15236843494E+04  0.15233326517E+04 0.  0.
        1    1    3    3  502    0  0.35871641064E+03  0.32266030759E+03 -0.60586669365E+03  0.77450731943E+03  0.50400001928E-02 0. -1.
       -1    1    3    3    0  502 -0.35871641064E+03 -0.32266030759E+03  0.57313094919E+03  0.74917703002E+03  0.50400001928E-02 0.  1.
</event>
<event>
 5   0  0.1078018E-03  0.1490468E+04  0.7818609E-02  0.8890816E-01
        1   -1    0    0  501    0  0.00000000000E+00  0.00000000000E+00  0.26627151491E+04  0.26627151491E+04  0.50400001928E-02 0. -1.
       -1   -1    0    0    0  501  0.00000000000E+00  0.00000000000E+00 -0.20857434702E+03  0.20857434708E+03  0.50400001928E-02 0.  1.
    10030    2    1    2    0    0  0.00000000000E+00  0.00000000000E+00  0.24541408021E+04  0.28712894962E+04  0.14904684815E+04 0.  0.
        4    1    3    3  502    0  0.63947384715E+03 -0.69811765200E+02  0.19519115398E+04  0.20551790082E+04  0.12699999809E+01 0. -1.
       -4    1    3    3    0  502 -0.63947384715E+03  0.69811765200E+02  0.50222926225E+03  0.81611048793E+03  0.12699999809E+01 0.  1.
</event>
<event>
 5   0  0.1087761E-03  0.1520209E+04  0.7818609E-02  0.8871124E-01
        1   -1    0    0  501    0  0.00000000000E+00  0.00000000000E+00  0.10089042920E+04  0.10089042920E+04  0.50400001928E-02 0. -1.
       -1   -1    0    0    0  501  0.00000000000E+00  0.00000000000E+00 -0.57265994586E+03  0.57265994589E+03  0.50400001928E-02 0.  1.
    10030    2    1    2    0    0  0.00000000000E+00  0.00000000000E+00  0.43624434611E+03  0.15815642379E+04  0.15202092978E+04 0.  0.
        3    1    3    3  502    0 -0.46979432817E+03  0.42323879288E+03  0.65695327412E+03  0.91182531286E+03  0.10100000352E+00 0. -1.
       -3    1    3    3    0  502  0.46979432817E+03 -0.42323879288E+03 -0.22070892801E+03  0.66973892502E+03  0.10100000352E+00 0.  1.
</event>
<event>
 5   0  0.1078018E-03  0.1486286E+04  0.7818609E-02  0.8893624E-01
        1   -1    0    0  501    0  0.00000000000E+00  0.00000000000E+00  0.27636871798E+04  0.27636871798E+04  0.50400001928E-02 0.  1.
       -1   -1    0    0    0  501  0.00000000000E+00  0.00000000000E+00 -0.19982777317E+03  0.19982777323E+03  0.50400001928E-02 0. -1.
    10030    2    1    2    0    0  0.00000000000E+00  0.00000000000E+00  0.25638594066E+04  0.29635149530E+04  0.14862859146E+04 0.  0.
        4    1    3    3  502    0  0.25766429996E+03 -0.97757880794E+02  0.26580318767E+04  0.26722804054E+04  0.12699999809E+01 0.  1.
       -4    1    3    3    0  502 -0.25766429996E+03  0.97757880794E+02 -0.94172470032E+02  0.29123454765E+03  0.12699999809E+01 0. -1.
</event>
<event>
 5   0  0.1078018E-03  0.1477442E+04  0.7818609E-02  0.8899594E-01
       -1   -1    0    0    0  501  0.00000000000E+00  0.00000000000E+00  0.35252984400E+03  0.35252984404E+03  0.50400001928E-02 0. -1.
        1   -1    0    0  501    0  0.00000000000E+00  0.00000000000E+00 -0.15479778776E+04  0.15479778776E+04  0.50400001928E-02 0.  1.
    10030    2    1    2    0    0  0.00000000000E+00  0.00000000000E+00 -0.11954480336E+04  0.19005077216E+04  0.14774415721E+04 0.  0.
        4    1    3    3  502    0  0.57852583651E+03 -0.38308879178E+03 -0.92380212641E+03  0.11553619119E+04  0.12699999809E+01 0.  1.
       -4    1    3    3    0  502 -0.57852583651E+03  0.38308879178E+03 -0.27164590716E+03  0.74514580968E+03  0.12699999809E+01 0. -1.
</event>
<event>
 5   0  0.2094566E-03  0.8118844E+03  0.7818609E-02  0.9542972E-01
       -2   -1    0    0    0  501  0.00000000000E+00  0.00000000000E+00  0.90056927661E+03  0.90056927662E+03  0.25500000920E-02 0.  1.
        2   -1    0    0  501    0  0.00000000000E+00  0.00000000000E+00 -0.18298324131E+03  0.18298324133E+03  0.25500000920E-02 0. -1.
    10030    2    1    2    0    0  0.00000000000E+00  0.00000000000E+00  0.71758603530E+03  0.10835525179E+04  0.81188443826E+03 0.  0.
        1    1    3    3  502    0  0.38854457971E+02  0.18698163740E+03  0.83687054233E+03  0.85838459112E+03  0.50400001928E-02 0.  1.
       -1    1    3    3    0  502 -0.38854457971E+02 -0.18698163740E+03 -0.11928450703E+03  0.22516792683E+03  0.50400001928E-02 0. -1.
</event>
<event>
 5   0  0.1961098E-03  0.1474682E+04  0.7818609E-02  0.8901466E-01
        2   -1    0    0  501    0  0.00000000000E+00  0.00000000000E+00  0.13950229831E+04  0.13950229831E+04  0.25500000920E-02 0.  1.
       -2   -1    0    0    0  501  0.00000000000E+00  0.00000000000E+00 -0.38972268384E+03  0.38972268385E+03  0.25500000920E-02 0. -1.
    10030    2    1    2    0    0  0.00000000000E+00  0.00000000000E+00  0.10053002992E+04  0.17847456669E+04  0.14746824756E+04 0.  0.
        2    1    3    3  502    0  0.23457077183E+02  0.14408901187E+03 -0.37205738251E+03  0.39967308353E+03  0.25500000920E-02 0. -1.
       -2    1    3    3    0  502 -0.23457077183E+02 -0.14408901187E+03  0.13773576817E+04  0.13850725834E+04  0.25500000920E-02 0.  1.
</event>
<event>
 5   0  0.2150197E-03  0.1512880E+04  0.7818609E-02  0.8875933E-01
       -2   -1    0    0    0  501  0.00000000000E+00  0.00000000000E+00  0.46158689664E+03  0.46158689665E+03  0.25500000920E-02 0. -1.
        2   -1    0    0  501    0  0.00000000000E+00  0.00000000000E+00 -0.12396398520E+04  0.12396398520E+04  0.25500000920E-02 0.  1.
    10030    2    1    2    0    0  0.00000000000E+00  0.00000000000E+00 -0.77805295535E+03  0.17012267486E+04  0.15128800511E+04 0.  0.
        3    1    3    3  502    0 -0.36662018870E+03 -0.44159161320E+03  0.16505202799E+03  0.59720657880E+03  0.10100000352E+00 0. -1.
       -3    1    3    3    0  502  0.36662018870E+03  0.44159161320E+03 -0.94310498333E+03  0.11040201698E+04  0.10100000352E+00 0.  1.
</event>
<event>
 5   0  0.2111533E-03  0.1520224E+04  0.7818609E-02  0.8871115E-01
        2   -1    0    0  501    0  0.00000000000E+00  0.00000000000E+00  0.20554755304E+04  0.20554755304E+04  0.25500000920E-02 0. -1.
       -2   -1    0    0    0  501  0.00000000000E+00  0.00000000000E+00 -0.28108833800E+03  0.28108833801E+03  0.25500000920E-02 0.  1.
    10030    2    1    2    0    0  0.00000000000E+00  0.00000000000E+00  0.17743871924E+04  0.23365638684E+04  0.15202239317E+04 0.  0.
        5    1    3    3  502    0  0.15638553507E+03  0.49286208170E+03  0.30913188810E+02  0.51802237635E+03  0.46999998093E+01 0.  1.
       -5    1    3    3    0  502 -0.15638553507E+03 -0.49286208170E+03  0.17434740036E+04  0.18185414921E+04  0.46999998093E+01 0. -1.
</event>
<event>
 5   0  0.1078787E-03  0.7684096E+03  0.7818609E-02  0.9606903E-01
       -1   -1    0    0    0  501  0.00000000000E+00  0.00000000000E+00  0.52921003404E+02  0.52921003644E+02  0.50400001928E-02 0.  1.
        1   -1    0    0  501    0  0.00000000000E+00  0.00000000000E+00 -0.27893146283E+04  0.27893146283E+04  0.50400001928E-02 0. -1.
    10030    2    1    2    0    0  0.00000000000E+00  0.00000000000E+00 -0.27363936249E+04  0.28422356319E+04  0.76840960245E+03 0.  0.
        5    1    3    3  502    0  0.34500676795E+03 -0.56759288452E+02 -0.19570000574E+04  0.19879946181E+04  0.46999998093E+01 0. -1.
       -5    1    3    3    0  502 -0.34500676795E+03  0.56759288452E+02 -0.77939356744E+03  0.85424101384E+03  0.46999998093E+01 0.  1.
</event>
<event>
 5   0  0.1069697E-03  0.1262055E+04  0.7818609E-02  0.9060209E-01
        1   -1    0    0  501    0  0.00000000000E+00  0.00000000000E+00  0.68545858754E+03  0.68545858755E+03  0.50400001928E-02 0. -1.
       -1   -1    0    0    0  501  0.00000000000E+00  0.00000000000E+00 -0.58091861027E+03  0.58091861029E+03  0.50400001928E-02 0.  1.
    10030    2    1    2    0    0  0.00000000000E+00  0.00000000000E+00  0.10453997727E+03  0.12663771978E+04  0.12620549118E+04 0.  0.
        2    1    3    3  502    0  0.28134301283E+03 -0.45851658581E+03 -0.27871466653E+03  0.60586567461E+03  0.25500000920E-02 0.  1.
       -2    1    3    3    0  502 -0.28134301283E+03  0.45851658581E+03  0.38325464380E+03  0.66051152323E+03  0.25500000920E-02 0. -1.
</event>
<event>
 5   0  0.1078787E-03  0.1437955E+04  0.7818609E-02  0.8926794E-01
        1   -1    0    0  501    0  0.00000000000E+00  0.00000000000E+00  0.10080559091E+04  0.10080559091E+04  0.50400001928E-02 0.  1.
       -1   -1    0    0    0  501  0.00000000000E+00  0.00000000000E+00 -0.51279725987E+03  0.51279725990E+03  0.50400001928E-02 0. -1.
    10030    2    1    2    0    0  0.00000000000E+00  0.00000000000E+00  0.49525864922E+03  0.15208531690E+04  0.14379545306E+04 0.  0.
        5    1    3    3  502    0  0.49318283398E+03  0.13953823372E+03 -0.28562578420E+03  0.58677457768E+03  0.46999998093E+01 0. -1.
       -5    1    3    3    0  502 -0.49318283398E+03 -0.13953823372E+03  0.78088443342E+03  0.93407859132E+03  0.46999998093E+01 0.  1.
</event>
<event>
 5   0  0.1961098E-03  0.1391686E+04  0.7818609E-02  0.8959859E-01
       -2   -1    0    0    0  501  0.00000000000E+00  0.00000000000E+00  0.37801894457E+03  0.37801894458E+03  0.25500000920E-02 0.  1.
        2   -1    0    0  501    0  0.00000000000E+00  0.00000000000E+00 -0.12808817853E+04  0.12808817853E+04  0.25500000920E-02 0. -1.
    10030    2    1    2    0    0  0.00000000000E+00  0.00000000000E+00 -0.90286284073E+03  0.16589007299E+04  0.13916861437E+04 0.  0.
        2    1    3    3  502    0 -0.57774502174E+03  0.36905599626E+02 -0.91162400650E+03  0.10799118773E+04  0.25500000920E-02 0. -1.
       -2    1    3    3    0  502  0.57774502174E+03 -0.36905599626E+02  0.87611657740E+01  0.57898885262E+03  0.25500000920E-02 0.  1.
</event>
<event>
 5   0  0.2094566E-03  0.1473112E+04  0.7818609E-02  0.8902533E-01
       -2   -1    0    0    0  501  0.00000000000E+00  0.00000000000E+00  0.16302887303E+04  0.16302887303E+04  0.25500000920E-02 0.  1.
        2   -1    0    0  501    0  0.00000000000E+00  0.00000000000E+00 -0.33277202080E+03  0.33277202081E+03  0.25500000920E-02 0. -1.
    10030    2    1    2    0    0  0.00000000000E+00  0.00000000000E+00  0.12975167095E+04  0.19630607511E+04  0.14731116391E+04 0.  0.
        1    1    3    3  502    0  0.52828892672E+03  0.48429166334E+03  0.42226872463E+03  0.83182839642E+03  0.50400001928E-02 0. -1.
       -1    1    3    3    0  502 -0.52828892672E+03 -0.48429166334E+03  0.87524798491E+03  0.11312323547E+04  0.50400001928E-02 0.  1.
</event>
<event>
 5   0  0.2094566E-03  0.1481352E+04  0.7818609E-02  0.8896949E-01
        2   -1    0    0  501    0  0.00000000000E+00  0.00000000000E+00  0.13977709937E+04  0.13977709937E+04  0.25500000920E-02 0.  1.
       -2   -1    0    0    0  501  0.00000000000E+00  0.00000000000E+00 -0.39248290116E+03  0.39248290117E+03  0.25500000920E-02 0. -1.
    10030    2    1    2    0    0  0.00000000000E+00  0.00000000000E+00  0.10052880925E+04  0.17902538948E+04  0.14813523750E+04 0.  0.
        1    1    3    3  502    0 -0.47141798355E+03 -0.47359820067E+03  0.11653717793E+03  0.67831488614E+03  0.50400001928E-02 0. -1.
       -1    1    3    3    0  502  0.47141798355E+03  0.47359820067E+03  0.88875091457E+03  0.11119390087E+04  0.50400001928E-02 0.  1.
</event>
<event>
 5   0  0.2150197E-03  0.1507190E+04  0.7818609E-02  0.8879686E-01
        2   -1    0    0  501    0  0.00000000000E+00  0.00000000000E+00  0.96195311532E+03  0.96195311533E+03  0.25500000920E-02 0. -1.
       -2   -1    0    0    0  501  0.00000000000E+00  0.00000000000E+00 -0.59036718370E+03  0.59036718371E+03  0.25500000920E-02 0.  1.
    10030    2    1    2    0    0  0.00000000000E+00  0.00000000000E+00  0.37158593162E+03  0.15523202990E+04  0.15071901692E+04 0.  0.
        3    1    3    3  502    0 -0.64618563915E+03  0.26593677837E+02 -0.21262661170E+03  0.68078865307E+03  0.10100000352E+00 0.  1.
       -3    1    3    3    0  502  0.64618563915E+03 -0.26593677837E+02  0.58421254332E+03  0.87153164597E+03  0.10100000352E+00 0. -1.
</event>
<event>
 5   0  0.1078018E-03  0.1481201E+04  0.7818609E-02  0.8897051E-01
       -1   -1    0    0    0  501  0.00000000000E+00  0.00000000000E+00  0.89886634630E+03  0.89886634632E+03  0.50400001928E-02 0. -1.
        1   -1    0    0  501    0  0.00000000000E+00  0.00000000000E+00 -0.61020116811E+03  0.61020116813E+03  0.50400001928E-02 0.  1.
    10030    2    1    2    0    0  0.00000000000E+00  0.00000000000E+00  0.28866517819E+03  0.15090675145E+04  0.14812012618E+04 0.  0.
        4    1    3    3  502    0  0.15474708877E+03  0.71453927366E+03  0.26477099894E+03  0.77757207374E+03  0.12699999809E+01 0.  1.
       -4    1    3    3    0  502 -0.15474708877E+03 -0.71453927366E+03  0.23894179243E+02  0.73149544071E+03  0.12699999809E+01 0. -1.
</event>
<event>
 5   0  0.2150197E-03  0.1431668E+04  0.7818609E-02  0.8931209E-01
       -2   -1    0    0    0  501  0.00000000000E+00  0.00000000000E+00  0.14268592789E+04  0.14268592789E+04  0.25500000920E-02 0.  1.
        2   -1    0    0  501    0  0.00000000000E+00  0.00000000000E+00 -0.35912314735E+03  0.35912314736E+03  0.25500000920E-02 0. -1.
    10030    2    1    2    0    0  0.00000000000E+00  0.00000000000E+00  0.10677361316E+04  0.17859824263E+04  0.14316678317E+04 0.  0.
        3    1    3    3  502    0 -0.22676293783E+03 -0.23527551776E+03 -0.26065492986E+03  0.41799162897E+03  0.10100000352E+00 0. -1.
       -3    1    3    3    0  502  0.22676293783E+03  0.23527551776E+03  0.13283910615E+04  0.13679907973E+04  0.10100000352E+00 0.  1.
</event>
<event>
 5   0  0.1069697E-03  0.1489110E+04  0.7818609E-02  0.8891727E-01
       -1   -1    0    0    0  501  0.00000000000E+00  0.00000000000E+00  0.57137183509E+03  0.57137183512E+03  0.50400001928E-02 0.  1.
        1   -1    0    0  501    0  0.00000000000E+00  0.00000000000E+00 -0.97023032173E+03  0.97023032175E+03  0.50400001928E-02 0. -1.
    10030    2    1    2    0    0  0.00000000000E+00  0.00000000000E+00 -0.39885848664E+03  0.15416021569E+04  0.14891101765E+04 0.  0.
        2    1    3    3  502    0  0.13145152662E+03 -0.73007284974E+03 -0.13333184169E+03  0.75369970797E+03  0.25500000920E-02 0.  1.
       -2    1    3    3    0  502 -0.13145152662E+03  0.73007284974E+03 -0.26552664495E+03  0.78790244889E+03  0.25500000920E-02 0. -1.
</event>
<event>
 5   0  0.7468375E-04  0.1419255E+04  0.7818609E-02  0.8939997E-01
       -4   -1    0    0    0  501  0.00000000000E+00  0.00000000000E+00  0.50598551814E+03  0.50598711196E+03  0.12699999809E+01 0. -1.
        4   -1    0    0  501    0  0.00000000000E+00  0.00000000000E+00 -0.99522506206E+03  0.99522587238E+03  0.12699999809E+01 0.  1.
    10030    2    1    2    0    0  0.00000000000E+00  0.00000000000E+00 -0.48923954392E+03  0.15012129843E+04  0.14192551191E+04 0.  0.
        5    1    3    3  502    0 -0.27671660276E+03  0.14003624021E+03  0.43049054034E+03  0.53059063517E+03  0.46999998093E+01 0. -1.
       -5    1    3    3    0  502  0.27671660276E+03 -0.14003624021E+03 -0.91973008426E+03  0.97062234916E+03  0.46999998093E+01 0.  1.
</event>
<event>
 5   0  0.2150197E-03  0.1479205E+04  0.7818609E-02  0.8898400E-01
       -2   -1    0    0    0  501  0.00000000000E+00  0.00000000000E+00  0.30287495852E+03  0.30287495854E+03  0.25500000920E-02 0. -1.
        2   -1    0    0  501    0  0.00000000000E+00  0.00000000000E+00 -0.18060644808E+04  0.18060644808E+04  0.25500000920E-02 0.  1.
    10030    2    1    2    0    0  0.00000000000E+00  0.00000000000E+00 -0.15031895223E+04  0.21089394393E+04  0.14792047928E+04 0.  0.
        3    1    3    3  502    0 -0.71549536972E+03 -0.16445391185E+03 -0.87937808537E+03  0.11455498856E+04  0.10100000352E+00 0. -1.
       -3    1    3    3    0  502  0.71549536972E+03  0.16445391185E+03 -0.62381143691E+03  0.96338955373E+03  0.10100000352E+00 0.  1.
</event>
<event>
 5   0  0.1069697E-03  0.1291502E+04  0.7818609E-02  0.9036331E-01
        1   -1    0    0  501    0  0.00000000000E+00  0.00000000000E+00  0.75657424349E+03  0.75657424351E+03  0.50400001928E-02 0. -1.
       -1   -1    0    0    0  501  0.00000000000E+00  0.00000000000E+00 -0.55116156824E+03  0.55116156827E+03  0.50400001928E-02 0.  1.
    10030    2    1    2    0    0  0.00000000000E+00  0.00000000000E+00  0.20541267524E+03  0.13077358118E+04  0.12915024531E+04 0.  0.
        2    1    3    3  502    0 -0.53354091406E+03  0.36257748295E+03  0.72903264089E+02  0.64918658646E+03  0.25500000920E-02 0. -1.
       -2    1    3    3    0  502  0.53354091406E+03 -0.36257748295E+03  0.13250941116E+03  0.65854922532E+03  0.25500000920E-02 0.  1.
</event>
<event>
 5   0  0.1069697E-03  0.1231153E+04  0.7818609E-02  0.9086017E-01
       -1   -1    0    0    0  501  0.00000000000E+00  0.00000000000E+00  0.10009754979E+04  0.10009754979E+04  0.50400001928E-02 0.  1.
        1   -1    0    0  501    0  0.00000000000E+00  0.00000000000E+00 -0.37856503172E+03  0.37856503175E+03  0.50400001928E-02 0. -1.
    10030    2    1    2    0    0  0.00000000000E+00  0.00000000000E+00  0.62241046621E+03  0.13795405297E+04  0.12311528275E+04 0.  0.
        2    1    3    3  502    0 -0.79615232321E+02  0.35532814860E+03  0.86735004221E+03  0.94068739447E+03  0.25500000920E-02 0.  1.
       -2    1    3    3    0  502  0.79615232321E+02 -0.35532814860E+03 -0.24493957599E+03  0.43885313522E+03  0.25500000920E-02 0. -1.
</event>
<event>
 5   0  0.7468375E-04  0.1368042E+04  0.7818609E-02  0.8977282E-01
        3   -1    0    0  501    0  0.00000000000E+00  0.00000000000E+00  0.58136688060E+03  0.58136688937E+03  0.10100000352E+00 0.  1.
       -3   -1    0    0    0  501  0.00000000000E+00  0.00000000000E+00 -0.80480095173E+03  0.80480095807E+03  0.10100000352E+00 0. -1.
    10030    2    1    2    0    0  0.00000000000E+00  0.00000000000E+00 -0.22343407114E+03  0.13861678474E+04  0.13680418550E+04 0.  0.
        2    1    3    3  502    0 -0.40336860795E+03  0.47395333794E+03 -0.39928474657E+03  0.73943648089E+03  0.25500000920E-02 0. -1.
       -2    1    3    3    0  502  0.40336860795E+03 -0.47395333794E+03  0.17585067543E+03  0.64673136655E+03  0.25500000920E-02 0.  1.
</event>
<event>
 5   0  0.1961098E-03  0.1507394E+04  0.7818609E-02  0.8879551E-01
       -2   -1    0    0    0  501  0.00000000000E+00  0.00000000000E+00  0.35614605098E+03  0.35614605099E+03  0.25500000920E-02 0.  1.
        2   -1    0    0  501    0  0.00000000000E+00  0.00000000000E+00 -0.15950182796E+04  0.15950182796E+04  0.25500000920E-02 0. -1.
    10030    2    1    2    0    0  0.00000000000E+00  0.00000000000E+00 -0.12388722286E+04  0.19511643306E+04  0.15073943897E+04 0.  0.
        2    1    3    3  502    0 -0.63452236902E+03 -0.38272701525E+03 -0.44119990808E+03  0.86241287321E+03  0.25500000920E-02 0.  1.
       -2    1    3    3    0  502  0.63452236902E+03  0.38272701525E+03 -0.79767232055E+03  0.10887514574E+04  0.25500000920E-02 0. -1.
</event>
<event>
 5   0  0.1961098E-03  0.1516343E+04  0.7818609E-02  0.8873657E-01
        2   -1    0    0  501    0  0.00000000000E+00  0.00000000000E+00  0.58251310503E+03  0.58251310503E+03  0.25500000920E-02 0. -1.
       -2   -1    0    0    0  501  0.00000000000E+00  0.00000000000E+00 -0.98679957208E+03  0.98679957209E+03  0.25500000920E-02 0.  1.
    10030    2    1    2    0    0  0.00000000000E+00  0.00000000000E+00 -0.40428646706E+03  0.15693126771E+04  0.15163425507E+04 0.  0.
        2    1    3    3  502    0 -0.19201043466E+02 -0.75002130884E+03 -0.31515031091E+03  0.81376923157E+03  0.25500000920E-02 0. -1.
       -2    1    3    3    0  502  0.19201043466E+02  0.75002130884E+03 -0.89136156146E+02  0.75554344555E+03  0.25500000920E-02 0.  1.
</event>
<event>
 5   0  0.1087761E-03  0.8211669E+03  0.7818609E-02  0.9529874E-01
       -1   -1    0    0    0  501  0.00000000000E+00  0.00000000000E+00  0.25848688230E+03  0.25848688234E+03  0.50400001928E-02 0. -1.
        1   -1    0    0  501    0  0.00000000000E+00  0.00000000000E+00 -0.65217538081E+03  0.65217538083E+03  0.50400001928E-02 0.  1.
    10030    2    1    2    0    0  0.00000000000E+00  0.00000000000E+00 -0.39368849851E+03  0.91066226317E+03  0.82116692804E+03 0.  0.
        3    1    3    3  502    0 -0.25406108134E+03 -0.30146528117E+03 -0.69671009917E+02  0.40035285515E+03  0.10100000352E+00 0. -1.
       -3    1    3    3    0  502  0.25406108134E+03  0.30146528117E+03 -0.32401748859E+03  0.51030940802E+03  0.10100000352E+00 0.  1.
</event>
<event>
 5   0  0.1993623E-03  0.1501904E+04  0.7818609E-02  0.8883188E-01
        2   -1    0    0  501    0  0.00000000000E+00  0.00000000000E+00  0.20947490260E+04  0.20947490260E+04  0.25500000920E-02 0. -1.
       -2   -1    0    0    0  501  0.00000000000E+00  0.00000000000E+00 -0.26921055283E+03  0.26921055285E+03  0.25500000920E-02 0.  1.
    10030    2    1    2    0    0  0.00000000000E+00  0.00000000000E+00  0.18255384732E+04  0.23639595789E+04  0.15019035167E+04 0.  0.
        4    1    3    3  502    0 -0.64678964845E+03 -0.32205939937E+03  0.59070818318E+03  0.93327213429E+03  0.12699999809E+01 0.  1.
       -4    1    3    3    0  502  0.64678964845E+03  0.32205939937E+03  0.12348302900E+04  0.14306874446E+04  0.12699999809E+01 0. -1.
</event>
<event>
 5   0  0.1077140E-03  0.1485376E+04  0.7818609E-02  0.8894236E-01
        1   -1    0    0  501    0  0.00000000000E+00  0.00000000000E+00  0.90046517774E+03  0.90046517775E+03  0.50400001928E-02 0. -1.
       -1   -1    0    0    0  501  0.00000000000E+00  0.00000000000E+00 -0.61255624638E+03  0.61255624640E+03  0.50400001928E-02 0.  1.
    10030    2    1    2    0    0  0.00000000000E+00  0.00000000000E+00  0.28790893136E+03  0.15130214242E+04  0.14853761400E+04 0.  0.
        1    1    3    3  502    0 -0.28048179961E+03 -0.58429336909E+03 -0.22544752486E+03  0.68621816325E+03  0.50400001928E-02 0.  1.
       -1    1    3    3    0  502  0.28048179961E+03  0.58429336909E+03  0.51335645622E+03  0.82680326091E+03  0.50400001928E-02 0. -1.
</event>
<event>
 5   0  0.1961098E-03  0.1493415E+04  0.7818609E-02  0.8888843E-01
       -2   -1    0    0    0  501  0.00000000000E+00  0.00000000000E+00  0.46594540576E+03  0.46594540577E+03  0.25500000920E-02 0. -1.
        2   -1    0    0  501    0  0.00000000000E+00  0.00000000000E+00 -0.11966474074E+04  0.11966474074E+04  0.25500000920E-02 0.  1.
    10030    2    1    2    0    0  0.00000000000E+00  0.00000000000E+00 -0.73070200164E+03  0.16625928132E+04  0.14934153633E+04 0.  0.
        2    1    3    3  502    0  0.56965197886E+03 -0.24097438577E+03  0.10036881621E+03  0.62661465901E+03  0.25500000920E-02 0. -1.
       -2    1    3    3    0  502 -0.56965197886E+03  0.24097438577E+03 -0.83107081785E+03  0.10359781542E+04  0.25500000920E-02 0.  1.
</event>
<event>
 5   0  0.1078787E-03  0.1437174E+04  0.7818609E-02  0.8927341E-01
       -1   -1    0    0    0  501  0.00000000000E+00  0.00000000000E+00  0.38610322715E+03  0.38610322718E+03  0.50400001928E-02 0. -1.
        1   -1    0    0  501    0  0.00000000000E+00  0.00000000000E+00 -0.13373807626E+04  0.13373807626E+04  0.50400001928E-02 0.  1.
    10030    2    1    2    0    0  0.00000000000E+00  0.00000000000E+00 -0.95127753542E+03  0.17234839898E+04  0.14371736546E+04 0.  0.
        5    1    3    3  502    0  0.33891447498E+03 -0.63358567825E+03 -0.46706579969E+03  0.85701014246E+03  0.46999998093E+01 0.  1.
       -5    1    3    3    0  502 -0.33891447498E+03  0.63358567825E+03 -0.48421173573E+03  0.86647384730E+03  0.46999998093E+01 0. -1.
</event>
<event>
 5   0  0.2094566E-03  0.1547006E+04  0.7818609E-02  0.8853782E-01
        2   -1    0    0  501    0  0.00000000000E+00  0.00000000000E+00  0.17889402154E+04  0.17889402154E+04  0.25500000920E-02 0. -1.
       -2   -1    0    0    0  501  0.00000000000E+00  0.00000000000E+00 -0.33444785130E+03  0.33444785131E+03  0.25500000920E-02 0.  1.
    10030    2    1    2    0    0  0.00000000000E+00  0.00000000000E+00  0.14544923641E+04  0.21233880667E+04  0.15470064139E+04 0.  0.
        1    1    3    3  502    0  0.51837112942E+03  0.35409102330E+03  0.13475213659E+04  0.14865742202E+04  0.50400001928E-02 0. -1.
       -1    1    3    3    0  502 -0.51837112942E+03 -0.35409102330E+03  0.10697099819E+03  0.63681384649E+03  0.50400001928E-02 0.  1.
</event>
<event>
 5   0  0.7468375E-04  0.1434417E+04  0.7818609E-02  0.8929276E-01
        4   -1    0    0  501    0  0.00000000000E+00  0.00000000000E+00  0.44105553288E+03  0.44105736133E+03  0.12699999809E+01 0. -1.
       -4   -1    0    0    0  501  0.00000000000E+00  0.00000000000E+00 -0.11662615110E+04  0.11662622025E+04  0.12699999809E+01 0.  1.
    10030    2    1    2    0    0  0.00000000000E+00  0.00000000000E+00 -0.72520597811E+03  0.16073195638E+04  0.14344171184E+04 0.  0.
        5    1    3    3  502    0 -0.69732738749E+03  0.16388967829E+03 -0.40207260085E+03  0.82146806289E+03  0.46999998093E+01 0.  1.
       -5    1    3    3    0  502  0.69732738749E+03 -0.16388967829E+03 -0.32313337727E+03  0.78585150092E+03  0.46999998093E+01 0. -1.
</event>
<event>
 5   0  0.1077140E-03  0.1411354E+04  0.7818609E-02  0.8945641E-01
        1   -1    0    0  501    0  0.00000000000E+00  0.00000000000E+00  0.51822263247E+03  0.51822263249E+03  0.50400001928E-02 0.  1.
       -1   -1    0    0    0  501  0.00000000000E+00  0.00000000000E+00 -0.96093850984E+03  0.96093850985E+03  0.50400001928E-02 0. -1.
    10030    2    1    2    0    0  0.00000000000E+00  0.00000000000E+00 -0.44271587737E+03  0.14791611423E+04  0.14113540792E+04 0.  0.
        1    1    3    3  502    0 -0.20302111919E+03 -0.33963588210E+03  0.39101728439E+03  0.55629544665E+03  0.50400001928E-02 0.  1.
       -1    1    3    3    0  502  0.20302111919E+03  0.33963588210E+03 -0.83373316176E+03  0.92286569569E+03  0.50400001928E-02 0. -1.
</event>
<event>
 5   0  0.1078018E-03  0.1544141E+04  0.7818609E-02  0.8855619E-01
        1   -1    0    0  501    0  0.00000000000E+00  0.00000000000E+00  0.79302209275E+03  0.79302209277E+03  0.50400001928E-02 0.  1.
       -1   -1    0    0    0  501  0.00000000000E+00  0.00000000000E+00 -0.75167252298E+03  0.75167252299E+03  0.50400001928E-02 0. -1.
    10030    2    1    2    0    0  0.00000000000E+00  0.00000000000E+00  0.41349569777E+02  0.15446946158E+04  0.15441410781E+04 0.  0.
        4    1    3    3  502    0  0.65554268534E+03  0.33851489833E+03  0.24827064105E+03  0.77843976825E+03  0.12699999809E+01 0.  1.
       -4    1    3    3    0  502 -0.65554268534E+03 -0.33851489833E+03 -0.20692107127E+03  0.76625484751E+03  0.12699999809E+01 0. -1.
</event>
<event>
 5   0  0.1078018E-03  0.1476957E+04  0.7818609E-02  0.8899922E-01
       -1   -1    0    0    0  501  0.00000000000E+00  0.00000000000E+00  0.34819842627E+03  0.34819842630E+03  0.50400001928E-02 0.  1.
        1   -1    0    0  501    0  0.00000000000E+00  0.00000000000E+00 -0.15662065964E+04  0.15662065964E+04  0.50400001928E-02 0. -1.
    10030    2    1    2    0    0  0.00000000000E+00  0.00000000000E+00 -0.12180081702E+04  0.19144050227E+04  0.14769572399E+04 0.  0.
        4    1    3    3  502    0 -0.10132171974E+03 -0.33549121583E+03 -0.14515507517E+04  0.14932587333E+04  0.12699999809E+01 0. -1.
       -4    1    3    3    0  502  0.10132171974E+03  0.33549121583E+03  0.23354258158E+03  0.42114628944E+03  0.12699999809E+01 0.  1.
</event>
<event>
 5   0  0.1961098E-03  0.1518528E+04  0.7818609E-02  0.8872225E-01
       -2   -1    0    0    0  501  0.00000000000E+00  0.00000000000E+00  0.46677799240E+03  0.46677799240E+03  0.25500000920E-02 0.  1.
        2   -1    0    0  501    0  0.00000000000E+00  0.00000000000E+00 -0.12350237991E+04  0.12350237991E+04  0.25500000920E-02 0. -1.
    10030    2    1    2    0    0  0.00000000000E+00  0.00000000000E+00 -0.76824580667E+03  0.17018017915E+04  0.15185281420E+04 0.  0.
        2    1    3    3  502    0  0.49801488214E+03 -0.20255568919E+03  0.21671237865E+03  0.57966532165E+03  0.25500000920E-02 0.  1.
       -2    1    3    3    0  502 -0.49801488214E+03  0.20255568919E+03 -0.98495818532E+03  0.11221364698E+04  0.25500000920E-02 0. -1.
</event>
<event>
 5   0  0.1961098E-03  0.1145542E+04  0.7818609E-02  0.9161906E-01
       -2   -1    0    0    0  501  0.00000000000E+00  0.00000000000E+00  0.40873884059E+03  0.40873884060E+03  0.25500000920E-02 0. -1.
        2   -1    0    0  501    0  0.00000000000E+00  0.00000000000E+00 -0.80263084057E+03  0.80263084057E+03  0.25500000920E-02 0.  1.
    10030    2    1    2    0    0  0.00000000000E+00  0.00000000000E+00 -0.39389199998E+03  0.12113696812E+04  0.11455416172E+04 0.  0.
        2    1    3    3  502    0  0.11445218530E+03  0.32713898936E+03  0.28527080777E+03  0.44888601543E+03  0.25500000920E-02 0. -1.
       -2    1    3    3    0  502 -0.11445218530E+03 -0.32713898936E+03 -0.67916280775E+03  0.76248366574E+03  0.25500000920E-02 0.  1.
</event>
<event>
 5   0  0.1993623E-03  0.1400022E+04  0.7818609E-02  0.8953803E-01
        2   -1    0    0  501    0  0.00000000000E+00  0.00000000000E+00  0.23341224552E+04  0.23341224552E+04  0.25500000920E-02 0.  1.
       -2   -1    0    0    0  501  0.00000000000E+00  0.00000000000E+00 -0.20993560588E+03  0.20993560590E+03  0.25500000920E-02 0. -1.
    10030    2    1    2    0    0  0.00000000000E+00  0.00000000000E+00  0.21241868493E+04  0.25440580611E+04  0.14000220168E+04 0.  0.
        4    1    3    3  502    0 -0.27060194143E+02  0.56261397041E+03  0.18173551773E+04  0.19026424223E+04  0.12699999809E+01 0.  1.
       -4    1    3    3    0  502  0.27060194143E+02 -0.56261397041E+03  0.30683167197E+03  0.64141563875E+03  0.12699999809E+01 0. -1.
</event>
<event>
 5   0  0.2111533E-03  0.1603187E+04  0.7818609E-02  0.8818593E-01
       -2   -1    0    0    0  501  0.00000000000E+00  0.00000000000E+00  0.11567964245E+04  0.11567964245E+04  0.25500000920E-02 0.  1.
        2   -1    0    0  501    0  0.00000000000E+00  0.00000000000E+00 -0.55545822696E+03  0.55545822696E+03  0.25500000920E-02 0. -1.
    10030    2    1    2    0    0  0.00000000000E+00  0.00000000000E+00  0.60133819753E+03  0.17122546515E+04  0.16031869397E+04 0.  0.
        5    1    3    3  502    0 -0.38446627311E+03 -0.70144274114E+03  0.35610156150E+03  0.87559502418E+03  0.46999998093E+01 0. -1.
       -5    1    3    3    0  502  0.38446627311E+03  0.70144274114E+03  0.24523663603E+03  0.83665962728E+03  0.46999998093E+01 0.  1.
</event>
<event>
 5   0  0.1961098E-03  0.1546980E+04  0.7818609E-02  0.8853799E-01
        2   -1    0    0  501    0  0.00000000000E+00  0.00000000000E+00  0.21799483330E+04  0.21799483330E+04  0.25500000920E-02 0.  1.
       -2   -1    0    0    0  501  0.00000000000E+00  0.00000000000E+00 -0.27445005133E+03  0.27445005135E+03  0.25500000920E-02 0. -1.
    10030    2    1    2    0    0  0.00000000000E+00  0.00000000000E+00  0.19054982817E+04  0.24543983844E+04  0.15469801963E+04 0.  0.
        2    1    3    3  502    0  0.70587509874E+03  0.17391881738E+03  0.13718555448E+04  0.15525769049E+04  0.25500000920E-02 0. -1.
       -2    1    3    3    0  502 -0.70587509874E+03 -0.17391881738E+03  0.53364273691E+03  0.90182147941E+03  0.25500000920E-02 0.  1.
</event>
<event>
 5   0  0.2094566E-03  0.1500750E+04  0.7818609E-02  0.8883954E-01
       -2   -1    0    0    0  501  0.00000000000E+00  0.00000000000E+00  0.48425626171E+03  0.48425626172E+03  0.25500000920E-02 0. -1.
        2   -1    0    0  501    0  0.00000000000E+00  0.00000000000E+00 -0.11627366389E+04  0.11627366390E+04  0.25500000920E-02 0.  1.
    10030    2    1    2    0    0  0.00000000000E+00  0.00000000000E+00 -0.67848037723E+03  0.16469929007E+04  0.15007498101E+04 0.  0.
        1    1    3    3  502    0  0.10692495823E+03  0.33773404086E+02  0.47500971651E+03  0.48806538529E+03  0.50400001928E-02 0. -1.
       -1    1    3    3    0  502 -0.10692495823E+03 -0.33773404086E+02 -0.11534900937E+04  0.11589275154E+04  0.50400001928E-02 0.  1.
</event>
<event>
 5   0  0.1993623E-03  0.1245682E+04  0.7818609E-02  0.9073785E-01
        2   -1    0    0  501    0  0.00000000000E+00  0.00000000000E+00  0.77427628976E+03  0.77427628977E+03  0.25500000920E-02 0.  1.
       -2   -1    0    0    0  501  0.00000000000E+00  0.00000000000E+00 -0.50102360016E+03  0.50102360017E+03  0.25500000920E-02 0. -1.
    10030    2    1    2    0    0  0.00000000000E+00  0.00000000000E+00  0.27325268960E+03  0.12752998899E+04  0.12456816515E+04 0.  0.
        4    1    3    3  502    0 -0.14967986014E+03 -0.88221213097E+02  0.74896297988E+03  0.76885252234E+03  0.12699999809E+01 0.  1.
       -4    1    3    3    0  502  0.14967986014E+03  0.88221213097E+02 -0.47571029028E+03  0.50644736760E+03  0.12699999809E+01 0. -1.
</event>
<event>
 5   0  0.1993623E-03  0.1465829E+04  0.7818609E-02  0.8907500E-01
        2   -1    0    0  501    0  0.00000000000E+00  0.00000000000E+00  0.51744120005E+03  0.51744120006E+03  0.25500000920E-02 0.  1.
       -2   -1    0    0    0  501  0.00000000000E+00  0.00000000000E+00 -0.10381154859E+04  0.10381154859E+04  0.25500000920E-02 0. -1.
    10030    2    1    2    0    0  0.00000000000E+00  0.00000000000E+00 -0.52067428584E+03  0.15555566860E+04  0.14658290798E+04 0.  0.
        4    1    3    3  502    0  0.17952269505E+03  0.84598707281E+02 -0.10090578106E+04  0.10283893316E+04  0.12699999809E+01 0. -1.
       -4    1    3    3    0  502 -0.17952269505E+03 -0.84598707281E+02  0.48838352477E+03  0.52716735434E+03  0.12699999809E+01 0.  1.
</event>
<event>
 5   0  0.2111533E-03  0.1477737E+04  0.7818609E-02  0.8899394E-01
       -2   -1    0    0    0  501  0.00000000000E+00  0.00000000000E+00  0.62298634311E+03  0.62298634312E+03  0.25500000920E-02 0. -1.
        2   -1    0    0  501    0  0.00000000000E+00  0.00000000000E+00 -0.87630639971E+03  0.87630639971E+03  0.25500000920E-02 0.  1.
    10030    2    1    2    0    0  0.00000000000E+00  0.00000000000E+00 -0.25332005659E+03  0.14992927428E+04  0.14777373507E+04 0.  0.
        5    1    3    3  502    0  0.70142276604E+03  0.10226635152E+03 -0.33815337156E+03  0.78538022389E+03  0.46999998093E+01 0.  1.
       -5    1    3    3    0  502 -0.70142276604E+03 -0.10226635152E+03  0.84833314967E+02  0.71391251894E+03  0.46999998093E+01 0. -1.
</event>
<event>
 5   0  0.1078018E-03  0.7739049E+03  0.7818609E-02  0.9598576E-01
       -1   -1    0    0    0  501  0.00000000000E+00  0.00000000000E+00  0.16421136134E+03  0.16421136142E+03  0.50400001928E-02 0. -1.
        1   -1    0    0  501    0  0.00000000000E+00  0.00000000000E+00 -0.91182608562E+03  0.91182608564E+03  0.50400001928E-02 0.  1.
    10030    2    1    2    0    0  0.00000000000E+00  0.00000000000E+00 -0.74761472428E+03  0.10760374471E+04  0.77390491116E+03 0.  0.
        4    1    3    3  502    0 -0.16372875167E+03  0.26212196361E+03 -0.50063334805E+02  0.31308621547E+03  0.12699999809E+01 0. -1.
       -4    1    3    3    0  502  0.16372875167E+03 -0.26212196361E+03 -0.69755138947E+03  0.76295123159E+03  0.12699999809E+01 0.  1.
</event>
<event>
 5   0  0.2111533E-03  0.1486652E+04  0.7818609E-02  0.8893378E-01
        2   -1    0    0  501    0  0.00000000000E+00  0.00000000000E+00  0.16650610135E+04  0.16650610135E+04  0.25500000920E-02 0. -1.
       -2   -1    0    0    0  501  0.00000000000E+00  0.00000000000E+00 -0.33183979090E+03  0.33183979091E+03  0.25500000920E-02 0.  1.
    10030    2    1    2    0    0  0.00000000000E+00  0.00000000000E+00  0.13332212226E+04  0.19969008044E+04  0.14866519412E+04 0.  0.
        5    1    3    3  502    0 -0.60273379998E+03 -0.27840233473E+03  0.21765445055E+03  0.69870697969E+03  0.46999998093E+01 0.  1.
       -5    1    3    3    0  502  0.60273379998E+03  0.27840233473E+03  0.11155667720E+04  0.12981938247E+04  0.46999998093E+01 0. -1.
</event>
<event>
 5   0  0.2150197E-03  0.1365230E+04  0.7818609E-02  0.8979379E-01
       -2   -1    0    0    0  501  0.00000000000E+00  0.00000000000E+00  0.38976061771E+03  0.38976061772E+03  0.25500000920E-02 0. -1.
        2   -1    0    0  501    0  0.00000000000E+00  0.00000000000E+00 -0.11955108908E+04  0.11955108908E+04  0.25500000920E-02 0.  1.
    10030    2    1    2    0    0  0.00000000000E+00  0.00000000000E+00 -0.80575027312E+03  0.15852715085E+04  0.13652297437E+04 0.  0.
        3    1    3    3  502    0  0.24783470573E+03  0.17969084161E+03 -0.11113371303E+04  0.11527276640E+04  0.10100000352E+00 0.  1.
       -3    1    3    3    0  502 -0.24783470573E+03 -0.17969084161E+03  0.30558685723E+03  0.43254384452E+03  0.10100000352E+00 0. -1.
</event>
<event>
 5   0  0.1069697E-03  0.1506938E+04  0.7818609E-02  0.8879852E-01
       -1   -1    0    0    0  501  0.00000000000E+00  0.00000000000E+00  0.81438740719E+03  0.81438740721E+03  0.50400001928E-02 0. -1.
        1   -1    0    0  501    0  0.00000000000E+00  0.00000000000E+00 -0.69710772657E+03  0.69710772659E+03  0.50400001928E-02 0.  1.
    10030    2    1    2    0    0  0.00000000000E+00  0.00000000000E+00  0.11727968062E+03  0.15114951338E+04  0.15069382920E+04 0.  0.
        2    1    3    3  502    0 -0.56572547165E+03 -0.49746992107E+03  0.72614751837E+02  0.75683190593E+03  0.25500000920E-02 0.  1.
       -2    1    3    3    0  502  0.56572547165E+03  0.49746992107E+03  0.44664928785E+02  0.75466322787E+03  0.25500000920E-02 0. -1.
</event>
<event>
 5   0  0.1077140E-03  0.1458506E+04  0.7818609E-02  0.8912525E-01
       -1   -1    0    0    0  501  0.00000000000E+00  0.00000000000E+00  0.95636907976E+03  0.95636907977E+03  0.50400001928E-02 0.  1.
        1   -1    0    0  501    0  0.00000000000E+00  0.00000000000E+00 -0.55607202654E+03  0.55607202656E+03  0.50400001928E-02 0. -1.
    10030    2    1    2    0    0  0.00000000000E+00  0.00000000000E+00  0.40029705322E+03  0.15124411063E+04  0.14585062116E+04 0.  0.
        1    1    3    3  502    0 -0.67485860282E+03 -0.92160575187E+02  0.47032575470E+03  0.82772822894E+03  0.50400001928E-02 0.  1.
       -1    1    3    3    0  502  0.67485860282E+03  0.92160575187E+02 -0.70028701480E+02  0.68471287740E+03  0.50400001928E-02 0. -1.
</event>
<event>
 5   0  0.1078787E-03  0.1474398E+04  0.7818609E-02  0.8901659E-01
       -1   -1    0    0    0  501  0.00000000000E+00  0.00000000000E+00  0.31597681226E+03  0.31597681230E+03  0.50400001928E-02 0. -1.
        1   -1    0    0  501    0  0.00000000000E+00  0.00000000000E+00 -0.17199442905E+04  0.17199442905E+04  0.50400001928E-02 0.  1.
    10030    2    1    2    0    0  0.00000000000E+00  0.00000000000E+00 -0.14039674782E+04  0.20359211028E+04  0.14743982016E+04 0.  0.
        5    1    3    3  502    0  0.15790073998E+03 -0.15080425663E+03 -0.16742483052E+04  0.16884324224E+04  0.46999998093E+01 0.  1.
       -5    1    3    3    0  502 -0.15790073998E+03  0.15080425663E+03  0.27028082704E+03  0.34748868034E+03  0.46999998093E+01 0. -1.
</event>
<event>
 5   0  0.1078787E-03  0.1412282E+04  0.7818609E-02  0.8944976E-01
        1   -1    0    0  501    0  0.00000000000E+00  0.00000000000E+00  0.12580002329E+04  0.12580002329E+04  0.50400001928E-02 0. -1.
       -1   -1    0    0    0  501  0.00000000000E+00  0.00000000000E+00 -0.39637138879E+03  0.39637138882E+03  0.50400001928E-02 0.  1.
    10030    2    1    2    0    0  0.00000000000E+00  0.00000000000E+00  0.86162884408E+03  0.16543716217E+04  0.14122822656E+04 0.  0.
        5    1    3    3  502    0 -0.24757374678E+03  0.65266593278E+03  0.30602891714E+03  0.76219509840E+03  0.46999998093E+01 0.  1.
       -5    1    3    3    0  502  0.24757374678E+03 -0.65266593278E+03  0.55559992694E+03  0.89217652329E+03  0.46999998093E+01 0. -1.
</event>
<event>
 5   0  0.2094566E-03  0.1479182E+04  0.7818609E-02  0.8898416E-01
       -2   -1    0    0    0  501  0.00000000000E+00  0.00000000000E+00  0.84962430268E+03  0.84962430269E+03  0.25500000920E-02 0.  1.
        2   -1    0    0  501    0  0.00000000000E+00  0.00000000000E+00 -0.64380796036E+03  0.64380796037E+03  0.25500000920E-02 0. -1.
    10030    2    1    2    0    0  0.00000000000E+00  0.00000000000E+00  0.20581634232E+03  0.14934322631E+04  0.14791820569E+04 0.  0.
        1    1    3    3  502    0  0.22946291387E+03 -0.43583104685E+03 -0.45412518279E+03  0.66994896217E+03  0.50400001928E-02 0. -1.
       -1    1    3    3    0  502 -0.22946291387E+03  0.43583104685E+03  0.65994152511E+03  0.82348330088E+03  0.50400001928E-02 0.  1.
</event>
<event>
 5   0  0.2094566E-03  0.1563454E+04  0.7818609E-02  0.8843320E-01
       -2   -1    0    0    0  501  0.00000000000E+00  0.00000000000E+00  0.39014301427E+03  0.39014301427E+03  0.25500000920E-02 0.  1.
        2   -1    0    0  501    0  0.00000000000E+00  0.00000000000E+00 -0.15663404826E+04  0.15663404826E+04  0.25500000920E-02 0. -1.
    10030    2    1    2    0    0  0.00000000000E+00  0.00000000000E+00 -0.11761974683E+04  0.19564834969E+04  0.15634536095E+04 0.  0.
        1    1    3    3  502    0 -0.28117978370E+03  0.43037562039E+03 -0.13250486386E+04  0.14212808097E+04  0.50400001928E-02 0. -1.
       -1    1    3    3    0  502  0.28117978370E+03 -0.43037562039E+03  0.14885117029E+03  0.53520268713E+03  0.50400001928E-02 0.  1.
</event>
<event>
 5   0  0.1078018E-03  0.1482678E+04  0.7818609E-02  0.8896054E-01
       -1   -1    0    0    0  501  0.00000000000E+00  0.00000000000E+00  0.29755618964E+03  0.29755618969E+03  0.50400001928E-02 0. -1.
        1   -1    0    0  501    0  0.00000000000E+00  0.00000000000E+00 -0.18469907223E+04  0.18469907223E+04  0.50400001928E-02 0.  1.
    10030    2    1    2    0    0  0.00000000000E+00  0.00000000000E+00 -0.15494345327E+04  0.21445469120E+04  0.14826780118E+04 0.  0.
        4    1    3    3  502    0  0.59137792861E+03  0.43701215864E+03 -0.91097428367E+03  0.11707191122E+04  0.12699999809E+01 0. -1.
       -4    1    3    3    0  502 -0.59137792861E+03 -0.43701215864E+03 -0.63846024902E+03  0.97382779983E+03  0.12699999809E+01 0.  1.
</event>
<event>
 5   0  0.1961098E-03  0.1491650E+04  0.7818609E-02  0.8890025E-01
       -2   -1    0    0    0  501  0.00000000000E+00  0.00000000000E+00  0.65736081968E+03  0.65736081968E+03  0.25500000920E-02 0.  1.
        2   -1    0    0  501    0  0.00000000000E+00  0.00000000000E+00 -0.84619376515E+03  0.84619376515E+03  0.25500000920E-02 0. -1.
    10030    2    1    2    0    0  0.00000000000E+00  0.00000000000E+00 -0.18883294547E+03  0.15035545848E+04  0.14916495930E+04 0.  0.
        2    1    3    3  502    0  0.30006496172E+03  0.44748679316E+03  0.42542353991E+03  0.68649005792E+03  0.25500000920E-02 0.  1.
       -2    1    3    3    0  502 -0.30006496172E+03 -0.44748679316E+03 -0.61425648538E+03  0.81706452692E+03  0.25500000920E-02 0. -1.
</event>
<event>
 5   0  0.7468375E-04  0.1469360E+04  0.7818609E-02  0.8905088E-01
        3   -1    0    0  501    0  0.00000000000E+00  0.00000000000E+00  0.48200688911E+03  0.48200689969E+03  0.10100000352E+00 0. -1.
       -3   -1    0    0    0  501  0.00000000000E+00  0.00000000000E+00 -0.11198071468E+04  0.11198071513E+04  0.10100000352E+00 0.  1.
    10030    2    1    2    0    0  0.00000000000E+00  0.00000000000E+00 -0.63780025768E+03  0.16018140510E+04  0.14693600938E+04 0.  0.
        5    1    3    3  502    0 -0.68669942608E+03  0.20621458177E+03 -0.49350065137E+03  0.87042836489E+03  0.46999998093E+01 0.  1.
       -5    1    3    3    0  502  0.68669942608E+03 -0.20621458177E+03 -0.14429960631E+03  0.73138568614E+03  0.46999998093E+01 0. -1.
</event>
<event>
 5   0  0.2111533E-03  0.1495206E+04  0.7818609E-02  0.8887647E-01
        2   -1    0    0  501    0  0.00000000000E+00  0.00000000000E+00  0.81035925510E+03  0.81035925511E+03  0.25500000920E-02 0.  1.
       -2   -1    0    0    0  501  0.00000000000E+00  0.00000000000E+00 -0.68970648227E+03  0.68970648228E+03  0.25500000920E-02 0. -1.
    10030    2    1    2    0    0  0.00000000000E+00  0.00000000000E+00  0.12065277283E+03  0.15000657374E+04  0.14952057132E+04 0.  0.
        5    1    3    3  502    0  0.14920711782E+03 -0.49458012643E+03  0.60246760360E+03  0.79363818510E+03  0.46999998093E+01 0.  1.
       -5    1    3    3    0  502 -0.14920711782E+03  0.49458012643E+03 -0.48181483077E+03  0.70642755228E+03  0.46999998093E+01 0. -1.
</event>
<event>
 5   0  0.2111533E-03  0.1501048E+04  0.7818609E-02  0.8883757E-01
        2   -1    0    0  501    0  0.00000000000E+00  0.00000000000E+00  0.13868841417E+04  0.13868841417E+04  0.25500000920E-02 0.  1.
       -2   -1    0    0    0  501  0.00000000000E+00  0.00000000000E+00 -0.40615221385E+03  0.40615221386E+03  0.25500000920E-02 0. -1.
    10030    2    1    2    0    0  0.00000000000E+00  0.00000000000E+00  0.98073192789E+03  0.17930363556E+04  0.15010477201E+04 0.  0.
        5    1    3    3  502    0 -0.15046052911E+03  0.17823408507E+03 -0.36173879558E+03  0.43044489325E+03  0.46999998093E+01 0. -1.
       -5    1    3    3    0  502  0.15046052911E+03 -0.17823408507E+03  0.13424707235E+04  0.13625914624E+04  0.46999998093E+01 0.  1.
</event>
<event>
 5   0  0.1077140E-03  0.1511033E+04  0.7818609E-02  0.8877149E-01
       -1   -1    0    0    0  501  0.00000000000E+00  0.00000000000E+00  0.55288740473E+03  0.55288740476E+03  0.50400001928E-02 0.  1.
        1   -1    0    0  501    0  0.00000000000E+00  0.00000000000E+00 -0.10324076770E+04  0.10324076770E+04  0.50400001928E-02 0. -1.
    10030    2    1    2    0    0  0.00000000000E+00  0.00000000000E+00 -0.47952027224E+03  0.15852950817E+04  0.15110330257E+04 0.  0.
        1    1    3    3  502    0  0.47986979582E+03 -0.14346634434E+03  0.35367816969E+03  0.61314424130E+03  0.50400001928E-02 0.  1.
       -1    1    3    3    0  502 -0.47986979582E+03  0.14346634434E+03 -0.83319844193E+03  0.97215084044E+03  0.50400001928E-02 0. -1.
</event>
<event>
 5   0  0.1078018E-03  0.1527329E+04  0.7818609E-02  0.8866480E-01
       -1   -1    0    0    0  501  0.00000000000E+00  0.00000000000E+00  0.85336903510E+03  0.85336903512E+03  0.50400001928E-02 0.  1.
        1   -1    0    0  501    0  0.00000000000E+00  0.00000000000E+00 -0.68338928689E+03  0.68338928691E+03  0.50400001928E-02 0. -1.
    10030    2    1    2    0    0  0.00000000000E+00  0.00000000000E+00  0.16997974821E+03  0.15367583220E+04  0.15273287221E+04 0.  0.
        4    1    3    3  502    0 -0.36012055246E+03 -0.26293900960E+03 -0.53880379873E+03  0.69938178522E+03  0.12699999809E+01 0. -1.
       -4    1    3    3    0  502  0.36012055246E+03  0.26293900960E+03  0.70878354694E+03  0.83737653680E+03  0.12699999809E+01 0.  1.
</event>
<event>
 5   0  0.2150197E-03  0.1497063E+04  0.7818609E-02  0.8886408E-01
        2   -1    0    0  501    0  0.00000000000E+00  0.00000000000E+00  0.21286317750E+04  0.21286317750E+04  0.25500000920E-02 0.  1.
       -2   -1    0    0    0  501  0.00000000000E+00  0.00000000000E+00 -0.26322051860E+03  0.26322051861E+03  0.25500000920E-02 0. -1.
    10030    2    1    2    0    0  0.00000000000E+00  0.00000000000E+00  0.18654112564E+04  0.23918522936E+04  0.14970632047E+04 0.  0.
        3    1    3    3  502    0 -0.63446561644E+02  0.69213790586E+03  0.13766789526E+04  0.15421819917E+04  0.10100000352E+00 0.  1.
       -3    1    3    3    0  502  0.63446561644E+02 -0.69213790586E+03  0.48873230379E+03  0.84967030187E+03  0.10100000352E+00 0. -1.
</event>
<event>
 5   0  0.2094566E-03  0.1491392E+04  0.7818609E-02  0.8890197E-01
        2   -1    0    0  501    0  0.00000000000E+00  0.00000000000E+00  0.13123617001E+04  0.13123617001E+04  0.25500000920E-02 0. -1.
       -2   -1    0    0    0  501  0.00000000000E+00  0.00000000000E+00 -0.42371150475E+03  0.42371150476E+03  0.25500000920E-02 0.  1.
    10030    2    1    2    0    0  0.00000000000E+00  0.00000000000E+00  0.88865019536E+03  0.17360732049E+04  0.14913923035E+04 0.  0.
        1    1    3    3  502    0 -0.43139438515E+03 -0.49106477793E+03  0.26530558663E+02  0.65417857060E+03  0.50400001928E-02 0. -1.
       -1    1    3    3    0  502  0.43139438515E+03  0.49106477793E+03  0.86211963670E+03  0.10818946343E+04  0.50400001928E-02 0.  1.
</event>
<event>
 5   0  0.2111533E-03  0.1487247E+04  0.7818609E-02  0.8892978E-01
        2   -1    0    0  501    0  0.00000000000E+00  0.00000000000E+00  0.66731058300E+03  0.66731058301E+03  0.25500000920E-02 0. -1.
       -2   -1    0    0    0  501  0.00000000000E+00  0.00000000000E+00 -0.82866296460E+03  0.82866296460E+03  0.25500000920E-02 0.  1.
    10030    2    1    2    0    0  0.00000000000E+00  0.00000000000E+00 -0.16135238159E+03  0.14959735476E+04  0.14872465378E+04 0.  0.
        5    1    3    3  502    0 -0.40199173687E+03 -0.50259561371E+03 -0.45535863221E+03  0.78839918909E+03  0.46999998093E+01 0.  1.
       -5    1    3    3    0  502  0.40199173687E+03  0.50259561371E+03  0.29400625062E+03  0.70757435852E+03  0.46999998093E+01 0. -1.
</event>
<event>
 5   0  0.1069697E-03  0.1492258E+04  0.7818609E-02  0.8889618E-01
        1   -1    0    0  501    0  0.00000000000E+00  0.00000000000E+00  0.19611004352E+04  0.19611004352E+04  0.50400001928E-02 0. -1.
       -1   -1    0    0    0  501  0.00000000000E+00  0.00000000000E+00 -0.28387554196E+03  0.28387554201E+03  0.50400001928E-02 0.  1.
    10030    2    1    2    0    0  0.00000000000E+00  0.00000000000E+00  0.16772248932E+04  0.22449759772E+04  0.14922579522E+04 0.  0.
        2    1    3    3  502    0  0.27938074830E+02  0.40247282666E+03 -0.10563275381E+03  0.41704099427E+03  0.25500000920E-02 0.  1.
       -2    1    3    3    0  502 -0.27938074830E+02 -0.40247282666E+03  0.17828576471E+04  0.18279349829E+04  0.25500000920E-02 0. -1.
</event>
<event>
 5   0  0.2150197E-03  0.1512642E+04  0.7818609E-02  0.8876090E-01
        2   -1    0    0  501    0  0.00000000000E+00  0.00000000000E+00  0.13628163576E+04  0.13628163576E+04  0.25500000920E-02 0.  1.
       -2   -1    0    0    0  501  0.00000000000E+00  0.00000000000E+00 -0.41973470465E+03  0.41973470466E+03  0.25500000920E-02 0. -1.
    10030    2    1    2    0    0  0.00000000000E+00  0.00000000000E+00  0.94308165295E+03  0.17825510623E+04  0.15126418233E+04 0.  0.
        3    1    3    3  502    0  0.27230889689E+03 -0.46387304638E+03 -0.15501798983E+03  0.55978650024E+03  0.10100000352E+00 0. -1.
       -3    1    3    3    0  502 -0.27230889689E+03  0.46387304638E+03  0.10980996428E+04  0.12227645620E+04  0.10100000352E+00 0.  1.
</event>
<event>
 5   0  0.1993623E-03  0.1499848E+04  0.7818609E-02  0.8884554E-01
        2   -1    0    0  501    0  0.00000000000E+00  0.00000000000E+00  0.82469237759E+03  0.82469237759E+03  0.25500000920E-02 0.  1.
       -2   -1    0    0    0  501  0.00000000000E+00  0.00000000000E+00 -0.68193455142E+03  0.68193455143E+03  0.25500000920E-02 0. -1.
    10030    2    1    2    0    0  0.00000000000E+00  0.00000000000E+00  0.14275782616E+03  0.15066269290E+04  0.14998482944E+04 0.  0.
        4    1    3    3  502    0  0.15049710655E+03  0.40505485479E+03  0.68706483221E+03  0.81165171781E+03  0.12699999809E+01 0.  1.
       -4    1    3    3    0  502 -0.15049710655E+03 -0.40505485479E+03 -0.54430700605E+03  0.69497521121E+03  0.12699999809E+01 0. -1.
</event>
<event>
 5   0  0.7468375E-04  0.1494935E+04  0.7818609E-02  0.8887828E-01
       -3   -1    0    0    0  501  0.00000000000E+00  0.00000000000E+00  0.80575495094E+03  0.80575495727E+03  0.10100000352E+00 0. -1.
        3   -1    0    0  501    0  0.00000000000E+00  0.00000000000E+00 -0.69339610411E+03  0.69339611146E+03  0.10100000352E+00 0.  1.
    10030    2    1    2    0    0  0.00000000000E+00  0.00000000000E+00  0.11235884683E+03  0.14991510687E+04  0.14949345860E+04 0.  0.
        1    1    3    3  502    0  0.38059779618E+03  0.43632686198E+03 -0.41788167791E+03  0.71404545352E+03  0.50400001928E-02 0.  1.
       -1    1    3    3    0  502 -0.38059779618E+03 -0.43632686198E+03  0.53024052474E+03  0.78510561521E+03  0.50400001928E-02 0. -1.
</event>
<event>
 5   0  0.2150197E-03  0.1439783E+04  0.7818609E-02  0.8925514E-01
       -2   -1    0    0    0  501  0.00000000000E+00  0.00000000000E+00  0.51311538397E+03  0.51311538397E+03  0.25500000920E-02 0. -1.
        2   -1    0    0  501    0  0.00000000000E+00  0.00000000000E+00 -0.10099953095E+04  0.10099953095E+04  0.25500000920E-02 0.  1.
    10030    2    1    2    0    0  0.00000000000E+00  0.00000000000E+00 -0.49687992555E+03  0.15231106935E+04  0.14397834991E+04 0.  0.
        3    1    3    3  502    0 -0.21793833576E+03 -0.34773184856E+03  0.37725481435E+03  0.55743677834E+03  0.10100000352E+00 0. -1.
       -3    1    3    3    0  502  0.21793833576E+03  0.34773184856E+03 -0.87413473990E+03  0.96567391515E+03  0.10100000352E+00 0.  1.
</event>
<event>
 5   0  0.1993623E-03  0.1500978E+04  0.7818609E-02  0.8883803E-01
        2   -1    0    0  501    0  0.00000000000E+00  0.00000000000E+00  0.10111131235E+04  0.10111131235E+04  0.25500000920E-02 0.  1.
       -2   -1    0    0    0  501  0.00000000000E+00  0.00000000000E+00 -0.55704315323E+03  0.55704315323E+03  0.25500000920E-02 0. -1.
    10030    2    1    2    0    0  0.00000000000E+00  0.00000000000E+00  0.45406997024E+03  0.15681562767E+04  0.15009778713E+04 0.  0.
        4    1    3    3  502    0 -0.68655245168E+03  0.22842045392E+03  0.43520609680E+03  0.84435545375E+03  0.12699999809E+01 0. -1.
       -4    1    3    3    0  502  0.68655245168E+03 -0.22842045392E+03  0.18863873440E+02  0.72380082295E+03  0.12699999809E+01 0.  1.
</event>
<event>
 5   0  0.2094566E-03  0.1562808E+04  0.7818609E-02  0.8843728E-01
        2   -1    0    0  501    0  0.00000000000E+00  0.00000000000E+00  0.19038329096E+04  0.19038329096E+04  0.25500000920E-02 0.  1.
       -2   -1    0    0    0  501  0.00000000000E+00  0.00000000000E+00 -0.32071723951E+03  0.32071723952E+03  0.25500000920E-02 0. -1.
    10030    2    1    2    0    0  0.00000000000E+00  0.00000000000E+00  0.15831156701E+04  0.22245501491E+04  0.15628077748E+04 0.  0.
        1    1    3    3  502    0  0.74616578879E+03  0.22162162021E+03  0.88927316527E+03  0.11818148287E+04  0.50400001928E-02 0.  1.
       -1    1    3    3    0  502 -0.74616578879E+03 -0.22162162021E+03  0.69384250485E+03  0.10427353204E+04  0.50400001928E-02 0. -1.
</event>
<event>
 5   0  0.1078018E-03  0.1451026E+04  0.7818609E-02  0.8917690E-01
       -1   -1    0    0    0  501  0.00000000000E+00  0.00000000000E+00  0.97037957519E+03  0.97037957520E+03  0.50400001928E-02 0.  1.
        1   -1    0    0  501    0  0.00000000000E+00  0.00000000000E+00 -0.54243606853E+03  0.54243606855E+03  0.50400001928E-02 0. -1.
    10030    2    1    2    0    0  0.00000000000E+00  0.00000000000E+00  0.42794350666E+03  0.15128156438E+04  0.14510256811E+04 0.  0.
        4    1    3    3  502    0 -0.17518440879E+03  0.67822111673E+03  0.41094504987E+03  0.81212739590E+03  0.12699999809E+01 0. -1.
       -4    1    3    3    0  502  0.17518440879E+03 -0.67822111673E+03  0.16998456795E+02  0.70068824786E+03  0.12699999809E+01 0.  1.
</event>
<event>
 5   0  0.2150197E-03  0.1472180E+04  0.7818609E-02  0.8903167E-01
       -2   -1    0    0    0  501  0.00000000000E+00  0.00000000000E+00  0.28693519851E+03  0.28693519852E+03  0.25500000920E-02 0.  1.
        2   -1    0    0  501    0  0.00000000000E+00  0.00000000000E+00 -0.18883296776E+04  0.18883296776E+04  0.25500000920E-02 0. -1.
    10030    2    1    2    0    0  0.00000000000E+00  0.00000000000E+00 -0.16013944791E+04  0.21752648761E+04  0.14721796778E+04 0.  0.
        3    1    3    3  502    0 -0.73407567594E+03 -0.50198208998E+02 -0.83173637975E+03  0.11104829462E+04  0.10100000352E+00 0. -1.
       -3    1    3    3    0  502  0.73407567594E+03  0.50198208998E+02 -0.76965809930E+03  0.10647819299E+04  0.10100000352E+00 0.  1.
</event>
<event>
 5   0  0.2111533E-03  0.1489522E+04  0.7818609E-02  0.8891451E-01
       -2   -1    0    0    0  501  0.00000000000E+00  0.00000000000E+00  0.35322572180E+03  0.35322572181E+03  0.25500000920E-02 0.  1.
        2   -1    0    0  501    0  0.00000000000E+00  0.00000000000E+00 -0.15702956092E+04  0.15702956092E+04  0.25500000920E-02 0. -1.
    10030    2    1    2    0    0  0.00000000000E+00  0.00000000000E+00 -0.12170698874E+04  0.19235213310E+04  0.14895218025E+04 0.  0.
        5    1    3    3  502    0  0.69591053036E+03 -0.24966924445E+03 -0.72418642286E+03  0.10349368401E+04  0.46999998093E+01 0. -1.
       -5    1    3    3    0  502 -0.69591053036E+03  0.24966924445E+03 -0.49288346450E+03  0.88858449090E+03  0.46999998093E+01 0.  1.
</event>
<event>
 5   0  0.1087761E-03  0.1405217E+04  0.7818609E-02  0.8950051E-01
        1   -1    0    0  501    0  0.00000000000E+00  0.00000000000E+00  0.61773905576E+03  0.61773905578E+03  0.50400001928E-02 0.  1.
       -1   -1    0    0    0  501  0.00000000000E+00  0.00000000000E+00 -0.79913845945E+03  0.79913845947E+03  0.50400001928E-02 0. -1.
    10030    2    1    2    0    0  0.00000000000E+00  0.00000000000E+00 -0.18139940369E+03  0.14168775152E+04  0.14052174741E+04 0.  0.
        3    1    3    3  502    0  0.59379888408E+03  0.24547534840E+03 -0.37731843182E+03  0.74513386087E+03  0.10100000352E+00 0. -1.
       -3    1    3    3    0  502 -0.59379888408E+03 -0.24547534840E+03  0.19591902813E+03  0.67174365438E+03  0.10100000352E+00 0.  1.
</event>
<event>
 5   0  0.1078018E-03  0.1494439E+04  0.7818609E-02  0.8888159E-01
       -1   -1    0    0    0  501  0.00000000000E+00  0.00000000000E+00  0.34630934293E+03  0.34630934296E+03  0.50400001928E-02 0. -1.
        1   -1    0    0  501    0  0.00000000000E+00  0.00000000000E+00 -0.16122496707E+04  0.16122496707E+04  0.50400001928E-02 0.  1.
    10030    2    1    2    0    0  0.00000000000E+00  0.00000000000E+00 -0.12659403278E+04  0.19585590137E+04  0.14944391913E+04 0.  0.
        4    1    3    3  502    0  0.96583184155E+02  0.48469875740E+03  0.10150078716E+03  0.50454456649E+03  0.12699999809E+01 0. -1.
       -4    1    3    3    0  502 -0.96583184155E+02 -0.48469875740E+03 -0.13674411150E+04  0.14540144472E+04  0.12699999809E+01 0.  1.
</event>
<event>
 5   0  0.1993623E-03  0.1463266E+04  0.7818609E-02  0.8909255E-01
        2   -1    0    0  501    0  0.00000000000E+00  0.00000000000E+00  0.17589510163E+04  0.17589510163E+04  0.25500000920E-02 0.  1.
       -2   -1    0    0    0  501  0.00000000000E+00  0.00000000000E+00 -0.30432172909E+03  0.30432172910E+03  0.25500000920E-02 0. -1.
    10030    2    1    2    0    0  0.00000000000E+00  0.00000000000E+00  0.14546292872E+04  0.20632727454E+04  0.14632662296E+04 0.  0.
        4    1    3    3  502    0 -0.18354310717E+03 -0.67496586258E+03  0.10297963504E+04  0.12448892015E+04  0.12699999809E+01 0.  1.
       -4    1    3    3    0  502  0.18354310717E+03  0.67496586258E+03  0.42483293681E+03  0.81838354390E+03  0.12699999809E+01 0. -1.
</event>
<event>
 5   0  0.1087761E-03  0.1483091E+04  0.7818609E-02  0.8895776E-01
       -1   -1    0    0    0  501  0.00000000000E+00  0.00000000000E+00  0.54224228584E+03  0.54224228586E+03  0.50400001928E-02 0. -1.
        1   -1    0    0  501    0  0.00000000000E+00  0.00000000000E+00 -0.10141034724E+04  0.10141034724E+04  0.50400001928E-02 0.  1.
    10030    2    1    2    0    0  0.00000000000E+00  0.00000000000E+00 -0.47186118654E+03  0.15563457583E+04  0.14830910761E+04 0.  0.
        3    1    3    3  502    0 -0.34209186653E+03 -0.11862458205E+03  0.44317452906E+03  0.57227817539E+03  0.10100000352E+00 0. -1.
       -3    1    3    3    0  502  0.34209186653E+03  0.11862458205E+03 -0.91503571561E+03  0.98406758287E+03  0.10100000352E+00 0.  1.
</event>
<event>
 5   0  0.2111533E-03  0.1377715E+04  0.7818609E-02  0.8970109E-01
       -2   -1    0    0    0  501  0.00000000000E+00  0.00000000000E+00  0.61972409991E+03  0.61972409992E+03  0.25500000920E-02 0. -1.
        2   -1    0    0  501    0  0.00000000000E+00  0.00000000000E+00 -0.76570359713E+03  0.76570359713E+03  0.25500000920E-02 0.  1.
    10030    2    1    2    0    0  0.00000000000E+00  0.00000000000E+00 -0.14597949721E+03  0.13854276970E+04  0.13777154605E+04 0.  0.
        5    1    3    3  502    0 -0.33872815184E+03  0.46217038762E+03  0.31146525348E+03  0.65220466279E+03  0.46999998093E+01 0. -1.
       -5    1    3    3    0  502  0.33872815184E+03 -0.46217038762E+03 -0.45744475069E+03  0.73322303426E+03  0.46999998093E+01 0.  1.
</event>
<event>
 5   0  0.1961098E-03  0.1499270E+04  0.7818609E-02  0.8884939E-01
       -2   -1    0    0    0  501  0.00000000000E+00  0.00000000000E+00  0.63078957986E+03  0.63078957987E+03  0.25500000920E-02 0. -1.
        2   -1    0    0  501    0  0.00000000000E+00  0.00000000000E+00 -0.89087163030E+03  0.89087163030E+03  0.25500000920E-02 0.  1.
    10030    2    1    2    0    0  0.00000000000E+00  0.00000000000E+00 -0.26008205044E+03  0.15216612102E+04  0.14992698775E+04 0.  0.
        2    1    3    3  502    0  0.55641369069E+03 -0.28714711383E+03 -0.54838982389E+03  0.83233470378E+03  0.25500000920E-02 0.  1.
       -2    1    3    3    0  502 -0.55641369069E+03  0.28714711383E+03  0.28830777346E+03  0.68932650639E+03  0.25500000920E-02 0. -1.
</event>
<event>
 5   0  0.2111533E-03  0.1367243E+04  0.7818609E-02  0.8977877E-01
        2   -1    0    0  501    0  0.00000000000E+00  0.00000000000E+00  0.11266983832E+04  0.11266983832E+04  0.25500000920E-02 0.  1.
       -2   -1    0    0    0  501  0.00000000000E+00  0.00000000000E+00 -0.41478540302E+03  0.41478540303E+03  0.25500000920E-02 0. -1.
    10030    2    1    2    0    0  0.00000000000E+00  0.00000000000E+00  0.71191298018E+03  0.15414837862E+04  0.13672425432E+04 0.  0.
        5    1    3    3  502    0 -0.19588946054E+03  0.44703959114E+03 -0.18368443362E+03  0.52151619145E+03  0.46999998093E+01 0. -1.
       -5    1    3    3    0  502  0.19588946054E+03 -0.44703959114E+03  0.89559741380E+03  0.10199675948E+04  0.46999998093E+01 0.  1.
</event>
<event>
 5   0  0.1078787E-03  0.1412885E+04  0.7818609E-02  0.8944544E-01
       -1   -1    0    0    0  501  0.00000000000E+00  0.00000000000E+00  0.10221701986E+04  0.10221701986E+04  0.50400001928E-02 0. -1.
        1   -1    0    0  501    0  0.00000000000E+00  0.00000000000E+00 -0.48823704002E+03  0.48823704004E+03  0.50400001928E-02 0.  1.
    10030    2    1    2    0    0  0.00000000000E+00  0.00000000000E+00  0.53393315854E+03  0.15104072386E+04  0.14128854903E+04 0.  0.
        5    1    3    3  502    0  0.46150973214E+03  0.83933436873E+02 -0.29769948921E+03  0.55559259405E+03  0.46999998093E+01 0.  1.
       -5    1    3    3    0  502 -0.46150973214E+03 -0.83933436873E+02  0.83163264775E+03  0.95481464457E+03  0.46999998093E+01 0. -1.
</event>
<event>
 5   0  0.1078018E-03  0.1447457E+04  0.7818609E-02  0.8920165E-01
       -1   -1    0    0    0  501  0.00000000000E+00  0.00000000000E+00  0.38295653534E+03  0.38295653538E+03  0.50400001928E-02 0.  1.
        1   -1    0    0  501    0  0.00000000000E+00  0.00000000000E+00 -0.13677350373E+04  0.13677350373E+04  0.50400001928E-02 0. -1.
    10030    2    1    2    0    0  0.00000000000E+00  0.00000000000E+00 -0.98477850193E+03  0.17506915727E+04  0.14474571789E+04 0.  0.
        4    1    3    3  502    0 -0.35335188304E+03  0.20619531634E+03  0.22967737254E+03  0.46917733331E+03  0.12699999809E+01 0.  1.
       -4    1    3    3    0  502  0.35335188304E+03 -0.20619531634E+03 -0.12144558745E+04  0.12815142394E+04  0.12699999809E+01 0. -1.
</event>
<event>
 5   0  0.2150197E-03  0.1063379E+04  0.7818609E-02  0.9241639E-01
        2   -1    0    0  501    0  0.00000000000E+00  0.00000000000E+00  0.45346702020E+03  0.45346702021E+03  0.25500000920E-02 0.  1.
       -2   -1    0    0    0  501  0.00000000000E+00  0.00000000000E+00 -0.62340529105E+03  0.62340529106E+03  0.25500000920E-02 0. -1.
    10030    2    1    2    0    0  0.00000000000E+00  0.00000000000E+00 -0.16993827085E+03  0.10768723113E+04  0.10633790288E+04 0.  0.
        3    1    3    3  502    0 -0.33776653060E+03  0.52720139869E+02 -0.49735632401E+03  0.60351384870E+03  0.10100000352E+00 0. -1.
       -3    1    3    3    0  502  0.33776653060E+03 -0.52720139869E+02  0.32741805316E+03  0.47335846256E+03  0.10100000352E+00 0.  1.
</event>
<event>
 5   0  0.1069697E-03  0.1500897E+04  0.7818609E-02  0.8883857E-01
        1   -1    0    0  501    0  0.00000000000E+00  0.00000000000E+00  0.12425707692E+04  0.12425707693E+04  0.50400001928E-02 0.  1.
       -1   -1    0    0    0  501  0.00000000000E+00  0.00000000000E+00 -0.45323188526E+03  0.45323188529E+03  0.50400001928E-02 0. -1.
    10030    2    1    2    0    0  0.00000000000E+00  0.00000000000E+00  0.78933888399E+03  0.16958026545E+04  0.15008966551E+04 0.  0.
        2    1    3    3  502    0  0.52644114916E+03 -0.91464780063E+02 -0.20069973158E+03  0.57077707713E+03  0.25500000920E-02 0. -1.
       -2    1    3    3    0  502 -0.52644114916E+03  0.91464780063E+02  0.99003861557E+03  0.11250255774E+04  0.25500000920E-02 0.  1.
</event>
<event>
 5   0  0.1993623E-03  0.1529755E+04  0.7818609E-02  0.8864904E-01
       -2   -1    0    0    0  501  0.00000000000E+00  0.00000000000E+00  0.76169560737E+03  0.76169560737E+03  0.25500000920E-02 0.  1.
        2   -1    0    0  501    0  0.00000000000E+00  0.00000000000E+00 -0.76807300855E+03  0.76807300856E+03  0.25500000920E-02 0. -1.
    10030    2    1    2    0    0  0.00000000000E+00  0.00000000000E+00 -0.63774011834E+01  0.15297686159E+04  0.15297553226E+04 0.  0.
        4    1    3    3  502    0 -0.19642197667E+03 -0.61937820870E+03  0.40033093387E+03  0.76320208847E+03  0.12699999809E+01 0.  1.
       -4    1    3    3    0  502  0.19642197667E+03  0.61937820870E+03 -0.40670833505E+03  0.76656652746E+03  0.12699999809E+01 0. -1.
</event>
<event>
 5   0  0.1078018E-03  0.1501584E+04  0.7818609E-02  0.8883400E-01
        1   -1    0    0  501    0  0.00000000000E+00  0.00000000000E+00  0.60676092483E+03  0.60676092485E+03  0.50400001928E-02 0.  1.
       -1   -1    0    0    0  501  0.00000000000E+00  0.00000000000E+00 -0.92901301709E+03  0.92901301710E+03  0.50400001928E-02 0. -1.
    10030    2    1    2    0    0  0.00000000000E+00  0.00000000000E+00 -0.32225209226E+03  0.15357739420E+04  0.15015842267E+04 0.  0.
        4    1    3    3  502    0 -0.53210618218E+03  0.32625737136E+03 -0.58788718830E+03  0.85743444096E+03  0.12699999809E+01 0. -1.
       -4    1    3    3    0  502  0.53210618218E+03 -0.32625737136E+03  0.26563509604E+03  0.67833950100E+03  0.12699999809E+01 0.  1.
</event>
<event>
 5   0  0.1077140E-03  0.1410635E+04  0.7818609E-02  0.8946157E-01
       -1   -1    0    0    0  501  0.00000000000E+00  0.00000000000E+00  0.30042230280E+03  0.30042230284E+03  0.50400001928E-02 0. -1.
        1   -1    0    0  501    0  0.00000000000E+00  0.00000000000E+00 -0.16559104371E+04  0.16559104371E+04  0.50400001928E-02 0.  1.
    10030    2    1    2    0    0  0.00000000000E+00  0.00000000000E+00 -0.13554881343E+04  0.19563327400E+04  0.14106345052E+04 0.  0.
        1    1    3    3  502    0 -0.79742944679E+02 -0.47048627315E+03  0.42556742062E+02  0.47909012385E+03  0.50400001928E-02 0. -1.
       -1    1    3    3    0  502  0.79742944679E+02  0.47048627315E+03 -0.13980448764E+04  0.14772426161E+04  0.50400001928E-02 0.  1.
</event>
<event>
 5   0  0.1078787E-03  0.7781987E+03  0.7818609E-02  0.9592121E-01
       -1   -1    0    0    0  501  0.00000000000E+00  0.00000000000E+00  0.30613888522E+03  0.30613888526E+03  0.50400001928E-02 0. -1.
        1   -1    0    0  501    0  0.00000000000E+00  0.00000000000E+00 -0.49454124853E+03  0.49454124856E+03  0.50400001928E-02 0.  1.
    10030    2    1    2    0    0  0.00000000000E+00  0.00000000000E+00 -0.18840236331E+03  0.80068013382E+03  0.77819870612E+03 0.  0.
        5    1    3    3  502    0  0.14493783593E+03  0.35611380221E+03 -0.15552331602E+03  0.41476934341E+03  0.46999998093E+01 0.  1.
       -5    1    3    3    0  502 -0.14493783593E+03 -0.35611380221E+03 -0.32879047295E+02  0.38591079041E+03  0.46999998093E+01 0. -1.
</event>
<event>
 5   0  0.1087761E-03  0.8436349E+03  0.7818609E-02  0.9498920E-01
        1   -1    0    0  501    0  0.00000000000E+00  0.00000000000E+00  0.83000331469E+03  0.83000331470E+03  0.50400001928E-02 0. -1.
       -1   -1    0    0    0  501  0.00000000000E+00  0.00000000000E+00 -0.21437258140E+03  0.21437258146E+03  0.50400001928E-02 0.  1.
    10030    2    1    2    0    0  0.00000000000E+00  0.00000000000E+00  0.61563073329E+03  0.10443758962E+04  0.84363488117E+03 0.  0.
        3    1    3    3  502    0 -0.64227108962E+02 -0.17330222308E+03  0.77721008847E+03  0.79888316659E+03  0.10100000352E+00 0. -1.
       -3    1    3    3    0  502  0.64227108962E+02  0.17330222308E+03 -0.16157935518E+03  0.24549272957E+03  0.10100000352E+00 0.  1.
</event>
<event>
 5   0  0.1961098E-03  0.1502412E+04  0.7818609E-02  0.8882851E-01
       -2   -1    0    0    0  501  0.00000000000E+00  0.00000000000E+00  0.33112160544E+03  0.33112160545E+03  0.25500000920E-02 0. -1.
        2   -1    0    0  501    0  0.00000000000E+00  0.00000000000E+00 -0.17042387357E+04  0.17042387357E+04  0.25500000920E-02 0.  1.
    10030    2    1    2    0    0  0.00000000000E+00  0.00000000000E+00 -0.13731171303E+04  0.20353603412E+04  0.15024117495E+04 0.  0.
        2    1    3    3  502    0 -0.67341154615E+03 -0.25478530477E+03 -0.39628093373E+03  0.82184988925E+03  0.25500000920E-02 0. -1.
       -2    1    3    3    0  502  0.67341154615E+03  0.25478530477E+03 -0.97683619658E+03  0.12135104519E+04  0.25500000920E-02 0.  1.
</event>
<event>
 5   0  0.1078018E-03  0.1474847E+04  0.7818609E-02  0.8901354E-01
        1   -1    0    0  501    0  0.00000000000E+00  0.00000000000E+00  0.48253466676E+03  0.48253466679E+03  0.50400001928E-02 0. -1.
       -1   -1    0    0    0  501  0.00000000000E+00  0.00000000000E+00 -0.11269517544E+04  0.11269517544E+04  0.50400001928E-02 0.  1.
    10030    2    1    2    0    0  0.00000000000E+00  0.00000000000E+00 -0.64441708759E+03  0.16094864212E+04  0.14748468250E+04 0.  0.
        4    1    3    3  502    0 -0.48968682161E+03  0.29509792384E+03 -0.83046850762E+03  0.10082437815E+04  0.12699999809E+01 0.  1.
       -4    1    3    3    0  502  0.48968682161E+03 -0.29509792384E+03  0.18605142003E+03  0.60124263963E+03  0.12699999809E+01 0. -1.
</event>
<event>
 5   0  0.2111533E-03  0.1522536E+04  0.7818609E-02  0.8869603E-01
        2   -1    0    0  501    0  0.00000000000E+00  0.00000000000E+00  0.15097281752E+04  0.15097281752E+04  0.25500000920E-02 0. -1.
       -2   -1    0    0    0  501  0.00000000000E+00  0.00000000000E+00 -0.38386328030E+03  0.38386328031E+03  0.25500000920E-02 0.  1.
    10030    2    1    2    0    0  0.00000000000E+00  0.00000000000E+00  0.11258648949E+04  0.18935914555E+04  0.15225363177E+04 0.  0.
        5    1    3    3  502    0 -0.68649084263E+03  0.27718380706E+03  0.78334125573E+03  0.10778432877E+04  0.46999998093E+01 0.  1.
       -5    1    3    3    0  502  0.68649084263E+03 -0.27718380706E+03  0.34252363919E+03  0.81574816782E+03  0.46999998093E+01 0. -1.
</event>
<event>
 5   0  0.1993623E-03  0.1456021E+04  0.7818609E-02  0.8914237E-01
        2   -1    0    0  501    0  0.00000000000E+00  0.00000000000E+00  0.12619488996E+04  0.12619488996E+04  0.25500000920E-02 0.  1.
       -2   -1    0    0    0  501  0.00000000000E+00  0.00000000000E+00 -0.41998498201E+03  0.41998498202E+03  0.25500000920E-02 0. -1.
    10030    2    1    2    0    0  0.00000000000E+00  0.00000000000E+00  0.84196391755E+03  0.16819338816E+04  0.14560214090E+04 0.  0.
        4    1    3    3  502    0  0.61963832478E+03  0.15446633611E+03  0.82476931738E+03  0.10430999676E+04  0.12699999809E+01 0.  1.
       -4    1    3    3    0  502 -0.61963832478E+03 -0.15446633611E+03  0.17194600164E+02  0.63883391402E+03  0.12699999809E+01 0. -1.
</event>
<event>
 5   0  0.1077140E-03  0.1505390E+04  0.7818609E-02  0.8880877E-01
       -1   -1    0    0    0  501  0.00000000000E+00  0.00000000000E+00  0.75259378184E+03  0.75259378186E+03  0.50400001928E-02 0. -1.
        1   -1    0    0  501    0  0.00000000000E+00  0.00000000000E+00 -0.75279594656E+03  0.75279594657E+03  0.50400001928E-02 0.  1.
    10030    2    1    2    0    0  0.00000000000E+00  0.00000000000E+00 -0.20216471478E+00  0.15053897284E+04  0.15053897149E+04 0.  0.
        1    1    3    3  502    0 -0.38817710782E+02 -0.34978158054E+03 -0.66545481354E+03  0.75278421719E+03  0.50400001928E-02 0.  1.
       -1    1    3    3    0  502  0.38817710782E+02  0.34978158054E+03  0.66525264883E+03  0.75260551124E+03  0.50400001928E-02 0. -1.
</event>
<event>
 5   0  0.2111533E-03  0.1499170E+04  0.7818609E-02  0.8885005E-01
       -2   -1    0    0    0  501  0.00000000000E+00  0.00000000000E+00  0.37768836340E+03  0.37768836341E+03  0.25500000920E-02 0.  1.
        2   -1    0    0  501    0  0.00000000000E+00  0.00000000000E+00 -0.14876763106E+04  0.14876763106E+04  0.25500000920E-02 0. -1.
    10030    2    1    2    0    0  0.00000000000E+00  0.00000000000E+00 -0.11099879472E+04  0.18653646740E+04  0.14991704787E+04 0.  0.
        5    1    3    3  502    0  0.53151210651E+03 -0.13093150638E+03  0.82146946611E+02  0.55355071092E+03  0.46999998093E+01 0.  1.
       -5    1    3    3    0  502 -0.53151210651E+03  0.13093150638E+03 -0.11921348938E+04  0.13118139631E+04  0.46999998093E+01 0. -1.
</event>
<event>
 5   0  0.2094566E-03  0.1550409E+04  0.7818609E-02  0.8851607E-01
        2   -1    0    0  501    0  0.00000000000E+00  0.00000000000E+00  0.13240925314E+04  0.13240925314E+04  0.25500000920E-02 0.  1.
       -2   -1    0    0    0  501  0.00000000000E+00  0.00000000000E+00 -0.45385171475E+03  0.45385171476E+03  0.25500000920E-02 0. -1.
    10030    2    1    2    0    0  0.00000000000E+00  0.00000000000E+00  0.87024081668E+03  0.17779442462E+04  0.15504085473E+04 0.  0.
        1    1    3    3  502    0  0.74172871481E+03  0.22526789607E+03  0.44186140645E+03  0.89227160322E+03  0.50400001928E-02 0. -1.
       -1    1    3    3    0  502 -0.74172871481E+03 -0.22526789607E+03  0.42837941024E+03  0.88567264298E+03  0.50400001928E-02 0.  1.
</event>
<event>
 5   0  0.2150197E-03  0.1526343E+04  0.7818609E-02  0.8867122E-01
       -2   -1    0    0    0  501  0.00000000000E+00  0.00000000000E+00  0.51639821875E+03  0.51639821875E+03  0.25500000920E-02 0.  1.
        2   -1    0    0  501    0  0.00000000000E+00  0.00000000000E+00 -0.11278715975E+04  0.11278715975E+04  0.25500000920E-02 0. -1.
    10030    2    1    2    0    0  0.00000000000E+00  0.00000000000E+00 -0.61147337874E+03  0.16442698162E+04  0.15263431907E+04 0.  0.
        3    1    3    3  502    0  0.60345399457E+03 -0.10073264316E+03  0.18571993300E+03  0.63937132613E+03  0.10100000352E+00 0.  1.
       -3    1    3    3    0  502 -0.60345399457E+03  0.10073264316E+03 -0.79719331175E+03  0.10048984901E+04  0.10100000352E+00 0. -1.
</event>
<event>
 5   0  0.1077140E-03  0.1559523E+04  0.7818609E-02  0.8845808E-01
        1   -1    0    0  501    0  0.00000000000E+00  0.00000000000E+00  0.80905928971E+03  0.80905928972E+03  0.50400001928E-02 0.  1.
       -1   -1    0    0    0  501  0.00000000000E+00  0.00000000000E+00 -0.75152450975E+03  0.75152450977E+03  0.50400001928E-02 0. -1.
    10030    2    1    2    0    0  0.00000000000E+00  0.00000000000E+00  0.57534779955E+02  0.15605837995E+04  0.15595228579E+04 0.  0.
        1    1    3    3  502    0 -0.75239241346E+03 -0.13725295912E+03 -0.12330693841E+03  0.77468530366E+03  0.50400001928E-02 0.  1.
       -1    1    3    3    0  502  0.75239241346E+03  0.13725295912E+03  0.18084171836E+03  0.78589849583E+03  0.50400001928E-02 0. -1.
</event>
<event>
 5   0  0.1069697E-03  0.1520402E+04  0.7818609E-02  0.8870998E-01
        1   -1    0    0  501    0  0.00000000000E+00  0.00000000000E+00  0.81960041355E+03  0.81960041356E+03  0.50400001928E-02 0.  1.
       -1   -1    0    0    0  501  0.00000000000E+00  0.00000000000E+00 -0.70510670805E+03  0.70510670807E+03  0.50400001928E-02 0. -1.
    10030    2    1    2    0    0  0.00000000000E+00  0.00000000000E+00  0.11449370550E+03  0.15247071216E+04  0.15204022488E+04 0.  0.
        2    1    3    3  502    0  0.22556954671E+03 -0.70663127392E+03 -0.10964662562E+03  0.74982115214E+03  0.25500000920E-02 0. -1.
       -2    1    3    3    0  502 -0.22556954671E+03  0.70663127392E+03  0.22414033111E+03  0.77488596949E+03  0.25500000920E-02 0.  1.
</event>
<event>
 5   0  0.2094566E-03  0.1554181E+04  0.7818609E-02  0.8849202E-01
        2   -1    0    0  501    0  0.00000000000E+00  0.00000000000E+00  0.24613738547E+03  0.24613738548E+03  0.25500000920E-02 0. -1.
       -2   -1    0    0    0  501  0.00000000000E+00  0.00000000000E+00 -0.24533831706E+04  0.24533831706E+04  0.25500000920E-02 0.  1.
    10030    2    1    2    0    0  0.00000000000E+00  0.00000000000E+00 -0.22072457852E+04  0.26995205561E+04  0.15541805805E+04 0.  0.
        1    1    3    3  502    0  0.46144470120E+03  0.39917025046E+03 -0.26772047695E+03  0.66628999311E+03  0.50400001928E-02 0. -1.
       -1    1    3    3    0  502 -0.46144470120E+03 -0.39917025046E+03 -0.19395253082E+04  0.20332305630E+04  0.50400001928E-02 0.  1.
</event>
<event>
 5   0  0.2150197E-03  0.1536821E+04  0.7818609E-02  0.8860330E-01
        2   -1    0    0  501    0  0.00000000000E+00  0.00000000000E+00  0.65722424650E+03  0.65722424650E+03  0.25500000920E-02 0.  1.
       -2   -1    0    0    0  501  0.00000000000E+00  0.00000000000E+00 -0.89840626573E+03  0.89840626573E+03  0.25500000920E-02 0. -1.
    10030    2    1    2    0    0  0.00000000000E+00  0.00000000000E+00 -0.24118201923E+03  0.15556305122E+04  0.15368205895E+04 0.  0.
        3    1    3    3  502    0  0.62327268972E+03  0.44795800571E+03 -0.15735565741E+03  0.78351517774E+03  0.10100000352E+00 0. -1.
       -3    1    3    3    0  502 -0.62327268972E+03 -0.44795800571E+03 -0.83826361817E+02  0.77211533450E+03  0.10100000352E+00 0.  1.
</event>
<event>
 5   0  0.1078787E-03  0.1460423E+04  0.7818609E-02  0.8911207E-01
       -1   -1    0    0    0  501  0.00000000000E+00  0.00000000000E+00  0.54067753204E+03  0.54067753207E+03  0.50400001928E-02 0. -1.
        1   -1    0    0  501    0  0.00000000000E+00  0.00000000000E+00 -0.98618579952E+03  0.98618579953E+03  0.50400001928E-02 0.  1.
    10030    2    1    2    0    0  0.00000000000E+00  0.00000000000E+00 -0.44550826747E+03  0.15268633316E+04  0.14604225474E+04 0.  0.
        5    1    3    3  502    0 -0.53972670094E+02  0.22901522409E+03  0.49994286064E+03  0.55256309675E+03  0.46999998093E+01 0. -1.
       -5    1    3    3    0  502  0.53972670094E+02 -0.22901522409E+03 -0.94545112811E+03  0.97430023485E+03  0.46999998093E+01 0.  1.
</event>
<event>
 5   0  0.2150197E-03  0.1560682E+04  0.7818609E-02  0.8845074E-01
        2   -1    0    0  501    0  0.00000000000E+00  0.00000000000E+00  0.17790990862E+04  0.17790990862E+04  0.25500000920E-02 0. -1.
       -2   -1    0    0    0  501  0.00000000000E+00  0.00000000000E+00 -0.34226982448E+03  0.34226982449E+03  0.25500000920E-02 0.  1.
    10030    2    1    2    0    0  0.00000000000E+00  0.00000000000E+00  0.14368292618E+04  0.21213689107E+04  0.15606818151E+04 0.  0.
        3    1    3    3  502    0  0.60851010201E+03 -0.39433593277E+03  0.11103585635E+04  0.13261529029E+04  0.10100000352E+00 0. -1.
       -3    1    3    3    0  502 -0.60851010201E+03  0.39433593277E+03  0.32647069828E+03  0.79521600786E+03  0.10100000352E+00 0.  1.
</event>
<event>
 5   0  0.1078018E-03  0.1482443E+04  0.7818609E-02  0.8896213E-01
        1   -1    0    0  501    0  0.00000000000E+00  0.00000000000E+00  0.76841443313E+03  0.76841443314E+03  0.50400001928E-02 0.  1.
       -1   -1    0    0    0  501  0.00000000000E+00  0.00000000000E+00 -0.71499062368E+03  0.71499062369E+03  0.50400001928E-02 0. -1.
    10030    2    1    2    0    0  0.00000000000E+00  0.00000000000E+00  0.53423809449E+02  0.14834050568E+04  0.14824427339E+04 0.  0.
        4    1    3    3  502    0 -0.58992586908E+03 -0.36539939661E+03 -0.23399177066E+03  0.73231346546E+03  0.12699999809E+01 0.  1.
       -4    1    3    3    0  502  0.58992586908E+03  0.36539939661E+03  0.28741558010E+03  0.75109159138E+03  0.12699999809E+01 0. -1.
</event>
<event>
 5   0  0.1078018E-03  0.1503370E+04  0.7818609E-02  0.8882215E-01
        1   -1    0    0  501    0  0.00000000000E+00  0.00000000000E+00  0.19737584701E+04  0.19737584701E+04  0.50400001928E-02 0.  1.
       -1   -1    0    0    0  501  0.00000000000E+00  0.00000000000E+00 -0.28627123092E+03  0.28627123097E+03  0.50400001928E-02 0. -1.
    10030    2    1    2    0    0  0.00000000000E+00  0.00000000000E+00  0.16874872392E+04  0.22600297011E+04  0.15033699037E+04 0.  0.
        4    1    3    3  502    0  0.43238749004E+03  0.34570302162E+03  0.79330316481E+02  0.55925346017E+03  0.12699999809E+01 0. -1.
       -4    1    3    3    0  502 -0.43238749004E+03 -0.34570302162E+03  0.16081569227E+04  0.17007762409E+04  0.12699999809E+01 0.  1.
</event>
<event>
 5   0  0.2150197E-03  0.1517629E+04  0.7818609E-02  0.8872814E-01
       -2   -1    0    0    0  501  0.00000000000E+00  0.00000000000E+00  0.43750047327E+03  0.43750047328E+03  0.25500000920E-02 0.  1.
        2   -1    0    0  501    0  0.00000000000E+00  0.00000000000E+00 -0.13161115917E+04  0.13161115917E+04  0.25500000920E-02 0. -1.
    10030    2    1    2    0    0  0.00000000000E+00  0.00000000000E+00 -0.87861111841E+03  0.17536120650E+04  0.15176289985E+04 0.  0.
        3    1    3    3  502    0  0.73663988641E+03 -0.60683460882E+02 -0.24091474863E+03  0.77740641301E+03  0.10100000352E+00 0. -1.
       -3    1    3    3    0  502 -0.73663988641E+03  0.60683460882E+02 -0.63769636978E+03  0.97620565196E+03  0.10100000352E+00 0.  1.
</event>
<event>
 5   0  0.1078787E-03  0.1457399E+04  0.7818609E-02  0.8913287E-01
       -1   -1    0    0    0  501  0.00000000000E+00  0.00000000000E+00  0.44292460222E+03  0.44292460225E+03  0.50400001928E-02 0. -1.
        1   -1    0    0  501    0  0.00000000000E+00  0.00000000000E+00 -0.11988568780E+04  0.11988568780E+04  0.50400001928E-02 0.  1.
    10030    2    1    2    0    0  0.00000000000E+00  0.00000000000E+00 -0.75593227579E+03  0.16417814803E+04  0.14573993356E+04 0.  0.
        5    1    3    3  502    0  0.33526254097E+03 -0.76820792974E+02 -0.11016398843E+04  0.11540948532E+04  0.46999998093E+01 0.  1.
       -5    1    3    3    0  502 -0.33526254097E+03  0.76820792974E+02  0.34570760850E+03  0.48768662703E+03  0.46999998093E+01 0. -1.
</event>
<event>
 5   0  0.1077140E-03  0.1460716E+04  0.7818609E-02  0.8911005E-01
        1   -1    0    0  501    0  0.00000000000E+00  0.00000000000E+00  0.70185657771E+03  0.70185657773E+03  0.50400001928E-02 0. -1.
       -1   -1    0    0    0  501  0.00000000000E+00  0.00000000000E+00 -0.76001716455E+03  0.76001716457E+03  0.50400001928E-02 0.  1.
    10030    2    1    2    0    0  0.00000000000E+00  0.00000000000E+00 -0.58160586836E+02  0.14618737423E+04  0.14607163258E+04 0.  0.
        1    1    3    3  502    0  0.44030661709E+03  0.74858931953E+02 -0.60742162570E+03  0.75394615732E+03  0.50400001928E-02 0.  1.
       -1    1    3    3    0  502 -0.44030661709E+03 -0.74858931953E+02  0.54926103886E+03  0.70792758498E+03  0.50400001928E-02 0. -1.
</event>
<event>
 5   0  0.1078018E-03  0.1805791E+04  0.7818609E-02  0.8703226E-01
        1   -1    0    0  501    0  0.00000000000E+00  0.00000000000E+00  0.18494076786E+04  0.18494076786E+04  0.50400001928E-02 0. -1.
       -1   -1    0    0    0  501  0.00000000000E+00  0.00000000000E+00 -0.44080056502E+03  0.44080056505E+03  0.50400001928E-02 0.  1.
    10030    2    1    2    0    0  0.00000000000E+00  0.00000000000E+00  0.14086071135E+04  0.22902082436E+04  0.18057906298E+04 0.  0.
        4    1    3    3  502    0  0.64467749430E+03  0.56023638609E+03  0.33293031795E+03  0.91668865460E+03  0.12699999809E+01 0.  1.
       -4    1    3    3    0  502 -0.64467749430E+03 -0.56023638609E+03  0.10756767956E+04  0.13735195890E+04  0.12699999809E+01 0. -1.
</event>
<event>
 5   0  0.1961098E-03  0.1483983E+04  0.7818609E-02  0.8895174E-01
        2   -1    0    0  501    0  0.00000000000E+00  0.00000000000E+00  0.14037760699E+04  0.14037760700E+04  0.25500000920E-02 0.  1.
       -2   -1    0    0    0  501  0.00000000000E+00  0.00000000000E+00 -0.39219336897E+03  0.39219336898E+03  0.25500000920E-02 0. -1.
    10030    2    1    2    0    0  0.00000000000E+00  0.00000000000E+00  0.10115827010E+04  0.17959694389E+04  0.14839833775E+04 0.  0.
        2    1    3    3  502    0 -0.88206756476E+02  0.35843530720E+03 -0.27318620230E+03  0.45922434873E+03  0.25500000920E-02 0. -1.
       -2    1    3    3    0  502  0.88206756476E+02 -0.35843530720E+03  0.12847689033E+04  0.13367450902E+04  0.25500000920E-02 0.  1.
</event>
<event>
 5   0  0.1961098E-03  0.1438820E+04  0.7818609E-02  0.8926188E-01
       -2   -1    0    0    0  501  0.00000000000E+00  0.00000000000E+00  0.56111515076E+03  0.56111515077E+03  0.25500000920E-02 0. -1.
        2   -1    0    0  501    0  0.00000000000E+00  0.00000000000E+00 -0.92236140538E+03  0.92236140538E+03  0.25500000920E-02 0.  1.
    10030    2    1    2    0    0  0.00000000000E+00  0.00000000000E+00 -0.36124625462E+03  0.14834765562E+04  0.14388202932E+04 0.  0.
        2    1    3    3  502    0  0.47207541718E+03  0.54388426163E+02  0.37626810381E+03  0.60612786304E+03  0.25500000920E-02 0. -1.
       -2    1    3    3    0  502 -0.47207541718E+03 -0.54388426163E+02 -0.73751435843E+03  0.87734869311E+03  0.25500000920E-02 0.  1.
</event>
<event>
 5   0  0.1961098E-03  0.1492576E+04  0.7818609E-02  0.8889405E-01
        2   -1    0    0  501    0  0.00000000000E+00  0.00000000000E+00  0.10033641563E+04  0.10033641563E+04  0.25500000920E-02 0. -1.
       -2   -1    0    0    0  501  0.00000000000E+00  0.00000000000E+00 -0.55507807919E+03  0.55507807920E+03  0.25500000920E-02 0.  1.
    10030    2    1    2    0    0  0.00000000000E+00  0.00000000000E+00  0.44828607714E+03  0.15584422355E+04  0.14925755574E+04 0.  0.
        2    1    3    3  502    0 -0.19562985957E+03 -0.71422726536E+03  0.32071130603E+03  0.80699899031E+03  0.25500000920E-02 0. -1.
       -2    1    3    3    0  502  0.19562985957E+03  0.71422726536E+03  0.12757477111E+03  0.75144324521E+03  0.25500000920E-02 0.  1.
</event>
<event>
 5   0  0.1069697E-03  0.1473435E+04  0.7818609E-02  0.8902313E-01
        1   -1    0    0  501    0  0.00000000000E+00  0.00000000000E+00  0.12175015279E+04  0.12175015279E+04  0.50400001928E-02 0.  1.
       -1   -1    0    0    0  501  0.00000000000E+00  0.00000000000E+00 -0.44579238213E+03  0.44579238216E+03  0.50400001928E-02 0. -1.
    10030    2    1    2    0    0  0.00000000000E+00  0.00000000000E+00  0.77170914575E+03  0.16632939101E+04  0.14734353144E+04 0.  0.
        2    1    3    3  502    0 -0.64275620739E+03 -0.10459520055E+01  0.79226765866E+03  0.10202081548E+04  0.25500000920E-02 0.  1.
       -2    1    3    3    0  502  0.64275620739E+03  0.10459520055E+01 -0.20558512910E+02  0.64308575525E+03  0.25500000920E-02 0. -1.
</event>
<event>
 5   0  0.1078018E-03  0.1434674E+04  0.7818609E-02  0.8929095E-01
       -1   -1    0    0    0  501  0.00000000000E+00  0.00000000000E+00  0.72952675648E+03  0.72952675650E+03  0.50400001928E-02 0. -1.
        1   -1    0    0  501    0  0.00000000000E+00  0.00000000000E+00 -0.70535109926E+03  0.70535109927E+03  0.50400001928E-02 0.  1.
    10030    2    1    2    0    0  0.00000000000E+00  0.00000000000E+00  0.24175657224E+02  0.14348778558E+04  0.14346741785E+04 0.  0.
        4    1    3    3  502    0  0.17759390518E+03  0.16372239607E+03 -0.66345330003E+03  0.70605701778E+03  0.12699999809E+01 0.  1.
       -4    1    3    3    0  502 -0.17759390518E+03 -0.16372239607E+03  0.68762895726E+03  0.72882083799E+03  0.12699999809E+01 0. -1.
</event>
<event>
 5   0  0.1087761E-03  0.1514612E+04  0.7818609E-02  0.8874794E-01
       -1   -1    0    0    0  501  0.00000000000E+00  0.00000000000E+00  0.52342329932E+03  0.52342329934E+03  0.50400001928E-02 0.  1.
        1   -1    0    0  501    0  0.00000000000E+00  0.00000000000E+00 -0.10956958287E+04  0.10956958287E+04  0.50400001928E-02 0. -1.
    10030    2    1    2    0    0  0.00000000000E+00  0.00000000000E+00 -0.57227252939E+03  0.16191191281E+04  0.15146124597E+04 0.  0.
        3    1    3    3  502    0  0.42736781833E+03  0.31417210830E+03  0.29168248801E+03  0.60533135537E+03  0.10100000352E+00 0.  1.
       -3    1    3    3    0  502 -0.42736781833E+03 -0.31417210830E+03 -0.86395501740E+03  0.10137877727E+04  0.10100000352E+00 0. -1.
</event>
<event>
 5   0  0.2111533E-03  0.1490933E+04  0.7818609E-02  0.8890505E-01
        2   -1    0    0  501    0  0.00000000000E+00  0.00000000000E+00  0.13832446782E+04  0.13832446782E+04  0.25500000920E-02 0. -1.
       -2   -1    0    0    0  501  0.00000000000E+00  0.00000000000E+00 -0.40175118606E+03  0.40175118606E+03  0.25500000920E-02 0.  1.
    10030    2    1    2    0    0  0.00000000000E+00  0.00000000000E+00  0.98149349218E+03  0.17849958643E+04  0.14909328491E+04 0.  0.
        5    1    3    3  502    0 -0.45451729061E+03  0.53681813115E+03  0.78629251719E+03  0.10550060123E+04  0.46999998093E+01 0. -1.
       -5    1    3    3    0  502  0.45451729061E+03 -0.53681813115E+03  0.19520097499E+03  0.72998985201E+03  0.46999998093E+01 0.  1.
</event>
<event>
 5   0  0.1078018E-03  0.1508757E+04  0.7818609E-02  0.8878650E-01
       -1   -1    0    0    0  501  0.00000000000E+00  0.00000000000E+00  0.60885026411E+03  0.60885026413E+03  0.50400001928E-02 0.  1.
        1   -1    0    0  501    0  0.00000000000E+00  0.00000000000E+00 -0.93469129981E+03  0.93469129982E+03  0.50400001928E-02 0. -1.
    10030    2    1    2    0    0  0.00000000000E+00  0.00000000000E+00 -0.32584103570E+03  0.15435415640E+04  0.15087571637E+04 0.  0.
        4    1    3    3  502    0 -0.68332276753E+03  0.31331252604E+03 -0.98292194897E+02  0.75812776764E+03  0.12699999809E+01 0. -1.
       -4    1    3    3    0  502  0.68332276753E+03 -0.31331252604E+03 -0.22754884080E+03  0.78541379631E+03  0.12699999809E+01 0.  1.
</event>
<event>
 5   0  0.2111533E-03  0.1535479E+04  0.7818609E-02  0.8861197E-01
        2   -1    0    0  501    0  0.00000000000E+00  0.00000000000E+00  0.11638661073E+04  0.11638661073E+04  0.25500000920E-02 0.  1.
       -2   -1    0    0    0  501  0.00000000000E+00  0.00000000000E+00 -0.50643625093E+03  0.50643625094E+03  0.25500000920E-02 0. -1.
    10030    2    1    2    0    0  0.00000000000E+00  0.00000000000E+00  0.65742985634E+03  0.16703023582E+04  0.15354790627E+04 0.  0.
        5    1    3    3  502    0  0.26776402470E+03 -0.22301174118E+03 -0.41543465488E+03  0.54225441639E+03  0.46999998093E+01 0. -1.
       -5    1    3    3    0  502 -0.26776402470E+03  0.22301174118E+03  0.10728645112E+04  0.11280479418E+04  0.46999998093E+01 0.  1.
</event>
<event>
 5   0  0.1078018E-03  0.1482398E+04  0.7818609E-02  0.8896243E-01
       -1   -1    0    0    0  501  0.00000000000E+00  0.00000000000E+00  0.30704428474E+03  0.30704428478E+03  0.50400001928E-02 0.  1.
        1   -1    0    0  501    0  0.00000000000E+00  0.00000000000E+00 -0.17892397519E+04  0.17892397519E+04  0.50400001928E-02 0. -1.
    10030    2    1    2    0    0  0.00000000000E+00  0.00000000000E+00 -0.14821954672E+04  0.20962840367E+04  0.14823978412E+04 0.  0.
        4    1    3    3  502    0  0.18129505236E+03  0.30082713715E+03 -0.16640833354E+04  0.17007468425E+04  0.12699999809E+01 0. -1.
       -4    1    3    3    0  502 -0.18129505236E+03 -0.30082713715E+03  0.18188786821E+03  0.39553719415E+03  0.12699999809E+01 0.  1.
</event>
<event>
 5   0  0.7468375E-04  0.1477706E+04  0.7818609E-02  0.8899415E-01
       -3   -1    0    0    0  501  0.00000000000E+00  0.00000000000E+00  0.12209382580E+04  0.12209382622E+04  0.10100000352E+00 0. -1.
        3   -1    0    0  501    0  0.00000000000E+00  0.00000000000E+00 -0.44711819805E+03  0.44711820946E+03  0.10100000352E+00 0.  1.
    10030    2    1    2    0    0  0.00000000000E+00  0.00000000000E+00  0.77382005996E+03  0.16680564717E+04  0.14777059611E+04 0.  0.
        2    1    3    3  502    0  0.73722916411E+03 -0.45519863121E+02  0.36656540050E+03  0.82459025655E+03  0.25500000920E-02 0.  1.
       -2    1    3    3    0  502 -0.73722916411E+03  0.45519863121E+02  0.40725465946E+03  0.84346621510E+03  0.25500000920E-02 0. -1.
</event>
<event>
 5   0  0.1087761E-03  0.1519965E+04  0.7818609E-02  0.8871284E-01
        1   -1    0    0  501    0  0.00000000000E+00  0.00000000000E+00  0.42105202328E+03  0.42105202331E+03  0.50400001928E-02 0. -1.
       -1   -1    0    0    0  501  0.00000000000E+00  0.00000000000E+00 -0.13717393193E+04  0.13717393193E+04  0.50400001928E-02 0.  1.
    10030    2    1    2    0    0  0.00000000000E+00  0.00000000000E+00 -0.95068729597E+03  0.17927913426E+04  0.15199652836E+04 0.  0.
        3    1    3    3  502    0  0.55228300837E+03  0.84854932359E+02  0.13224706452E+03  0.57420046774E+03  0.10100000352E+00 0. -1.
       -3    1    3    3    0  502 -0.55228300837E+03 -0.84854932359E+02 -0.10829343605E+04  0.12185908748E+04  0.10100000352E+00 0.  1.
</event>
<event>
 5   0  0.1087761E-03  0.1516177E+04  0.7818609E-02  0.8873766E-01
        1   -1    0    0  501    0  0.00000000000E+00  0.00000000000E+00  0.13555890358E+04  0.13555890358E+04  0.50400001928E-02 0.  1.
       -1   -1    0    0    0  501  0.00000000000E+00  0.00000000000E+00 -0.42394732945E+03  0.42394732948E+03  0.50400001928E-02 0. -1.
    10030    2    1    2    0    0  0.00000000000E+00  0.00000000000E+00  0.93164170630E+03  0.17795363652E+04  0.15161772345E+04 0.  0.
        3    1    3    3  502    0  0.38009098525E+03 -0.65309968218E+03  0.53711755795E+03  0.92709418787E+03  0.10100000352E+00 0.  1.
       -3    1    3    3    0  502 -0.38009098525E+03  0.65309968218E+03  0.39452414836E+03  0.85244217737E+03  0.10100000352E+00 0. -1.
</event>
<event>
 5   0  0.1993623E-03  0.1496298E+04  0.7818609E-02  0.8886919E-01
       -2   -1    0    0    0  501  0.00000000000E+00  0.00000000000E+00  0.17020742627E+04  0.17020742627E+04  0.25500000920E-02 0. -1.
        2   -1    0    0  501    0  0.00000000000E+00  0.00000000000E+00 -0.32884977039E+03  0.32884977040E+03  0.25500000920E-02 0.  1.
    10030    2    1    2    0    0  0.00000000000E+00  0.00000000000E+00  0.13732244923E+04  0.20309240331E+04  0.14962977384E+04 0.  0.
        4    1    3    3  502    0  0.13953915830E+03  0.53258877425E+03  0.13741659743E+04  0.14803566181E+04  0.12699999809E+01 0. -1.
       -4    1    3    3    0  502 -0.13953915830E+03 -0.53258877425E+03 -0.94148192119E+00  0.55056741499E+03  0.12699999809E+01 0.  1.
</event>
<event>
 5   0  0.1961098E-03  0.1473028E+04  0.7818609E-02  0.8902590E-01
        2   -1    0    0  501    0  0.00000000000E+00  0.00000000000E+00  0.12187063017E+04  0.12187063017E+04  0.25500000920E-02 0.  1.
       -2   -1    0    0    0  501  0.00000000000E+00  0.00000000000E+00 -0.44510523696E+03  0.44510523697E+03  0.25500000920E-02 0. -1.
    10030    2    1    2    0    0  0.00000000000E+00  0.00000000000E+00  0.77360106472E+03  0.16638115387E+04  0.14730275723E+04 0.  0.
        2    1    3    3  502    0 -0.47378953472E+03  0.54885633731E+03  0.24069152790E+03  0.76397134359E+03  0.25500000920E-02 0. -1.
       -2    1    3    3    0  502  0.47378953472E+03 -0.54885633731E+03  0.53290953681E+03  0.89984019506E+03  0.25500000920E-02 0.  1.
</event>
<event>
 5   0  0.1087761E-03  0.1499504E+04  0.7818609E-02  0.8884783E-01
        1   -1    0    0  501    0  0.00000000000E+00  0.00000000000E+00  0.83441322150E+03  0.83441322151E+03  0.50400001928E-02 0.  1.
       -1   -1    0    0    0  501  0.00000000000E+00  0.00000000000E+00 -0.67368069209E+03  0.67368069211E+03  0.50400001928E-02 0. -1.
    10030    2    1    2    0    0  0.00000000000E+00  0.00000000000E+00  0.16073252941E+03  0.15080939136E+04  0.14995040201E+04 0.  0.
        3    1    3    3  502    0  0.22337678656E+02  0.30136472857E+03 -0.60971915531E+03  0.68049770762E+03  0.10100000352E+00 0. -1.
       -3    1    3    3    0  502 -0.22337678656E+02 -0.30136472857E+03  0.77045168472E+03  0.82759620601E+03  0.10100000352E+00 0.  1.
</event>
<event>
 5   0  0.2150197E-03  0.1461921E+04  0.7818609E-02  0.8910178E-01
        2   -1    0    0  501    0  0.00000000000E+00  0.00000000000E+00  0.18090931033E+04  0.18090931033E+04  0.25500000920E-02 0. -1.
       -2   -1    0    0    0  501  0.00000000000E+00  0.00000000000E+00 -0.29534302633E+03  0.29534302634E+03  0.25500000920E-02 0.  1.
    10030    2    1    2    0    0  0.00000000000E+00  0.00000000000E+00  0.15137500770E+04  0.21044361296E+04  0.14619206983E+04 0.  0.
        3    1    3    3  502    0  0.29525334082E+03  0.12957788775E+03 -0.18743979540E+03  0.37295931595E+03  0.10100000352E+00 0.  1.
       -3    1    3    3    0  502 -0.29525334082E+03 -0.12957788775E+03  0.17011898724E+04  0.17314768137E+04  0.10100000352E+00 0. -1.
</event>
<event>
 5   0  0.1077140E-03  0.1241003E+04  0.7818609E-02  0.9077704E-01
       -1   -1    0    0    0  501  0.00000000000E+00  0.00000000000E+00  0.34465988669E+03  0.34465988672E+03  0.50400001928E-02 0. -1.
        1   -1    0    0  501    0  0.00000000000E+00  0.00000000000E+00 -0.11171081332E+04  0.11171081332E+04  0.50400001928E-02 0.  1.
    10030    2    1    2    0    0  0.00000000000E+00  0.00000000000E+00 -0.77244824648E+03  0.14617680199E+04  0.12410034047E+04 0.  0.
        1    1    3    3  502    0 -0.55014698851E+03 -0.45407066030E+02 -0.52444245319E+02  0.55450329981E+03  0.50400001928E-02 0. -1.
       -1    1    3    3    0  502  0.55014698851E+03  0.45407066030E+02 -0.72000400116E+03  0.90726472009E+03  0.50400001928E-02 0.  1.
</event>
<event>
 5   0  0.1078018E-03  0.1626757E+04  0.7818609E-02  0.8804277E-01
       -1   -1    0    0    0  501  0.00000000000E+00  0.00000000000E+00  0.66787015878E+03  0.66787015880E+03  0.50400001928E-02 0.  1.
        1   -1    0    0  501    0  0.00000000000E+00  0.00000000000E+00 -0.99058897777E+03  0.99058897778E+03  0.50400001928E-02 0. -1.
    10030    2    1    2    0    0  0.00000000000E+00  0.00000000000E+00 -0.32271881899E+03  0.16584591366E+04  0.16267572872E+04 0.  0.
        4    1    3    3  502    0 -0.36134538268E+03 -0.34781977212E+03 -0.81417725192E+03  0.95626109923E+03  0.12699999809E+01 0. -1.
       -4    1    3    3    0  502  0.36134538268E+03  0.34781977212E+03  0.49145843293E+03  0.70219803735E+03  0.12699999809E+01 0.  1.
</event>
<event>
 5   0  0.1078787E-03  0.1480497E+04  0.7818609E-02  0.8897527E-01
        1   -1    0    0  501    0  0.00000000000E+00  0.00000000000E+00  0.18224563858E+04  0.18224563858E+04  0.50400001928E-02 0.  1.
       -1   -1    0    0    0  501  0.00000000000E+00  0.00000000000E+00 -0.30067546229E+03  0.30067546233E+03  0.50400001928E-02 0. -1.
    10030    2    1    2    0    0  0.00000000000E+00  0.00000000000E+00  0.15217809235E+04  0.21231318482E+04  0.14804971008E+04 0.  0.
        5    1    3    3  502    0 -0.32702984611E+03 -0.28902549467E+03 -0.96510729826E+02  0.44701305102E+03  0.46999998093E+01 0. -1.
       -5    1    3    3    0  502  0.32702984611E+03  0.28902549467E+03  0.16182916533E+04  0.16761187971E+04  0.46999998093E+01 0.  1.
</event>
<event>
 5   0  0.2150197E-03  0.1344111E+04  0.7818609E-02  0.8995298E-01
        2   -1    0    0  501    0  0.00000000000E+00  0.00000000000E+00  0.15859556474E+04  0.15859556474E+04  0.25500000920E-02 0. -1.
       -2   -1    0    0    0  501  0.00000000000E+00  0.00000000000E+00 -0.28478659247E+03  0.28478659248E+03  0.25500000920E-02 0.  1.
    10030    2    1    2    0    0  0.00000000000E+00  0.00000000000E+00  0.13011690549E+04  0.18707422398E+04  0.13441114606E+04 0.  0.
        3    1    3    3  502    0  0.51820510720E+03  0.42792683183E+03  0.65196789413E+03  0.93633330161E+03  0.10100000352E+00 0. -1.
       -3    1    3    3    0  502 -0.51820510720E+03 -0.42792683183E+03  0.64920116076E+03  0.93440893824E+03  0.10100000352E+00 0.  1.
</event>
<event>
 5   0  0.1077140E-03  0.1498598E+04  0.7818609E-02  0.8885386E-01
        1   -1    0    0  501    0  0.00000000000E+00  0.00000000000E+00  0.12387458553E+04  0.12387458553E+04  0.50400001928E-02 0. -1.
       -1   -1    0    0    0  501  0.00000000000E+00  0.00000000000E+00 -0.45323982937E+03  0.45323982940E+03  0.50400001928E-02 0.  1.
    10030    2    1    2    0    0  0.00000000000E+00  0.00000000000E+00  0.78550602593E+03  0.16919856847E+04  0.14985979582E+04 0.  0.
        1    1    3    3  502    0 -0.57550634443E+03 -0.47238746750E+03  0.29767496891E+03  0.80185276645E+03  0.50400001928E-02 0.  1.
       -1    1    3    3    0  502  0.57550634443E+03  0.47238746750E+03  0.48783105702E+03  0.89013291824E+03  0.50400001928E-02 0. -1.
</event>
<event>
 5   0  0.2094566E-03  0.1452615E+04  0.7818609E-02  0.8916589E-01
        2   -1    0    0  501    0  0.00000000000E+00  0.00000000000E+00  0.12050823409E+04  0.12050823409E+04  0.25500000920E-02 0. -1.
       -2   -1    0    0    0  501  0.00000000000E+00  0.00000000000E+00 -0.43774826484E+03  0.43774826484E+03  0.25500000920E-02 0.  1.
    10030    2    1    2    0    0  0.00000000000E+00  0.00000000000E+00  0.76733407607E+03  0.16428306058E+04  0.14526151641E+04 0.  0.
        1    1    3    3  502    0  0.63652249135E+03 -0.95683727561E+02  0.76418730238E+03  0.99914888322E+03  0.50400001928E-02 0. -1.
       -1    1    3    3    0  502 -0.63652249135E+03  0.95683727561E+02  0.31467736972E+01  0.64368172253E+03  0.50400001928E-02 0.  1.
</event>
<event>
 5   0  0.1078018E-03  0.1501633E+04  0.7818609E-02  0.8883368E-01
        1   -1    0    0  501    0  0.00000000000E+00  0.00000000000E+00  0.11387627845E+04  0.11387627846E+04  0.50400001928E-02 0. -1.
       -1   -1    0    0    0  501  0.00000000000E+00  0.00000000000E+00 -0.49503312585E+03  0.49503312587E+03  0.50400001928E-02 0.  1.
    10030    2    1    2    0    0  0.00000000000E+00  0.00000000000E+00  0.64372965869E+03  0.16337959104E+04  0.15016328457E+04 0.  0.
        4    1    3    3  502    0 -0.11829594761E+03 -0.61056926799E+03  0.77952258815E+03  0.99721905345E+03  0.12699999809E+01 0. -1.
       -4    1    3    3    0  502  0.11829594761E+03  0.61056926799E+03 -0.13579292945E+03  0.63657685697E+03  0.12699999809E+01 0.  1.
</event>
<event>
 5   0  0.1078787E-03  0.1478479E+04  0.7818609E-02  0.8898892E-01
        1   -1    0    0  501    0  0.00000000000E+00  0.00000000000E+00  0.19330917392E+04  0.19330917392E+04  0.50400001928E-02 0.  1.
       -1   -1    0    0    0  501  0.00000000000E+00  0.00000000000E+00 -0.28269480486E+03  0.28269480491E+03  0.50400001928E-02 0. -1.
    10030    2    1    2    0    0  0.00000000000E+00  0.00000000000E+00  0.16503969343E+04  0.22157865441E+04  0.14784789374E+04 0.  0.
        5    1    3    3  502    0  0.44911286991E+03 -0.57524890496E+03  0.10015051337E+04  0.12392127725E+04  0.46999998093E+01 0. -1.
       -5    1    3    3    0  502 -0.44911286991E+03  0.57524890496E+03  0.64889180063E+03  0.97657377166E+03  0.46999998093E+01 0.  1.
</event>
<event>
 5   0  0.1069697E-03  0.8324377E+03  0.7818609E-02  0.9514216E-01
        1   -1    0    0  501    0  0.00000000000E+00  0.00000000000E+00  0.56676077584E+03  0.56676077586E+03  0.50400001928E-02 0. -1.
       -1   -1    0    0    0  501  0.00000000000E+00  0.00000000000E+00 -0.30566358885E+03  0.30566358889E+03  0.50400001928E-02 0.  1.
    10030    2    1    2    0    0  0.00000000000E+00  0.00000000000E+00  0.26109718699E+03  0.87242436475E+03  0.83243770407E+03 0.  0.
        2    1    3    3  502    0  0.14149091400E+03 -0.21063834128E+03 -0.21522366495E+03  0.33273024438E+03  0.25500000920E-02 0.  1.
       -2    1    3    3    0  502 -0.14149091400E+03  0.21063834128E+03  0.47632085195E+03  0.53969412037E+03  0.25500000920E-02 0. -1.
</event>
<event>
 5   0  0.1078018E-03  0.1431230E+04  0.7818609E-02  0.8931518E-01
       -1   -1    0    0    0  501  0.00000000000E+00  0.00000000000E+00  0.45071305845E+03  0.45071305848E+03  0.50400001928E-02 0. -1.
        1   -1    0    0  501    0  0.00000000000E+00  0.00000000000E+00 -0.11362101560E+04  0.11362101560E+04  0.50400001928E-02 0.  1.
    10030    2    1    2    0    0  0.00000000000E+00  0.00000000000E+00 -0.68549709756E+03  0.15869232145E+04  0.14312298970E+04 0.  0.
        4    1    3    3  502    0 -0.97716619665E+02 -0.55260527647E+03 -0.83510559869E+03  0.10061431823E+04  0.12699999809E+01 0.  1.
       -4    1    3    3    0  502  0.97716619665E+02  0.55260527647E+03  0.14960850113E+03  0.58078003224E+03  0.12699999809E+01 0. -1.
</event>
<event>
 5   0  0.1078787E-03  0.1454222E+04  0.7818609E-02  0.8915479E-01
       -1   -1    0    0    0  501  0.00000000000E+00  0.00000000000E+00  0.38424565246E+03  0.38424565250E+03  0.50400001928E-02 0. -1.
        1   -1    0    0  501    0  0.00000000000E+00  0.00000000000E+00 -0.13759178802E+04  0.13759178802E+04  0.50400001928E-02 0.  1.
    10030    2    1    2    0    0  0.00000000000E+00  0.00000000000E+00 -0.99167222771E+03  0.17601635327E+04  0.14542220788E+04 0.  0.
        5    1    3    3  502    0 -0.65682001239E+03 -0.27113946936E+03 -0.30934608012E+03  0.77501369524E+03  0.46999998093E+01 0.  1.
       -5    1    3    3    0  502  0.65682001239E+03  0.27113946936E+03 -0.68232614759E+03  0.98514983744E+03  0.46999998093E+01 0. -1.
</event>
<event>
 5   0  0.1961098E-03  0.1713302E+04  0.7818609E-02  0.8753814E-01
       -2   -1    0    0    0  501  0.00000000000E+00  0.00000000000E+00  0.47403480879E+03  0.47403480879E+03  0.25500000920E-02 0.  1.
        2   -1    0    0  501    0  0.00000000000E+00  0.00000000000E+00 -0.15480941605E+04  0.15480941605E+04  0.25500000920E-02 0. -1.
    10030    2    1    2    0    0  0.00000000000E+00  0.00000000000E+00 -0.10740593517E+04  0.20221289693E+04  0.17133015139E+04 0.  0.
        2    1    3    3  502    0 -0.40990398209E+03  0.12316301410E+03  0.33879436799E+03  0.54586814009E+03  0.25500000920E-02 0.  1.
       -2    1    3    3    0  502  0.40990398209E+03 -0.12316301410E+03 -0.14128537197E+04  0.14762608292E+04  0.25500000920E-02 0. -1.
</event>
<event>
 5   0  0.1077140E-03  0.1541324E+04  0.7818609E-02  0.8857429E-01
        1   -1    0    0  501    0  0.00000000000E+00  0.00000000000E+00  0.74982794544E+03  0.74982794546E+03  0.50400001928E-02 0. -1.
       -1   -1    0    0    0  501  0.00000000000E+00  0.00000000000E+00 -0.79207443931E+03  0.79207443932E+03  0.50400001928E-02 0.  1.
    10030    2    1    2    0    0  0.00000000000E+00  0.00000000000E+00 -0.42246493866E+02  0.15419023848E+04  0.15413235215E+04 0.  0.
        1    1    3    3  502    0 -0.39720031812E+03  0.64672692180E+03 -0.15494846815E+03  0.77461786185E+03  0.50400001928E-02 0. -1.
       -1    1    3    3    0  502  0.39720031812E+03 -0.64672692180E+03  0.11270197428E+03  0.76728452293E+03  0.50400001928E-02 0.  1.
</event>
<event>
 5   0  0.1077140E-03  0.1389998E+04  0.7818609E-02  0.8961091E-01
        1   -1    0    0  501    0  0.00000000000E+00  0.00000000000E+00  0.54349436509E+03  0.54349436512E+03  0.50400001928E-02 0.  1.
       -1   -1    0    0    0  501  0.00000000000E+00  0.00000000000E+00 -0.88873673208E+03  0.88873673209E+03  0.50400001928E-02 0. -1.
    10030    2    1    2    0    0  0.00000000000E+00  0.00000000000E+00 -0.34524236699E+03  0.14322310972E+04  0.13899977064E+04 0.  0.
        1    1    3    3  502    0  0.66098722894E+03  0.20252884074E+03 -0.24621509862E+03  0.73385551913E+03  0.50400001928E-02 0. -1.
       -1    1    3    3    0  502 -0.66098722894E+03 -0.20252884074E+03 -0.99027268366E+02  0.69837557808E+03  0.50400001928E-02 0.  1.
</event>
<event>
 5   0  0.1077140E-03  0.1497442E+04  0.7818609E-02  0.8886156E-01
       -1   -1    0    0    0  501  0.00000000000E+00  0.00000000000E+00  0.57958081890E+03  0.57958081892E+03  0.50400001928E-02 0.  1.
        1   -1    0    0  501    0  0.00000000000E+00  0.00000000000E+00 -0.96722125790E+03  0.96722125791E+03  0.50400001928E-02 0. -1.
    10030    2    1    2    0    0  0.00000000000E+00  0.00000000000E+00 -0.38764043900E+03  0.15468020768E+04  0.14974416700E+04 0.  0.
        1    1    3    3  502    0  0.64029087484E+03  0.17054445375E+03 -0.55391578955E+03  0.86364374428E+03  0.50400001928E-02 0. -1.
       -1    1    3    3    0  502 -0.64029087484E+03 -0.17054445375E+03  0.16627535055E+03  0.68315833255E+03  0.50400001928E-02 0.  1.
</event>
<event>
 5   0  0.1993623E-03  0.1498179E+04  0.7818609E-02  0.8885665E-01
        2   -1    0    0  501    0  0.00000000000E+00  0.00000000000E+00  0.83656331664E+03  0.83656331665E+03  0.25500000920E-02 0. -1.
       -2   -1    0    0    0  501  0.00000000000E+00  0.00000000000E+00 -0.67076239148E+03  0.67076239148E+03  0.25500000920E-02 0.  1.
    10030    2    1    2    0    0  0.00000000000E+00  0.00000000000E+00  0.16580092516E+03  0.15073257081E+04  0.14981791761E+04 0.  0.
        4    1    3    3  502    0 -0.21388426207E+02  0.57709325066E+02  0.83401419739E+03  0.83628292182E+03  0.12699999809E+01 0. -1.
       -4    1    3    3    0  502  0.21388426207E+02 -0.57709325066E+02 -0.66821327223E+03  0.67104278631E+03  0.12699999809E+01 0.  1.
</event>
<event>
 5   0  0.1087761E-03  0.1469986E+04  0.7818609E-02  0.8904661E-01
        1   -1    0    0  501    0  0.00000000000E+00  0.00000000000E+00  0.18496075099E+04  0.18496075099E+04  0.50400001928E-02 0. -1.
       -1   -1    0    0    0  501  0.00000000000E+00  0.00000000000E+00 -0.29206987868E+03  0.29206987873E+03  0.50400001928E-02 0.  1.
    10030    2    1    2    0    0  0.00000000000E+00  0.00000000000E+00  0.15575376312E+04  0.21416773886E+04  0.14699859061E+04 0.  0.
        3    1    3    3  502    0 -0.96575434204E+02 -0.23505669651E+03 -0.22602815126E+03  0.34009880980E+03  0.10100000352E+00 0.  1.
       -3    1    3    3    0  502  0.96575434204E+02  0.23505669651E+03  0.17835657824E+04  0.18015785788E+04  0.10100000352E+00 0. -1.
</event>
<event>
 5   0  0.1993623E-03  0.1520293E+04  0.7818609E-02  0.8871070E-01
       -2   -1    0    0    0  501  0.00000000000E+00  0.00000000000E+00  0.32817446892E+03  0.32817446893E+03  0.25500000920E-02 0.  1.
        2   -1    0    0  501    0  0.00000000000E+00  0.00000000000E+00 -0.17607168851E+04  0.17607168851E+04  0.25500000920E-02 0. -1.
    10030    2    1    2    0    0  0.00000000000E+00  0.00000000000E+00 -0.14325424162E+04  0.20888913541E+04  0.15202925096E+04 0.  0.
        4    1    3    3  502    0 -0.59851454019E+02  0.71888352287E+03 -0.10455887103E+04  0.12702885814E+04  0.12699999809E+01 0.  1.
       -4    1    3    3    0  502  0.59851454019E+02 -0.71888352287E+03 -0.38695370591E+03  0.81860277267E+03  0.12699999809E+01 0. -1.
</event>
<event>
 5   0  0.2150197E-03  0.1621880E+04  0.7818609E-02  0.8807218E-01
       -2   -1    0    0    0  501  0.00000000000E+00  0.00000000000E+00  0.55701114653E+03  0.55701114653E+03  0.25500000920E-02 0.  1.
        2   -1    0    0  501    0  0.00000000000E+00  0.00000000000E+00 -0.11806293737E+04  0.11806293737E+04  0.25500000920E-02 0. -1.
    10030    2    1    2    0    0  0.00000000000E+00  0.00000000000E+00 -0.62361822716E+03  0.17376405202E+04  0.16218800462E+04 0.  0.
        3    1    3    3  502    0 -0.65611622125E+03  0.47655105742E+03 -0.31808418029E+03  0.87107230588E+03  0.10100000352E+00 0. -1.
       -3    1    3    3    0  502  0.65611622125E+03 -0.47655105742E+03 -0.30553404687E+03  0.86656821434E+03  0.10100000352E+00 0.  1.
</event>
<event>
 5   0  0.2094566E-03  0.1492321E+04  0.7818609E-02  0.8889576E-01
       -2   -1    0    0    0  501  0.00000000000E+00  0.00000000000E+00  0.36642904204E+03  0.36642904205E+03  0.25500000920E-02 0. -1.
        2   -1    0    0  501    0  0.00000000000E+00  0.00000000000E+00 -0.15194085110E+04  0.15194085110E+04  0.25500000920E-02 0.  1.
    10030    2    1    2    0    0  0.00000000000E+00  0.00000000000E+00 -0.11529794689E+04  0.18858375530E+04  0.14923208839E+04 0.  0.
        1    1    3    3  502    0 -0.59483276473E+03  0.26112221284E+03 -0.10403612562E+04  0.12265245091E+04  0.50400001928E-02 0.  1.
       -1    1    3    3    0  502  0.59483276473E+03 -0.26112221284E+03 -0.11261821277E+03  0.65931304394E+03  0.50400001928E-02 0. -1.
</event>
<event>
 5   0  0.1993623E-03  0.1482884E+04  0.7818609E-02  0.8895915E-01
        2   -1    0    0  501    0  0.00000000000E+00  0.00000000000E+00  0.11494985698E+04  0.11494985698E+04  0.25500000920E-02 0. -1.
       -2   -1    0    0    0  501  0.00000000000E+00  0.00000000000E+00 -0.47823985795E+03  0.47823985795E+03  0.25500000920E-02 0.  1.
    10030    2    1    2    0    0  0.00000000000E+00  0.00000000000E+00  0.67125871188E+03  0.16277384278E+04  0.14828837213E+04 0.  0.
        4    1    3    3  502    0  0.12040943500E+01  0.10001935488E+03  0.11420570529E+04  0.11464297825E+04  0.12699999809E+01 0. -1.
       -4    1    3    3    0  502 -0.12040943500E+01 -0.10001935488E+03 -0.47079834104E+03  0.48130864528E+03  0.12699999809E+01 0.  1.
</event>
<event>
 5   0  0.1087761E-03  0.1533765E+04  0.7818609E-02  0.8862305E-01
        1   -1    0    0  501    0  0.00000000000E+00  0.00000000000E+00  0.10272981473E+04  0.10272981473E+04  0.50400001928E-02 0.  1.
       -1   -1    0    0    0  501  0.00000000000E+00  0.00000000000E+00 -0.57248097844E+03  0.57248097846E+03  0.50400001928E-02 0. -1.
    10030    2    1    2    0    0  0.00000000000E+00  0.00000000000E+00  0.45481716889E+03  0.15997791258E+04  0.15337648432E+04 0.  0.
        3    1    3    3  502    0 -0.59087372844E+03 -0.22977834270E+03 -0.22264719919E+03  0.67193871391E+03  0.10100000352E+00 0. -1.
       -3    1    3    3    0  502  0.59087372844E+03  0.22977834270E+03  0.67746436807E+03  0.92784041190E+03  0.10100000352E+00 0.  1.
</event>
<event>
 5   0  0.2150197E-03  0.1504559E+04  0.7818609E-02  0.8881427E-01
        2   -1    0    0  501    0  0.00000000000E+00  0.00000000000E+00  0.95599028850E+03  0.95599028851E+03  0.25500000920E-02 0. -1.
       -2   -1    0    0    0  501  0.00000000000E+00  0.00000000000E+00 -0.59197750092E+03  0.59197750093E+03  0.25500000920E-02 0.  1.
    10030    2    1    2    0    0  0.00000000000E+00  0.00000000000E+00  0.36401278758E+03  0.15479677894E+04  0.15045593932E+04 0.  0.
        3    1    3    3  502    0 -0.22719610673E+03  0.61898620863E+03  0.55461923176E+03  0.86160576822E+03  0.10100000352E+00 0. -1.
       -3    1    3    3    0  502  0.22719610673E+03 -0.61898620863E+03 -0.19060644418E+03  0.68636202121E+03  0.10100000352E+00 0.  1.
</event>
<event>
 5   0  0.1087761E-03  0.1573963E+04  0.7818609E-02  0.8836705E-01
        1   -1    0    0  501    0  0.00000000000E+00  0.00000000000E+00  0.12497649939E+04  0.12497649939E+04  0.50400001928E-02 0.  1.
       -1   -1    0    0    0  501  0.00000000000E+00  0.00000000000E+00 -0.49556509995E+03  0.49556509998E+03  0.50400001928E-02 0. -1.
    10030    2    1    2    0    0  0.00000000000E+00  0.00000000000E+00  0.75419989393E+03  0.17453300939E+04  0.15739630417E+04 0.  0.
        3    1    3    3  502    0 -0.19737633855E+03  0.72865028635E+03  0.13051210369E+03  0.76610839849E+03  0.10100000352E+00 0. -1.
       -3    1    3    3    0  502  0.19737633855E+03 -0.72865028635E+03  0.62368779024E+03  0.97922169539E+03  0.10100000352E+00 0.  1.
</event>
<event>
 5   0  0.1993623E-03  0.1487766E+04  0.7818609E-02  0.8892630E-01
       -2   -1    0    0    0  501  0.00000000000E+00  0.00000000000E+00  0.31473862422E+03  0.31473862423E+03  0.25500000920E-02 0.  1.
        2   -1    0    0  501    0  0.00000000000E+00  0.00000000000E+00 -0.17581622517E+04  0.17581622517E+04  0.25500000920E-02 0. -1.
    10030    2    1    2    0    0  0.00000000000E+00  0.00000000000E+00 -0.14434236275E+04  0.20729008760E+04  0.14877655303E+04 0.  0.
        4    1    3    3  502    0 -0.53338570871E+03  0.17685160887E+02 -0.14437399059E+04  0.15392204546E+04  0.12699999809E+01 0. -1.
       -4    1    3    3    0  502  0.53338570871E+03 -0.17685160887E+02  0.31627839092E+00  0.53368042132E+03  0.12699999809E+01 0.  1.
</event>
<event>
 5   0  0.1961098E-03  0.1470298E+04  0.7818609E-02  0.8904448E-01
       -2   -1    0    0    0  501  0.00000000000E+00  0.00000000000E+00  0.36493837112E+03  0.36493837113E+03  0.25500000920E-02 0.  1.
        2   -1    0    0  501    0  0.00000000000E+00  0.00000000000E+00 -0.14809191549E+04  0.14809191549E+04  0.25500000920E-02 0. -1.
    10030    2    1    2    0    0  0.00000000000E+00  0.00000000000E+00 -0.11159807838E+04  0.18458575260E+04  0.14702982339E+04 0.  0.
        2    1    3    3  502    0 -0.58626853549E+03  0.38491768756E+03 -0.83467490445E+03  0.10902085204E+04  0.25500000920E-02 0. -1.
       -2    1    3    3    0  502  0.58626853549E+03 -0.38491768756E+03 -0.28130587932E+03  0.75564900559E+03  0.25500000920E-02 0.  1.
</event>
<event>
 5   0  0.2094566E-03  0.1373922E+04  0.7818609E-02  0.8972914E-01
       -2   -1    0    0    0  501  0.00000000000E+00  0.00000000000E+00  0.20544196134E+03  0.20544196135E+03  0.25500000920E-02 0. -1.
        2   -1    0    0  501    0  0.00000000000E+00  0.00000000000E+00 -0.22970754880E+04  0.22970754880E+04  0.25500000920E-02 0.  1.
    10030    2    1    2    0    0  0.00000000000E+00  0.00000000000E+00 -0.20916335266E+04  0.25025174493E+04  0.13739224048E+04 0.  0.
        1    1    3    3  502    0 -0.12612224715E+03  0.56077491111E+03 -0.36055724895E+03  0.67851076038E+03  0.50400001928E-02 0.  1.
       -1    1    3    3    0  502  0.12612224715E+03 -0.56077491111E+03 -0.17310762777E+04  0.18240066890E+04  0.50400001928E-02 0. -1.
</event>
<event>
 5   0  0.2150197E-03  0.1494355E+04  0.7818609E-02  0.8888215E-01
       -2   -1    0    0    0  501  0.00000000000E+00  0.00000000000E+00  0.34976708143E+03  0.34976708144E+03  0.25500000920E-02 0.  1.
        2   -1    0    0  501    0  0.00000000000E+00  0.00000000000E+00 -0.15961321463E+04  0.15961321463E+04  0.25500000920E-02 0. -1.
    10030    2    1    2    0    0  0.00000000000E+00  0.00000000000E+00 -0.12463650649E+04  0.19458992277E+04  0.14943553559E+04 0.  0.
        3    1    3    3  502    0 -0.54628093854E+03  0.38227064357E+03 -0.10623056940E+04  0.12542117470E+04  0.10100000352E+00 0. -1.
       -3    1    3    3    0  502  0.54628093854E+03 -0.38227064357E+03 -0.18405937088E+03  0.69168748070E+03  0.10100000352E+00 0.  1.
</event>
<event>
 5   0  0.1961098E-03  0.1513328E+04  0.7818609E-02  0.8875638E-01
        2   -1    0    0  501    0  0.00000000000E+00  0.00000000000E+00  0.84312689552E+03  0.84312689553E+03  0.25500000920E-02 0.  1.
       -2   -1    0    0    0  501  0.00000000000E+00  0.00000000000E+00 -0.67906774780E+03  0.67906774780E+03  0.25500000920E-02 0. -1.
    10030    2    1    2    0    0  0.00000000000E+00  0.00000000000E+00  0.16405914773E+03  0.15221946433E+04  0.15133278324E+04 0.  0.
        2    1    3    3  502    0 -0.80132773967E+02 -0.56519197885E+03 -0.41754639669E+03  0.70725400516E+03  0.25500000920E-02 0. -1.
       -2    1    3    3    0  502  0.80132773967E+02  0.56519197885E+03  0.58160554442E+03  0.81494063816E+03  0.25500000920E-02 0.  1.
</event>
<event>
 5   0  0.1069697E-03  0.1541709E+04  0.7818609E-02  0.8857181E-01
       -1   -1    0    0    0  501  0.00000000000E+00  0.00000000000E+00  0.10993517830E+04  0.10993517830E+04  0.50400001928E-02 0. -1.
        1   -1    0    0  501    0  0.00000000000E+00  0.00000000000E+00 -0.54051579137E+03  0.54051579139E+03  0.50400001928E-02 0.  1.
    10030    2    1    2    0    0  0.00000000000E+00  0.00000000000E+00  0.55883599167E+03  0.16398675744E+04  0.15417094396E+04 0.  0.
        2    1    3    3  502    0 -0.51818688899E+03  0.26115074272E+03 -0.26033437338E+03  0.63599634300E+03  0.25500000920E-02 0.  1.
       -2    1    3    3    0  502  0.51818688899E+03 -0.26115074272E+03  0.81917036505E+03  0.10038712314E+04  0.25500000920E-02 0. -1.
</event>
<event>
 5   0  0.1069697E-03  0.1489313E+04  0.7818609E-02  0.8891591E-01
       -1   -1    0    0    0  501  0.00000000000E+00  0.00000000000E+00  0.27179349163E+03  0.27179349168E+03  0.50400001928E-02 0. -1.
        1   -1    0    0  501    0  0.00000000000E+00  0.00000000000E+00 -0.20402012267E+04  0.20402012267E+04  0.50400001928E-02 0.  1.
    10030    2    1    2    0    0  0.00000000000E+00  0.00000000000E+00 -0.17684077351E+04  0.23119947184E+04  0.14893131505E+04 0.  0.
        2    1    3    3  502    0  0.71264838361E+03  0.21396217253E+03 -0.92988437924E+03  0.11909376510E+04  0.25500000920E-02 0.  1.
       -2    1    3    3    0  502 -0.71264838361E+03 -0.21396217253E+03 -0.83852335583E+03  0.11210570673E+04  0.25500000920E-02 0. -1.
</event>
<event>
 5   0  0.1078018E-03  0.1496247E+04  0.7818609E-02  0.8886953E-01
        1   -1    0    0  501    0  0.00000000000E+00  0.00000000000E+00  0.18412629788E+04  0.18412629788E+04  0.50400001928E-02 0.  1.
       -1   -1    0    0    0  501  0.00000000000E+00  0.00000000000E+00 -0.30396992514E+03  0.30396992518E+03  0.50400001928E-02 0. -1.
    10030    2    1    2    0    0  0.00000000000E+00  0.00000000000E+00  0.15372930537E+04  0.21452329040E+04  0.14962467308E+04 0.  0.
        4    1    3    3  502    0  0.51203596700E+03  0.19517539566E+03  0.14988885877E+04  0.15959144331E+04  0.12699999809E+01 0.  1.
       -4    1    3    3    0  502 -0.51203596700E+03 -0.19517539566E+03  0.38404465997E+02  0.54931847091E+03  0.12699999809E+01 0. -1.
</event>
<event>
 5   0  0.1078787E-03  0.1512729E+04  0.7818609E-02  0.8876032E-01
        1   -1    0    0  501    0  0.00000000000E+00  0.00000000000E+00  0.20493143141E+04  0.20493143141E+04  0.50400001928E-02 0. -1.
       -1   -1    0    0    0  501  0.00000000000E+00  0.00000000000E+00 -0.27916040431E+03  0.27916040435E+03  0.50400001928E-02 0.  1.
    10030    2    1    2    0    0  0.00000000000E+00  0.00000000000E+00  0.17701539098E+04  0.23284747184E+04  0.15127292058E+04 0.  0.
        5    1    3    3  502    0 -0.97139689112E+02  0.73472351128E+03  0.11175530805E+04  0.13409704453E+04  0.46999998093E+01 0. -1.
       -5    1    3    3    0  502  0.97139689112E+02 -0.73472351128E+03  0.65260082922E+03  0.98750427317E+03  0.46999998093E+01 0.  1.
</event>
<event>
 5   0  0.1078787E-03  0.1547648E+04  0.7818609E-02  0.8853372E-01
       -1   -1    0    0    0  501  0.00000000000E+00  0.00000000000E+00  0.39073734570E+03  0.39073734573E+03  0.50400001928E-02 0.  1.
        1   -1    0    0  501    0  0.00000000000E+00  0.00000000000E+00 -0.15324962299E+04  0.15324962299E+04  0.50400001928E-02 0. -1.
    10030    2    1    2    0    0  0.00000000000E+00  0.00000000000E+00 -0.11417588842E+04  0.19232335756E+04  0.15476479046E+04 0.  0.
        5    1    3    3  502    0 -0.17507660239E+03  0.61094280682E+02 -0.15044609734E+04  0.15158526440E+04  0.46999998093E+01 0. -1.
       -5    1    3    3    0  502  0.17507660239E+03 -0.61094280682E+02  0.36270208928E+03  0.40738093156E+03  0.46999998093E+01 0.  1.
</event>
<event>
 5   0  0.2150197E-03  0.1459699E+04  0.7818609E-02  0.8911704E-01
        2   -1    0    0  501    0  0.00000000000E+00  0.00000000000E+00  0.12310484527E+04  0.12310484527E+04  0.25500000920E-02 0. -1.
       -2   -1    0    0    0  501  0.00000000000E+00  0.00000000000E+00 -0.43270484173E+03  0.43270484174E+03  0.25500000920E-02 0.  1.
    10030    2    1    2    0    0  0.00000000000E+00  0.00000000000E+00  0.79834361101E+03  0.16637532945E+04  0.14596994566E+04 0.  0.
        3    1    3    3  502    0  0.23657799229E+03  0.45520064318E+03 -0.19253690682E+03  0.54794821168E+03  0.10100000352E+00 0.  1.
       -3    1    3    3    0  502 -0.23657799229E+03 -0.45520064318E+03  0.99088051783E+03  0.11158050828E+04  0.10100000352E+00 0. -1.
</event>
<event>
 5   0  0.2150197E-03  0.1527313E+04  0.7818609E-02  0.8866490E-01
        2   -1    0    0  501    0  0.00000000000E+00  0.00000000000E+00  0.61891272904E+03  0.61891272905E+03  0.25500000920E-02 0.  1.
       -2   -1    0    0    0  501  0.00000000000E+00  0.00000000000E+00 -0.94225128008E+03  0.94225128009E+03  0.25500000920E-02 0. -1.
    10030    2    1    2    0    0  0.00000000000E+00  0.00000000000E+00 -0.32333855104E+03  0.15611640091E+04  0.15273130802E+04 0.  0.
        3    1    3    3  502    0 -0.19421664461E+03  0.28758039311E+03  0.53366408990E+03  0.63656889540E+03  0.10100000352E+00 0.  1.
       -3    1    3    3    0  502  0.19421664461E+03 -0.28758039311E+03 -0.85700264095E+03  0.92459511373E+03  0.10100000352E+00 0. -1.
</event>
<event>
 5   0  0.7468375E-04  0.1590209E+04  0.7818609E-02  0.8826586E-01
        3   -1    0    0  501    0  0.00000000000E+00  0.00000000000E+00  0.10488119803E+04  0.10488119852E+04  0.10100000352E+00 0. -1.
       -3   -1    0    0    0  501  0.00000000000E+00  0.00000000000E+00 -0.60276895346E+03  0.60276896192E+03  0.10100000352E+00 0.  1.
    10030    2    1    2    0    0  0.00000000000E+00  0.00000000000E+00  0.44604302687E+03  0.16515809471E+04  0.15902091822E+04 0.  0.
        2    1    3    3  502    0 -0.28568482346E+03  0.54529305552E+03 -0.29962014314E+03  0.68464046400E+03  0.25500000920E-02 0.  1.
       -2    1    3    3    0  502  0.28568482346E+03 -0.54529305552E+03  0.74566317001E+03  0.96694048311E+03  0.25500000920E-02 0. -1.
</event>
<event>
 5   0  0.2094566E-03  0.1509060E+04  0.7818609E-02  0.8878450E-01
        2   -1    0    0  501    0  0.00000000000E+00  0.00000000000E+00  0.12802396368E+04  0.12802396368E+04  0.25500000920E-02 0. -1.
       -2   -1    0    0    0  501  0.00000000000E+00  0.00000000000E+00 -0.44469456908E+03  0.44469456909E+03  0.25500000920E-02 0.  1.
    10030    2    1    2    0    0  0.00000000000E+00  0.00000000000E+00  0.83554506774E+03  0.17249342059E+04  0.15090601229E+04 0.  0.
        1    1    3    3  502    0  0.10021818111E+03 -0.66842628945E+03  0.80112672817E+03  0.10481609718E+04  0.50400001928E-02 0. -1.
       -1    1    3    3    0  502 -0.10021818111E+03  0.66842628945E+03  0.34418339570E+02  0.67677323409E+03  0.50400001928E-02 0.  1.
</event>
<event>
 5   0  0.1069697E-03  0.1500195E+04  0.7818609E-02  0.8884323E-01
       -1   -1    0    0    0  501  0.00000000000E+00  0.00000000000E+00  0.89486199589E+03  0.89486199590E+03  0.50400001928E-02 0. -1.
        1   -1    0    0  501    0  0.00000000000E+00  0.00000000000E+00 -0.62875227693E+03  0.62875227695E+03  0.50400001928E-02 0.  1.
    10030    2    1    2    0    0  0.00000000000E+00  0.00000000000E+00  0.26610971896E+03  0.15236142729E+04  0.15001953439E+04 0.  0.
        2    1    3    3  502    0  0.25173662009E+03  0.23351745725E+03  0.81035731969E+03  0.88010267260E+03  0.25500000920E-02 0. -1.
       -2    1    3    3    0  502 -0.25173662009E+03 -0.23351745725E+03 -0.54424760074E+03  0.64351160025E+03  0.25500000920E-02 0.  1.
</event>
<event>
 5   0  0.2150197E-03  0.1463886E+04  0.7818609E-02  0.8908830E-01
       -2   -1    0    0    0  501  0.00000000000E+00  0.00000000000E+00  0.10940435879E+04  0.10940435879E+04  0.25500000920E-02 0. -1.
        2   -1    0    0  501    0  0.00000000000E+00  0.00000000000E+00 -0.48968828167E+03  0.48968828168E+03  0.25500000920E-02 0.  1.
    10030    2    1    2    0    0  0.00000000000E+00  0.00000000000E+00  0.60435530626E+03  0.15837318696E+04  0.14638856850E+04 0.  0.
        3    1    3    3  502    0  0.14120275758E+03  0.19644976290E+03 -0.44518100799E+03  0.50667234794E+03  0.10100000352E+00 0.  1.
       -3    1    3    3    0  502 -0.14120275758E+03 -0.19644976290E+03  0.10495363142E+04  0.10770595217E+04  0.10100000352E+00 0. -1.
</event>
<event>
 5   0  0.1993623E-03  0.1510210E+04  0.7818609E-02  0.8877691E-01
       -2   -1    0    0    0  501  0.00000000000E+00  0.00000000000E+00  0.89286498874E+03  0.89286498875E+03  0.25500000920E-02 0. -1.
        2   -1    0    0  501    0  0.00000000000E+00  0.00000000000E+00 -0.63860029296E+03  0.63860029297E+03  0.25500000920E-02 0.  1.
    10030    2    1    2    0    0  0.00000000000E+00  0.00000000000E+00  0.25426469578E+03  0.15314652817E+04  0.15102103739E+04 0.  0.
        4    1    3    3  502    0 -0.59788788882E+03  0.45821176210E+03  0.73912446744E+02  0.75689669652E+03  0.12699999809E+01 0.  1.
       -4    1    3    3    0  502  0.59788788882E+03 -0.45821176210E+03  0.18035224904E+03  0.77456858519E+03  0.12699999809E+01 0. -1.
</event>
<event>
 5   0  0.2111533E-03  0.1495714E+04  0.7818609E-02  0.8887308E-01
        2   -1    0    0  501    0  0.00000000000E+00  0.00000000000E+00  0.56620925577E+03  0.56620925577E+03  0.25500000920E-02 0. -1.
       -2   -1    0    0    0  501  0.00000000000E+00  0.00000000000E+00 -0.98777918915E+03  0.98777918916E+03  0.25500000920E-02 0.  1.
    10030    2    1    2    0    0  0.00000000000E+00  0.00000000000E+00 -0.42156993339E+03  0.15539884449E+04  0.14957135014E+04 0.  0.
        5    1    3    3  502    0 -0.27447072202E+03 -0.40519977826E+03 -0.79827747571E+03  0.93637068289E+03  0.46999998093E+01 0.  1.
       -5    1    3    3    0  502  0.27447072202E+03  0.40519977826E+03  0.37670754233E+03  0.61761776204E+03  0.46999998093E+01 0. -1.
</event>
<event>
 5   0  0.1077140E-03  0.1475802E+04  0.7818609E-02  0.8900706E-01
       -1   -1    0    0    0  501  0.00000000000E+00  0.00000000000E+00  0.50442104356E+03  0.50442104358E+03  0.50400001928E-02 0.  1.
        1   -1    0    0  501    0  0.00000000000E+00  0.00000000000E+00 -0.10794512467E+04  0.10794512467E+04  0.50400001928E-02 0. -1.
    10030    2    1    2    0    0  0.00000000000E+00  0.00000000000E+00 -0.57503020313E+03  0.15838722903E+04  0.14758020523E+04 0.  0.
        1    1    3    3  502    0 -0.65835570517E+02 -0.68651096051E+03 -0.58743881255E+01  0.68968552958E+03  0.50400001928E-02 0.  1.
       -1    1    3    3    0  502  0.65835570517E+02  0.68651096051E+03 -0.56915581501E+03  0.89418676071E+03  0.50400001928E-02 0. -1.
</event>
<event>
 5   0  0.1087761E-03  0.1462217E+04  0.7818609E-02  0.8909974E-01
        1   -1    0    0  501    0  0.00000000000E+00  0.00000000000E+00  0.34437635195E+03  0.34437635198E+03  0.50400001928E-02 0. -1.
       -1   -1    0    0    0  501  0.00000000000E+00  0.00000000000E+00 -0.15521386326E+04  0.15521386326E+04  0.50400001928E-02 0.  1.
    10030    2    1    2    0    0  0.00000000000E+00  0.00000000000E+00 -0.12077622807E+04  0.18965149846E+04  0.14622172753E+04 0.  0.
        3    1    3    3  502    0  0.12598053589E+03 -0.32665761753E+03 -0.14363408320E+04  0.14783948358E+04  0.10100000352E+00 0.  1.
       -3    1    3    3    0  502 -0.12598053589E+03  0.32665761753E+03  0.22857855136E+03  0.41812014882E+03  0.10100000352E+00 0. -1.
</event>
<event>
 5   0  0.1078018E-03  0.1415137E+04  0.7818609E-02  0.8942934E-01
        1   -1    0    0  501    0  0.00000000000E+00  0.00000000000E+00  0.65818646425E+03  0.65818646427E+03  0.50400001928E-02 0. -1.
       -1   -1    0    0    0  501  0.00000000000E+00  0.00000000000E+00 -0.76065557904E+03  0.76065557906E+03  0.50400001928E-02 0.  1.
    10030    2    1    2    0    0  0.00000000000E+00  0.00000000000E+00 -0.10246911479E+03  0.14188420433E+04  0.14151370338E+04 0.  0.
        4    1    3    3  502    0 -0.17130453088E+03  0.44914354427E+03  0.46933229367E+03  0.67182555804E+03  0.12699999809E+01 0. -1.
       -4    1    3    3    0  502  0.17130453088E+03 -0.44914354427E+03 -0.57180140846E+03  0.74701648528E+03  0.12699999809E+01 0.  1.
</event>
<event>
 5   0  0.1078787E-03  0.1589211E+04  0.7818609E-02  0.8827204E-01
       -1   -1    0    0    0  501  0.00000000000E+00  0.00000000000E+00  0.82019873230E+03  0.82019873232E+03  0.50400001928E-02 0.  1.
        1   -1    0    0  501    0  0.00000000000E+00  0.00000000000E+00 -0.76981056091E+03  0.76981056093E+03  0.50400001928E-02 0. -1.
    10030    2    1    2    0    0  0.00000000000E+00  0.00000000000E+00  0.50388171389E+02  0.15900092932E+04  0.15892106798E+04 0.  0.
        5    1    3    3  502    0 -0.19728903543E+02 -0.16849812217E+03  0.80185391847E+03  0.81961737620E+03  0.46999998093E+01 0.  1.
       -5    1    3    3    0  502  0.19728903543E+02  0.16849812217E+03 -0.75146574708E+03  0.77039191704E+03  0.46999998093E+01 0. -1.
</event>
<event>
 5   0  0.2150197E-03  0.1479298E+04  0.7818609E-02  0.8898337E-01
        2   -1    0    0  501    0  0.00000000000E+00  0.00000000000E+00  0.75149234864E+03  0.75149234865E+03  0.25500000920E-02 0. -1.
       -2   -1    0    0    0  501  0.00000000000E+00  0.00000000000E+00 -0.72799226188E+03  0.72799226189E+03  0.25500000920E-02 0.  1.
    10030    2    1    2    0    0  0.00000000000E+00  0.00000000000E+00  0.23500086758E+02  0.14794846105E+04  0.14792979614E+04 0.  0.
        3    1    3    3  502    0 -0.38286900152E+03  0.57501594563E+03  0.27607223636E+03  0.74394079062E+03  0.10100000352E+00 0. -1.
       -3    1    3    3    0  502  0.38286900152E+03 -0.57501594563E+03 -0.25257214960E+03  0.73554381991E+03  0.10100000352E+00 0.  1.
</event>
<event>
 5   0  0.1069697E-03  0.1485935E+04  0.7818609E-02  0.8893860E-01
       -1   -1    0    0    0  501  0.00000000000E+00  0.00000000000E+00  0.27504414550E+03  0.27504414555E+03  0.50400001928E-02 0.  1.
        1   -1    0    0  501    0  0.00000000000E+00  0.00000000000E+00 -0.20069535636E+04  0.20069535637E+04  0.50400001928E-02 0. -1.
    10030    2    1    2    0    0  0.00000000000E+00  0.00000000000E+00 -0.17319094181E+04  0.22819977092E+04  0.14859351642E+04 0.  0.
        2    1    3    3  502    0 -0.15139152990E+03 -0.40949538161E+03 -0.17891772357E+04  0.18416734357E+04  0.25500000920E-02 0. -1.
       -2    1    3    3    0  502  0.15139152990E+03  0.40949538161E+03  0.57267817601E+02  0.44032427349E+03  0.25500000920E-02 0.  1.
</event>
<event>
 5   0  0.1078018E-03  0.1485342E+04  0.7818609E-02  0.8894260E-01
        1   -1    0    0  501    0  0.00000000000E+00  0.00000000000E+00  0.42460678846E+03  0.42460678849E+03  0.50400001928E-02 0.  1.
       -1   -1    0    0    0  501  0.00000000000E+00  0.00000000000E+00 -0.12989897221E+04  0.12989897221E+04  0.50400001928E-02 0. -1.
    10030    2    1    2    0    0  0.00000000000E+00  0.00000000000E+00 -0.87438293360E+03  0.17235965106E+04  0.14853415152E+04 0.  0.
        4    1    3    3  502    0 -0.10708441426E+03  0.16827767851E+03  0.39294273550E+03  0.44067000709E+03  0.12699999809E+01 0.  1.
       -4    1    3    3    0  502  0.10708441426E+03 -0.16827767851E+03 -0.12673256691E+04  0.12829265035E+04  0.12699999809E+01 0. -1.
</event>
<event>
 5   0  0.1087761E-03  0.1520941E+04  0.7818609E-02  0.8870645E-01
        1   -1    0    0  501    0  0.00000000000E+00  0.00000000000E+00  0.17331355210E+04  0.17331355210E+04  0.50400001928E-02 0. -1.
       -1   -1    0    0    0  501  0.00000000000E+00  0.00000000000E+00 -0.33368171057E+03  0.33368171060E+03  0.50400001928E-02 0.  1.
    10030    2    1    2    0    0  0.00000000000E+00  0.00000000000E+00  0.13994538105E+04  0.20668172316E+04  0.15209413208E+04 0.  0.
        3    1    3    3  502    0 -0.63991925226E+03 -0.37432332256E+03  0.46950944974E+03  0.87752705533E+03  0.10100000352E+00 0. -1.
       -3    1    3    3    0  502  0.63991925226E+03  0.37432332256E+03  0.92994436072E+03  0.11892901763E+04  0.10100000352E+00 0.  1.
</event>
<event>
 5   0  0.1078018E-03  0.1483182E+04  0.7818609E-02  0.8895715E-01
       -1   -1    0    0    0  501  0.00000000000E+00  0.00000000000E+00  0.17742750573E+04  0.17742750573E+04  0.50400001928E-02 0.  1.
        1   -1    0    0  501    0  0.00000000000E+00  0.00000000000E+00 -0.30996153392E+03  0.30996153396E+03  0.50400001928E-02 0. -1.
    10030    2    1    2    0    0  0.00000000000E+00  0.00000000000E+00  0.14643135233E+04  0.20842365912E+04  0.14831817399E+04 0.  0.
        4    1    3    3  502    0 -0.42240557419E+03  0.43591830157E+03  0.13308384168E+04  0.14627316019E+04  0.12699999809E+01 0.  1.
       -4    1    3    3    0  502  0.42240557419E+03 -0.43591830157E+03  0.13347510653E+03  0.62150498929E+03  0.12699999809E+01 0. -1.
</event>
<event>
 5   0  0.1961098E-03  0.1517842E+04  0.7818609E-02  0.8872674E-01
        2   -1    0    0  501    0  0.00000000000E+00  0.00000000000E+00  0.11136254318E+04  0.11136254318E+04  0.25500000920E-02 0. -1.
       -2   -1    0    0    0  501  0.00000000000E+00  0.00000000000E+00 -0.51719474190E+03  0.51719474191E+03  0.25500000920E-02 0.  1.
    10030    2    1    2    0    0  0.00000000000E+00  0.00000000000E+00  0.59643068994E+03  0.16308201738E+04  0.15178421760E+04 0.  0.
        2    1    3    3  502    0  0.27132402067E+03  0.61320226371E+03  0.68009662603E+03  0.95507337999E+03  0.25500000920E-02 0. -1.
       -2    1    3    3    0  502 -0.27132402067E+03 -0.61320226371E+03 -0.83665936094E+02  0.67574679376E+03  0.25500000920E-02 0.  1.
</event>
<event>
 5   0  0.2111533E-03  0.1455389E+04  0.7818609E-02  0.8914673E-01
       -2   -1    0    0    0  501  0.00000000000E+00  0.00000000000E+00  0.86396925576E+03  0.86396925576E+03  0.25500000920E-02 0.  1.
        2   -1    0    0  501    0  0.00000000000E+00  0.00000000000E+00 -0.61291454051E+03  0.61291454051E+03  0.25500000920E-02 0. -1.
    10030    2    1    2    0    0  0.00000000000E+00  0.00000000000E+00  0.25105471525E+03  0.14768837963E+04  0.14553890468E+04 0.  0.
        5    1    3    3  502    0 -0.71781183138E+03  0.72934320276E+02  0.29557941300E+02  0.72212810652E+03  0.46999998093E+01 0. -1.
       -5    1    3    3    0  502  0.71781183138E+03 -0.72934320276E+02  0.22149677395E+03  0.75475568975E+03  0.46999998093E+01 0.  1.
</event>
<event>
 5   0  0.2150197E-03  0.1526788E+04  0.7818609E-02  0.8866832E-01
       -2   -1    0    0    0  501  0.00000000000E+00  0.00000000000E+00  0.40310876190E+03  0.40310876191E+03  0.25500000920E-02 0.  1.
        2   -1    0    0  501    0  0.00000000000E+00  0.00000000000E+00 -0.14456904975E+04  0.14456904975E+04  0.25500000920E-02 0. -1.
    10030    2    1    2    0    0  0.00000000000E+00  0.00000000000E+00 -0.10425817356E+04  0.18487992595E+04  0.15267881406E+04 0.  0.
        3    1    3    3  502    0  0.76042879164E+03  0.28415312325E+02 -0.59505809086E+03  0.96599871575E+03  0.10100000352E+00 0.  1.
       -3    1    3    3    0  502 -0.76042879164E+03 -0.28415312325E+02 -0.44752364479E+03  0.88280054371E+03  0.10100000352E+00 0. -1.
</event>
<event>
 5   0  0.2111533E-03  0.1388962E+04  0.7818609E-02  0.8961847E-01
        2   -1    0    0  501    0  0.00000000000E+00  0.00000000000E+00  0.84898033223E+03  0.84898033223E+03  0.25500000920E-02 0. -1.
       -2   -1    0    0    0  501  0.00000000000E+00  0.00000000000E+00 -0.56809800132E+03  0.56809800133E+03  0.25500000920E-02 0.  1.
    10030    2    1    2    0    0  0.00000000000E+00  0.00000000000E+00  0.28088233091E+03  0.14170783336E+04  0.13889622456E+04 0.  0.
        5    1    3    3  502    0 -0.24509398175E+03  0.37916346172E+03 -0.39792017912E+03  0.60182933589E+03  0.46999998093E+01 0.  1.
       -5    1    3    3    0  502  0.24509398175E+03 -0.37916346172E+03  0.67880251002E+03  0.81524899767E+03  0.46999998093E+01 0. -1.
</event>
<event>
 5   0  0.1078018E-03  0.1502657E+04  0.7818609E-02  0.8882688E-01
        1   -1    0    0  501    0  0.00000000000E+00  0.00000000000E+00  0.11487667644E+04  0.11487667644E+04  0.50400001928E-02 0. -1.
       -1   -1    0    0    0  501  0.00000000000E+00  0.00000000000E+00 -0.49139146790E+03  0.49139146793E+03  0.50400001928E-02 0.  1.
    10030    2    1    2    0    0  0.00000000000E+00  0.00000000000E+00  0.65737529648E+03  0.16401582323E+04  0.15026565631E+04 0.  0.
        4    1    3    3  502    0 -0.32985427848E+03 -0.67313178618E+03  0.27322103525E+03  0.79784810183E+03  0.12699999809E+01 0.  1.
       -4    1    3    3    0  502  0.32985427848E+03  0.67313178618E+03  0.38415426123E+03  0.84231013049E+03  0.12699999809E+01 0. -1.
</event>
<event>
 5   0  0.1078787E-03  0.1515172E+04  0.7818609E-02  0.8874426E-01
       -1   -1    0    0    0  501  0.00000000000E+00  0.00000000000E+00  0.45775050349E+03  0.45775050351E+03  0.50400001928E-02 0. -1.
        1   -1    0    0  501    0  0.00000000000E+00  0.00000000000E+00 -0.12538190740E+04  0.12538190740E+04  0.50400001928E-02 0.  1.
    10030    2    1    2    0    0  0.00000000000E+00  0.00000000000E+00 -0.79606857051E+03  0.17115695775E+04  0.15151716899E+04 0.  0.
        5    1    3    3  502    0 -0.30745122576E+03 -0.67517265339E+03 -0.22475672259E+03  0.77519161661E+03  0.46999998093E+01 0.  1.
       -5    1    3    3    0  502  0.30745122576E+03  0.67517265339E+03 -0.57131184792E+03  0.93637796091E+03  0.46999998093E+01 0. -1.
</event>
<event>
 5   0  0.1087761E-03  0.1471558E+04  0.7818609E-02  0.8903590E-01
       -1   -1    0    0    0  501  0.00000000000E+00  0.00000000000E+00  0.11975789383E+04  0.11975789384E+04  0.50400001928E-02 0. -1.
        1   -1    0    0  501    0  0.00000000000E+00  0.00000000000E+00 -0.45205454689E+03  0.45205454691E+03  0.50400001928E-02 0.  1.
    10030    2    1    2    0    0  0.00000000000E+00  0.00000000000E+00  0.74552439145E+03  0.16496334853E+04  0.14715583636E+04 0.  0.
        3    1    3    3  502    0  0.14497148483E+03  0.13789301077E+03 -0.42097376261E+03  0.46610098995E+03  0.10100000352E+00 0.  1.
       -3    1    3    3    0  502 -0.14497148483E+03 -0.13789301077E+03  0.11664981541E+04  0.11835324953E+04  0.10100000352E+00 0. -1.
</event>
<event>
 5   0  0.1078787E-03  0.1218411E+04  0.7818609E-02  0.9096893E-01
        1   -1    0    0  501    0  0.00000000000E+00  0.00000000000E+00  0.25908883376E+03  0.25908883380E+03  0.50400001928E-02 0.  1.
       -1   -1    0    0    0  501  0.00000000000E+00  0.00000000000E+00 -0.14324476101E+04  0.14324476101E+04  0.50400001928E-02 0. -1.
    10030    2    1    2    0    0  0.00000000000E+00  0.00000000000E+00 -0.11733587763E+04  0.16915364439E+04  0.12184107366E+04 0.  0.
        5    1    3    3  502    0  0.28260826512E+03 -0.30620431356E+03  0.30270423674E+02  0.41781204111E+03  0.46999998093E+01 0.  1.
       -5    1    3    3    0  502 -0.28260826512E+03  0.30620431356E+03 -0.12036292000E+04  0.12737244028E+04  0.46999998093E+01 0. -1.
</event>
<event>
 5   0  0.1961098E-03  0.1720356E+04  0.7818609E-02  0.8749839E-01
       -2   -1    0    0    0  501  0.00000000000E+00  0.00000000000E+00  0.70576650081E+03  0.70576650081E+03  0.25500000920E-02 0. -1.
        2   -1    0    0  501    0  0.00000000000E+00  0.00000000000E+00 -0.10483727333E+04  0.10483727333E+04  0.25500000920E-02 0.  1.
    10030    2    1    2    0    0  0.00000000000E+00  0.00000000000E+00 -0.34260623250E+03  0.17541392341E+04  0.17203561905E+04 0.  0.
        2    1    3    3  502    0  0.81521336028E+03 -0.32849601555E+02 -0.44915087053E+03  0.93133690124E+03  0.25500000920E-02 0.  1.
       -2    1    3    3    0  502 -0.81521336028E+03  0.32849601555E+02  0.10654463803E+03  0.82280233289E+03  0.25500000920E-02 0. -1.
</event>
<event>
 5   0  0.2150197E-03  0.1430331E+04  0.7818609E-02  0.8932151E-01
       -2   -1    0    0    0  501  0.00000000000E+00  0.00000000000E+00  0.57409947462E+03  0.57409947462E+03  0.25500000920E-02 0. -1.
        2   -1    0    0  501    0  0.00000000000E+00  0.00000000000E+00 -0.89089402789E+03  0.89089402789E+03  0.25500000920E-02 0.  1.
    10030    2    1    2    0    0  0.00000000000E+00  0.00000000000E+00 -0.31679455327E+03  0.14649935025E+04  0.14303311412E+04 0.  0.
        3    1    3    3  502    0  0.51395631298E+03 -0.48415972816E+03 -0.42066457372E+02  0.70734102882E+03  0.10100000352E+00 0. -1.
       -3    1    3    3    0  502 -0.51395631298E+03  0.48415972816E+03 -0.27472809590E+03  0.75765247369E+03  0.10100000352E+00 0.  1.
</event>
<event>
 5   0  0.2150197E-03  0.1110204E+04  0.7818609E-02  0.9195303E-01
       -2   -1    0    0    0  501  0.00000000000E+00  0.00000000000E+00  0.46316746617E+03  0.46316746618E+03  0.25500000920E-02 0.  1.
        2   -1    0    0  501    0  0.00000000000E+00  0.00000000000E+00 -0.66528433714E+03  0.66528433715E+03  0.25500000920E-02 0. -1.
    10030    2    1    2    0    0  0.00000000000E+00  0.00000000000E+00 -0.20211687097E+03  0.11284518033E+04  0.11102036943E+04 0.  0.
        3    1    3    3  502    0  0.28802577473E+03  0.24039004659E+03 -0.51691874670E+03  0.63871059353E+03  0.10100000352E+00 0.  1.
       -3    1    3    3    0  502 -0.28802577473E+03 -0.24039004659E+03  0.31480187572E+03  0.48974120979E+03  0.10100000352E+00 0. -1.
</event>
<event>
 5   0  0.1069697E-03  0.1483353E+04  0.7818609E-02  0.8895599E-01
       -1   -1    0    0    0  501  0.00000000000E+00  0.00000000000E+00  0.64022633232E+03  0.64022633234E+03  0.50400001928E-02 0. -1.
        1   -1    0    0  501    0  0.00000000000E+00  0.00000000000E+00 -0.85920215774E+03  0.85920215775E+03  0.50400001928E-02 0.  1.
    10030    2    1    2    0    0  0.00000000000E+00  0.00000000000E+00 -0.21897582542E+03  0.14994284901E+04  0.14833527513E+04 0.  0.
        2    1    3    3  502    0 -0.36062652318E+03 -0.56112255095E+03  0.21833188797E+03  0.70183959686E+03  0.25500000920E-02 0. -1.
       -2    1    3    3    0  502  0.36062652318E+03  0.56112255095E+03 -0.43730771339E+03  0.79758889323E+03  0.25500000920E-02 0.  1.
</event>
<event>
 5   0  0.1993623E-03  0.1058781E+04  0.7818609E-02  0.9246325E-01
       -2   -1    0    0    0  501  0.00000000000E+00  0.00000000000E+00  0.33117424077E+03  0.33117424078E+03  0.25500000920E-02 0.  1.
        2   -1    0    0  501    0  0.00000000000E+00  0.00000000000E+00 -0.84624419187E+03  0.84624419187E+03  0.25500000920E-02 0. -1.
    10030    2    1    2    0    0  0.00000000000E+00  0.00000000000E+00 -0.51506995110E+03  0.11774184327E+04  0.10587809552E+04 0.  0.
        4    1    3    3  502    0 -0.29311200794E+03  0.28018716628E+03  0.12094349138E+03  0.42314115654E+03  0.12699999809E+01 0.  1.
       -4    1    3    3    0  502  0.29311200794E+03 -0.28018716628E+03 -0.63601344248E+03  0.75427727612E+03  0.12699999809E+01 0. -1.
</event>
<event>
 5   0  0.2150197E-03  0.1513809E+04  0.7818609E-02  0.8875322E-01
       -2   -1    0    0    0  501  0.00000000000E+00  0.00000000000E+00  0.82018067207E+03  0.82018067207E+03  0.25500000920E-02 0.  1.
        2   -1    0    0  501    0  0.00000000000E+00  0.00000000000E+00 -0.69850973928E+03  0.69850973928E+03  0.25500000920E-02 0. -1.
    10030    2    1    2    0    0  0.00000000000E+00  0.00000000000E+00  0.12167093279E+03  0.15186904114E+04  0.15138086899E+04 0.  0.
        3    1    3    3  502    0 -0.14416985163E+03 -0.25494324946E+03 -0.63935735013E+03  0.70324877386E+03  0.10100000352E+00 0. -1.
       -3    1    3    3    0  502  0.14416985163E+03  0.25494324946E+03  0.76102828292E+03  0.81544163750E+03  0.10100000352E+00 0.  1.
</event>
<event>
 5   0  0.2150197E-03  0.1373786E+04  0.7818609E-02  0.8973015E-01
       -2   -1    0    0    0  501  0.00000000000E+00  0.00000000000E+00  0.43888656282E+03  0.43888656283E+03  0.25500000920E-02 0. -1.
        2   -1    0    0  501    0  0.00000000000E+00  0.00000000000E+00 -0.10750433707E+04  0.10750433707E+04  0.25500000920E-02 0.  1.
    10030    2    1    2    0    0  0.00000000000E+00  0.00000000000E+00 -0.63615680784E+03  0.15139299335E+04  0.13737861403E+04 0.  0.
        3    1    3    3  502    0 -0.52383946665E+02 -0.58639476171E+03  0.71883410249E+02  0.59310212383E+03  0.10100000352E+00 0. -1.
       -3    1    3    3    0  502  0.52383946665E+02  0.58639476171E+03 -0.70804021809E+03  0.92082780967E+03  0.10100000352E+00 0.  1.
</event>
<event>
 5   0  0.2150197E-03  0.1474854E+04  0.7818609E-02  0.8901349E-01
        2   -1    0    0  501    0  0.00000000000E+00  0.00000000000E+00  0.12773193667E+04  0.12773193667E+04  0.25500000920E-02 0. -1.
       -2   -1    0    0    0  501  0.00000000000E+00  0.00000000000E+00 -0.42573416850E+03  0.42573416851E+03  0.25500000920E-02 0.  1.
    10030    2    1    2    0    0  0.00000000000E+00  0.00000000000E+00  0.85158519819E+03  0.17030535352E+04  0.14748538890E+04 0.  0.
        3    1    3    3  502    0 -0.11783764696E+03 -0.70160746108E+03  0.64988029240E+03  0.96357830255E+03  0.10100000352E+00 0. -1.
       -3    1    3    3    0  502  0.11783764696E+03  0.70160746108E+03  0.20170490580E+03  0.73947523266E+03  0.10100000352E+00 0.  1.
</event>
<event>
 5   0  0.2111533E-03  0.1531165E+04  0.7818609E-02  0.8863989E-01
       -2   -1    0    0    0  501  0.00000000000E+00  0.00000000000E+00  0.74713241445E+03  0.74713241446E+03  0.25500000920E-02 0.  1.
        2   -1    0    0  501    0  0.00000000000E+00  0.00000000000E+00 -0.78448784100E+03  0.78448784100E+03  0.25500000920E-02 0. -1.
    10030    2    1    2    0    0  0.00000000000E+00  0.00000000000E+00 -0.37355426544E+02  0.15316202555E+04  0.15311646479E+04 0.  0.
        5    1    3    3  502    0  0.70625710118E+03  0.15222526168E+02  0.27647513984E+03  0.75861150216E+03  0.46999998093E+01 0.  1.
       -5    1    3    3    0  502 -0.70625710118E+03 -0.15222526168E+02 -0.31383056639E+03  0.77300875329E+03  0.46999998093E+01 0. -1.
</event>
<event>
 5   0  0.1087761E-03  0.1579910E+04  0.7818609E-02  0.8832986E-01
       -1   -1    0    0    0  501  0.00000000000E+00  0.00000000000E+00  0.42409014922E+03  0.42409014925E+03  0.50400001928E-02 0. -1.
        1   -1    0    0  501    0  0.00000000000E+00  0.00000000000E+00 -0.14714533673E+04  0.14714533673E+04  0.50400001928E-02 0.  1.
    10030    2    1    2    0    0  0.00000000000E+00  0.00000000000E+00 -0.10473632181E+04  0.18955435166E+04  0.15799099698E+04 0.  0.
        3    1    3    3  502    0 -0.65292274698E+03  0.37086282180E+03 -0.81801057343E+03  0.11104002227E+04  0.10100000352E+00 0.  1.
       -3    1    3    3    0  502  0.65292274698E+03 -0.37086282180E+03 -0.22935264466E+03  0.78514329388E+03  0.10100000352E+00 0. -1.
</event>
<event>
 5   0  0.1069697E-03  0.1473786E+04  0.7818609E-02  0.8902075E-01
        1   -1    0    0  501    0  0.00000000000E+00  0.00000000000E+00  0.10767924856E+04  0.10767924857E+04  0.50400001928E-02 0. -1.
       -1   -1    0    0    0  501  0.00000000000E+00  0.00000000000E+00 -0.50428584870E+03  0.50428584872E+03  0.50400001928E-02 0.  1.
    10030    2    1    2    0    0  0.00000000000E+00  0.00000000000E+00  0.57250663694E+03  0.15810783344E+04  0.14737858902E+04 0.  0.
        2    1    3    3  502    0  0.28736460549E+03 -0.15961702675E+03  0.99377745055E+03  0.10467328374E+04  0.25500000920E-02 0. -1.
       -2    1    3    3    0  502 -0.28736460549E+03  0.15961702675E+03 -0.42127081360E+03  0.53434549696E+03  0.25500000920E-02 0.  1.
</event>
<event>
 5   0  0.1078018E-03  0.1258635E+04  0.7818609E-02  0.9063027E-01
       -1   -1    0    0    0  501  0.00000000000E+00  0.00000000000E+00  0.89310203632E+03  0.89310203633E+03  0.50400001928E-02 0.  1.
        1   -1    0    0  501    0  0.00000000000E+00  0.00000000000E+00 -0.44344364145E+03  0.44344364148E+03  0.50400001928E-02 0. -1.
    10030    2    1    2    0    0  0.00000000000E+00  0.00000000000E+00  0.44965839487E+03  0.13365456778E+04  0.12586348465E+04 0.  0.
        4    1    3    3  502    0 -0.88114627211E+02  0.56541313723E+03 -0.53264429729E+02  0.57471289846E+03  0.12699999809E+01 0. -1.
       -4    1    3    3    0  502  0.88114627211E+02 -0.56541313723E+03  0.50292282460E+03  0.76183277934E+03  0.12699999809E+01 0.  1.
</event>
<event>
 5   0  0.2150197E-03  0.1532107E+04  0.7818609E-02  0.8863378E-01
       -2   -1    0    0    0  501  0.00000000000E+00  0.00000000000E+00  0.45003095486E+03  0.45003095487E+03  0.25500000920E-02 0.  1.
        2   -1    0    0  501    0  0.00000000000E+00  0.00000000000E+00 -0.13039952533E+04  0.13039952533E+04  0.25500000920E-02 0. -1.
    10030    2    1    2    0    0  0.00000000000E+00  0.00000000000E+00 -0.85396429841E+03  0.17540262081E+04  0.15321073448E+04 0.  0.
        3    1    3    3  502    0  0.75174810438E+03  0.65714092036E+01 -0.25845317985E+03  0.79496317665E+03  0.10100000352E+00 0.  1.
       -3    1    3    3    0  502 -0.75174810438E+03 -0.65714092036E+01 -0.59551111856E+03  0.95906303149E+03  0.10100000352E+00 0. -1.
</event>
<event>
 5   0  0.2150197E-03  0.1544394E+04  0.7818609E-02  0.8855457E-01
        2   -1    0    0  501    0  0.00000000000E+00  0.00000000000E+00  0.75064162304E+03  0.75064162305E+03  0.25500000920E-02 0.  1.
       -2   -1    0    0    0  501  0.00000000000E+00  0.00000000000E+00 -0.79437096168E+03  0.79437096169E+03  0.25500000920E-02 0. -1.
    10030    2    1    2    0    0  0.00000000000E+00  0.00000000000E+00 -0.43729338641E+02  0.15450125847E+04  0.15443936130E+04 0.  0.
        3    1    3    3  502    0 -0.64837375237E+02  0.72704131230E+03 -0.27394768891E+03  0.77964113634E+03  0.10100000352E+00 0. -1.
       -3    1    3    3    0  502  0.64837375237E+02 -0.72704131230E+03  0.23021835026E+03  0.76537144839E+03  0.10100000352E+00 0.  1.
</event>
<event>
 5   0  0.2094566E-03  0.1578210E+04  0.7818609E-02  0.8834048E-01
       -2   -1    0    0    0  501  0.00000000000E+00  0.00000000000E+00  0.10382511309E+04  0.10382511309E+04  0.25500000920E-02 0.  1.
        2   -1    0    0  501    0  0.00000000000E+00  0.00000000000E+00 -0.59974545678E+03  0.59974545679E+03  0.25500000920E-02 0. -1.
    10030    2    1    2    0    0  0.00000000000E+00  0.00000000000E+00  0.43850567416E+03  0.16379965877E+04  0.15782096170E+04 0.  0.
        1    1    3    3  502    0  0.66040571309E+02  0.53597261409E+03 -0.37792077964E+03  0.65912981712E+03  0.50400001928E-02 0. -1.
       -1    1    3    3    0  502 -0.66040571309E+02 -0.53597261409E+03  0.81642645379E+03  0.97886677060E+03  0.50400001928E-02 0.  1.
</event>
<event>
 5   0  0.1077140E-03  0.1496176E+04  0.7818609E-02  0.8887000E-01
        1   -1    0    0  501    0  0.00000000000E+00  0.00000000000E+00  0.86166569701E+03  0.86166569703E+03  0.50400001928E-02 0. -1.
       -1   -1    0    0    0  501  0.00000000000E+00  0.00000000000E+00 -0.64948087766E+03  0.64948087768E+03  0.50400001928E-02 0.  1.
    10030    2    1    2    0    0  0.00000000000E+00  0.00000000000E+00  0.21218481936E+03  0.15111465747E+04  0.14961756490E+04 0.  0.
        1    1    3    3  502    0  0.44046214965E+03  0.11992377498E+03  0.70468340904E+03  0.83962332273E+03  0.50400001928E-02 0. -1.
       -1    1    3    3    0  502 -0.44046214965E+03 -0.11992377498E+03 -0.49249858968E+03  0.67152325197E+03  0.50400001928E-02 0.  1.
</event>
<event>
 5   0  0.1961098E-03  0.8375477E+03  0.7818609E-02  0.9507204E-01
        2   -1    0    0  501    0  0.00000000000E+00  0.00000000000E+00  0.33540683015E+03  0.33540683016E+03  0.25500000920E-02 0. -1.
       -2   -1    0    0    0  501  0.00000000000E+00  0.00000000000E+00 -0.52286213678E+03  0.52286213678E+03  0.25500000920E-02 0.  1.
    10030    2    1    2    0    0  0.00000000000E+00  0.00000000000E+00 -0.18745530662E+03  0.85826896695E+03  0.83754768679E+03 0.  0.
        2    1    3    3  502    0  0.16279519077E+03 -0.27795264716E+03 -0.36795168106E+03  0.48902800309E+03  0.25500000920E-02 0.  1.
       -2    1    3    3    0  502 -0.16279519077E+03  0.27795264716E+03  0.18049637444E+03  0.36924096386E+03  0.25500000920E-02 0. -1.
</event>
<event>
 5   0  0.2150197E-03  0.1524297E+04  0.7818609E-02  0.8868455E-01
        2   -1    0    0  501    0  0.00000000000E+00  0.00000000000E+00  0.13219646315E+04  0.13219646315E+04  0.25500000920E-02 0. -1.
       -2   -1    0    0    0  501  0.00000000000E+00  0.00000000000E+00 -0.43939919287E+03  0.43939919288E+03  0.25500000920E-02 0.  1.
    10030    2    1    2    0    0  0.00000000000E+00  0.00000000000E+00  0.88256543860E+03  0.17613638244E+04  0.15242968111E+04 0.  0.
        3    1    3    3  502    0  0.64616088096E+03 -0.40362476078E+03  0.41722806747E+03  0.86862886326E+03  0.10100000352E+00 0.  1.
       -3    1    3    3    0  502 -0.64616088096E+03  0.40362476078E+03  0.46533737113E+03  0.89273496110E+03  0.10100000352E+00 0. -1.
</event>
<event>
 5   0  0.1077140E-03  0.1517419E+04  0.7818609E-02  0.8872951E-01
       -1   -1    0    0    0  501  0.00000000000E+00  0.00000000000E+00  0.57494846557E+03  0.57494846559E+03  0.50400001928E-02 0.  1.
        1   -1    0    0  501    0  0.00000000000E+00  0.00000000000E+00 -0.10012031332E+04  0.10012031332E+04  0.50400001928E-02 0. -1.
    10030    2    1    2    0    0  0.00000000000E+00  0.00000000000E+00 -0.42625466762E+03  0.15761515988E+04  0.15174191315E+04 0.  0.
        1    1    3    3  502    0 -0.10664155760E+03 -0.62092108727E+03  0.22599429157E+03  0.66931968316E+03  0.50400001928E-02 0.  1.
       -1    1    3    3    0  502  0.10664155760E+03  0.62092108727E+03 -0.65224895919E+03  0.90683191563E+03  0.50400001928E-02 0. -1.
</event>
<event>
 5   0  0.1993623E-03  0.1493529E+04  0.7818609E-02  0.8888768E-01
        2   -1    0    0  501    0  0.00000000000E+00  0.00000000000E+00  0.85226937609E+03  0.85226937609E+03  0.25500000920E-02 0.  1.
       -2   -1    0    0    0  501  0.00000000000E+00  0.00000000000E+00 -0.65432005156E+03  0.65432005156E+03  0.25500000920E-02 0. -1.
    10030    2    1    2    0    0  0.00000000000E+00  0.00000000000E+00  0.19794932453E+03  0.15065894277E+04  0.14935286299E+04 0.  0.
        4    1    3    3  502    0  0.49759561503E+03  0.39291571233E+03 -0.29902753218E+03  0.70100159129E+03  0.12699999809E+01 0. -1.
       -4    1    3    3    0  502 -0.49759561503E+03 -0.39291571233E+03  0.49697685671E+03  0.80558783636E+03  0.12699999809E+01 0.  1.
</event>
<event>
 5   0  0.7468375E-04  0.1501089E+04  0.7818609E-02  0.8883729E-01
        3   -1    0    0  501    0  0.00000000000E+00  0.00000000000E+00  0.11592351690E+04  0.11592351734E+04  0.10100000352E+00 0.  1.
       -3   -1    0    0    0  501  0.00000000000E+00  0.00000000000E+00 -0.48593870398E+03  0.48593871448E+03  0.10100000352E+00 0. -1.
    10030    2    1    2    0    0  0.00000000000E+00  0.00000000000E+00  0.67329646505E+03  0.16451738879E+04  0.15010892684E+04 0.  0.
        4    1    3    3  502    0  0.54983254211E+02  0.19805306719E+03  0.11277862667E+04  0.11463645371E+04  0.12699999809E+01 0.  1.
       -4    1    3    3    0  502 -0.54983254211E+02 -0.19805306719E+03 -0.45448980169E+03  0.49880935077E+03  0.12699999809E+01 0. -1.
</event>
<event>
 5   0  0.2111533E-03  0.1506239E+04  0.7818609E-02  0.8880315E-01
       -2   -1    0    0    0  501  0.00000000000E+00  0.00000000000E+00  0.16438314588E+04  0.16438314588E+04  0.25500000920E-02 0.  1.
        2   -1    0    0  501    0  0.00000000000E+00  0.00000000000E+00 -0.34504080410E+03  0.34504080410E+03  0.25500000920E-02 0. -1.
    10030    2    1    2    0    0  0.00000000000E+00  0.00000000000E+00  0.12987906547E+04  0.19888722629E+04  0.15062389297E+04 0.  0.
        5    1    3    3  502    0  0.26504278750E+03 -0.63721992326E+03  0.10474320267E+04  0.12543655171E+04  0.46999998093E+01 0. -1.
       -5    1    3    3    0  502 -0.26504278750E+03  0.63721992326E+03  0.25135862795E+03  0.73450674581E+03  0.46999998093E+01 0.  1.
</event>
<event>
 5   0  0.1993623E-03  0.1464112E+04  0.7818609E-02  0.8908675E-01
       -2   -1    0    0    0  501  0.00000000000E+00  0.00000000000E+00  0.35404645561E+03  0.35404645562E+03  0.25500000920E-02 0. -1.
        2   -1    0    0  501    0  0.00000000000E+00  0.00000000000E+00 -0.15136597051E+04  0.15136597051E+04  0.25500000920E-02 0.  1.
    10030    2    1    2    0    0  0.00000000000E+00  0.00000000000E+00 -0.11596132495E+04  0.18677061607E+04  0.14641118176E+04 0.  0.
        4    1    3    3  502    0 -0.11778721616E+03 -0.20937320834E+01 -0.15014870929E+04  0.15061020268E+04  0.12699999809E+01 0.  1.
       -4    1    3    3    0  502  0.11778721616E+03  0.20937320834E+01  0.34187384339E+03  0.36160413396E+03  0.12699999809E+01 0. -1.
</event>
<event>
 5   0  0.2150197E-03  0.1578981E+04  0.7818609E-02  0.8833566E-01
        2   -1    0    0  501    0  0.00000000000E+00  0.00000000000E+00  0.11667439062E+04  0.11667439062E+04  0.25500000920E-02 0.  1.
       -2   -1    0    0    0  501  0.00000000000E+00  0.00000000000E+00 -0.53421753964E+03  0.53421753965E+03  0.25500000920E-02 0. -1.
    10030    2    1    2    0    0  0.00000000000E+00  0.00000000000E+00  0.63252636651E+03  0.17009614458E+04  0.15789807585E+04 0.  0.
        3    1    3    3  502    0 -0.54555179741E+03  0.28803673737E+03 -0.21444442602E+03  0.65312965619E+03  0.10100000352E+00 0. -1.
       -3    1    3    3    0  502  0.54555179741E+03 -0.28803673737E+03  0.84697079254E+03  0.10478317896E+04  0.10100000352E+00 0.  1.
</event>
<event>
 5   0  0.2111533E-03  0.1511139E+04  0.7818609E-02  0.8877079E-01
       -2   -1    0    0    0  501  0.00000000000E+00  0.00000000000E+00  0.41116474370E+03  0.41116474370E+03  0.25500000920E-02 0.  1.
        2   -1    0    0  501    0  0.00000000000E+00  0.00000000000E+00 -0.13884584290E+04  0.13884584290E+04  0.25500000920E-02 0. -1.
    10030    2    1    2    0    0  0.00000000000E+00  0.00000000000E+00 -0.97729368527E+03  0.17996231727E+04  0.15111388475E+04 0.  0.
        5    1    3    3  502    0 -0.28167761688E+03 -0.11217807458E+03 -0.13128159646E+04  0.13473804389E+04  0.46999998093E+01 0. -1.
       -5    1    3    3    0  502  0.28167761688E+03  0.11217807458E+03  0.33552227936E+03  0.45224273373E+03  0.46999998093E+01 0.  1.
</event>
<event>
 5   0  0.1993623E-03  0.1425457E+04  0.7818609E-02  0.8935595E-01
        2   -1    0    0  501    0  0.00000000000E+00  0.00000000000E+00  0.61874991167E+03  0.61874991167E+03  0.25500000920E-02 0.  1.
       -2   -1    0    0    0  501  0.00000000000E+00  0.00000000000E+00 -0.82098138822E+03  0.82098138822E+03  0.25500000920E-02 0. -1.
    10030    2    1    2    0    0  0.00000000000E+00  0.00000000000E+00 -0.20223147655E+03  0.14397312999E+04  0.14254573462E+04 0.  0.
        4    1    3    3  502    0  0.14523919419E+02 -0.61614154139E+03 -0.46266562762E+03  0.77065065960E+03  0.12699999809E+01 0. -1.
       -4    1    3    3    0  502 -0.14523919419E+02  0.61614154139E+03  0.26043415107E+03  0.66908064029E+03  0.12699999809E+01 0.  1.
</event>
<event>
 5   0  0.2150197E-03  0.1469133E+04  0.7818609E-02  0.8905242E-01
        2   -1    0    0  501    0  0.00000000000E+00  0.00000000000E+00  0.18354584745E+04  0.18354584745E+04  0.25500000920E-02 0.  1.
       -2   -1    0    0    0  501  0.00000000000E+00  0.00000000000E+00 -0.29397999842E+03  0.29397999843E+03  0.25500000920E-02 0. -1.
    10030    2    1    2    0    0  0.00000000000E+00  0.00000000000E+00  0.15414784761E+04  0.21294384729E+04  0.14691331859E+04 0.  0.
        3    1    3    3  502    0  0.28012783822E+02 -0.61979295869E+03  0.20071543866E+03  0.65208490645E+03  0.10100000352E+00 0. -1.
       -3    1    3    3    0  502 -0.28012783822E+02  0.61979295869E+03  0.13407630374E+04  0.14773535665E+04  0.10100000352E+00 0.  1.
</event>
<event>
 5   0  0.1078787E-03  0.1434213E+04  0.7818609E-02  0.8929419E-01
        1   -1    0    0  501    0  0.00000000000E+00  0.00000000000E+00  0.13210036622E+04  0.13210036622E+04  0.50400001928E-02 0. -1.
       -1   -1    0    0    0  501  0.00000000000E+00  0.00000000000E+00 -0.38928094536E+03  0.38928094539E+03  0.50400001928E-02 0.  1.
    10030    2    1    2    0    0  0.00000000000E+00  0.00000000000E+00  0.93172271679E+03  0.17102846076E+04  0.14342127520E+04 0.  0.
        5    1    3    3  502    0 -0.19463111794E+01  0.23522800177E+03  0.12736653807E+04  0.12952148829E+04  0.46999998093E+01 0. -1.
       -5    1    3    3    0  502  0.19463111794E+01 -0.23522800177E+03 -0.34194266389E+03  0.41506972466E+03  0.46999998093E+01 0.  1.
</event>
<event>
 5   0  0.2094566E-03  0.1499357E+04  0.7818609E-02  0.8884881E-01
       -2   -1    0    0    0  501  0.00000000000E+00  0.00000000000E+00  0.55999980163E+03  0.55999980164E+03  0.25500000920E-02 0.  1.
        2   -1    0    0  501    0  0.00000000000E+00  0.00000000000E+00 -0.10036038893E+04  0.10036038893E+04  0.25500000920E-02 0. -1.
    10030    2    1    2    0    0  0.00000000000E+00  0.00000000000E+00 -0.44360408769E+03  0.15636036910E+04  0.14993571675E+04 0.  0.
        1    1    3    3  502    0 -0.54192947518E+03 -0.39383630229E+03 -0.57270713031E+03  0.88135580001E+03  0.50400001928E-02 0. -1.
       -1    1    3    3    0  502  0.54192947518E+03  0.39383630229E+03  0.12910304263E+03  0.68224789095E+03  0.50400001928E-02 0.  1.
</event>
<event>
 5   0  0.1087761E-03  0.1476468E+04  0.7818609E-02  0.8900254E-01
        1   -1    0    0  501    0  0.00000000000E+00  0.00000000000E+00  0.12337504750E+04  0.12337504750E+04  0.50400001928E-02 0.  1.
       -1   -1    0    0    0  501  0.00000000000E+00  0.00000000000E+00 -0.44173388248E+03  0.44173388251E+03  0.50400001928E-02 0. -1.
    10030    2    1    2    0    0  0.00000000000E+00  0.00000000000E+00  0.79201659254E+03  0.16754843575E+04  0.14764679304E+04 0.  0.
        3    1    3    3  502    0 -0.39508572879E+03 -0.17236224448E+03 -0.28409864726E+03  0.51624948232E+03  0.10100000352E+00 0. -1.
       -3    1    3    3    0  502  0.39508572879E+03  0.17236224448E+03  0.10761152398E+04  0.11592348752E+04  0.10100000352E+00 0.  1.
</event>
<event>
 5   0  0.1993623E-03  0.1469879E+04  0.7818609E-02  0.8904734E-01
        2   -1    0    0  501    0  0.00000000000E+00  0.00000000000E+00  0.13339732724E+04  0.13339732724E+04  0.25500000920E-02 0.  1.
       -2   -1    0    0    0  501  0.00000000000E+00  0.00000000000E+00 -0.40490757539E+03  0.40490757540E+03  0.25500000920E-02 0. -1.
    10030    2    1    2    0    0  0.00000000000E+00  0.00000000000E+00  0.92906569697E+03  0.17388808478E+04  0.14698787479E+04 0.  0.
        4    1    3    3  502    0 -0.45002013894E+01  0.67492679280E+03  0.12046642847E+03  0.68560936454E+03  0.12699999809E+01 0. -1.
       -4    1    3    3    0  502  0.45002013894E+01 -0.67492679280E+03  0.80859926850E+03  0.10532714832E+04  0.12699999809E+01 0.  1.
</event>
<event>
 5   0  0.1993623E-03  0.1509461E+04  0.7818609E-02  0.8878186E-01
        2   -1    0    0  501    0  0.00000000000E+00  0.00000000000E+00  0.78130695466E+03  0.78130695466E+03  0.25500000920E-02 0.  1.
       -2   -1    0    0    0  501  0.00000000000E+00  0.00000000000E+00 -0.72905835460E+03  0.72905835460E+03  0.25500000920E-02 0. -1.
    10030    2    1    2    0    0  0.00000000000E+00  0.00000000000E+00  0.52248600061E+02  0.15103653093E+04  0.15094613116E+04 0.  0.
        4    1    3    3  502    0 -0.12943981027E+03 -0.69700820964E+03  0.28520337285E+03  0.76414506841E+03  0.12699999809E+01 0.  1.
       -4    1    3    3    0  502  0.12943981027E+03  0.69700820964E+03 -0.23295477279E+03  0.74622024085E+03  0.12699999809E+01 0. -1.
</event>
<event>
 5   0  0.7468375E-04  0.1554868E+04  0.7818609E-02  0.8848764E-01
       -3   -1    0    0    0  501  0.00000000000E+00  0.00000000000E+00  0.69238534619E+03  0.69238535356E+03  0.10100000352E+00 0. -1.
        3   -1    0    0  501    0  0.00000000000E+00  0.00000000000E+00 -0.87292977040E+03  0.87292977624E+03  0.10100000352E+00 0.  1.
    10030    2    1    2    0    0  0.00000000000E+00  0.00000000000E+00 -0.18054442421E+03  0.15653151298E+04  0.15548682151E+04 0.  0.
        5    1    3    3  502    0 -0.31550514753E+03 -0.24464197406E+02 -0.80514162935E+03  0.86511104974E+03  0.46999998093E+01 0.  1.
       -5    1    3    3    0  502  0.31550514753E+03  0.24464197406E+02  0.62459720514E+03  0.70020408006E+03  0.46999998093E+01 0. -1.
</event>
<event>
 5   0  0.1993623E-03  0.1507293E+04  0.7818609E-02  0.8879618E-01
        2   -1    0    0  501    0  0.00000000000E+00  0.00000000000E+00  0.60818089663E+03  0.60818089664E+03  0.25500000920E-02 0. -1.
       -2   -1    0    0    0  501  0.00000000000E+00  0.00000000000E+00 -0.93390456022E+03  0.93390456022E+03  0.25500000920E-02 0.  1.
    10030    2    1    2    0    0  0.00000000000E+00  0.00000000000E+00 -0.32572366359E+03  0.15420854569E+04  0.15072928220E+04 0.  0.
        4    1    3    3  502    0 -0.19896022306E+03 -0.20890517009E+02 -0.90624239853E+03  0.92806167998E+03  0.12699999809E+01 0.  1.
       -4    1    3    3    0  502  0.19896022306E+03  0.20890517009E+02  0.58051873494E+03  0.61402377688E+03  0.12699999809E+01 0. -1.
</event>
<event>
 5   0  0.2094566E-03  0.1496722E+04  0.7818609E-02  0.8886636E-01
       -2   -1    0    0    0  501  0.00000000000E+00  0.00000000000E+00  0.13338046280E+04  0.13338046280E+04  0.25500000920E-02 0.  1.
        2   -1    0    0  501    0  0.00000000000E+00  0.00000000000E+00 -0.41988457180E+03  0.41988457181E+03  0.25500000920E-02 0. -1.
    10030    2    1    2    0    0  0.00000000000E+00  0.00000000000E+00  0.91392005622E+03  0.17536891998E+04  0.14967217311E+04 0.  0.
        1    1    3    3  502    0  0.58106621608E+03 -0.17112577828E+03  0.97186542591E+03  0.11451831232E+04  0.50400001928E-02 0.  1.
       -1    1    3    3    0  502 -0.58106621608E+03  0.17112577828E+03 -0.57945369690E+02  0.60850607667E+03  0.50400001928E-02 0. -1.
</event>
<event>
 5   0  0.1078018E-03  0.1486555E+04  0.7818609E-02  0.8893443E-01
        1   -1    0    0  501    0  0.00000000000E+00  0.00000000000E+00  0.63518940340E+03  0.63518940342E+03  0.50400001928E-02 0. -1.
       -1   -1    0    0    0  501  0.00000000000E+00  0.00000000000E+00 -0.86975868517E+03  0.86975868519E+03  0.50400001928E-02 0.  1.
    10030    2    1    2    0    0  0.00000000000E+00  0.00000000000E+00 -0.23456928178E+03  0.15049480886E+04  0.14865550785E+04 0.  0.
        4    1    3    3  502    0 -0.52053492958E+03 -0.48542524194E+03  0.99527749273E+02  0.71868050217E+03  0.12699999809E+01 0. -1.
       -4    1    3    3    0  502  0.52053492958E+03  0.48542524194E+03 -0.33409703105E+03  0.78626758644E+03  0.12699999809E+01 0.  1.
</event>
<event>
 5   0  0.1078787E-03  0.7422791E+03  0.7818609E-02  0.9647542E-01
       -1   -1    0    0    0  501  0.00000000000E+00  0.00000000000E+00  0.24981802073E+03  0.24981802078E+03  0.50400001928E-02 0.  1.
        1   -1    0    0  501    0  0.00000000000E+00  0.00000000000E+00 -0.55137965100E+03  0.55137965103E+03  0.50400001928E-02 0. -1.
    10030    2    1    2    0    0  0.00000000000E+00  0.00000000000E+00 -0.30156163027E+03  0.80119767181E+03  0.74227912032E+03 0.  0.
        5    1    3    3  502    0 -0.24985639892E+03  0.71457833804E+02 -0.43673996341E+03  0.50823058519E+03  0.46999998093E+01 0. -1.
       -5    1    3    3    0  502  0.24985639892E+03 -0.71457833804E+02  0.13517833314E+03  0.29296708661E+03  0.46999998093E+01 0.  1.
</event>
<event>
 5   0  0.1993623E-03  0.1514812E+04  0.7818609E-02  0.8874663E-01
       -2   -1    0    0    0  501  0.00000000000E+00  0.00000000000E+00  0.49921753281E+03  0.49921753281E+03  0.25500000920E-02 0.  1.
        2   -1    0    0  501    0  0.00000000000E+00  0.00000000000E+00 -0.11491255452E+04  0.11491255452E+04  0.25500000920E-02 0. -1.
    10030    2    1    2    0    0  0.00000000000E+00  0.00000000000E+00 -0.64990801236E+03  0.16483430780E+04  0.15148116973E+04 0.  0.
        4    1    3    3  502    0 -0.65375816298E+03 -0.32882650761E+03 -0.53745115404E+03  0.90795482467E+03  0.12699999809E+01 0.  1.
       -4    1    3    3    0  502  0.65375816298E+03  0.32882650761E+03 -0.11245685832E+03  0.74038825332E+03  0.12699999809E+01 0. -1.
</event>
<event>
 5   0  0.2094566E-03  0.1517113E+04  0.7818609E-02  0.8873152E-01
       -2   -1    0    0    0  501  0.00000000000E+00  0.00000000000E+00  0.30562588816E+03  0.30562588817E+03  0.25500000920E-02 0. -1.
        2   -1    0    0  501    0  0.00000000000E+00  0.00000000000E+00 -0.18827192253E+04  0.18827192253E+04  0.25500000920E-02 0.  1.
    10030    2    1    2    0    0  0.00000000000E+00  0.00000000000E+00 -0.15770933371E+04  0.21883451135E+04  0.15171126990E+04 0.  0.
        1    1    3    3  502    0 -0.53004437962E+03  0.24130911839E+03 -0.14896241968E+04  0.15994240784E+04  0.50400001928E-02 0.  1.
       -1    1    3    3    0  502  0.53004437962E+03 -0.24130911839E+03 -0.87469140375E+02  0.58892103506E+03  0.50400001928E-02 0. -1.
</event>
<event>
 5   0  0.1961098E-03  0.1484896E+04  0.7818609E-02  0.8894559E-01
        2   -1    0    0  501    0  0.00000000000E+00  0.00000000000E+00  0.13700624737E+04  0.13700624737E+04  0.25500000920E-02 0.  1.
       -2   -1    0    0    0  501  0.00000000000E+00  0.00000000000E+00 -0.40233878984E+03  0.40233878985E+03  0.25500000920E-02 0. -1.
    10030    2    1    2    0    0  0.00000000000E+00  0.00000000000E+00  0.96772368385E+03  0.17724012635E+04  0.14848963300E+04 0.  0.
        2    1    3    3  502    0  0.46326110002E+03 -0.57286472684E+03  0.37417583360E+03  0.82631252956E+03  0.25500000920E-02 0. -1.
       -2    1    3    3    0  502 -0.46326110002E+03  0.57286472684E+03  0.59354785025E+03  0.94608873399E+03  0.25500000920E-02 0.  1.
</event>
<event>
 5   0  0.2111533E-03  0.1489027E+04  0.7818609E-02  0.8891783E-01
        2   -1    0    0  501    0  0.00000000000E+00  0.00000000000E+00  0.96112641329E+03  0.96112641329E+03  0.25500000920E-02 0. -1.
       -2   -1    0    0    0  501  0.00000000000E+00  0.00000000000E+00 -0.57671919163E+03  0.57671919164E+03  0.25500000920E-02 0.  1.
    10030    2    1    2    0    0  0.00000000000E+00  0.00000000000E+00  0.38440722166E+03  0.15378456049E+04  0.14890265923E+04 0.  0.
        5    1    3    3  502    0  0.32216140990E+02  0.71649859439E+03 -0.14017224991E+02  0.71737485884E+03  0.46999998093E+01 0.  1.
       -5    1    3    3    0  502 -0.32216140990E+02 -0.71649859439E+03  0.39842444665E+03  0.82047074609E+03  0.46999998093E+01 0. -1.
</event>
<event>
 5   0  0.1961098E-03  0.1468065E+04  0.7818609E-02  0.8905972E-01
       -2   -1    0    0    0  501  0.00000000000E+00  0.00000000000E+00  0.11625448264E+04  0.11625448264E+04  0.25500000920E-02 0.  1.
        2   -1    0    0  501    0  0.00000000000E+00  0.00000000000E+00 -0.46346908753E+03  0.46346908753E+03  0.25500000920E-02 0. -1.
    10030    2    1    2    0    0  0.00000000000E+00  0.00000000000E+00  0.69907573890E+03  0.16260139140E+04  0.14680648350E+04 0.  0.
        2    1    3    3  502    0 -0.49814695246E+03 -0.42265262642E+02  0.94482689381E+03  0.10689408767E+04  0.25500000920E-02 0.  1.
       -2    1    3    3    0  502  0.49814695246E+03  0.42265262642E+02 -0.24575115491E+03  0.55707303724E+03  0.25500000920E-02 0. -1.
</event>
<event>
 5   0  0.1087761E-03  0.1539421E+04  0.7818609E-02  0.8858654E-01
        1   -1    0    0  501    0  0.00000000000E+00  0.00000000000E+00  0.16414393134E+04  0.16414393134E+04  0.50400001928E-02 0.  1.
       -1   -1    0    0    0  501  0.00000000000E+00  0.00000000000E+00 -0.36093575901E+03  0.36093575904E+03  0.50400001928E-02 0. -1.
    10030    2    1    2    0    0  0.00000000000E+00  0.00000000000E+00  0.12805035544E+04  0.20023750724E+04  0.15394208580E+04 0.  0.
        3    1    3    3  502    0 -0.29906957805E+03  0.54286100289E+03  0.12339239910E+04  0.13808363794E+04  0.10100000352E+00 0.  1.
       -3    1    3    3    0  502  0.29906957805E+03 -0.54286100289E+03  0.46579563366E+02  0.62153869300E+03  0.10100000352E+00 0. -1.
</event>
<event>
 5   0  0.2094566E-03  0.1489175E+04  0.7818609E-02  0.8891684E-01
        2   -1    0    0  501    0  0.00000000000E+00  0.00000000000E+00  0.17159207050E+04  0.17159207050E+04  0.25500000920E-02 0.  1.
       -2   -1    0    0    0  501  0.00000000000E+00  0.00000000000E+00 -0.32309785057E+03  0.32309785058E+03  0.25500000920E-02 0. -1.
    10030    2    1    2    0    0  0.00000000000E+00  0.00000000000E+00  0.13928228544E+04  0.20390185555E+04  0.14891746594E+04 0.  0.
        1    1    3    3  502    0 -0.47539116870E+03  0.99783481634E+02 -0.76270570122E+02  0.49170184703E+03  0.50400001928E-02 0. -1.
       -1    1    3    3    0  502  0.47539116870E+03 -0.99783481634E+02  0.14690934245E+04  0.15473167085E+04  0.50400001928E-02 0.  1.
</event>
<event>
 5   0  0.1078018E-03  0.1490883E+04  0.7818609E-02  0.8890538E-01
       -1   -1    0    0    0  501  0.00000000000E+00  0.00000000000E+00  0.57701248132E+03  0.57701248134E+03  0.50400001928E-02 0.  1.
        1   -1    0    0  501    0  0.00000000000E+00  0.00000000000E+00 -0.96303520950E+03  0.96303520951E+03  0.50400001928E-02 0. -1.
    10030    2    1    2    0    0  0.00000000000E+00  0.00000000000E+00 -0.38602272818E+03  0.15400476909E+04  0.14908834104E+04 0.  0.
        4    1    3    3  502    0 -0.17455073367E+03 -0.71603424082E+03 -0.30854198363E+03  0.79898232847E+03  0.12699999809E+01 0. -1.
       -4    1    3    3    0  502  0.17455073367E+03  0.71603424082E+03 -0.77480744550E+02  0.74106536239E+03  0.12699999809E+01 0.  1.
</event>
<event>
 5   0  0.1078018E-03  0.1489398E+04  0.7818609E-02  0.8891534E-01
       -1   -1    0    0    0  501  0.00000000000E+00  0.00000000000E+00  0.42542968142E+03  0.42542968145E+03  0.50400001928E-02 0. -1.
        1   -1    0    0  501    0  0.00000000000E+00  0.00000000000E+00 -0.13035684999E+04  0.13035684999E+04  0.50400001928E-02 0.  1.
    10030    2    1    2    0    0  0.00000000000E+00  0.00000000000E+00 -0.87813881848E+03  0.17289981814E+04  0.14893981760E+04 0.  0.
        4    1    3    3  502    0 -0.39691849812E+03  0.26942480447E+03 -0.11002980415E+04  0.12003297099E+04  0.12699999809E+01 0.  1.
       -4    1    3    3    0  502  0.39691849812E+03 -0.26942480447E+03  0.22215922305E+03  0.52866847144E+03  0.12699999809E+01 0. -1.
</event>
<event>
 5   0  0.2150197E-03  0.1447775E+04  0.7818609E-02  0.8919944E-01
        2   -1    0    0  501    0  0.00000000000E+00  0.00000000000E+00  0.20292670055E+04  0.20292670055E+04  0.25500000920E-02 0. -1.
       -2   -1    0    0    0  501  0.00000000000E+00  0.00000000000E+00 -0.25822780160E+03  0.25822780161E+03  0.25500000920E-02 0.  1.
    10030    2    1    2    0    0  0.00000000000E+00  0.00000000000E+00  0.17710392039E+04  0.22874948071E+04  0.14477750622E+04 0.  0.
        3    1    3    3  502    0 -0.23483743398E+03  0.52155522640E+03  0.15865241866E+04  0.16864837620E+04  0.10100000352E+00 0. -1.
       -3    1    3    3    0  502  0.23483743398E+03 -0.52155522640E+03  0.18451501733E+03  0.60101104516E+03  0.10100000352E+00 0.  1.
</event>
<event>
 5   0  0.2111533E-03  0.1548999E+04  0.7818609E-02  0.8852507E-01
        2   -1    0    0  501    0  0.00000000000E+00  0.00000000000E+00  0.11322327462E+04  0.11322327462E+04  0.25500000920E-02 0.  1.
       -2   -1    0    0    0  501  0.00000000000E+00  0.00000000000E+00 -0.52979372074E+03  0.52979372074E+03  0.25500000920E-02 0. -1.
    10030    2    1    2    0    0  0.00000000000E+00  0.00000000000E+00  0.60243902548E+03  0.16620264670E+04  0.15489994182E+04 0.  0.
        5    1    3    3  502    0  0.75692135249E+03  0.11527797154E+03  0.42638829719E+03  0.87638348601E+03  0.46999998093E+01 0.  1.
       -5    1    3    3    0  502 -0.75692135249E+03 -0.11527797154E+03  0.17605072829E+03  0.78564298095E+03  0.46999998093E+01 0. -1.
</event>
<event>
 5   0  0.2111533E-03  0.1488624E+04  0.7818609E-02  0.8892053E-01
        2   -1    0    0  501    0  0.00000000000E+00  0.00000000000E+00  0.65729471170E+03  0.65729471170E+03  0.25500000920E-02 0. -1.
       -2   -1    0    0    0  501  0.00000000000E+00  0.00000000000E+00 -0.84284913235E+03  0.84284913235E+03  0.25500000920E-02 0.  1.
    10030    2    1    2    0    0  0.00000000000E+00  0.00000000000E+00 -0.18555442065E+03  0.15001438441E+04  0.14886238980E+04 0.  0.
        5    1    3    3  502    0 -0.11971698225E+03  0.59987191368E+03  0.33453216498E+03  0.69721756150E+03  0.46999998093E+01 0. -1.
       -5    1    3    3    0  502  0.11971698225E+03 -0.59987191368E+03 -0.52008658563E+03  0.80292628255E+03  0.46999998093E+01 0.  1.
</event>
<event>
 5   0  0.2094566E-03  0.1305323E+04  0.7818609E-02  0.9025355E-01
        2   -1    0    0  501    0  0.00000000000E+00  0.00000000000E+00  0.31785755189E+03  0.31785755190E+03  0.25500000920E-02 0. -1.
       -2   -1    0    0    0  501  0.00000000000E+00  0.00000000000E+00 -0.13401191591E+04  0.13401191591E+04  0.25500000920E-02 0.  1.
    10030    2    1    2    0    0  0.00000000000E+00  0.00000000000E+00 -0.10222616073E+04  0.16579767111E+04  0.13053229412E+04 0.  0.
        1    1    3    3  502    0 -0.11427573575E+03  0.59376770585E+03 -0.82315750668E+03  0.10213752068E+04  0.50400001928E-02 0.  1.
       -1    1    3    3    0  502  0.11427573575E+03 -0.59376770585E+03 -0.19910410057E+03  0.63660150422E+03  0.50400001928E-02 0. -1.
</event>
<event>
 5   0  0.1078018E-03  0.1515259E+04  0.7818609E-02  0.8874369E-01
       -1   -1    0    0    0  501  0.00000000000E+00  0.00000000000E+00  0.30415470899E+03  0.30415470903E+03  0.50400001928E-02 0.  1.
        1   -1    0    0  501    0  0.00000000000E+00  0.00000000000E+00 -0.18872059923E+04  0.18872059923E+04  0.50400001928E-02 0. -1.
    10030    2    1    2    0    0  0.00000000000E+00  0.00000000000E+00 -0.15830512833E+04  0.21913607013E+04  0.15152591718E+04 0.  0.
        4    1    3    3  502    0  0.71392166466E+03 -0.17009519813E+03 -0.51948536098E+03  0.89915692338E+03  0.12699999809E+01 0. -1.
       -4    1    3    3    0  502 -0.71392166466E+03  0.17009519813E+03 -0.10635659223E+04  0.12922037779E+04  0.12699999809E+01 0.  1.
</event>
<event>
 5   0  0.7468375E-04  0.1519679E+04  0.7818609E-02  0.8871471E-01
       -3   -1    0    0    0  501  0.00000000000E+00  0.00000000000E+00  0.56710758613E+03  0.56710759513E+03  0.10100000352E+00 0. -1.
        3   -1    0    0  501    0  0.00000000000E+00  0.00000000000E+00 -0.10180717450E+04  0.10180717500E+04  0.10100000352E+00 0.  1.
    10030    2    1    2    0    0  0.00000000000E+00  0.00000000000E+00 -0.45096415884E+03  0.15851793451E+04  0.15196792042E+04 0.  0.
        4    1    3    3  502    0 -0.28737074253E+03 -0.66591842425E+03 -0.46179763098E+03  0.85981856010E+03  0.12699999809E+01 0.  1.
       -4    1    3    3    0  502  0.28737074253E+03  0.66591842425E+03  0.10833472142E+02  0.72536078501E+03  0.12699999809E+01 0. -1.
</event>
<event>
 5   0  0.2111533E-03  0.1484189E+04  0.7818609E-02  0.8895036E-01
        2   -1    0    0  501    0  0.00000000000E+00  0.00000000000E+00  0.10827137343E+04  0.10827137343E+04  0.25500000920E-02 0.  1.
       -2   -1    0    0    0  501  0.00000000000E+00  0.00000000000E+00 -0.50863342945E+03  0.50863342946E+03  0.25500000920E-02 0. -1.
    10030    2    1    2    0    0  0.00000000000E+00  0.00000000000E+00  0.57408030486E+03  0.15913471638E+04  0.14841892060E+04 0.  0.
        5    1    3    3  502    0  0.55545769689E+03  0.31648859072E+03  0.69105322068E+03  0.94142175719E+03  0.46999998093E+01 0.  1.
       -5    1    3    3    0  502 -0.55545769689E+03 -0.31648859072E+03 -0.11697291582E+03  0.64992540659E+03  0.46999998093E+01 0. -1.
</event>
<event>
 5   0  0.1961098E-03  0.1501365E+04  0.7818609E-02  0.8883546E-01
       -2   -1    0    0    0  501  0.00000000000E+00  0.00000000000E+00  0.27588374088E+03  0.27588374089E+03  0.25500000920E-02 0.  1.
        2   -1    0    0  501    0  0.00000000000E+00  0.00000000000E+00 -0.20426143494E+04  0.20426143494E+04  0.25500000920E-02 0. -1.
    10030    2    1    2    0    0  0.00000000000E+00  0.00000000000E+00 -0.17667306085E+04  0.23184980903E+04  0.15013648296E+04 0.  0.
        2    1    3    3  502    0  0.74798816277E+03  0.26536011180E+02 -0.97252726636E+03  0.12271918087E+04  0.25500000920E-02 0.  1.
       -2    1    3    3    0  502 -0.74798816277E+03 -0.26536011180E+02 -0.79420334216E+03  0.10913062816E+04  0.25500000920E-02 0. -1.
</event>
<event>
 5   0  0.2150197E-03  0.1499329E+04  0.7818609E-02  0.8884899E-01
       -2   -1    0    0    0  501  0.00000000000E+00  0.00000000000E+00  0.53330837202E+03  0.53330837203E+03  0.25500000920E-02 0. -1.
        2   -1    0    0  501    0  0.00000000000E+00  0.00000000000E+00 -0.10537931203E+04  0.10537931203E+04  0.25500000920E-02 0.  1.
    10030    2    1    2    0    0  0.00000000000E+00  0.00000000000E+00 -0.52048474829E+03  0.15871014923E+04  0.14993287744E+04 0.  0.
        3    1    3    3  502    0  0.50320977811E+03 -0.43687053286E+03  0.10325637613E+03  0.67434251881E+03  0.10100000352E+00 0. -1.
       -3    1    3    3    0  502 -0.50320977811E+03  0.43687053286E+03 -0.62374112442E+03  0.91275897353E+03  0.10100000352E+00 0.  1.
</event>
<event>
 5   0  0.1077140E-03  0.1645934E+04  0.7818609E-02  0.8792816E-01
        1   -1    0    0  501    0  0.00000000000E+00  0.00000000000E+00  0.97089959945E+03  0.97089959946E+03  0.50400001928E-02 0.  1.
       -1   -1    0    0    0  501  0.00000000000E+00  0.00000000000E+00 -0.69757420391E+03  0.69757420393E+03  0.50400001928E-02 0. -1.
    10030    2    1    2    0    0  0.00000000000E+00  0.00000000000E+00  0.27332539554E+03  0.16684738034E+04  0.16459337960E+04 0.  0.
        1    1    3    3  502    0 -0.35254134893E+03 -0.70521633225E+03  0.37581516972E+03  0.87341428875E+03  0.50400001928E-02 0.  1.
       -1    1    3    3    0  502  0.35254134893E+03  0.70521633225E+03 -0.10248977418E+03  0.79505951464E+03  0.50400001928E-02 0. -1.
</event>
<event>
 5   0  0.2150197E-03  0.1506606E+04  0.7818609E-02  0.8880072E-01
        2   -1    0    0  501    0  0.00000000000E+00  0.00000000000E+00  0.84974369102E+03  0.84974369102E+03  0.25500000920E-02 0. -1.
       -2   -1    0    0    0  501  0.00000000000E+00  0.00000000000E+00 -0.66780762187E+03  0.66780762187E+03  0.25500000920E-02 0.  1.
    10030    2    1    2    0    0  0.00000000000E+00  0.00000000000E+00  0.18193606915E+03  0.15175513129E+04  0.15066058722E+04 0.  0.
        3    1    3    3  502    0 -0.77820738677E+02  0.46761594500E+03  0.68066516805E+03  0.82947321872E+03  0.10100000352E+00 0. -1.
       -3    1    3    3    0  502  0.77820738677E+02 -0.46761594500E+03 -0.49872909890E+03  0.68807809417E+03  0.10100000352E+00 0.  1.
</event>
<event>
 5   0  0.7468375E-04  0.1131512E+04  0.7818609E-02  0.9175011E-01
       -4   -1    0    0    0  501  0.00000000000E+00  0.00000000000E+00  0.22488268425E+03  0.22488627031E+03  0.12699999809E+01 0. -1.
        4   -1    0    0  501    0  0.00000000000E+00  0.00000000000E+00 -0.14233034399E+04  0.14233040065E+04  0.12699999809E+01 0.  1.
    10030    2    1    2    0    0  0.00000000000E+00  0.00000000000E+00 -0.11984207556E+04  0.16481902768E+04  0.11315117679E+04 0.  0.
        4    1    3    3  502    0 -0.12182236957E+03 -0.16591922909E+03  0.16840319563E+03  0.26595324685E+03  0.12699999809E+01 0. -1.
       -4    1    3    3    0  502  0.12182236957E+03  0.16591922909E+03 -0.13668239513E+04  0.13822370299E+04  0.12699999809E+01 0.  1.
</event>
<event>
 5   0  0.1077140E-03  0.1491728E+04  0.7818609E-02  0.8889973E-01
       -1   -1    0    0    0  501  0.00000000000E+00  0.00000000000E+00  0.47825424753E+03  0.47825424755E+03  0.50400001928E-02 0.  1.
        1   -1    0    0  501    0  0.00000000000E+00  0.00000000000E+00 -0.11632158318E+04  0.11632158318E+04  0.50400001928E-02 0. -1.
    10030    2    1    2    0    0  0.00000000000E+00  0.00000000000E+00 -0.68496158429E+03  0.16414700794E+04  0.14917277398E+04 0.  0.
        1    1    3    3  502    0 -0.27785331507E+03  0.68673662078E+02  0.41542141327E+03  0.50447347521E+03  0.50400001928E-02 0.  1.
       -1    1    3    3    0  502  0.27785331507E+03 -0.68673662078E+02 -0.11003829976E+04  0.11369966042E+04  0.50400001928E-02 0. -1.
</event>
<event>
 5   0  0.1069697E-03  0.1598159E+04  0.7818609E-02  0.8821680E-01
       -1   -1    0    0    0  501  0.00000000000E+00  0.00000000000E+00  0.43190224700E+03  0.43190224703E+03  0.50400001928E-02 0. -1.
        1   -1    0    0  501    0  0.00000000000E+00  0.00000000000E+00 -0.14784091648E+04  0.14784091648E+04  0.50400001928E-02 0.  1.
    10030    2    1    2    0    0  0.00000000000E+00  0.00000000000E+00 -0.10465069178E+04  0.19103114118E+04  0.15981592415E+04 0.  0.
        2    1    3    3  502    0  0.49647400147E+03  0.60759157723E+03 -0.70403656743E+03  0.10541923198E+04  0.25500000920E-02 0.  1.
       -2    1    3    3    0  502 -0.49647400147E+03 -0.60759157723E+03 -0.34247035038E+03  0.85611909204E+03  0.25500000920E-02 0. -1.
</event>
<event>
 5   0  0.1993623E-03  0.1489496E+04  0.7818609E-02  0.8891468E-01
       -2   -1    0    0    0  501  0.00000000000E+00  0.00000000000E+00  0.24381110588E+03  0.24381110590E+03  0.25500000920E-02 0. -1.
        2   -1    0    0  501    0  0.00000000000E+00  0.00000000000E+00 -0.22749161335E+04  0.22749161335E+04  0.25500000920E-02 0.  1.
    10030    2    1    2    0    0  0.00000000000E+00  0.00000000000E+00 -0.20311050277E+04  0.25187272394E+04  0.14894963153E+04 0.  0.
        4    1    3    3  502    0 -0.23509672542E+03  0.13839008396E+02  0.17918637037E+03  0.29592457938E+03  0.12699999809E+01 0. -1.
       -4    1    3    3    0  502  0.23509672542E+03 -0.13839008396E+02 -0.22102913980E+04  0.22228026600E+04  0.12699999809E+01 0.  1.
</event>
<event>
 5   0  0.1993623E-03  0.1473074E+04  0.7818609E-02  0.8902558E-01
        2   -1    0    0  501    0  0.00000000000E+00  0.00000000000E+00  0.15241951721E+04  0.15241951721E+04  0.25500000920E-02 0.  1.
       -2   -1    0    0    0  501  0.00000000000E+00  0.00000000000E+00 -0.35591684574E+03  0.35591684575E+03  0.25500000920E-02 0. -1.
    10030    2    1    2    0    0  0.00000000000E+00  0.00000000000E+00  0.11682783263E+04  0.18801120178E+04  0.14730739804E+04 0.  0.
        4    1    3    3  502    0  0.63466895543E+03 -0.32244787781E+03  0.82531887031E+03  0.10899220924E+04  0.12699999809E+01 0.  1.
       -4    1    3    3    0  502 -0.63466895543E+03  0.32244787781E+03  0.34295945603E+03  0.79018992544E+03  0.12699999809E+01 0. -1.
</event>
<event>
 5   0  0.1961098E-03  0.1628233E+04  0.7818609E-02  0.8803389E-01
        2   -1    0    0  501    0  0.00000000000E+00  0.00000000000E+00  0.15776442043E+04  0.15776442043E+04  0.25500000920E-02 0.  1.
       -2   -1    0    0    0  501  0.00000000000E+00  0.00000000000E+00 -0.42011101510E+03  0.42011101510E+03  0.25500000920E-02 0. -1.
    10030    2    1    2    0    0  0.00000000000E+00  0.00000000000E+00  0.11575331892E+04  0.19977552194E+04  0.16282330400E+04 0.  0.
        2    1    3    3  502    0  0.78496717113E+03  0.39316199325E+02  0.83923350181E+03  0.11497965445E+04  0.25500000920E-02 0.  1.
       -2    1    3    3    0  502 -0.78496717113E+03 -0.39316199325E+02  0.31829968741E+03  0.84795867487E+03  0.25500000920E-02 0. -1.
</event>
<event>
 5   0  0.2094566E-03  0.1652038E+04  0.7818609E-02  0.8789201E-01
       -2   -1    0    0    0  501  0.00000000000E+00  0.00000000000E+00  0.38781456549E+03  0.38781456549E+03  0.25500000920E-02 0.  1.
        2   -1    0    0  501    0  0.00000000000E+00  0.00000000000E+00 -0.17593660621E+04  0.17593660621E+04  0.25500000920E-02 0. -1.
    10030    2    1    2    0    0  0.00000000000E+00  0.00000000000E+00 -0.13715514966E+04  0.21471806276E+04  0.16520384801E+04 0.  0.
        1    1    3    3  502    0 -0.52829197465E+03  0.60661571130E+03 -0.44181401386E+03  0.91775522583E+03  0.50400001928E-02 0.  1.
       -1    1    3    3    0  502  0.52829197465E+03 -0.60661571130E+03 -0.92973748278E+03  0.12294254018E+04  0.50400001928E-02 0. -1.
</event>
<event>
 5   0  0.1993623E-03  0.1577292E+04  0.7818609E-02  0.8834621E-01
       -2   -1    0    0    0  501  0.00000000000E+00  0.00000000000E+00  0.51049884982E+03  0.51049884983E+03  0.25500000920E-02 0. -1.
        2   -1    0    0  501    0  0.00000000000E+00  0.00000000000E+00 -0.12183420185E+04  0.12183420185E+04  0.25500000920E-02 0.  1.
    10030    2    1    2    0    0  0.00000000000E+00  0.00000000000E+00 -0.70784316865E+03  0.17288408683E+04  0.15772916016E+04 0.  0.
        4    1    3    3  502    0  0.28156638925E+03  0.60004588582E+03 -0.82232947411E+03  0.10562017201E+04  0.12699999809E+01 0.  1.
       -4    1    3    3    0  502 -0.28156638925E+03 -0.60004588582E+03  0.11448630546E+03  0.67263914820E+03  0.12699999809E+01 0. -1.
</event>
<event>
 5   0  0.2111533E-03  0.1589280E+04  0.7818609E-02  0.8827161E-01
       -2   -1    0    0    0  501  0.00000000000E+00  0.00000000000E+00  0.94307780902E+03  0.94307780903E+03  0.25500000920E-02 0.  1.
        2   -1    0    0  501    0  0.00000000000E+00  0.00000000000E+00 -0.66956571128E+03  0.66956571128E+03  0.25500000920E-02 0. -1.
    10030    2    1    2    0    0  0.00000000000E+00  0.00000000000E+00  0.27351209775E+03  0.16126435203E+04  0.15892797916E+04 0.  0.
        5    1    3    3  502    0  0.92269391277E+01  0.28770344801E+03 -0.61478872351E+03  0.67885615188E+03  0.46999998093E+01 0. -1.
       -5    1    3    3    0  502 -0.92269391277E+01 -0.28770344801E+03  0.88830082125E+03  0.93378736843E+03  0.46999998093E+01 0.  1.
</event>
<event>
 5   0  0.1087761E-03  0.1400436E+04  0.7818609E-02  0.8953503E-01
        1   -1    0    0  501    0  0.00000000000E+00  0.00000000000E+00  0.43577728417E+03  0.43577728420E+03  0.50400001928E-02 0. -1.
       -1   -1    0    0    0  501  0.00000000000E+00  0.00000000000E+00 -0.11251274209E+04  0.11251274209E+04  0.50400001928E-02 0.  1.
    10030    2    1    2    0    0  0.00000000000E+00  0.00000000000E+00 -0.68935013676E+03  0.15609047052E+04  0.14004356063E+04 0.  0.
        3    1    3    3  502    0 -0.11006895988E+03 -0.40049781866E+03 -0.97299991756E+03  0.10579425922E+04  0.10100000352E+00 0.  1.
       -3    1    3    3    0  502  0.11006895988E+03  0.40049781866E+03  0.28364978080E+03  0.50296211292E+03  0.10100000352E+00 0. -1.
</event>
<event>
 5   0  0.1087761E-03  0.1501159E+04  0.7818609E-02  0.8883682E-01
        1   -1    0    0  501    0  0.00000000000E+00  0.00000000000E+00  0.12759327171E+04  0.12759327171E+04  0.50400001928E-02 0.  1.
       -1   -1    0    0    0  501  0.00000000000E+00  0.00000000000E+00 -0.44153564871E+03  0.44153564874E+03  0.50400001928E-02 0. -1.
    10030    2    1    2    0    0  0.00000000000E+00  0.00000000000E+00  0.83439706837E+03  0.17174683658E+04  0.15011592587E+04 0.  0.
        3    1    3    3  502    0 -0.42293754968E+03 -0.74531389494E+02  0.11214802945E+04  0.12008951495E+04  0.10100000352E+00 0.  1.
       -3    1    3    3    0  502  0.42293754968E+03  0.74531389494E+02 -0.28708322610E+03  0.51657321635E+03  0.10100000352E+00 0. -1.
</event>
<event>
 5   0  0.1078018E-03  0.8709679E+03  0.7818609E-02  0.9462619E-01
       -1   -1    0    0    0  501  0.00000000000E+00  0.00000000000E+00  0.10921179042E+03  0.10921179053E+03  0.50400001928E-02 0. -1.
        1   -1    0    0  501    0  0.00000000000E+00  0.00000000000E+00 -0.17364999760E+04  0.17364999760E+04  0.50400001928E-02 0.  1.
    10030    2    1    2    0    0  0.00000000000E+00  0.00000000000E+00 -0.16272881856E+04  0.18457117665E+04  0.87096790193E+03 0.  0.
        4    1    3    3  502    0  0.12221621349E+03  0.39156604746E+03 -0.50375588597E+03  0.64964019112E+03  0.12699999809E+01 0. -1.
       -4    1    3    3    0  502 -0.12221621349E+03 -0.39156604746E+03 -0.11235322996E+04  0.11960715754E+04  0.12699999809E+01 0.  1.
</event>
<event>
 5   0  0.1077140E-03  0.1490497E+04  0.7818609E-02  0.8890797E-01
        1   -1    0    0  501    0  0.00000000000E+00  0.00000000000E+00  0.46147361502E+03  0.46147361505E+03  0.50400001928E-02 0. -1.
       -1   -1    0    0    0  501  0.00000000000E+00  0.00000000000E+00 -0.12035254138E+04  0.12035254138E+04  0.50400001928E-02 0.  1.
    10030    2    1    2    0    0  0.00000000000E+00  0.00000000000E+00 -0.74205179875E+03  0.16649990288E+04  0.14904968614E+04 0.  0.
        1    1    3    3  502    0 -0.21117722453E+03  0.68412355219E+03 -0.13999252424E+03  0.72953324920E+03  0.50400001928E-02 0. -1.
       -1    1    3    3    0  502  0.21117722453E+03 -0.68412355219E+03 -0.60205927450E+03  0.93546577963E+03  0.50400001928E-02 0.  1.
</event>
<event>
 5   0  0.2094566E-03  0.1488932E+04  0.7818609E-02  0.8891847E-01
        2   -1    0    0  501    0  0.00000000000E+00  0.00000000000E+00  0.69366908018E+03  0.69366908018E+03  0.25500000920E-02 0. -1.
       -2   -1    0    0    0  501  0.00000000000E+00  0.00000000000E+00 -0.79898260086E+03  0.79898260086E+03  0.25500000920E-02 0.  1.
    10030    2    1    2    0    0  0.00000000000E+00  0.00000000000E+00 -0.10531352068E+03  0.14926516810E+04  0.14889318666E+04 0.  0.
        1    1    3    3  502    0  0.45637240367E+02  0.51279735002E+03  0.48644657120E+03  0.70828959229E+03  0.50400001928E-02 0. -1.
       -1    1    3    3    0  502 -0.45637240367E+02 -0.51279735002E+03 -0.59176009189E+03  0.78436208875E+03  0.50400001928E-02 0.  1.
</event>
<event>
 5   0  0.1993623E-03  0.1384968E+04  0.7818609E-02  0.8964772E-01
       -2   -1    0    0    0  501  0.00000000000E+00  0.00000000000E+00  0.36608666797E+03  0.36608666797E+03  0.25500000920E-02 0. -1.
        2   -1    0    0  501    0  0.00000000000E+00  0.00000000000E+00 -0.13098922970E+04  0.13098922970E+04  0.25500000920E-02 0.  1.
    10030    2    1    2    0    0  0.00000000000E+00  0.00000000000E+00 -0.94380562902E+03  0.16759789650E+04  0.13849680233E+04 0.  0.
        4    1    3    3  502    0  0.15097705912E+03  0.11982086346E+03  0.33296996062E+03  0.38473590848E+03  0.12699999809E+01 0. -1.
       -4    1    3    3    0  502 -0.15097705912E+03 -0.11982086346E+03 -0.12767755896E+04  0.12912430565E+04  0.12699999809E+01 0.  1.
</event>
<event>
 5   0  0.1961098E-03  0.1497289E+04  0.7818609E-02  0.8886258E-01
       -2   -1    0    0    0  501  0.00000000000E+00  0.00000000000E+00  0.64506073379E+03  0.64506073380E+03  0.25500000920E-02 0. -1.
        2   -1    0    0  501    0  0.00000000000E+00  0.00000000000E+00 -0.86886149735E+03  0.86886149735E+03  0.25500000920E-02 0.  1.
    10030    2    1    2    0    0  0.00000000000E+00  0.00000000000E+00 -0.22380076356E+03  0.15139222311E+04  0.14972887965E+04 0.  0.
        2    1    3    3  502    0 -0.25616994521E+03 -0.57283718801E+03 -0.52472884641E+03  0.81798890399E+03  0.25500000920E-02 0.  1.
       -2    1    3    3    0  502  0.25616994521E+03  0.57283718801E+03  0.30092808285E+03  0.69593332716E+03  0.25500000920E-02 0. -1.
</event>
<event>
 5   0  0.7468375E-04  0.1512283E+04  0.7818609E-02  0.8876325E-01
       -3   -1    0    0    0  501  0.00000000000E+00  0.00000000000E+00  0.46481107316E+03  0.46481108414E+03  0.10100000352E+00 0. -1.
        3   -1    0    0  501    0  0.00000000000E+00  0.00000000000E+00 -0.12300703071E+04  0.12300703113E+04  0.10100000352E+00 0.  1.
    10030    2    1    2    0    0  0.00000000000E+00  0.00000000000E+00 -0.76525923395E+03  0.16948813954E+04  0.15122834553E+04 0.  0.
        2    1    3    3  502    0 -0.33665158224E+03  0.55672574340E+03 -0.81447579469E+03  0.10424244152E+04  0.25500000920E-02 0.  1.
       -2    1    3    3    0  502  0.33665158224E+03 -0.55672574340E+03  0.49216560745E+02  0.65245698023E+03  0.25500000920E-02 0. -1.
</event>
<event>
 5   0  0.1087761E-03  0.1500496E+04  0.7818609E-02  0.8884123E-01
        1   -1    0    0  501    0  0.00000000000E+00  0.00000000000E+00  0.13430704478E+04  0.13430704478E+04  0.50400001928E-02 0. -1.
       -1   -1    0    0    0  501  0.00000000000E+00  0.00000000000E+00 -0.41909330918E+03  0.41909330921E+03  0.50400001928E-02 0.  1.
    10030    2    1    2    0    0  0.00000000000E+00  0.00000000000E+00  0.92397713865E+03  0.17621637570E+04  0.15004957027E+04 0.  0.
        3    1    3    3  502    0  0.19403814451E+03 -0.26542936747E+03  0.12539546659E+04  0.12963432666E+04  0.10100000352E+00 0. -1.
       -3    1    3    3    0  502 -0.19403814451E+03  0.26542936747E+03 -0.32997752721E+03  0.46582049043E+03  0.10100000352E+00 0.  1.
</event>
<event>
 5   0  0.2094566E-03  0.1469870E+04  0.7818609E-02  0.8904740E-01
        2   -1    0    0  501    0  0.00000000000E+00  0.00000000000E+00  0.10448288313E+04  0.10448288313E+04  0.25500000920E-02 0.  1.
       -2   -1    0    0    0  501  0.00000000000E+00  0.00000000000E+00 -0.51695469788E+03  0.51695469789E+03  0.25500000920E-02 0. -1.
    10030    2    1    2    0    0  0.00000000000E+00  0.00000000000E+00  0.52787413345E+03  0.15617835292E+04  0.14698696171E+04 0.  0.
        1    1    3    3  502    0 -0.18427040656E+03 -0.68821506323E+03  0.72287342289E+02  0.71611522528E+03  0.50400001928E-02 0.  1.
       -1    1    3    3    0  502  0.18427040656E+03  0.68821506323E+03  0.45558679116E+03  0.84566830395E+03  0.50400001928E-02 0. -1.
</event>
<event>
 5   0  0.1078018E-03  0.1464306E+04  0.7818609E-02  0.8908542E-01
        1   -1    0    0  501    0  0.00000000000E+00  0.00000000000E+00  0.13729775420E+04  0.13729775420E+04  0.50400001928E-02 0. -1.
       -1   -1    0    0    0  501  0.00000000000E+00  0.00000000000E+00 -0.39042719510E+03  0.39042719514E+03  0.50400001928E-02 0.  1.
    10030    2    1    2    0    0  0.00000000000E+00  0.00000000000E+00  0.98255034688E+03  0.17634047371E+04  0.14643056658E+04 0.  0.
        4    1    3    3  502    0 -0.64367803470E+03 -0.30848947546E+03  0.29501777858E+03  0.77234983745E+03  0.12699999809E+01 0. -1.
       -4    1    3    3    0  502  0.64367803470E+03  0.30848947546E+03  0.68753256829E+03  0.99105489968E+03  0.12699999809E+01 0.  1.
</event>
<event>
 5   0  0.1087761E-03  0.1538113E+04  0.7818609E-02  0.8859496E-01
        1   -1    0    0  501    0  0.00000000000E+00  0.00000000000E+00  0.99881766320E+03  0.99881766321E+03  0.50400001928E-02 0.  1.
       -1   -1    0    0    0  501  0.00000000000E+00  0.00000000000E+00 -0.59214813923E+03  0.59214813925E+03  0.50400001928E-02 0. -1.
    10030    2    1    2    0    0  0.00000000000E+00  0.00000000000E+00  0.40666952397E+03  0.15909658025E+04  0.15381131567E+04 0.  0.
        3    1    3    3  502    0 -0.64805669353E+02 -0.63782756108E+03 -0.23602471401E+03  0.68317746470E+03  0.10100000352E+00 0. -1.
       -3    1    3    3    0  502  0.64805669353E+02  0.63782756108E+03  0.64269423798E+03  0.90778833776E+03  0.10100000352E+00 0.  1.
</event>
<event>
 5   0  0.1077140E-03  0.1466752E+04  0.7818609E-02  0.8906869E-01
       -1   -1    0    0    0  501  0.00000000000E+00  0.00000000000E+00  0.42160683252E+03  0.42160683255E+03  0.50400001928E-02 0. -1.
        1   -1    0    0  501    0  0.00000000000E+00  0.00000000000E+00 -0.12756910998E+04  0.12756910998E+04  0.50400001928E-02 0.  1.
    10030    2    1    2    0    0  0.00000000000E+00  0.00000000000E+00 -0.85408426728E+03  0.16972979324E+04  0.14667516271E+04 0.  0.
        1    1    3    3  502    0  0.48942198605E+03  0.17109723888E+03  0.17316813855E+03  0.54662176120E+03  0.50400001928E-02 0. -1.
       -1    1    3    3    0  502 -0.48942198605E+03 -0.17109723888E+03 -0.10272524058E+04  0.11506761712E+04  0.50400001928E-02 0.  1.
</event>
<event>
 5   0  0.7468375E-04  0.1535855E+04  0.7818609E-02  0.8860954E-01
       -3   -1    0    0    0  501  0.00000000000E+00  0.00000000000E+00  0.86272999391E+03  0.86272999982E+03  0.10100000352E+00 0. -1.
        3   -1    0    0  501    0  0.00000000000E+00  0.00000000000E+00 -0.68354234139E+03  0.68354234885E+03  0.10100000352E+00 0.  1.
    10030    2    1    2    0    0  0.00000000000E+00  0.00000000000E+00  0.17918765252E+03  0.15462723487E+04  0.15358547983E+04 0.  0.
        2    1    3    3  502    0  0.58672275089E+03  0.46346085060E+03  0.26591869168E+03  0.79356933978E+03  0.25500000920E-02 0. -1.
       -2    1    3    3    0  502 -0.58672275089E+03 -0.46346085060E+03 -0.86731039162E+02  0.75270300890E+03  0.25500000920E-02 0.  1.
</event>
<event>
 5   0  0.1087761E-03  0.1495433E+04  0.7818609E-02  0.8887496E-01
       -1   -1    0    0    0  501  0.00000000000E+00  0.00000000000E+00  0.90485664788E+03  0.90485664789E+03  0.50400001928E-02 0. -1.
        1   -1    0    0  501    0  0.00000000000E+00  0.00000000000E+00 -0.61786565762E+03  0.61786565764E+03  0.50400001928E-02 0.  1.
    10030    2    1    2    0    0  0.00000000000E+00  0.00000000000E+00  0.28699099026E+03  0.15227223055E+04  0.14954328441E+04 0.  0.
        3    1    3    3  502    0 -0.63610311201E+03 -0.31193562388E+02 -0.25541840243E+03  0.68617692904E+03  0.10100000352E+00 0.  1.
       -3    1    3    3    0  502  0.63610311201E+03  0.31193562388E+02  0.54240939269E+03  0.83654537649E+03  0.10100000352E+00 0. -1.
</event>
<event>
 5   0  0.1993623E-03  0.1424177E+04  0.7818609E-02  0.8936502E-01
        2   -1    0    0  501    0  0.00000000000E+00  0.00000000000E+00  0.20533968833E+04  0.20533968833E+04  0.25500000920E-02 0.  1.
       -2   -1    0    0    0  501  0.00000000000E+00  0.00000000000E+00 -0.24694207974E+03  0.24694207976E+03  0.25500000920E-02 0. -1.
    10030    2    1    2    0    0  0.00000000000E+00  0.00000000000E+00  0.18064548035E+04  0.23003389630E+04  0.14241770914E+04 0.  0.
        4    1    3    3  502    0 -0.36182701456E+02  0.49286988581E+03  0.75147223192E+02  0.49987861555E+03  0.12699999809E+01 0. -1.
       -4    1    3    3    0  502  0.36182701456E+02 -0.49286988581E+03  0.17313075803E+04  0.18004603475E+04  0.12699999809E+01 0.  1.
</event>
<event>
 5   0  0.2094566E-03  0.1502013E+04  0.7818609E-02  0.8883115E-01
        2   -1    0    0  501    0  0.00000000000E+00  0.00000000000E+00  0.22655636829E+04  0.22655636829E+04  0.25500000920E-02 0.  1.
       -2   -1    0    0    0  501  0.00000000000E+00  0.00000000000E+00 -0.24894947327E+03  0.24894947329E+03  0.25500000920E-02 0. -1.
    10030    2    1    2    0    0  0.00000000000E+00  0.00000000000E+00  0.20166142096E+04  0.25145131562E+04  0.15020131631E+04 0.  0.
        1    1    3    3  502    0  0.15914235686E+03  0.70099394418E+02  0.22313946026E+04  0.22381604249E+04  0.50400001928E-02 0.  1.
       -1    1    3    3    0  502 -0.15914235686E+03 -0.70099394418E+02 -0.21478039301E+03  0.27635273129E+03  0.50400001928E-02 0. -1.
</event>
<event>
 5   0  0.1078018E-03  0.1430981E+04  0.7818609E-02  0.8931693E-01
       -1   -1    0    0    0  501  0.00000000000E+00  0.00000000000E+00  0.49776182046E+03  0.49776182049E+03  0.50400001928E-02 0. -1.
        1   -1    0    0  501    0  0.00000000000E+00  0.00000000000E+00 -0.10284577395E+04  0.10284577395E+04  0.50400001928E-02 0.  1.
    10030    2    1    2    0    0  0.00000000000E+00  0.00000000000E+00 -0.53069591901E+03  0.15262195600E+04  0.14309814767E+04 0.  0.
        4    1    3    3  502    0 -0.25404264472E+03 -0.65281234038E+03 -0.10996827524E+03  0.70908127288E+03  0.12699999809E+01 0. -1.
       -4    1    3    3    0  502  0.25404264472E+03  0.65281234038E+03 -0.42072764377E+03  0.81713828709E+03  0.12699999809E+01 0.  1.
</event>
<event>
 5   0  0.2111533E-03  0.1477529E+04  0.7818609E-02  0.8899535E-01
       -2   -1    0    0    0  501  0.00000000000E+00  0.00000000000E+00  0.12879801447E+04  0.12879801447E+04  0.25500000920E-02 0. -1.
        2   -1    0    0  501    0  0.00000000000E+00  0.00000000000E+00 -0.42374316423E+03  0.42374316423E+03  0.25500000920E-02 0.  1.
    10030    2    1    2    0    0  0.00000000000E+00  0.00000000000E+00  0.86423698052E+03  0.17117233090E+04  0.14775287232E+04 0.  0.
        5    1    3    3  502    0  0.21337195477E+03  0.64313473306E+02  0.12480928311E+04  0.12678413225E+04  0.46999998093E+01 0. -1.
       -5    1    3    3    0  502 -0.21337195477E+03 -0.64313473306E+02 -0.38385585058E+03  0.44388198651E+03  0.46999998093E+01 0.  1.
</event>
<event>
 5   0  0.1078018E-03  0.1268999E+04  0.7818609E-02  0.9054517E-01
       -1   -1    0    0    0  501  0.00000000000E+00  0.00000000000E+00  0.33512564537E+03  0.33512564541E+03  0.50400001928E-02 0.  1.
        1   -1    0    0  501    0  0.00000000000E+00  0.00000000000E+00 -0.12013092599E+04  0.12013092599E+04  0.50400001928E-02 0. -1.
    10030    2    1    2    0    0  0.00000000000E+00  0.00000000000E+00 -0.86618361448E+03  0.15364349053E+04  0.12689988826E+04 0.  0.
        4    1    3    3  502    0 -0.52623164739E+03  0.34535910402E+03 -0.52991566696E+03  0.82280306540E+03  0.12699999809E+01 0. -1.
       -4    1    3    3    0  502  0.52623164739E+03 -0.34535910402E+03 -0.33626794752E+03  0.71363183987E+03  0.12699999809E+01 0.  1.
</event>
<event>
 5   0  0.1077140E-03  0.1515642E+04  0.7818609E-02  0.8874117E-01
        1   -1    0    0  501    0  0.00000000000E+00  0.00000000000E+00  0.15234248150E+04  0.15234248151E+04  0.50400001928E-02 0.  1.
       -1   -1    0    0    0  501  0.00000000000E+00  0.00000000000E+00 -0.37697462307E+03  0.37697462310E+03  0.50400001928E-02 0. -1.
    10030    2    1    2    0    0  0.00000000000E+00  0.00000000000E+00  0.11464501920E+04  0.19003994382E+04  0.15156417723E+04 0.  0.
        1    1    3    3  502    0 -0.43840402100E+03 -0.59343559459E+03  0.35630910789E+03  0.81934124206E+03  0.50400001928E-02 0. -1.
       -1    1    3    3    0  502  0.43840402100E+03  0.59343559459E+03  0.79014108409E+03  0.10810581961E+04  0.50400001928E-02 0.  1.
</event>
<event>
 5   0  0.1077140E-03  0.1516282E+04  0.7818609E-02  0.8873698E-01
        1   -1    0    0  501    0  0.00000000000E+00  0.00000000000E+00  0.61673839850E+03  0.61673839852E+03  0.50400001928E-02 0.  1.
       -1   -1    0    0    0  501  0.00000000000E+00  0.00000000000E+00 -0.93196310111E+03  0.93196310112E+03  0.50400001928E-02 0. -1.
    10030    2    1    2    0    0  0.00000000000E+00  0.00000000000E+00 -0.31522470261E+03  0.15487014996E+04  0.15162815444E+04 0.  0.
        1    1    3    3  502    0 -0.55829266866E+03  0.49171901332E+03 -0.85496838050E+01  0.74401034204E+03  0.50400001928E-02 0.  1.
       -1    1    3    3    0  502  0.55829266866E+03 -0.49171901332E+03 -0.30667501880E+03  0.80469115760E+03  0.50400001928E-02 0. -1.
</event>
<event>
 5   0  0.1087761E-03  0.1482307E+04  0.7818609E-02  0.8896304E-01
       -1   -1    0    0    0  501  0.00000000000E+00  0.00000000000E+00  0.37229640344E+03  0.37229640348E+03  0.50400001928E-02 0. -1.
        1   -1    0    0  501    0  0.00000000000E+00  0.00000000000E+00 -0.14754603591E+04  0.14754603591E+04  0.50400001928E-02 0.  1.
    10030    2    1    2    0    0  0.00000000000E+00  0.00000000000E+00 -0.11031639557E+04  0.18477567626E+04  0.14823071006E+04 0.  0.
        3    1    3    3  502    0 -0.53756491268E+03  0.12580795660E+03  0.64800654014E+02  0.55588021394E+03  0.10100000352E+00 0. -1.
       -3    1    3    3    0  502  0.53756491268E+03 -0.12580795660E+03 -0.11679646097E+04  0.12918765487E+04  0.10100000352E+00 0.  1.
</event>
<event>
 5   0  0.2111533E-03  0.1503246E+04  0.7818609E-02  0.8882297E-01
       -2   -1    0    0    0  501  0.00000000000E+00  0.00000000000E+00  0.50315567583E+03  0.50315567584E+03  0.25500000920E-02 0.  1.
        2   -1    0    0  501    0  0.00000000000E+00  0.00000000000E+00 -0.11227883496E+04  0.11227883496E+04  0.25500000920E-02 0. -1.
    10030    2    1    2    0    0  0.00000000000E+00  0.00000000000E+00 -0.61963267374E+03  0.16259440254E+04  0.15032462617E+04 0.  0.
        5    1    3    3  502    0 -0.14902000691E+03 -0.33861385507E+03  0.39783962313E+03  0.54329067821E+03  0.46999998093E+01 0.  1.
       -5    1    3    3    0  502  0.14902000691E+03  0.33861385507E+03 -0.10174722969E+04  0.10826533472E+04  0.46999998093E+01 0. -1.
</event>
<event>
 5   0  0.2094566E-03  0.1497089E+04  0.7818609E-02  0.8886391E-01
       -2   -1    0    0    0  501  0.00000000000E+00  0.00000000000E+00  0.45780388488E+03  0.45780388489E+03  0.25500000920E-02 0. -1.
        2   -1    0    0  501    0  0.00000000000E+00  0.00000000000E+00 -0.12239282850E+04  0.12239282850E+04  0.25500000920E-02 0.  1.
    10030    2    1    2    0    0  0.00000000000E+00  0.00000000000E+00 -0.76612440008E+03  0.16817321699E+04  0.14970893409E+04 0.  0.
        1    1    3    3  502    0 -0.70389820787E+03  0.24567829383E+03 -0.45832236636E+03  0.87515135984E+03  0.50400001928E-02 0.  1.
       -1    1    3    3    0  502  0.70389820787E+03 -0.24567829383E+03 -0.30780203373E+03  0.80658081002E+03  0.50400001928E-02 0. -1.
</event>
<event>
 5   0  0.1078018E-03  0.1524564E+04  0.7818609E-02  0.8868280E-01
        1   -1    0    0  501    0  0.00000000000E+00  0.00000000000E+00  0.44500749381E+03  0.44500749384E+03  0.50400001928E-02 0.  1.
       -1   -1    0    0    0  501  0.00000000000E+00  0.00000000000E+00 -0.13057626680E+04  0.13057626680E+04  0.50400001928E-02 0. -1.
    10030    2    1    2    0    0  0.00000000000E+00  0.00000000000E+00 -0.86075517419E+03  0.17507701618E+04  0.15245644262E+04 0.  0.
        4    1    3    3  502    0 -0.50340575017E+03 -0.51797809513E+03 -0.71015200224E+03  0.10129344182E+04  0.12699999809E+01 0.  1.
       -4    1    3    3    0  502  0.50340575017E+03  0.51797809513E+03 -0.15060317195E+03  0.73783574367E+03  0.12699999809E+01 0. -1.
</event>
<event>
 5   0  0.1087761E-03  0.9424382E+03  0.7818609E-02  0.9374033E-01
        1   -1    0    0  501    0  0.00000000000E+00  0.00000000000E+00  0.47919421413E+03  0.47919421415E+03  0.50400001928E-02 0.  1.
       -1   -1    0    0    0  501  0.00000000000E+00  0.00000000000E+00 -0.46337671941E+03  0.46337671944E+03  0.50400001928E-02 0. -1.
    10030    2    1    2    0    0  0.00000000000E+00  0.00000000000E+00  0.15817494716E+02  0.94257093359E+03  0.94243820578E+03 0.  0.
        3    1    3    3  502    0 -0.47017932804E+03 -0.12098541554E+02  0.36765150480E+02  0.47176971258E+03  0.10100000352E+00 0. -1.
       -3    1    3    3    0  502  0.47017932804E+03  0.12098541554E+02 -0.20947655764E+02  0.47080122101E+03  0.10100000352E+00 0.  1.
</event>
<event>
 5   0  0.2111533E-03  0.1505549E+04  0.7818609E-02  0.8880771E-01
       -2   -1    0    0    0  501  0.00000000000E+00  0.00000000000E+00  0.22746487935E+03  0.22746487936E+03  0.25500000920E-02 0.  1.
        2   -1    0    0  501    0  0.00000000000E+00  0.00000000000E+00 -0.24912385977E+04  0.24912385977E+04  0.25500000920E-02 0. -1.
    10030    2    1    2    0    0  0.00000000000E+00  0.00000000000E+00 -0.22637737183E+04  0.27187034770E+04  0.15055487864E+04 0.  0.
        5    1    3    3  502    0 -0.54603013418E+03 -0.44722178321E+03 -0.65929780767E+03  0.96584259587E+03  0.46999998093E+01 0.  1.
       -5    1    3    3    0  502  0.54603013418E+03  0.44722178321E+03 -0.16044759107E+04  0.17528608812E+04  0.46999998093E+01 0. -1.
</event>
<event>
 5   0  0.1078787E-03  0.1512178E+04  0.7818609E-02  0.8876395E-01
       -1   -1    0    0    0  501  0.00000000000E+00  0.00000000000E+00  0.11695254723E+04  0.11695254723E+04  0.50400001928E-02 0.  1.
        1   -1    0    0  501    0  0.00000000000E+00  0.00000000000E+00 -0.48880543962E+03  0.48880543965E+03  0.50400001928E-02 0. -1.
    10030    2    1    2    0    0  0.00000000000E+00  0.00000000000E+00  0.68072003267E+03  0.16583309119E+04  0.15121777841E+04 0.  0.
        5    1    3    3  502    0 -0.16326859643E+03  0.22275897609E+03 -0.43149058930E+03  0.51233232834E+03  0.46999998093E+01 0. -1.
       -5    1    3    3    0  502  0.16326859643E+03 -0.22275897609E+03  0.11122106220E+04  0.11459985836E+04  0.46999998093E+01 0.  1.
</event>
<event>
 5   0  0.1087761E-03  0.1432812E+04  0.7818609E-02  0.8930404E-01
        1   -1    0    0  501    0  0.00000000000E+00  0.00000000000E+00  0.92444664375E+03  0.92444664376E+03  0.50400001928E-02 0. -1.
       -1   -1    0    0    0  501  0.00000000000E+00  0.00000000000E+00 -0.55518340274E+03  0.55518340276E+03  0.50400001928E-02 0.  1.
    10030    2    1    2    0    0  0.00000000000E+00  0.00000000000E+00  0.36926324101E+03  0.14796300465E+04  0.14328118276E+04 0.  0.
        3    1    3    3  502    0 -0.66627397467E+03 -0.23270820478E+03  0.31179466673E+03  0.77155041461E+03  0.10100000352E+00 0. -1.
       -3    1    3    3    0  502  0.66627397467E+03  0.23270820478E+03  0.57468574283E+02  0.70807963191E+03  0.10100000352E+00 0.  1.
</event>
<event>
 5   0  0.1993623E-03  0.1453666E+04  0.7818609E-02  0.8915863E-01
       -2   -1    0    0    0  501  0.00000000000E+00  0.00000000000E+00  0.15269255687E+04  0.15269255687E+04  0.25500000920E-02 0. -1.
        2   -1    0    0  501    0  0.00000000000E+00  0.00000000000E+00 -0.34598045293E+03  0.34598045294E+03  0.25500000920E-02 0.  1.
    10030    2    1    2    0    0  0.00000000000E+00  0.00000000000E+00  0.11809451158E+04  0.18729060216E+04  0.14536662614E+04 0.  0.
        4    1    3    3  502    0  0.64291309836E+03 -0.16336614086E+03  0.20770874500E+03  0.69510451277E+03  0.12699999809E+01 0.  1.
       -4    1    3    3    0  502 -0.64291309836E+03  0.16336614086E+03  0.97323637076E+03  0.11778015089E+04  0.12699999809E+01 0. -1.
</event>
<event>
 5   0  0.1961098E-03  0.1513924E+04  0.7818609E-02  0.8875246E-01
       -2   -1    0    0    0  501  0.00000000000E+00  0.00000000000E+00  0.23744104129E+03  0.23744104130E+03  0.25500000920E-02 0. -1.
        2   -1    0    0  501    0  0.00000000000E+00  0.00000000000E+00 -0.24131951709E+04  0.24131951709E+04  0.25500000920E-02 0.  1.
    10030    2    1    2    0    0  0.00000000000E+00  0.00000000000E+00 -0.21757541296E+04  0.26506362122E+04  0.15139241384E+04 0.  0.
        2    1    3    3  502    0  0.39982596830E+02 -0.74296312596E+03 -0.13317328112E+04  0.15254851999E+04  0.25500000920E-02 0. -1.
       -2    1    3    3    0  502 -0.39982596830E+02  0.74296312596E+03 -0.84402131834E+03  0.11251510123E+04  0.25500000920E-02 0.  1.
</event>
<event>
 5   0  0.1069697E-03  0.1535018E+04  0.7818609E-02  0.8861494E-01
       -1   -1    0    0    0  501  0.00000000000E+00  0.00000000000E+00  0.53829356073E+03  0.53829356076E+03  0.50400001928E-02 0.  1.
        1   -1    0    0  501    0  0.00000000000E+00  0.00000000000E+00 -0.10943291711E+04  0.10943291711E+04  0.50400001928E-02 0. -1.
    10030    2    1    2    0    0  0.00000000000E+00  0.00000000000E+00 -0.55603561037E+03  0.16326227319E+04  0.15350183662E+04 0.  0.
        2    1    3    3  502    0  0.48407779626E+03 -0.71090672804E+02 -0.90696018198E+03  0.10305153896E+04  0.25500000920E-02 0. -1.
       -2    1    3    3    0  502 -0.48407779626E+03  0.71090672804E+02  0.35092457161E+03  0.60210734223E+03  0.25500000920E-02 0.  1.
</event>
<event>
 5   0  0.1961098E-03  0.1495014E+04  0.7818609E-02  0.8887775E-01
        2   -1    0    0  501    0  0.00000000000E+00  0.00000000000E+00  0.18327862172E+04  0.18327862172E+04  0.25500000920E-02 0.  1.
       -2   -1    0    0    0  501  0.00000000000E+00  0.00000000000E+00 -0.30487277020E+03  0.30487277021E+03  0.25500000920E-02 0. -1.
    10030    2    1    2    0    0  0.00000000000E+00  0.00000000000E+00  0.15279134470E+04  0.21376589874E+04  0.14950138611E+04 0.  0.
        2    1    3    3  502    0 -0.62588748165E+03  0.33301688449E+02  0.18152394739E+03  0.65252975842E+03  0.25500000920E-02 0. -1.
       -2    1    3    3    0  502  0.62588748165E+03 -0.33301688449E+02  0.13463894996E+04  0.14851292290E+04  0.25500000920E-02 0.  1.
</event>
<event>
 5   0  0.1069697E-03  0.1282765E+04  0.7818609E-02  0.9043346E-01
       -1   -1    0    0    0  501  0.00000000000E+00  0.00000000000E+00  0.60688033645E+03  0.60688033647E+03  0.50400001928E-02 0.  1.
        1   -1    0    0  501    0  0.00000000000E+00  0.00000000000E+00 -0.67784598717E+03  0.67784598719E+03  0.50400001928E-02 0. -1.
    10030    2    1    2    0    0  0.00000000000E+00  0.00000000000E+00 -0.70965650724E+02  0.12847263237E+04  0.12827648277E+04 0.  0.
        2    1    3    3  502    0  0.22628030626E+03 -0.29326378728E+03  0.48892548492E+03  0.61339592087E+03  0.25500000920E-02 0.  1.
       -2    1    3    3    0  502 -0.22628030626E+03  0.29326378728E+03 -0.55989113564E+03  0.67133040279E+03  0.25500000920E-02 0. -1.
</event>
<event>
 5   0  0.7468375E-04  0.1508723E+04  0.7818609E-02  0.8878673E-01
        3   -1    0    0  501    0  0.00000000000E+00  0.00000000000E+00  0.54655125364E+03  0.54655126298E+03  0.10100000352E+00 0.  1.
       -3   -1    0    0    0  501  0.00000000000E+00  0.00000000000E+00 -0.10411855280E+04  0.10411855329E+04  0.10100000352E+00 0. -1.
    10030    2    1    2    0    0  0.00000000000E+00  0.00000000000E+00 -0.49463427437E+03  0.15877367959E+04  0.15087229923E+04 0.  0.
        5    1    3    3  502    0  0.47706525906E+03 -0.17490381617E+03  0.33942736183E+03  0.61107743394E+03  0.46999998093E+01 0.  1.
       -5    1    3    3    0  502 -0.47706525906E+03  0.17490381617E+03 -0.83406163620E+03  0.97665936195E+03  0.46999998093E+01 0. -1.
</event>
<event>
 5   0  0.1077140E-03  0.1018627E+04  0.7818609E-02  0.9288347E-01
        1   -1    0    0  501    0  0.00000000000E+00  0.00000000000E+00  0.10911465904E+04  0.10911465904E+04  0.50400001928E-02 0. -1.
       -1   -1    0    0    0  501  0.00000000000E+00  0.00000000000E+00 -0.23773190354E+03  0.23773190359E+03  0.50400001928E-02 0.  1.
    10030    2    1    2    0    0  0.00000000000E+00  0.00000000000E+00  0.85341468688E+03  0.13288784940E+04  0.10186272253E+04 0.  0.
        1    1    3    3  502    0  0.48246701206E+03 -0.88147272804E+02  0.60584823807E+03  0.77948473175E+03  0.50400001928E-02 0.  1.
       -1    1    3    3    0  502 -0.48246701206E+03  0.88147272804E+02  0.24756644881E+03  0.54939376227E+03  0.50400001928E-02 0. -1.
</event>
<event>
 5   0  0.1961098E-03  0.1488852E+04  0.7818609E-02  0.8891900E-01
        2   -1    0    0  501    0  0.00000000000E+00  0.00000000000E+00  0.47886463966E+03  0.47886463966E+03  0.25500000920E-02 0.  1.
       -2   -1    0    0    0  501  0.00000000000E+00  0.00000000000E+00 -0.11572582191E+04  0.11572582191E+04  0.25500000920E-02 0. -1.
    10030    2    1    2    0    0  0.00000000000E+00  0.00000000000E+00 -0.67839357945E+03  0.16361228588E+04  0.14888519605E+04 0.  0.
        2    1    3    3  502    0  0.61863907835E+03  0.26025822169E+03  0.14717873867E+02  0.67131607089E+03  0.25500000920E-02 0.  1.
       -2    1    3    3    0  502 -0.61863907835E+03 -0.26025822169E+03 -0.69311145332E+03  0.96480678788E+03  0.25500000920E-02 0. -1.
</event>
<event>
 5   0  0.1993623E-03  0.1553602E+04  0.7818609E-02  0.8849570E-01
       -2   -1    0    0    0  501  0.00000000000E+00  0.00000000000E+00  0.42377078368E+03  0.42377078369E+03  0.25500000920E-02 0.  1.
        2   -1    0    0  501    0  0.00000000000E+00  0.00000000000E+00 -0.14239293739E+04  0.14239293739E+04  0.25500000920E-02 0. -1.
    10030    2    1    2    0    0  0.00000000000E+00  0.00000000000E+00 -0.10001585902E+04  0.18477001576E+04  0.15536018366E+04 0.  0.
        4    1    3    3  502    0 -0.30183851837E+03  0.22993903718E+03 -0.13062109650E+04  0.13602084951E+04  0.12699999809E+01 0. -1.
       -4    1    3    3    0  502  0.30183851837E+03 -0.22993903718E+03  0.30605237482E+03  0.48749166252E+03  0.12699999809E+01 0.  1.
</event>
<event>
 5   0  0.2094566E-03  0.1495960E+04  0.7818609E-02  0.8887144E-01
       -2   -1    0    0    0  501  0.00000000000E+00  0.00000000000E+00  0.28734884788E+03  0.28734884789E+03  0.25500000920E-02 0. -1.
        2   -1    0    0  501    0  0.00000000000E+00  0.00000000000E+00 -0.19470209280E+04  0.19470209280E+04  0.25500000920E-02 0.  1.
    10030    2    1    2    0    0  0.00000000000E+00  0.00000000000E+00 -0.16596720802E+04  0.22343697759E+04  0.14959601873E+04 0.  0.
        1    1    3    3  502    0  0.56213386921E+03 -0.38191823233E+03 -0.36317622536E+03  0.77055369300E+03  0.50400001928E-02 0. -1.
       -1    1    3    3    0  502 -0.56213386921E+03  0.38191823233E+03 -0.12964958548E+04  0.14638160829E+04  0.50400001928E-02 0.  1.
</event>
<event>
 5   0  0.2094566E-03  0.1512258E+04  0.7818609E-02  0.8876342E-01
        2   -1    0    0  501    0  0.00000000000E+00  0.00000000000E+00  0.30891083733E+03  0.30891083734E+03  0.25500000920E-02 0.  1.
       -2   -1    0    0    0  501  0.00000000000E+00  0.00000000000E+00 -0.18507954751E+04  0.18507954751E+04  0.25500000920E-02 0. -1.
    10030    2    1    2    0    0  0.00000000000E+00  0.00000000000E+00 -0.15418846378E+04  0.21597063125E+04  0.15122576235E+04 0.  0.
        1    1    3    3  502    0 -0.60678452265E+03  0.20852627120E+03 -0.19958146693E+03  0.67194004545E+03  0.50400001928E-02 0. -1.
       -1    1    3    3    0  502  0.60678452265E+03 -0.20852627120E+03 -0.13423031709E+04  0.14877662670E+04  0.50400001928E-02 0.  1.
</event>
<event>
 5   0  0.1069697E-03  0.1268062E+04  0.7818609E-02  0.9055283E-01
        1   -1    0    0  501    0  0.00000000000E+00  0.00000000000E+00  0.51217100089E+03  0.51217100091E+03  0.50400001928E-02 0.  1.
       -1   -1    0    0    0  501  0.00000000000E+00  0.00000000000E+00 -0.78488494848E+03  0.78488494850E+03  0.50400001928E-02 0. -1.
    10030    2    1    2    0    0  0.00000000000E+00  0.00000000000E+00 -0.27271394759E+03  0.12970559494E+04  0.12680620011E+04 0.  0.
        2    1    3    3  502    0  0.39916062437E+02 -0.88772553662E+02 -0.77719742782E+03  0.78326860025E+03  0.25500000920E-02 0. -1.
       -2    1    3    3    0  502 -0.39916062437E+02  0.88772553662E+02  0.50448348023E+03  0.51378734916E+03  0.25500000920E-02 0.  1.
</event>
<event>
 5   0  0.1069697E-03  0.1446866E+04  0.7818609E-02  0.8920576E-01
        1   -1    0    0  501    0  0.00000000000E+00  0.00000000000E+00  0.12234733537E+04  0.12234733537E+04  0.50400001928E-02 0. -1.
       -1   -1    0    0    0  501  0.00000000000E+00  0.00000000000E+00 -0.42776172951E+03  0.42776172954E+03  0.50400001928E-02 0.  1.
    10030    2    1    2    0    0  0.00000000000E+00  0.00000000000E+00  0.79571162416E+03  0.16512350832E+04  0.14468656853E+04 0.  0.
        2    1    3    3  502    0  0.16596038317E+03  0.26709487260E+03 -0.34568617863E+03  0.46731301485E+03  0.25500000920E-02 0.  1.
       -2    1    3    3    0  502 -0.16596038317E+03 -0.26709487260E+03  0.11413978028E+04  0.11839220684E+04  0.25500000920E-02 0. -1.
</event>
<event>
 5   0  0.2094566E-03  0.1366896E+04  0.7818609E-02  0.8978135E-01
        2   -1    0    0  501    0  0.00000000000E+00  0.00000000000E+00  0.80446430930E+03  0.80446430931E+03  0.25500000920E-02 0. -1.
       -2   -1    0    0    0  501  0.00000000000E+00  0.00000000000E+00 -0.58063665147E+03  0.58063665148E+03  0.25500000920E-02 0.  1.
    10030    2    1    2    0    0  0.00000000000E+00  0.00000000000E+00  0.22382765783E+03  0.13851009608E+04  0.13668964303E+04 0.  0.
        1    1    3    3  502    0  0.48687572499E+03  0.20215404438E+03 -0.32883557588E+03  0.62132685861E+03  0.50400001928E-02 0. -1.
       -1    1    3    3    0  502 -0.48687572499E+03 -0.20215404438E+03  0.55266323371E+03  0.76377410218E+03  0.50400001928E-02 0.  1.
</event>
<event>
 5   0  0.2111533E-03  0.1119373E+04  0.7818609E-02  0.9186513E-01
       -2   -1    0    0    0  501  0.00000000000E+00  0.00000000000E+00  0.40405748303E+03  0.40405748304E+03  0.25500000920E-02 0.  1.
        2   -1    0    0  501    0  0.00000000000E+00  0.00000000000E+00 -0.77525854802E+03  0.77525854803E+03  0.25500000920E-02 0. -1.
    10030    2    1    2    0    0  0.00000000000E+00  0.00000000000E+00 -0.37120106499E+03  0.11793160311E+04  0.11193730703E+04 0.  0.
        5    1    3    3  502    0 -0.11157979897E+03  0.25807269208E+03 -0.69543119033E+03  0.75013211931E+03  0.46999998093E+01 0. -1.
       -5    1    3    3    0  502  0.11157979897E+03 -0.25807269208E+03  0.32423012534E+03  0.42918391176E+03  0.46999998093E+01 0.  1.
</event>
<event>
 5   0  0.1993623E-03  0.1492194E+04  0.7818609E-02  0.8889660E-01
       -2   -1    0    0    0  501  0.00000000000E+00  0.00000000000E+00  0.27768803154E+03  0.27768803156E+03  0.25500000920E-02 0.  1.
        2   -1    0    0  501    0  0.00000000000E+00  0.00000000000E+00 -0.20046267595E+04  0.20046267595E+04  0.25500000920E-02 0. -1.
    10030    2    1    2    0    0  0.00000000000E+00  0.00000000000E+00 -0.17269387280E+04  0.22823147911E+04  0.14921941681E+04 0.  0.
        4    1    3    3  502    0 -0.65170615149E+03  0.32845185876E+03 -0.11007036145E+04  0.13206633149E+04  0.12699999809E+01 0. -1.
       -4    1    3    3    0  502  0.65170615149E+03 -0.32845185876E+03 -0.62623511346E+03  0.96165147618E+03  0.12699999809E+01 0.  1.
</event>
<event>
 5   0  0.1077140E-03  0.1526312E+04  0.7818609E-02  0.8867142E-01
        1   -1    0    0  501    0  0.00000000000E+00  0.00000000000E+00  0.48041465592E+03  0.48041465595E+03  0.50400001928E-02 0.  1.
       -1   -1    0    0    0  501  0.00000000000E+00  0.00000000000E+00 -0.12123003244E+04  0.12123003244E+04  0.50400001928E-02 0. -1.
    10030    2    1    2    0    0  0.00000000000E+00  0.00000000000E+00 -0.73188566847E+03  0.16927149803E+04  0.15263116893E+04 0.  0.
        1    1    3    3  502    0 -0.50904520742E+03  0.24183549121E+03 -0.93662702005E+03  0.10931064005E+04  0.50400001928E-02 0. -1.
       -1    1    3    3    0  502  0.50904520742E+03 -0.24183549121E+03  0.20474135158E+03  0.59960857989E+03  0.50400001928E-02 0.  1.
</event>
<event>
 5   0  0.2150197E-03  0.1514330E+04  0.7818609E-02  0.8874979E-01
        2   -1    0    0  501    0  0.00000000000E+00  0.00000000000E+00  0.14686444839E+04  0.14686444839E+04  0.25500000920E-02 0. -1.
       -2   -1    0    0    0  501  0.00000000000E+00  0.00000000000E+00 -0.39035897045E+03  0.39035897045E+03  0.25500000920E-02 0.  1.
    10030    2    1    2    0    0  0.00000000000E+00  0.00000000000E+00  0.10782855135E+04  0.18590034544E+04  0.15143296189E+04 0.  0.
        3    1    3    3  502    0 -0.69540972062E+03  0.86153225564E+00  0.17146822637E+03  0.71623793855E+03  0.10100000352E+00 0.  1.
       -3    1    3    3    0  502  0.69540972062E+03 -0.86153225564E+00  0.90681728711E+03  0.11427655158E+04  0.10100000352E+00 0. -1.
</event>
<event>
 5   0  0.2094566E-03  0.1515337E+04  0.7818609E-02  0.8874318E-01
       -2   -1    0    0    0  501  0.00000000000E+00  0.00000000000E+00  0.84886314629E+03  0.84886314630E+03  0.25500000920E-02 0.  1.
        2   -1    0    0  501    0  0.00000000000E+00  0.00000000000E+00 -0.67627093836E+03  0.67627093836E+03  0.25500000920E-02 0. -1.
    10030    2    1    2    0    0  0.00000000000E+00  0.00000000000E+00  0.17259220794E+03  0.15251340847E+04  0.15153368952E+04 0.  0.
        1    1    3    3  502    0 -0.19765026588E+03  0.56182398568E+02  0.82028430420E+03  0.84562901396E+03  0.50400001928E-02 0.  1.
       -1    1    3    3    0  502  0.19765026588E+03 -0.56182398568E+02 -0.64769209627E+03  0.67950507070E+03  0.50400001928E-02 0. -1.
</event>
<event>
 5   0  0.1078018E-03  0.1190397E+04  0.7818609E-02  0.9121304E-01
       -1   -1    0    0    0  501  0.00000000000E+00  0.00000000000E+00  0.52197581892E+03  0.52197581895E+03  0.50400001928E-02 0. -1.
        1   -1    0    0  501    0  0.00000000000E+00  0.00000000000E+00 -0.67869242315E+03  0.67869242316E+03  0.50400001928E-02 0.  1.
    10030    2    1    2    0    0  0.00000000000E+00  0.00000000000E+00 -0.15671660422E+03  0.12006682421E+04  0.11903966287E+04 0.  0.
        4    1    3    3  502    0  0.54615586800E+03 -0.60012019479E+02 -0.30918171668E+03  0.63046222842E+03  0.12699999809E+01 0. -1.
       -4    1    3    3    0  502 -0.54615586800E+03  0.60012019479E+02  0.15246511246E+03  0.57020601369E+03  0.12699999809E+01 0.  1.
</event>
<event>
 5   0  0.2150197E-03  0.9929826E+03  0.7818609E-02  0.9316275E-01
        2   -1    0    0  501    0  0.00000000000E+00  0.00000000000E+00  0.64303347031E+03  0.64303347031E+03  0.25500000920E-02 0. -1.
       -2   -1    0    0    0  501  0.00000000000E+00  0.00000000000E+00 -0.38334491756E+03  0.38334491757E+03  0.25500000920E-02 0.  1.
    10030    2    1    2    0    0  0.00000000000E+00  0.00000000000E+00  0.25968855275E+03  0.10263783879E+04  0.99298260342E+03 0.  0.
        3    1    3    3  502    0 -0.17801888766E+03 -0.45090821497E+03  0.19025354797E+02  0.48515040659E+03  0.10100000352E+00 0.  1.
       -3    1    3    3    0  502  0.17801888766E+03  0.45090821497E+03  0.24066319795E+03  0.54122798129E+03  0.10100000352E+00 0. -1.
</event>
<event>
 5   0  0.2094566E-03  0.1209034E+04  0.7818609E-02  0.9104986E-01
        2   -1    0    0  501    0  0.00000000000E+00  0.00000000000E+00  0.13996940986E+04  0.13996940986E+04  0.25500000920E-02 0.  1.
       -2   -1    0    0    0  501  0.00000000000E+00  0.00000000000E+00 -0.26108621423E+03  0.26108621424E+03  0.25500000920E-02 0. -1.
    10030    2    1    2    0    0  0.00000000000E+00  0.00000000000E+00  0.11386078844E+04  0.16607803129E+04  0.12090340497E+04 0.  0.
        1    1    3    3  502    0  0.31107547999E+03 -0.24037612845E+03  0.12001217002E+04  0.12628700379E+04  0.50400001928E-02 0.  1.
       -1    1    3    3    0  502 -0.31107547999E+03  0.24037612845E+03 -0.61513815774E+02  0.39791027498E+03  0.50400001928E-02 0. -1.
</event>
<event>
 5   0  0.1069697E-03  0.1480661E+04  0.7818609E-02  0.8897416E-01
        1   -1    0    0  501    0  0.00000000000E+00  0.00000000000E+00  0.22674469025E+04  0.22674469025E+04  0.50400001928E-02 0.  1.
       -1   -1    0    0    0  501  0.00000000000E+00  0.00000000000E+00 -0.24172097593E+03  0.24172097598E+03  0.50400001928E-02 0. -1.
    10030    2    1    2    0    0  0.00000000000E+00  0.00000000000E+00  0.20257259266E+04  0.25091678785E+04  0.14806613093E+04 0.  0.
        2    1    3    3  502    0  0.47115800096E+03 -0.10181170725E+03  0.19650771813E+04  0.20233348250E+04  0.25500000920E-02 0.  1.
       -2    1    3    3    0  502 -0.47115800096E+03  0.10181170725E+03  0.60648745343E+02  0.48583305355E+03  0.25500000920E-02 0. -1.
</event>
<event>
 5   0  0.2111533E-03  0.1524257E+04  0.7818609E-02  0.8868480E-01
       -2   -1    0    0    0  501  0.00000000000E+00  0.00000000000E+00  0.68098081668E+03  0.68098081669E+03  0.25500000920E-02 0.  1.
        2   -1    0    0  501    0  0.00000000000E+00  0.00000000000E+00 -0.85294643755E+03  0.85294643756E+03  0.25500000920E-02 0. -1.
    10030    2    1    2    0    0  0.00000000000E+00  0.00000000000E+00 -0.17196562087E+03  0.15339272542E+04  0.15242574082E+04 0.  0.
        5    1    3    3  502    0 -0.62562197418E+03 -0.20065242769E+02  0.35153106516E+03  0.71791479182E+03  0.46999998093E+01 0.  1.
       -5    1    3    3    0  502  0.62562197418E+03  0.20065242769E+02 -0.52349668603E+03  0.81601246242E+03  0.46999998093E+01 0. -1.
</event>
<event>
 5   0  0.1077140E-03  0.1482798E+04  0.7818609E-02  0.8895973E-01
       -1   -1    0    0    0  501  0.00000000000E+00  0.00000000000E+00  0.66842646309E+03  0.66842646311E+03  0.50400001928E-02 0.  1.
        1   -1    0    0  501    0  0.00000000000E+00  0.00000000000E+00 -0.82233839201E+03  0.82233839203E+03  0.50400001928E-02 0. -1.
    10030    2    1    2    0    0  0.00000000000E+00  0.00000000000E+00 -0.15391192893E+03  0.14907648551E+04  0.14827983583E+04 0.  0.
        1    1    3    3  502    0 -0.25121841494E+03  0.33963435288E+02  0.62349986453E+03  0.67306484683E+03  0.50400001928E-02 0.  1.
       -1    1    3    3    0  502  0.25121841494E+03 -0.33963435288E+02 -0.77741179346E+03  0.81770000830E+03  0.50400001928E-02 0. -1.
</event>
<event>
 5   0  0.2094566E-03  0.8524818E+03  0.7818609E-02  0.9487012E-01
        2   -1    0    0  501    0  0.00000000000E+00  0.00000000000E+00  0.17057986794E+04  0.17057986794E+04  0.25500000920E-02 0. -1.
       -2   -1    0    0    0  501  0.00000000000E+00  0.00000000000E+00 -0.10650805911E+03  0.10650805914E+03  0.25500000920E-02 0.  1.
    10030    2    1    2    0    0  0.00000000000E+00  0.00000000000E+00  0.15992906203E+04  0.18123067386E+04  0.85248180415E+03 0.  0.
        1    1    3    3  502    0 -0.12619368171E+03  0.15013315257E+03  0.16041769197E+04  0.16161214059E+04  0.50400001928E-02 0. -1.
       -1    1    3    3    0  502  0.12619368171E+03 -0.15013315257E+03 -0.48862994120E+01  0.19618533266E+03  0.50400001928E-02 0.  1.
</event>
<event>
 5   0  0.1961098E-03  0.1370609E+04  0.7818609E-02  0.8975372E-01
        2   -1    0    0  501    0  0.00000000000E+00  0.00000000000E+00  0.75133052790E+03  0.75133052791E+03  0.25500000920E-02 0.  1.
       -2   -1    0    0    0  501  0.00000000000E+00  0.00000000000E+00 -0.62508073779E+03  0.62508073779E+03  0.25500000920E-02 0. -1.
    10030    2    1    2    0    0  0.00000000000E+00  0.00000000000E+00  0.12624979012E+03  0.13764112657E+04  0.13706089752E+04 0.  0.
        2    1    3    3  502    0 -0.48398311112E+02  0.50844501935E+03 -0.39573778865E+03  0.64611696433E+03  0.25500000920E-02 0. -1.
       -2    1    3    3    0  502  0.48398311112E+02 -0.50844501935E+03  0.52198757876E+03  0.73029430137E+03  0.25500000920E-02 0.  1.
</event>
<event>
 5   0  0.7468375E-04  0.1460771E+04  0.7818609E-02  0.8910967E-01
        3   -1    0    0  501    0  0.00000000000E+00  0.00000000000E+00  0.48098792023E+03  0.48098793084E+03  0.10100000352E+00 0.  1.
       -3   -1    0    0    0  501  0.00000000000E+00  0.00000000000E+00 -0.11090989059E+04  0.11090989105E+04  0.10100000352E+00 0. -1.
    10030    2    1    2    0    0  0.00000000000E+00  0.00000000000E+00 -0.62811098562E+03  0.15900868413E+04  0.14607712869E+04 0.  0.
        2    1    3    3  502    0  0.53746076841E+03 -0.48790988581E+03 -0.40210539308E+03  0.82982460882E+03  0.25500000920E-02 0.  1.
       -2    1    3    3    0  502 -0.53746076841E+03  0.48790988581E+03 -0.22600559254E+03  0.76026223247E+03  0.25500000920E-02 0. -1.
</event>
<event>
 5   0  0.1087761E-03  0.1745805E+04  0.7818609E-02  0.8735663E-01
       -1   -1    0    0    0  501  0.00000000000E+00  0.00000000000E+00  0.16051639130E+04  0.16051639130E+04  0.50400001928E-02 0. -1.
        1   -1    0    0  501    0  0.00000000000E+00  0.00000000000E+00 -0.47469234973E+03  0.47469234976E+03  0.50400001928E-02 0.  1.
    10030    2    1    2    0    0  0.00000000000E+00  0.00000000000E+00  0.11304715633E+04  0.20798562628E+04  0.17458052922E+04 0.  0.
        3    1    3    3  502    0  0.82048788245E+03 -0.17532688455E+03  0.27827460028E+03  0.88395511484E+03  0.10100000352E+00 0.  1.
       -3    1    3    3    0  502 -0.82048788245E+03  0.17532688455E+03  0.85219696301E+03  0.11959011479E+04  0.10100000352E+00 0. -1.
</event>
<event>
 5   0  0.2150197E-03  0.1518901E+04  0.7818609E-02  0.8871980E-01
       -2   -1    0    0    0  501  0.00000000000E+00  0.00000000000E+00  0.14162485420E+04  0.14162485420E+04  0.25500000920E-02 0.  1.
        2   -1    0    0  501    0  0.00000000000E+00  0.00000000000E+00 -0.40724856893E+03  0.40724856894E+03  0.25500000920E-02 0. -1.
    10030    2    1    2    0    0  0.00000000000E+00  0.00000000000E+00  0.10089999730E+04  0.18234971109E+04  0.15189011712E+04 0.  0.
        3    1    3    3  502    0  0.71970988317E+03 -0.26007028654E+02  0.21510705303E+03  0.75161807851E+03  0.10100000352E+00 0. -1.
       -3    1    3    3    0  502 -0.71970988317E+03  0.26007028654E+02  0.79389292001E+03  0.10718790324E+04  0.10100000352E+00 0.  1.
</event>
<event>
 5   0  0.2111533E-03  0.1506037E+04  0.7818609E-02  0.8880448E-01
        2   -1    0    0  501    0  0.00000000000E+00  0.00000000000E+00  0.11484319414E+04  0.11484319414E+04  0.25500000920E-02 0.  1.
       -2   -1    0    0    0  501  0.00000000000E+00  0.00000000000E+00 -0.49374903229E+03  0.49374903230E+03  0.25500000920E-02 0. -1.
    10030    2    1    2    0    0  0.00000000000E+00  0.00000000000E+00  0.65468290912E+03  0.16421809737E+04  0.15060373963E+04 0.  0.
        5    1    3    3  502    0  0.15875487470E+02  0.19137757578E+01  0.11482307964E+04  0.11483517516E+04  0.46999998093E+01 0.  1.
       -5    1    3    3    0  502 -0.15875487470E+02 -0.19137757578E+01 -0.49354788724E+03  0.49382922214E+03  0.46999998093E+01 0. -1.
</event>
<event>
 5   0  0.7468375E-04  0.1300025E+04  0.7818609E-02  0.9029545E-01
        3   -1    0    0  501    0  0.00000000000E+00  0.00000000000E+00  0.59856116644E+03  0.59856117496E+03  0.10100000352E+00 0.  1.
       -3   -1    0    0    0  501  0.00000000000E+00  0.00000000000E+00 -0.70588659007E+03  0.70588659730E+03  0.10100000352E+00 0. -1.
    10030    2    1    2    0    0  0.00000000000E+00  0.00000000000E+00 -0.10732542363E+03  0.13044477723E+04  0.13000250936E+04 0.  0.
        2    1    3    3  502    0  0.50010165204E+03  0.40694345237E+03  0.29150937959E+02  0.64541026719E+03  0.25500000920E-02 0.  1.
       -2    1    3    3    0  502 -0.50010165204E+03 -0.40694345237E+03 -0.13647636159E+03  0.65903750507E+03  0.25500000920E-02 0. -1.
</event>
<event>
 5   0  0.2094566E-03  0.1484608E+04  0.7818609E-02  0.8894753E-01
        2   -1    0    0  501    0  0.00000000000E+00  0.00000000000E+00  0.20865068659E+04  0.20865068659E+04  0.25500000920E-02 0.  1.
       -2   -1    0    0    0  501  0.00000000000E+00  0.00000000000E+00 -0.26408508710E+03  0.26408508711E+03  0.25500000920E-02 0. -1.
    10030    2    1    2    0    0  0.00000000000E+00  0.00000000000E+00  0.18224217788E+04  0.23505919530E+04  0.14846081603E+04 0.  0.
        1    1    3    3  502    0 -0.36227023005E+03 -0.58787574631E+03  0.47998762300E+03  0.84096714023E+03  0.50400001928E-02 0. -1.
       -1    1    3    3    0  502  0.36227023005E+03  0.58787574631E+03  0.13424341558E+04  0.15096248128E+04  0.50400001928E-02 0.  1.
</event>
<event>
 5   0  0.1077140E-03  0.1506786E+04  0.7818609E-02  0.8879953E-01
       -1   -1    0    0    0  501  0.00000000000E+00  0.00000000000E+00  0.29192102839E+03  0.29192102844E+03  0.50400001928E-02 0. -1.
        1   -1    0    0  501    0  0.00000000000E+00  0.00000000000E+00 -0.19443651128E+04  0.19443651128E+04  0.50400001928E-02 0.  1.
    10030    2    1    2    0    0  0.00000000000E+00  0.00000000000E+00 -0.16524440844E+04  0.22362861412E+04  0.15067860676E+04 0.  0.
        1    1    3    3  502    0  0.61987265181E+03 -0.39630118819E+03 -0.58551467941E+03  0.94027877571E+03  0.50400001928E-02 0. -1.
       -1    1    3    3    0  502 -0.61987265181E+03  0.39630118819E+03 -0.10669294050E+04  0.12960073655E+04  0.50400001928E-02 0.  1.
</event>
<event>
 5   0  0.2150197E-03  0.1479544E+04  0.7818609E-02  0.8898171E-01
        2   -1    0    0  501    0  0.00000000000E+00  0.00000000000E+00  0.17774930812E+04  0.17774930812E+04  0.25500000920E-02 0.  1.
       -2   -1    0    0    0  501  0.00000000000E+00  0.00000000000E+00 -0.30788454797E+03  0.30788454798E+03  0.25500000920E-02 0. -1.
    10030    2    1    2    0    0  0.00000000000E+00  0.00000000000E+00  0.14696085332E+04  0.20853776292E+04  0.14795440566E+04 0.  0.
        3    1    3    3  502    0  0.37096670315E+03  0.38826992651E+03  0.14519655005E+04  0.15480870956E+04  0.10100000352E+00 0.  1.
       -3    1    3    3    0  502 -0.37096670315E+03 -0.38826992651E+03  0.17643032723E+02  0.53729053359E+03  0.10100000352E+00 0. -1.
</event>
<event>
 5   0  0.1993623E-03  0.1514870E+04  0.7818609E-02  0.8874624E-01
        2   -1    0    0  501    0  0.00000000000E+00  0.00000000000E+00  0.21151163647E+04  0.21151163647E+04  0.25500000920E-02 0.  1.
       -2   -1    0    0    0  501  0.00000000000E+00  0.00000000000E+00 -0.27124174790E+03  0.27124174791E+03  0.25500000920E-02 0. -1.
    10030    2    1    2    0    0  0.00000000000E+00  0.00000000000E+00  0.18438746168E+04  0.23863581126E+04  0.15148701064E+04 0.  0.
        4    1    3    3  502    0  0.31842758245E+03 -0.17967274881E+03 -0.12302419599E+03  0.38576545676E+03  0.12699999809E+01 0. -1.
       -4    1    3    3    0  502 -0.31842758245E+03  0.17967274881E+03  0.19668988128E+04  0.20005926559E+04  0.12699999809E+01 0.  1.
</event>
<event>
 5   0  0.1961098E-03  0.1508139E+04  0.7818609E-02  0.8879058E-01
        2   -1    0    0  501    0  0.00000000000E+00  0.00000000000E+00  0.13092832000E+04  0.13092832000E+04  0.25500000920E-02 0. -1.
       -2   -1    0    0    0  501  0.00000000000E+00  0.00000000000E+00 -0.43429958487E+03  0.43429958488E+03  0.25500000920E-02 0.  1.
    10030    2    1    2    0    0  0.00000000000E+00  0.00000000000E+00  0.87498361512E+03  0.17435827849E+04  0.15081394501E+04 0.  0.
        2    1    3    3  502    0 -0.15689227178E+03  0.44467056657E+03  0.11178083742E+04  0.12131952272E+04  0.25500000920E-02 0. -1.
       -2    1    3    3    0  502  0.15689227178E+03 -0.44467056657E+03 -0.24282475912E+03  0.53038755770E+03  0.25500000920E-02 0.  1.
</event>
<event>
 5   0  0.1961098E-03  0.1526740E+04  0.7818609E-02  0.8866864E-01
        2   -1    0    0  501    0  0.00000000000E+00  0.00000000000E+00  0.77237612709E+03  0.77237612710E+03  0.25500000920E-02 0. -1.
       -2   -1    0    0    0  501  0.00000000000E+00  0.00000000000E+00 -0.75446847137E+03  0.75446847138E+03  0.25500000920E-02 0.  1.
    10030    2    1    2    0    0  0.00000000000E+00  0.00000000000E+00  0.17907655722E+02  0.15268445985E+04  0.15267395795E+04 0.  0.
        2    1    3    3  502    0  0.50233823526E+03  0.52416705144E+03  0.24484848684E+03  0.76618899884E+03  0.25500000920E-02 0.  1.
       -2    1    3    3    0  502 -0.50233823526E+03 -0.52416705144E+03 -0.22694083112E+03  0.76065559964E+03  0.25500000920E-02 0. -1.
</event>
<event>
 5   0  0.2094566E-03  0.1513313E+04  0.7818609E-02  0.8875648E-01
       -2   -1    0    0    0  501  0.00000000000E+00  0.00000000000E+00  0.10585246224E+04  0.10585246224E+04  0.25500000920E-02 0. -1.
        2   -1    0    0  501    0  0.00000000000E+00  0.00000000000E+00 -0.54087475687E+03  0.54087475687E+03  0.25500000920E-02 0.  1.
    10030    2    1    2    0    0  0.00000000000E+00  0.00000000000E+00  0.51764986558E+03  0.15993993793E+04  0.15133132495E+04 0.  0.
        1    1    3    3  502    0  0.41033094798E+03  0.61512780521E+03  0.42850546202E+03  0.85461724452E+03  0.50400001928E-02 0.  1.
       -1    1    3    3    0  502 -0.41033094798E+03 -0.61512780521E+03  0.89144403553E+02  0.74478213481E+03  0.50400001928E-02 0. -1.
</event>
<event>
 5   0  0.7468375E-04  0.1459503E+04  0.7818609E-02  0.8911839E-01
        3   -1    0    0  501    0  0.00000000000E+00  0.00000000000E+00  0.66549995446E+03  0.66549996212E+03  0.10100000352E+00 0.  1.
       -3   -1    0    0    0  501  0.00000000000E+00  0.00000000000E+00 -0.80020614170E+03  0.80020614808E+03  0.10100000352E+00 0. -1.
    10030    2    1    2    0    0  0.00000000000E+00  0.00000000000E+00 -0.13470618724E+03  0.14657061102E+04  0.14595028758E+04 0.  0.
        2    1    3    3  502    0 -0.20337371188E+03  0.63999370204E+03  0.21949065378E+03  0.70649058906E+03  0.25500000920E-02 0.  1.
       -2    1    3    3    0  502  0.20337371188E+03 -0.63999370204E+03 -0.35419684102E+03  0.75921552113E+03  0.25500000920E-02 0. -1.
</event>
<event>
 5   0  0.1077140E-03  0.1006538E+04  0.7818609E-02  0.9301403E-01
        1   -1    0    0  501    0  0.00000000000E+00  0.00000000000E+00  0.12589628106E+04  0.12589628106E+04  0.50400001928E-02 0. -1.
       -1   -1    0    0    0  501  0.00000000000E+00  0.00000000000E+00 -0.20118125963E+03  0.20118125970E+03  0.50400001928E-02 0.  1.
    10030    2    1    2    0    0  0.00000000000E+00  0.00000000000E+00  0.10577815510E+04  0.14601440703E+04  0.10065380750E+04 0.  0.
        1    1    3    3  502    0  0.81203294891E+02  0.39759933817E+03  0.96069175690E+03  0.10428843947E+04  0.50400001928E-02 0. -1.
       -1    1    3    3    0  502 -0.81203294891E+02 -0.39759933817E+03  0.97089794102E+02  0.41725967569E+03  0.50400001928E-02 0.  1.
</event>
<event>
 5   0  0.2094566E-03  0.1513325E+04  0.7818609E-02  0.8875640E-01
       -2   -1    0    0    0  501  0.00000000000E+00  0.00000000000E+00  0.23096496689E+03  0.23096496690E+03  0.25500000920E-02 0.  1.
        2   -1    0    0  501    0  0.00000000000E+00  0.00000000000E+00 -0.24788973113E+04  0.24788973113E+04  0.25500000920E-02 0. -1.
    10030    2    1    2    0    0  0.00000000000E+00  0.00000000000E+00 -0.22479323445E+04  0.27098622782E+04  0.15133253919E+04 0.  0.
        1    1    3    3  502    0 -0.25243426569E+03 -0.66568251758E+02  0.14776574308E+03  0.29998184194E+03  0.50400001928E-02 0.  1.
       -1    1    3    3    0  502  0.25243426569E+03  0.66568251758E+02 -0.23956980875E+04  0.24098804363E+04  0.50400001928E-02 0. -1.
</event>
<event>
 5   0  0.1069697E-03  0.1490672E+04  0.7818609E-02  0.8890680E-01
        1   -1    0    0  501    0  0.00000000000E+00  0.00000000000E+00  0.26384427444E+04  0.26384427444E+04  0.50400001928E-02 0.  1.
       -1   -1    0    0    0  501  0.00000000000E+00  0.00000000000E+00 -0.21055054203E+03  0.21055054209E+03  0.50400001928E-02 0. -1.
    10030    2    1    2    0    0  0.00000000000E+00  0.00000000000E+00  0.24278922024E+04  0.28489932865E+04  0.14906717278E+04 0.  0.
        2    1    3    3  502    0 -0.38360050103E+03  0.29882494905E+03  0.22935367260E+04  0.23445162419E+04  0.25500000920E-02 0.  1.
       -2    1    3    3    0  502  0.38360050103E+03 -0.29882494905E+03  0.13435547634E+03  0.50447704467E+03  0.25500000920E-02 0. -1.
</event>
<event>
 5   0  0.1087761E-03  0.1296124E+04  0.7818609E-02  0.9032645E-01
       -1   -1    0    0    0  501  0.00000000000E+00  0.00000000000E+00  0.30720018468E+03  0.30720018472E+03  0.50400001928E-02 0. -1.
        1   -1    0    0  501    0  0.00000000000E+00  0.00000000000E+00 -0.13671354445E+04  0.13671354445E+04  0.50400001928E-02 0.  1.
    10030    2    1    2    0    0  0.00000000000E+00  0.00000000000E+00 -0.10599352598E+04  0.16743356292E+04  0.12961238538E+04 0.  0.
        3    1    3    3  502    0  0.74692083343E+02  0.63147857719E+03 -0.69152116810E+03  0.93943900115E+03  0.10100000352E+00 0.  1.
       -3    1    3    3    0  502 -0.74692083343E+02 -0.63147857719E+03 -0.36841409171E+03  0.73489662806E+03  0.10100000352E+00 0. -1.
</event>
<event>
 5   0  0.1078018E-03  0.1479299E+04  0.7818609E-02  0.8898337E-01
        1   -1    0    0  501    0  0.00000000000E+00  0.00000000000E+00  0.72771626451E+03  0.72771626453E+03  0.50400001928E-02 0. -1.
       -1   -1    0    0    0  501  0.00000000000E+00  0.00000000000E+00 -0.75177800214E+03  0.75177800216E+03  0.50400001928E-02 0.  1.
    10030    2    1    2    0    0  0.00000000000E+00  0.00000000000E+00 -0.24061737632E+02  0.14794942667E+04  0.14792985899E+04 0.  0.
        4    1    3    3  502    0  0.44694339353E+02 -0.72151774487E+03 -0.16855724634E+03  0.74229279825E+03  0.12699999809E+01 0.  1.
       -4    1    3    3    0  502 -0.44694339353E+02  0.72151774487E+03  0.14449550871E+03  0.73720146844E+03  0.12699999809E+01 0. -1.
</event>
<event>
 5   0  0.2094566E-03  0.1491596E+04  0.7818609E-02  0.8890061E-01
       -2   -1    0    0    0  501  0.00000000000E+00  0.00000000000E+00  0.60214714474E+03  0.60214714474E+03  0.25500000920E-02 0. -1.
        2   -1    0    0  501    0  0.00000000000E+00  0.00000000000E+00 -0.92371868823E+03  0.92371868824E+03  0.25500000920E-02 0.  1.
    10030    2    1    2    0    0  0.00000000000E+00  0.00000000000E+00 -0.32157154350E+03  0.15258658330E+04  0.14915958845E+04 0.  0.
        1    1    3    3  502    0  0.38369936113E+03  0.63500452681E+03 -0.83156689487E+02  0.74657282554E+03  0.50400001928E-02 0.  1.
       -1    1    3    3    0  502 -0.38369936113E+03 -0.63500452681E+03 -0.23841485401E+03  0.77929300744E+03  0.50400001928E-02 0. -1.
</event>
<event>
 5   0  0.1069697E-03  0.1465426E+04  0.7818609E-02  0.8907776E-01
        1   -1    0    0  501    0  0.00000000000E+00  0.00000000000E+00  0.11553179586E+04  0.11553179586E+04  0.50400001928E-02 0. -1.
       -1   -1    0    0    0  501  0.00000000000E+00  0.00000000000E+00 -0.46469285524E+03  0.46469285527E+03  0.50400001928E-02 0.  1.
    10030    2    1    2    0    0  0.00000000000E+00  0.00000000000E+00  0.69062510340E+03  0.16200108139E+04  0.14654255367E+04 0.  0.
        2    1    3    3  502    0 -0.65122635027E+03 -0.31484941286E+03  0.47443287219E+03  0.86505055476E+03  0.25500000920E-02 0. -1.
       -2    1    3    3    0  502  0.65122635027E+03  0.31484941286E+03  0.21619223120E+03  0.75496025915E+03  0.25500000920E-02 0.  1.
</event>
<event>
 5   0  0.1078787E-03  0.1252534E+04  0.7818609E-02  0.9068076E-01
       -1   -1    0    0    0  501  0.00000000000E+00  0.00000000000E+00  0.21683149828E+03  0.21683149834E+03  0.50400001928E-02 0.  1.
        1   -1    0    0  501    0  0.00000000000E+00  0.00000000000E+00 -0.18088269250E+04  0.18088269250E+04  0.50400001928E-02 0. -1.
    10030    2    1    2    0    0  0.00000000000E+00  0.00000000000E+00 -0.15919954267E+04  0.20256584233E+04  0.12525344743E+04 0.  0.
        5    1    3    3  502    0  0.18278764001E+03 -0.10762381838E+03 -0.17489317818E+04  0.17617544310E+04  0.46999998093E+01 0. -1.
       -5    1    3    3    0  502 -0.18278764001E+03  0.10762381838E+03  0.15693635511E+03  0.26390399235E+03  0.46999998093E+01 0.  1.
</event>
<event>
 5   0  0.1078787E-03  0.1208261E+04  0.7818609E-02  0.9105656E-01
       -1   -1    0    0    0  501  0.00000000000E+00  0.00000000000E+00  0.13819715204E+04  0.13819715205E+04  0.50400001928E-02 0. -1.
        1   -1    0    0  501    0  0.00000000000E+00  0.00000000000E+00 -0.26409652784E+03  0.26409652789E+03  0.50400001928E-02 0.  1.
    10030    2    1    2    0    0  0.00000000000E+00  0.00000000000E+00  0.11178749926E+04  0.16460680483E+04  0.12082613627E+04 0.  0.
        5    1    3    3  502    0 -0.38069618713E+03 -0.58151112687E+02  0.11930362116E+04  0.12536620881E+04  0.46999998093E+01 0. -1.
       -5    1    3    3    0  502  0.38069618713E+03  0.58151112687E+02 -0.75161219044E+02  0.39240596026E+03  0.46999998093E+01 0.  1.
</event>
<event>
 5   0  0.2094566E-03  0.1409067E+04  0.7818609E-02  0.8947282E-01
        2   -1    0    0  501    0  0.00000000000E+00  0.00000000000E+00  0.11378240478E+04  0.11378240478E+04  0.25500000920E-02 0. -1.
       -2   -1    0    0    0  501  0.00000000000E+00  0.00000000000E+00 -0.43624246558E+03  0.43624246558E+03  0.25500000920E-02 0.  1.
    10030    2    1    2    0    0  0.00000000000E+00  0.00000000000E+00  0.70158158224E+03  0.15740665134E+04  0.14090665960E+04 0.  0.
        1    1    3    3  502    0  0.40703123919E+03  0.30356671660E+03 -0.19480643788E+03  0.54385359185E+03  0.50400001928E-02 0.  1.
       -1    1    3    3    0  502 -0.40703123919E+03 -0.30356671660E+03  0.89638802012E+03  0.10302129216E+04  0.50400001928E-02 0. -1.
</event>
<event>
 5   0  0.1078787E-03  0.1406655E+04  0.7818609E-02  0.8949015E-01
        1   -1    0    0  501    0  0.00000000000E+00  0.00000000000E+00  0.30476264286E+03  0.30476264290E+03  0.50400001928E-02 0.  1.
       -1   -1    0    0    0  501  0.00000000000E+00  0.00000000000E+00 -0.16231317488E+04  0.16231317488E+04  0.50400001928E-02 0. -1.
    10030    2    1    2    0    0  0.00000000000E+00  0.00000000000E+00 -0.13183691059E+04  0.19278943917E+04  0.14066554966E+04 0.  0.
        5    1    3    3  502    0  0.10275137178E+02  0.70247789349E+03 -0.61441421573E+03  0.93333149941E+03  0.46999998093E+01 0.  1.
       -5    1    3    3    0  502 -0.10275137178E+02 -0.70247789349E+03 -0.70395489018E+03  0.99456289228E+03  0.46999998093E+01 0. -1.
</event>
<event>
 5   0  0.1961098E-03  0.1391878E+04  0.7818609E-02  0.8959718E-01
        2   -1    0    0  501    0  0.00000000000E+00  0.00000000000E+00  0.13832974652E+04  0.13832974652E+04  0.25500000920E-02 0. -1.
       -2   -1    0    0    0  501  0.00000000000E+00  0.00000000000E+00 -0.35012809489E+03  0.35012809490E+03  0.25500000920E-02 0.  1.
    10030    2    1    2    0    0  0.00000000000E+00  0.00000000000E+00  0.10331693703E+04  0.17334255601E+04  0.13918783081E+04 0.  0.
        2    1    3    3  502    0  0.37206605502E+03  0.56173107510E+03  0.29960016652E+03  0.73738403144E+03  0.25500000920E-02 0.  1.
       -2    1    3    3    0  502 -0.37206605502E+03 -0.56173107510E+03  0.73356920375E+03  0.99604152862E+03  0.25500000920E-02 0. -1.
</event>
<event>
 5   0  0.1069697E-03  0.1508527E+04  0.7818609E-02  0.8878802E-01
       -1   -1    0    0    0  501  0.00000000000E+00  0.00000000000E+00  0.79739497073E+03  0.79739497074E+03  0.50400001928E-02 0. -1.
        1   -1    0    0  501    0  0.00000000000E+00  0.00000000000E+00 -0.71346546083E+03  0.71346546085E+03  0.50400001928E-02 0.  1.
    10030    2    1    2    0    0  0.00000000000E+00  0.00000000000E+00  0.83929509895E+02  0.15108604316E+04  0.15085274545E+04 0.  0.
        2    1    3    3  502    0 -0.14669313652E+03 -0.76402399486E+02 -0.69507929285E+03  0.71448682724E+03  0.25500000920E-02 0.  1.
       -2    1    3    3    0  502  0.14669313652E+03  0.76402399486E+02  0.77900880274E+03  0.79637360435E+03  0.25500000920E-02 0. -1.
</event>
<event>
 5   0  0.7468375E-04  0.1560781E+04  0.7818609E-02  0.8845010E-01
       -4   -1    0    0    0  501  0.00000000000E+00  0.00000000000E+00  0.10475105718E+04  0.10475113417E+04  0.12699999809E+01 0. -1.
        4   -1    0    0  501    0  0.00000000000E+00  0.00000000000E+00 -0.58138597425E+03  0.58138736137E+03  0.12699999809E+01 0.  1.
    10030    2    1    2    0    0  0.00000000000E+00  0.00000000000E+00  0.46612459756E+03  0.16288987030E+04  0.15607814851E+04 0.  0.
        2    1    3    3  502    0  0.47239061733E+03 -0.16481191523E+03 -0.39198651771E+03  0.63558578714E+03  0.25500000920E-02 0.  1.
       -2    1    3    3    0  502 -0.47239061733E+03  0.16481191523E+03  0.85811111527E+03  0.99331291590E+03  0.25500000920E-02 0. -1.
</event>
<event>
 5   0  0.1993623E-03  0.1504194E+04  0.7818609E-02  0.8881669E-01
       -2   -1    0    0    0  501  0.00000000000E+00  0.00000000000E+00  0.77438077192E+03  0.77438077192E+03  0.25500000920E-02 0.  1.
        2   -1    0    0  501    0  0.00000000000E+00  0.00000000000E+00 -0.73045462979E+03  0.73045462979E+03  0.25500000920E-02 0. -1.
    10030    2    1    2    0    0  0.00000000000E+00  0.00000000000E+00  0.43926142130E+02  0.15048354017E+04  0.15041941631E+04 0.  0.
        4    1    3    3  502    0 -0.14926861378E+03  0.23811438403E+03 -0.67595085696E+03  0.73204559480E+03  0.12699999809E+01 0. -1.
       -4    1    3    3    0  502  0.14926861378E+03 -0.23811438403E+03  0.71987699909E+03  0.77278980691E+03  0.12699999809E+01 0.  1.
</event>
<event>
 5   0  0.1993623E-03  0.1527593E+04  0.7818609E-02  0.8866308E-01
        2   -1    0    0  501    0  0.00000000000E+00  0.00000000000E+00  0.15074682686E+04  0.15074682686E+04  0.25500000920E-02 0.  1.
       -2   -1    0    0    0  501  0.00000000000E+00  0.00000000000E+00 -0.38699662896E+03  0.38699662897E+03  0.25500000920E-02 0. -1.
    10030    2    1    2    0    0  0.00000000000E+00  0.00000000000E+00  0.11204716396E+04  0.18944648975E+04  0.15275930587E+04 0.  0.
        4    1    3    3  502    0  0.69341101262E+03  0.31801445022E+03  0.60715764703E+03  0.97498412511E+03  0.12699999809E+01 0. -1.
       -4    1    3    3    0  502 -0.69341101262E+03 -0.31801445022E+03  0.51331399257E+03  0.91948077242E+03  0.12699999809E+01 0.  1.
</event>
<event>
 5   0  0.7468375E-04  0.1525602E+04  0.7818609E-02  0.8867604E-01
        3   -1    0    0  501    0  0.00000000000E+00  0.00000000000E+00  0.27848553954E+03  0.27848555785E+03  0.10100000352E+00 0. -1.
       -3   -1    0    0    0  501  0.00000000000E+00  0.00000000000E+00 -0.20893920672E+04  0.20893920697E+04  0.10100000352E+00 0.  1.
    10030    2    1    2    0    0  0.00000000000E+00  0.00000000000E+00 -0.18109065277E+04  0.23678776275E+04  0.15256021785E+04 0.  0.
        2    1    3    3  502    0 -0.14140015346E+03  0.66830186180E+03 -0.14323522242E+04  0.15869008401E+04  0.25500000920E-02 0.  1.
       -2    1    3    3    0  502  0.14140015346E+03 -0.66830186180E+03 -0.37855430345E+03  0.78097678746E+03  0.25500000920E-02 0. -1.
</event>
<event>
 5   0  0.7468375E-04  0.1436067E+04  0.7818609E-02  0.8928118E-01
       -3   -1    0    0    0  501  0.00000000000E+00  0.00000000000E+00  0.76557349976E+03  0.76557350642E+03  0.10100000352E+00 0.  1.
        3   -1    0    0  501    0  0.00000000000E+00  0.00000000000E+00 -0.67344537963E+03  0.67344538721E+03  0.10100000352E+00 0. -1.
    10030    2    1    2    0    0  0.00000000000E+00  0.00000000000E+00  0.92128120124E+02  0.14390188936E+04  0.14360667762E+04 0.  0.
        1    1    3    3  502    0  0.23972178854E+03  0.50832828308E+03  0.49386947335E+03  0.74817861238E+03  0.50400001928E-02 0.  1.
       -1    1    3    3    0  502 -0.23972178854E+03 -0.50832828308E+03 -0.40174135323E+03  0.69084028125E+03  0.50400001928E-02 0. -1.
</event>
<event>
 5   0  0.1078787E-03  0.1504999E+04  0.7818609E-02  0.8881135E-01
        1   -1    0    0  501    0  0.00000000000E+00  0.00000000000E+00  0.19469232551E+04  0.19469232551E+04  0.50400001928E-02 0.  1.
       -1   -1    0    0    0  501  0.00000000000E+00  0.00000000000E+00 -0.29084633097E+03  0.29084633101E+03  0.50400001928E-02 0. -1.
    10030    2    1    2    0    0  0.00000000000E+00  0.00000000000E+00  0.16560769242E+04  0.22377695862E+04  0.15049989840E+04 0.  0.
        5    1    3    3  502    0 -0.16191199622E+03  0.26232189528E+03 -0.19262874727E+03  0.36353293597E+03  0.46999998093E+01 0. -1.
       -5    1    3    3    0  502  0.16191199622E+03 -0.26232189528E+03  0.18487056714E+04  0.18742366502E+04  0.46999998093E+01 0.  1.
</event>
<event>
 5   0  0.1993623E-03  0.1492712E+04  0.7818609E-02  0.8889314E-01
        2   -1    0    0  501    0  0.00000000000E+00  0.00000000000E+00  0.12975381984E+04  0.12975381984E+04  0.25500000920E-02 0. -1.
       -2   -1    0    0    0  501  0.00000000000E+00  0.00000000000E+00 -0.42931092890E+03  0.42931092890E+03  0.25500000920E-02 0.  1.
    10030    2    1    2    0    0  0.00000000000E+00  0.00000000000E+00  0.86822726950E+03  0.17268491273E+04  0.14927120677E+04 0.  0.
        4    1    3    3  502    0 -0.14620746025E+03 -0.65679876053E+02  0.12773917683E+04  0.12874089522E+04  0.12699999809E+01 0. -1.
       -4    1    3    3    0  502  0.14620746025E+03  0.65679876053E+02 -0.40916449879E+03  0.43944017513E+03  0.12699999809E+01 0.  1.
</event>
<event>
 5   0  0.2111533E-03  0.1492279E+04  0.7818609E-02  0.8889604E-01
       -2   -1    0    0    0  501  0.00000000000E+00  0.00000000000E+00  0.51005249083E+03  0.51005249084E+03  0.25500000920E-02 0.  1.
        2   -1    0    0  501    0  0.00000000000E+00  0.00000000000E+00 -0.10915032483E+04  0.10915032483E+04  0.25500000920E-02 0. -1.
    10030    2    1    2    0    0  0.00000000000E+00  0.00000000000E+00 -0.58145075751E+03  0.16015557392E+04  0.14922787281E+04 0.  0.
        5    1    3    3  502    0 -0.52511302254E+03 -0.31150170920E+03  0.16954425787E+03  0.63367526909E+03  0.46999998093E+01 0.  1.
       -5    1    3    3    0  502  0.52511302254E+03  0.31150170920E+03 -0.75099501538E+03  0.96788047010E+03  0.46999998093E+01 0. -1.
</event>
<event>
 5   0  0.1078787E-03  0.1483725E+04  0.7818609E-02  0.8895349E-01
        1   -1    0    0  501    0  0.00000000000E+00  0.00000000000E+00  0.11197827959E+04  0.11197827959E+04  0.50400001928E-02 0.  1.
       -1   -1    0    0    0  501  0.00000000000E+00  0.00000000000E+00 -0.49148791253E+03  0.49148791255E+03  0.50400001928E-02 0. -1.
    10030    2    1    2    0    0  0.00000000000E+00  0.00000000000E+00  0.62829488338E+03  0.16112707085E+04  0.14837246495E+04 0.  0.
        5    1    3    3  502    0  0.17480796667E+03  0.58267562402E+03 -0.14693185037E+03  0.62584324450E+03  0.46999998093E+01 0. -1.
       -5    1    3    3    0  502 -0.17480796667E+03 -0.58267562402E+03  0.77522673375E+03  0.98542746397E+03  0.46999998093E+01 0.  1.
</event>
<event>
 5   0  0.1993623E-03  0.1471914E+04  0.7818609E-02  0.8903348E-01
        2   -1    0    0  501    0  0.00000000000E+00  0.00000000000E+00  0.28253930009E+04  0.28253930009E+04  0.25500000920E-02 0.  1.
       -2   -1    0    0    0  501  0.00000000000E+00  0.00000000000E+00 -0.19170166156E+03  0.19170166158E+03  0.25500000920E-02 0. -1.
    10030    2    1    2    0    0  0.00000000000E+00  0.00000000000E+00  0.26336913394E+04  0.30170946625E+04  0.14719137650E+04 0.  0.
        4    1    3    3  502    0 -0.20283605216E+02 -0.42368088724E+03  0.25496360295E+04  0.25846783968E+04  0.12699999809E+01 0.  1.
       -4    1    3    3    0  502  0.20283605216E+02  0.42368088724E+03  0.84055309845E+02  0.43241626573E+03  0.12699999809E+01 0. -1.
</event>
<event>
 5   0  0.2094566E-03  0.1470931E+04  0.7818609E-02  0.8904017E-01
        2   -1    0    0  501    0  0.00000000000E+00  0.00000000000E+00  0.10262568337E+04  0.10262568337E+04  0.25500000920E-02 0. -1.
       -2   -1    0    0    0  501  0.00000000000E+00  0.00000000000E+00 -0.52707016427E+03  0.52707016428E+03  0.25500000920E-02 0.  1.
    10030    2    1    2    0    0  0.00000000000E+00  0.00000000000E+00  0.49918666948E+03  0.15533269980E+04  0.14709308046E+04 0.  0.
        1    1    3    3  502    0 -0.87245690920E+02  0.37574178677E+03 -0.41167501938E+03  0.56415425418E+03  0.50400001928E-02 0.  1.
       -1    1    3    3    0  502  0.87245690920E+02 -0.37574178677E+03  0.91086168886E+03  0.98917274384E+03  0.50400001928E-02 0. -1.
</event>
<event>
 5   0  0.1087761E-03  0.1558204E+04  0.7818609E-02  0.8846644E-01
        1   -1    0    0  501    0  0.00000000000E+00  0.00000000000E+00  0.10272646041E+04  0.10272646041E+04  0.50400001928E-02 0. -1.
       -1   -1    0    0    0  501  0.00000000000E+00  0.00000000000E+00 -0.59088962314E+03  0.59088962316E+03  0.50400001928E-02 0.  1.
    10030    2    1    2    0    0  0.00000000000E+00  0.00000000000E+00  0.43637498095E+03  0.16181542273E+04  0.15582040878E+04 0.  0.
        3    1    3    3  502    0  0.41996625686E+03 -0.52534652674E+03 -0.19018416148E+03  0.69894968026E+03  0.10100000352E+00 0.  1.
       -3    1    3    3    0  502 -0.41996625686E+03  0.52534652674E+03  0.62655914243E+03  0.91920454700E+03  0.10100000352E+00 0. -1.
</event>
<event>
 5   0  0.2150197E-03  0.1495487E+04  0.7818609E-02  0.8887460E-01
        2   -1    0    0  501    0  0.00000000000E+00  0.00000000000E+00  0.43331216365E+03  0.43331216366E+03  0.25500000920E-02 0. -1.
       -2   -1    0    0    0  501  0.00000000000E+00  0.00000000000E+00 -0.12903405372E+04  0.12903405372E+04  0.25500000920E-02 0.  1.
    10030    2    1    2    0    0  0.00000000000E+00  0.00000000000E+00 -0.85702837357E+03  0.17236527009E+04  0.14954868773E+04 0.  0.
        3    1    3    3  502    0 -0.65518224888E+03 -0.16135345898E+03 -0.57140736041E+02  0.67717338392E+03  0.10100000352E+00 0.  1.
       -3    1    3    3    0  502  0.65518224888E+03  0.16135345898E+03 -0.79988763753E+03  0.10464793170E+04  0.10100000352E+00 0. -1.
</event>
<event>
 5   0  0.1087761E-03  0.1476443E+04  0.7818609E-02  0.8900271E-01
       -1   -1    0    0    0  501  0.00000000000E+00  0.00000000000E+00  0.70757688233E+03  0.70757688235E+03  0.50400001928E-02 0. -1.
        1   -1    0    0  501    0  0.00000000000E+00  0.00000000000E+00 -0.77019367482E+03  0.77019367484E+03  0.50400001928E-02 0.  1.
    10030    2    1    2    0    0  0.00000000000E+00  0.00000000000E+00 -0.62616792490E+02  0.14777705572E+04  0.14764433470E+04 0.  0.
        3    1    3    3  502    0  0.35084127601E+03  0.50728216976E+03 -0.43731626652E+03  0.75608883597E+03  0.10100000352E+00 0.  1.
       -3    1    3    3    0  502 -0.35084127601E+03 -0.50728216976E+03  0.37469947403E+03  0.72168172123E+03  0.10100000352E+00 0. -1.
</event>
<event>
 5   0  0.1078787E-03  0.1487653E+04  0.7818609E-02  0.8892705E-01
        1   -1    0    0  501    0  0.00000000000E+00  0.00000000000E+00  0.10140220575E+04  0.10140220575E+04  0.50400001928E-02 0. -1.
       -1   -1    0    0    0  501  0.00000000000E+00  0.00000000000E+00 -0.54562700938E+03  0.54562700940E+03  0.50400001928E-02 0.  1.
    10030    2    1    2    0    0  0.00000000000E+00  0.00000000000E+00  0.46839504812E+03  0.15596490669E+04  0.14876529470E+04 0.  0.
        5    1    3    3  502    0  0.42046815743E+03  0.40005942634E+03 -0.25352033423E+03  0.63335271838E+03  0.46999998093E+01 0.  1.
       -5    1    3    3    0  502 -0.42046815743E+03 -0.40005942634E+03  0.72191538235E+03  0.92629634852E+03  0.46999998093E+01 0. -1.
</event>
<event>
 5   0  0.1077140E-03  0.1396026E+04  0.7818609E-02  0.8956700E-01
        1   -1    0    0  501    0  0.00000000000E+00  0.00000000000E+00  0.12402128768E+04  0.12402128768E+04  0.50400001928E-02 0. -1.
       -1   -1    0    0    0  501  0.00000000000E+00  0.00000000000E+00 -0.39285388611E+03  0.39285388614E+03  0.50400001928E-02 0.  1.
    10030    2    1    2    0    0  0.00000000000E+00  0.00000000000E+00  0.84735899069E+03  0.16330667630E+04  0.13960264300E+04 0.  0.
        1    1    3    3  502    0 -0.32587507242E+03 -0.24213511561E+03 -0.24053260975E+03  0.47188972590E+03  0.50400001928E-02 0.  1.
       -1    1    3    3    0  502  0.32587507242E+03  0.24213511561E+03  0.10878916004E+04  0.11611770371E+04  0.50400001928E-02 0. -1.
</event>
<event>
 5   0  0.1077140E-03  0.1400338E+04  0.7818609E-02  0.8953574E-01
        1   -1    0    0  501    0  0.00000000000E+00  0.00000000000E+00  0.66488788563E+03  0.66488788564E+03  0.50400001928E-02 0.  1.
       -1   -1    0    0    0  501  0.00000000000E+00  0.00000000000E+00 -0.73732272241E+03  0.73732272243E+03  0.50400001928E-02 0. -1.
    10030    2    1    2    0    0  0.00000000000E+00  0.00000000000E+00 -0.72434836783E+02  0.14022106081E+04  0.14003384533E+04 0.  0.
        1    1    3    3  502    0 -0.34585344819E+03  0.35972520902E+02  0.57231894743E+03  0.66966977496E+03  0.50400001928E-02 0.  1.
       -1    1    3    3    0  502  0.34585344819E+03 -0.35972520902E+02 -0.64475378421E+03  0.73254083311E+03  0.50400001928E-02 0. -1.
</event>
<event>
 5   0  0.2150197E-03  0.7942493E+03  0.7818609E-02  0.9568378E-01
        2   -1    0    0  501    0  0.00000000000E+00  0.00000000000E+00  0.20140854990E+04  0.20140854990E+04  0.25500000920E-02 0. -1.
       -2   -1    0    0    0  501  0.00000000000E+00  0.00000000000E+00 -0.78302530753E+02  0.78302530794E+02  0.25500000920E-02 0.  1.
    10030    2    1    2    0    0  0.00000000000E+00  0.00000000000E+00  0.19357829683E+04  0.20923880298E+04  0.79424931041E+03 0.  0.
        3    1    3    3  502    0 -0.34314046976E+02  0.26334638888E+01 -0.74366628340E+02  0.81943850066E+02  0.10100000352E+00 0.  1.
       -3    1    3    3    0  502  0.34314046976E+02 -0.26334638888E+01  0.20101495966E+04  0.20104441797E+04  0.10100000352E+00 0. -1.
</event>
<event>
 5   0  0.1077140E-03  0.1496934E+04  0.7818609E-02  0.8886495E-01
        1   -1    0    0  501    0  0.00000000000E+00  0.00000000000E+00  0.98864455771E+03  0.98864455772E+03  0.50400001928E-02 0.  1.
       -1   -1    0    0    0  501  0.00000000000E+00  0.00000000000E+00 -0.56663706050E+03  0.56663706052E+03  0.50400001928E-02 0. -1.
    10030    2    1    2    0    0  0.00000000000E+00  0.00000000000E+00  0.42200749721E+03  0.15552816182E+04  0.14969337274E+04 0.  0.
        1    1    3    3  502    0 -0.29789427931E+03  0.11077947261E+03 -0.49304456882E+03  0.58660552338E+03  0.50400001928E-02 0. -1.
       -1    1    3    3    0  502  0.29789427931E+03 -0.11077947261E+03  0.91505206603E+03  0.96867609487E+03  0.50400001928E-02 0.  1.
</event>
<event>
 5   0  0.1069697E-03  0.1503421E+04  0.7818609E-02  0.8882181E-01
       -1   -1    0    0    0  501  0.00000000000E+00  0.00000000000E+00  0.23777459911E+03  0.23777459916E+03  0.50400001928E-02 0.  1.
        1   -1    0    0  501    0  0.00000000000E+00  0.00000000000E+00 -0.23764875066E+04  0.23764875066E+04  0.50400001928E-02 0. -1.
    10030    2    1    2    0    0  0.00000000000E+00  0.00000000000E+00 -0.21387129075E+04  0.26142621058E+04  0.15034205855E+04 0.  0.
        2    1    3    3  502    0  0.57583189321E+03 -0.10249534553E+03 -0.24824469466E+03  0.63538420937E+03  0.25500000920E-02 0. -1.
       -2    1    3    3    0  502 -0.57583189321E+03  0.10249534553E+03 -0.18904682128E+04  0.19788778964E+04  0.25500000920E-02 0.  1.
</event>
<event>
 5   0  0.1078787E-03  0.1456342E+04  0.7818609E-02  0.8914016E-01
       -1   -1    0    0    0  501  0.00000000000E+00  0.00000000000E+00  0.10921266602E+04  0.10921266602E+04  0.50400001928E-02 0.  1.
        1   -1    0    0  501    0  0.00000000000E+00  0.00000000000E+00 -0.48550493452E+03  0.48550493454E+03  0.50400001928E-02 0. -1.
    10030    2    1    2    0    0  0.00000000000E+00  0.00000000000E+00  0.60662172570E+03  0.15776315948E+04  0.14563418317E+04 0.  0.
        5    1    3    3  502    0  0.33250545054E+02  0.56895703321E+03  0.79425851042E+03  0.97759213160E+03  0.46999998093E+01 0.  1.
       -5    1    3    3    0  502 -0.33250545054E+02 -0.56895703321E+03 -0.18763678472E+03  0.60003946318E+03  0.46999998093E+01 0. -1.
</event>
<event>
 5   0  0.1993623E-03  0.1523146E+04  0.7818609E-02  0.8869206E-01
        2   -1    0    0  501    0  0.00000000000E+00  0.00000000000E+00  0.91768230361E+03  0.91768230362E+03  0.25500000920E-02 0.  1.
       -2   -1    0    0    0  501  0.00000000000E+00  0.00000000000E+00 -0.63201948641E+03  0.63201948641E+03  0.25500000920E-02 0. -1.
    10030    2    1    2    0    0  0.00000000000E+00  0.00000000000E+00  0.28566281721E+03  0.15497017900E+04  0.15231455587E+04 0.  0.
        4    1    3    3  502    0  0.17432787231E+03  0.67873547825E+03 -0.16056124351E+03  0.71892529676E+03  0.12699999809E+01 0. -1.
       -4    1    3    3    0  502 -0.17432787231E+03 -0.67873547825E+03  0.44622406072E+03  0.83077649327E+03  0.12699999809E+01 0.  1.
</event>
<event>
 5   0  0.2150197E-03  0.1311124E+04  0.7818609E-02  0.9020790E-01
        2   -1    0    0  501    0  0.00000000000E+00  0.00000000000E+00  0.14621334679E+04  0.14621334679E+04  0.25500000920E-02 0. -1.
       -2   -1    0    0    0  501  0.00000000000E+00  0.00000000000E+00 -0.29392784424E+03  0.29392784425E+03  0.25500000920E-02 0.  1.
    10030    2    1    2    0    0  0.00000000000E+00  0.00000000000E+00  0.11682056236E+04  0.17560613121E+04  0.13111243087E+04 0.  0.
        3    1    3    3  502    0 -0.26367995147E+03  0.59608738360E+03  0.67799574938E+03  0.94049217544E+03  0.10100000352E+00 0. -1.
       -3    1    3    3    0  502  0.26367995147E+03 -0.59608738360E+03  0.49020987423E+03  0.81556913667E+03  0.10100000352E+00 0.  1.
</event>
<event>
 5   0  0.1077140E-03  0.1510935E+04  0.7818609E-02  0.8877213E-01
        1   -1    0    0  501    0  0.00000000000E+00  0.00000000000E+00  0.89121559630E+03  0.89121559631E+03  0.50400001928E-02 0. -1.
       -1   -1    0    0    0  501  0.00000000000E+00  0.00000000000E+00 -0.64039666480E+03  0.64039666482E+03  0.50400001928E-02 0.  1.
    10030    2    1    2    0    0  0.00000000000E+00  0.00000000000E+00  0.25081893150E+03  0.15316122611E+04  0.15109354659E+04 0.  0.
        1    1    3    3  502    0  0.69440293530E+03  0.22736934580E+03 -0.69152635177E+02  0.73394437319E+03  0.50400001928E-02 0.  1.
       -1    1    3    3    0  502 -0.69440293530E+03 -0.22736934580E+03  0.31997156667E+03  0.79766788794E+03  0.50400001928E-02 0. -1.
</event>
<event>
 5   0  0.1069697E-03  0.1496075E+04  0.7818609E-02  0.8887067E-01
        1   -1    0    0  501    0  0.00000000000E+00  0.00000000000E+00  0.63477715169E+03  0.63477715171E+03  0.50400001928E-02 0.  1.
       -1   -1    0    0    0  501  0.00000000000E+00  0.00000000000E+00 -0.88150694839E+03  0.88150694840E+03  0.50400001928E-02 0. -1.
    10030    2    1    2    0    0  0.00000000000E+00  0.00000000000E+00 -0.24672979670E+03  0.15162841001E+04  0.14960754926E+04 0.  0.
        2    1    3    3  502    0  0.63145658254E+03 -0.25560567137E+03 -0.43655157526E+03  0.80910379603E+03  0.25500000920E-02 0. -1.
       -2    1    3    3    0  502 -0.63145658254E+03  0.25560567137E+03  0.18982177856E+03  0.70718030409E+03  0.25500000920E-02 0.  1.
</event>
<event>
 5   0  0.1078018E-03  0.1501486E+04  0.7818609E-02  0.8883465E-01
        1   -1    0    0  501    0  0.00000000000E+00  0.00000000000E+00  0.64244823519E+03  0.64244823521E+03  0.50400001928E-02 0. -1.
       -1   -1    0    0    0  501  0.00000000000E+00  0.00000000000E+00 -0.87729243790E+03  0.87729243791E+03  0.50400001928E-02 0.  1.
    10030    2    1    2    0    0  0.00000000000E+00  0.00000000000E+00 -0.23484420271E+03  0.15197406731E+04  0.15014859020E+04 0.  0.
        4    1    3    3  502    0 -0.50176190280E+03  0.19891853984E+03 -0.64557043982E+03  0.84148463935E+03  0.12699999809E+01 0.  1.
       -4    1    3    3    0  502  0.50176190280E+03 -0.19891853984E+03  0.41072623711E+03  0.67825603377E+03  0.12699999809E+01 0. -1.
</event>
<event>
 5   0  0.1087761E-03  0.1706647E+04  0.7818609E-02  0.8757583E-01
        1   -1    0    0  501    0  0.00000000000E+00  0.00000000000E+00  0.15867635934E+04  0.15867635934E+04  0.50400001928E-02 0.  1.
       -1   -1    0    0    0  501  0.00000000000E+00  0.00000000000E+00 -0.45889683985E+03  0.45889683987E+03  0.50400001928E-02 0. -1.
    10030    2    1    2    0    0  0.00000000000E+00  0.00000000000E+00  0.11278667535E+04  0.20456604332E+04  0.17066467691E+04 0.  0.
        3    1    3    3  502    0 -0.27733021526E+03  0.64748711412E+03  0.11412877825E+04  0.13411522747E+04  0.10100000352E+00 0.  1.
       -3    1    3    3    0  502  0.27733021526E+03 -0.64748711412E+03 -0.13421028976E+02  0.70450815855E+03  0.10100000352E+00 0. -1.
</event>
<event>
 5   0  0.7468375E-04  0.1071573E+04  0.7818609E-02  0.9233350E-01
       -3   -1    0    0    0  501  0.00000000000E+00  0.00000000000E+00  0.44912558892E+03  0.44912560028E+03  0.10100000352E+00 0.  1.
        3   -1    0    0  501    0  0.00000000000E+00  0.00000000000E+00 -0.63916895781E+03  0.63916896579E+03  0.10100000352E+00 0. -1.
    10030    2    1    2    0    0  0.00000000000E+00  0.00000000000E+00 -0.19004336889E+03  0.10882945661E+04  0.10715729469E+04 0.  0.
        5    1    3    3  502    0 -0.92991691535E+01  0.50037515938E+03  0.99230558966E+02  0.51022599747E+03  0.46999998093E+01 0.  1.
       -5    1    3    3    0  502  0.92991691535E+01 -0.50037515938E+03 -0.28927392786E+03  0.57806856860E+03  0.46999998093E+01 0. -1.
</event>
<event>
 5   0  0.1077140E-03  0.1439104E+04  0.7818609E-02  0.8925989E-01
        1   -1    0    0  501    0  0.00000000000E+00  0.00000000000E+00  0.68394058726E+03  0.68394058728E+03  0.50400001928E-02 0.  1.
       -1   -1    0    0    0  501  0.00000000000E+00  0.00000000000E+00 -0.75701806824E+03  0.75701806826E+03  0.50400001928E-02 0. -1.
    10030    2    1    2    0    0  0.00000000000E+00  0.00000000000E+00 -0.73077480984E+02  0.14409586555E+04  0.14391044190E+04 0.  0.
        1    1    3    3  502    0 -0.55306798168E+03  0.32007220259E+03  0.29468193704E+03  0.70368164057E+03  0.50400001928E-02 0.  1.
       -1    1    3    3    0  502  0.55306798168E+03 -0.32007220259E+03 -0.36775941802E+03  0.73727701497E+03  0.50400001928E-02 0. -1.
</event>
<event>
 5   0  0.1993623E-03  0.1407051E+04  0.7818609E-02  0.8948730E-01
       -2   -1    0    0    0  501  0.00000000000E+00  0.00000000000E+00  0.57437769945E+03  0.57437769946E+03  0.25500000920E-02 0.  1.
        2   -1    0    0  501    0  0.00000000000E+00  0.00000000000E+00 -0.86171224490E+03  0.86171224490E+03  0.25500000920E-02 0. -1.
    10030    2    1    2    0    0  0.00000000000E+00  0.00000000000E+00 -0.28733454545E+03  0.14360899444E+04  0.14070512383E+04 0.  0.
        4    1    3    3  502    0  0.29422721542E+03 -0.29641893502E+03 -0.72148977120E+03  0.83365636937E+03  0.12699999809E+01 0. -1.
       -4    1    3    3    0  502 -0.29422721542E+03  0.29641893502E+03  0.43415522575E+03  0.60243357500E+03  0.12699999809E+01 0.  1.
</event>
<event>
 5   0  0.1993623E-03  0.1016184E+04  0.7818609E-02  0.9290970E-01
        2   -1    0    0  501    0  0.00000000000E+00  0.00000000000E+00  0.33182441016E+03  0.33182441017E+03  0.25500000920E-02 0.  1.
       -2   -1    0    0    0  501  0.00000000000E+00  0.00000000000E+00 -0.77799469421E+03  0.77799469422E+03  0.25500000920E-02 0. -1.
    10030    2    1    2    0    0  0.00000000000E+00  0.00000000000E+00 -0.44617028405E+03  0.11098191044E+04  0.10161842953E+04 0.  0.
        4    1    3    3  502    0  0.16463645087E+03  0.27598876443E+03 -0.65289747390E+03  0.72770301866E+03  0.12699999809E+01 0. -1.
       -4    1    3    3    0  502 -0.16463645087E+03 -0.27598876443E+03  0.20672718985E+03  0.38211608572E+03  0.12699999809E+01 0.  1.
</event>
<event>
 5   0  0.1077140E-03  0.1434688E+04  0.7818609E-02  0.8929085E-01
       -1   -1    0    0    0  501  0.00000000000E+00  0.00000000000E+00  0.41696261775E+03  0.41696261778E+03  0.50400001928E-02 0.  1.
        1   -1    0    0  501    0  0.00000000000E+00  0.00000000000E+00 -0.12341211776E+04  0.12341211776E+04  0.50400001928E-02 0. -1.
    10030    2    1    2    0    0  0.00000000000E+00  0.00000000000E+00 -0.81715855987E+03  0.16510837954E+04  0.14346879757E+04 0.  0.
        1    1    3    3  502    0  0.35109552781E+03 -0.15584984938E+03 -0.11057827982E+04  0.11706036229E+04  0.50400001928E-02 0. -1.
       -1    1    3    3    0  502 -0.35109552781E+03  0.15584984938E+03  0.28862423831E+03  0.48048017250E+03  0.50400001928E-02 0.  1.
</event>
<event>
 5   0  0.1078018E-03  0.8476985E+03  0.7818609E-02  0.9493431E-01
        1   -1    0    0  501    0  0.00000000000E+00  0.00000000000E+00  0.22050010759E+03  0.22050010764E+03  0.50400001928E-02 0. -1.
       -1   -1    0    0    0  501  0.00000000000E+00  0.00000000000E+00 -0.81473051937E+03  0.81473051938E+03  0.50400001928E-02 0.  1.
    10030    2    1    2    0    0  0.00000000000E+00  0.00000000000E+00 -0.59423041178E+03  0.10352306270E+04  0.84769845396E+03 0.  0.
        4    1    3    3  502    0  0.34836331078E+03 -0.23800130181E+03 -0.24758495429E+03  0.48918456481E+03  0.12699999809E+01 0. -1.
       -4    1    3    3    0  502 -0.34836331078E+03  0.23800130181E+03 -0.34664545749E+03  0.54604606222E+03  0.12699999809E+01 0.  1.
</event>
<event>
 5   0  0.1993623E-03  0.1506709E+04  0.7818609E-02  0.8880004E-01
        2   -1    0    0  501    0  0.00000000000E+00  0.00000000000E+00  0.57799911632E+03  0.57799911633E+03  0.25500000920E-02 0. -1.
       -2   -1    0    0    0  501  0.00000000000E+00  0.00000000000E+00 -0.98190977327E+03  0.98190977328E+03  0.25500000920E-02 0.  1.
    10030    2    1    2    0    0  0.00000000000E+00  0.00000000000E+00 -0.40391065695E+03  0.15599088896E+04  0.15067089716E+04 0.  0.
        4    1    3    3  502    0 -0.75042628624E+03  0.42351613510E+02 -0.14908258795E+03  0.76626398922E+03  0.12699999809E+01 0. -1.
       -4    1    3    3    0  502  0.75042628624E+03 -0.42351613510E+02 -0.25482806900E+03  0.79364490038E+03  0.12699999809E+01 0.  1.
</event>
<event>
 5   0  0.1993623E-03  0.1417525E+04  0.7818609E-02  0.8941230E-01
       -2   -1    0    0    0  501  0.00000000000E+00  0.00000000000E+00  0.58784111321E+03  0.58784111322E+03  0.25500000920E-02 0.  1.
        2   -1    0    0  501    0  0.00000000000E+00  0.00000000000E+00 -0.85455784543E+03  0.85455784544E+03  0.25500000920E-02 0. -1.
    10030    2    1    2    0    0  0.00000000000E+00  0.00000000000E+00 -0.26671673222E+03  0.14423989587E+04  0.14175249348E+04 0.  0.
        4    1    3    3  502    0 -0.38167979982E+03  0.24558663881E+03  0.42057486458E+03  0.61877063309E+03  0.12699999809E+01 0.  1.
       -4    1    3    3    0  502  0.38167979982E+03 -0.24558663881E+03 -0.68729159680E+03  0.82362832557E+03  0.12699999809E+01 0. -1.
</event>
<event>
 5   0  0.2111533E-03  0.1496040E+04  0.7818609E-02  0.8887090E-01
        2   -1    0    0  501    0  0.00000000000E+00  0.00000000000E+00  0.86230778594E+03  0.86230778595E+03  0.25500000920E-02 0. -1.
       -2   -1    0    0    0  501  0.00000000000E+00  0.00000000000E+00 -0.64887985417E+03  0.64887985417E+03  0.25500000920E-02 0.  1.
    10030    2    1    2    0    0  0.00000000000E+00  0.00000000000E+00  0.21342793178E+03  0.15111876401E+04  0.14960403075E+04 0.  0.
        5    1    3    3  502    0 -0.45862039082E+03  0.29269426545E+03 -0.41181522146E+03  0.68236094740E+03  0.46999998093E+01 0.  1.
       -5    1    3    3    0  502  0.45862039082E+03 -0.29269426545E+03  0.62524315324E+03  0.82882669272E+03  0.46999998093E+01 0. -1.
</event>
<event>
 5   0  0.2094566E-03  0.1423618E+04  0.7818609E-02  0.8936898E-01
       -2   -1    0    0    0  501  0.00000000000E+00  0.00000000000E+00  0.97509999356E+03  0.97509999356E+03  0.25500000920E-02 0.  1.
        2   -1    0    0  501    0  0.00000000000E+00  0.00000000000E+00 -0.51961054603E+03  0.51961054604E+03  0.25500000920E-02 0. -1.
    10030    2    1    2    0    0  0.00000000000E+00  0.00000000000E+00  0.45548944753E+03  0.14947105396E+04  0.14236182636E+04 0.  0.
        1    1    3    3  502    0 -0.20935595625E+03 -0.57215962675E+03  0.61419553561E+03  0.86512005577E+03  0.50400001928E-02 0.  1.
       -1    1    3    3    0  502  0.20935595625E+03  0.57215962675E+03 -0.15870608809E+03  0.62959048383E+03  0.50400001928E-02 0. -1.
</event>
<event>
 5   0  0.7468375E-04  0.1336677E+04  0.7818609E-02  0.9000975E-01
        3   -1    0    0  501    0  0.00000000000E+00  0.00000000000E+00  0.12869417669E+04  0.12869417709E+04  0.10100000352E+00 0.  1.
       -3   -1    0    0    0  501  0.00000000000E+00  0.00000000000E+00 -0.34708343929E+03  0.34708345399E+03  0.10100000352E+00 0. -1.
    10030    2    1    2    0    0  0.00000000000E+00  0.00000000000E+00  0.93985832760E+03  0.16340252248E+04  0.13366767595E+04 0.  0.
        2    1    3    3  502    0  0.50252524568E+03  0.39590965731E+03  0.70634077479E+03  0.95299179925E+03  0.25500000920E-02 0.  1.
       -2    1    3    3    0  502 -0.50252524568E+03 -0.39590965731E+03  0.23351755281E+03  0.68103342559E+03  0.25500000920E-02 0. -1.
</event>
<event>
 5   0  0.2111533E-03  0.1520689E+04  0.7818609E-02  0.8870811E-01
        2   -1    0    0  501    0  0.00000000000E+00  0.00000000000E+00  0.10790601553E+04  0.10790601553E+04  0.25500000920E-02 0. -1.
       -2   -1    0    0    0  501  0.00000000000E+00  0.00000000000E+00 -0.53576577951E+03  0.53576577951E+03  0.25500000920E-02 0.  1.
    10030    2    1    2    0    0  0.00000000000E+00  0.00000000000E+00  0.54329437581E+03  0.16148259348E+04  0.15206886667E+04 0.  0.
        5    1    3    3  502    0  0.49782056195E+03 -0.41392400273E+03  0.69500359941E+03  0.94984761153E+03  0.46999998093E+01 0. -1.
       -5    1    3    3    0  502 -0.49782056195E+03  0.41392400273E+03 -0.15170922360E+03  0.66497832330E+03  0.46999998093E+01 0.  1.
</event>
<event>
 5   0  0.1069697E-03  0.1506035E+04  0.7818609E-02  0.8880450E-01
       -1   -1    0    0    0  501  0.00000000000E+00  0.00000000000E+00  0.83418000356E+03  0.83418000358E+03  0.50400001928E-02 0.  1.
        1   -1    0    0  501    0  0.00000000000E+00  0.00000000000E+00 -0.67975189096E+03  0.67975189098E+03  0.50400001928E-02 0. -1.
    10030    2    1    2    0    0  0.00000000000E+00  0.00000000000E+00  0.15442811260E+03  0.15139318946E+04  0.15060351056E+04 0.  0.
        2    1    3    3  502    0 -0.72286139494E+03  0.11845772611E+03  0.25269917366E+03  0.77486624752E+03  0.25500000920E-02 0. -1.
       -2    1    3    3    0  502  0.72286139494E+03 -0.11845772611E+03 -0.98271061060E+02  0.73906564703E+03  0.25500000920E-02 0.  1.
</event>
<event>
 5   0  0.2111533E-03  0.1549190E+04  0.7818609E-02  0.8852386E-01
       -2   -1    0    0    0  501  0.00000000000E+00  0.00000000000E+00  0.35063224540E+03  0.35063224541E+03  0.25500000920E-02 0.  1.
        2   -1    0    0  501    0  0.00000000000E+00  0.00000000000E+00 -0.17111864637E+04  0.17111864637E+04  0.25500000920E-02 0. -1.
    10030    2    1    2    0    0  0.00000000000E+00  0.00000000000E+00 -0.13605542183E+04  0.20618187091E+04  0.15491896618E+04 0.  0.
        5    1    3    3  502    0 -0.67541861377E+02 -0.74547445066E+01  0.34663868109E+03  0.35326752112E+03  0.46999998093E+01 0.  1.
       -5    1    3    3    0  502  0.67541861377E+02  0.74547445066E+01 -0.17071928994E+04  0.17085511880E+04  0.46999998093E+01 0. -1.
</event>
<event>
 5   0  0.1087761E-03  0.1499273E+04  0.7818609E-02  0.8884936E-01
        1   -1    0    0  501    0  0.00000000000E+00  0.00000000000E+00  0.12666156882E+04  0.12666156882E+04  0.50400001928E-02 0.  1.
       -1   -1    0    0    0  501  0.00000000000E+00  0.00000000000E+00 -0.44366646112E+03  0.44366646115E+03  0.50400001928E-02 0. -1.
    10030    2    1    2    0    0  0.00000000000E+00  0.00000000000E+00  0.82294922710E+03  0.17102821494E+04  0.14992730239E+04 0.  0.
        3    1    3    3  502    0 -0.41656438849E+03 -0.83374289735E+02 -0.29309130193E+03  0.51611983436E+03  0.10100000352E+00 0. -1.
       -3    1    3    3    0  502  0.41656438849E+03  0.83374289735E+02  0.11160405290E+04  0.11941623150E+04  0.10100000352E+00 0.  1.
</event>
<event>
 5   0  0.1078018E-03  0.1460482E+04  0.7818609E-02  0.8911166E-01
       -1   -1    0    0    0  501  0.00000000000E+00  0.00000000000E+00  0.24754890005E+03  0.24754890011E+03  0.50400001928E-02 0. -1.
        1   -1    0    0  501    0  0.00000000000E+00  0.00000000000E+00 -0.21541270840E+04  0.21541270841E+04  0.50400001928E-02 0.  1.
    10030    2    1    2    0    0  0.00000000000E+00  0.00000000000E+00 -0.19065781840E+04  0.24016759842E+04  0.14604818250E+04 0.  0.
        4    1    3    3  502    0  0.27048683751E+03  0.46334081988E+03 -0.17679138443E+04  0.18475304648E+04  0.12699999809E+01 0.  1.
       -4    1    3    3    0  502 -0.27048683751E+03 -0.46334081988E+03 -0.13866433972E+03  0.55414551938E+03  0.12699999809E+01 0. -1.
</event>
<event>
 5   0  0.1087761E-03  0.1348236E+04  0.7818609E-02  0.8992165E-01
       -1   -1    0    0    0  501  0.00000000000E+00  0.00000000000E+00  0.34055183467E+03  0.34055183471E+03  0.50400001928E-02 0.  1.
        1   -1    0    0  501    0  0.00000000000E+00  0.00000000000E+00 -0.13344071952E+04  0.13344071952E+04  0.50400001928E-02 0. -1.
    10030    2    1    2    0    0  0.00000000000E+00  0.00000000000E+00 -0.99385536055E+03  0.16749590299E+04  0.13482356153E+04 0.  0.
        3    1    3    3  502    0  0.55935076934E+03 -0.18210518623E+03 -0.87901144015E+02  0.59477912146E+03  0.10100000352E+00 0.  1.
       -3    1    3    3    0  502 -0.55935076934E+03  0.18210518623E+03 -0.90595421653E+03  0.10801799085E+04  0.10100000352E+00 0. -1.
</event>
<event>
 5   0  0.1087761E-03  0.1487604E+04  0.7818609E-02  0.8892738E-01
        1   -1    0    0  501    0  0.00000000000E+00  0.00000000000E+00  0.48669552427E+03  0.48669552430E+03  0.50400001928E-02 0. -1.
       -1   -1    0    0    0  501  0.00000000000E+00  0.00000000000E+00 -0.11367296614E+04  0.11367296614E+04  0.50400001928E-02 0.  1.
    10030    2    1    2    0    0  0.00000000000E+00  0.00000000000E+00 -0.65003413711E+03  0.16234251857E+04  0.14876037625E+04 0.  0.
        3    1    3    3  502    0  0.61280633244E+03  0.37255822801E+03 -0.54028314396E+03  0.89790707770E+03  0.10100000352E+00 0. -1.
       -3    1    3    3    0  502 -0.61280633244E+03 -0.37255822801E+03 -0.10975099315E+03  0.72551810800E+03  0.10100000352E+00 0.  1.
</event>
<event>
 5   0  0.1961098E-03  0.1475305E+04  0.7818609E-02  0.8901043E-01
        2   -1    0    0  501    0  0.00000000000E+00  0.00000000000E+00  0.75426534813E+03  0.75426534813E+03  0.25500000920E-02 0. -1.
       -2   -1    0    0    0  501  0.00000000000E+00  0.00000000000E+00 -0.72140569661E+03  0.72140569661E+03  0.25500000920E-02 0.  1.
    10030    2    1    2    0    0  0.00000000000E+00  0.00000000000E+00  0.32859651516E+02  0.14756710447E+04  0.14753051466E+04 0.  0.
        2    1    3    3  502    0  0.56288697090E+03 -0.16178172411E+03 -0.43214126424E+03  0.72784692108E+03  0.25500000920E-02 0.  1.
       -2    1    3    3    0  502 -0.56288697090E+03  0.16178172411E+03  0.46500091576E+03  0.74782412366E+03  0.25500000920E-02 0. -1.
</event>
<event>
 5   0  0.1078787E-03  0.1099498E+04  0.7818609E-02  0.9205681E-01
        1   -1    0    0  501    0  0.00000000000E+00  0.00000000000E+00  0.77571291033E+03  0.77571291035E+03  0.50400001928E-02 0. -1.
       -1   -1    0    0    0  501  0.00000000000E+00  0.00000000000E+00 -0.38960795258E+03  0.38960795261E+03  0.50400001928E-02 0.  1.
    10030    2    1    2    0    0  0.00000000000E+00  0.00000000000E+00  0.38610495775E+03  0.11653208630E+04  0.10994979196E+04 0.  0.
        5    1    3    3  502    0  0.46762309624E+03 -0.10292112035E+03 -0.93185447265E+02  0.48782141684E+03  0.46999998093E+01 0.  1.
       -5    1    3    3    0  502 -0.46762309624E+03  0.10292112035E+03  0.47929040501E+03  0.67749944612E+03  0.46999998093E+01 0. -1.
</event>
<event>
 5   0  0.1069697E-03  0.1461288E+04  0.7818609E-02  0.8910612E-01
       -1   -1    0    0    0  501  0.00000000000E+00  0.00000000000E+00  0.18866164006E+03  0.18866164013E+03  0.50400001928E-02 0.  1.
        1   -1    0    0  501    0  0.00000000000E+00  0.00000000000E+00 -0.28296182159E+04  0.28296182159E+04  0.50400001928E-02 0. -1.
    10030    2    1    2    0    0  0.00000000000E+00  0.00000000000E+00 -0.26409565758E+04  0.30182798560E+04  0.14612876698E+04 0.  0.
        2    1    3    3  502    0  0.33150445616E+03 -0.43837590308E+03 -0.32609444215E+03  0.63906668045E+03  0.25500000920E-02 0.  1.
       -2    1    3    3    0  502 -0.33150445616E+03  0.43837590308E+03 -0.23148621336E+04  0.23792131755E+04  0.25500000920E-02 0. -1.
</event>
<event>
 5   0  0.1087761E-03  0.1498511E+04  0.7818609E-02  0.8885444E-01
       -1   -1    0    0    0  501  0.00000000000E+00  0.00000000000E+00  0.61317609371E+03  0.61317609373E+03  0.50400001928E-02 0. -1.
        1   -1    0    0  501    0  0.00000000000E+00  0.00000000000E+00 -0.91553473941E+03  0.91553473943E+03  0.50400001928E-02 0.  1.
    10030    2    1    2    0    0  0.00000000000E+00  0.00000000000E+00 -0.30235864571E+03  0.15287108332E+04  0.14985112815E+04 0.  0.
        3    1    3    3  502    0 -0.48110532049E+02 -0.37693622136E+03 -0.80993951558E+03  0.89464941031E+03  0.10100000352E+00 0.  1.
       -3    1    3    3    0  502  0.48110532049E+02  0.37693622136E+03  0.50758086988E+03  0.63406142284E+03  0.10100000352E+00 0. -1.
</event>
<event>
 5   0  0.2094566E-03  0.1559199E+04  0.7818609E-02  0.8846013E-01
       -2   -1    0    0    0  501  0.00000000000E+00  0.00000000000E+00  0.57740183726E+03  0.57740183726E+03  0.25500000920E-02 0. -1.
        2   -1    0    0  501    0  0.00000000000E+00  0.00000000000E+00 -0.10526037377E+04  0.10526037377E+04  0.25500000920E-02 0.  1.
    10030    2    1    2    0    0  0.00000000000E+00  0.00000000000E+00 -0.47520190042E+03  0.16300055749E+04  0.15591989380E+04 0.  0.
        1    1    3    3  502    0 -0.16285595357E+03  0.22405063843E+03 -0.99942931688E+03  0.10371015908E+04  0.50400001928E-02 0.  1.
       -1    1    3    3    0  502  0.16285595357E+03 -0.22405063843E+03  0.52422741647E+03  0.59290398413E+03  0.50400001928E-02 0. -1.
</event>
<event>
 5   0  0.1961098E-03  0.7951567E+03  0.7818609E-02  0.9567054E-01
        2   -1    0    0  501    0  0.00000000000E+00  0.00000000000E+00  0.16424146759E+04  0.16424146759E+04  0.25500000920E-02 0. -1.
       -2   -1    0    0    0  501  0.00000000000E+00  0.00000000000E+00 -0.96241547635E+02  0.96241547669E+02  0.25500000920E-02 0.  1.
    10030    2    1    2    0    0  0.00000000000E+00  0.00000000000E+00  0.15461731282E+04  0.17386562235E+04  0.79515666455E+03 0.  0.
        2    1    3    3  502    0  0.53080614777E+02  0.28585032982E+03  0.18012778315E+03  0.34201459179E+03  0.25500000920E-02 0.  1.
       -2    1    3    3    0  502 -0.53080614777E+02 -0.28585032982E+03  0.13660453451E+04  0.13966416317E+04  0.25500000920E-02 0. -1.
</event>
<event>
 5   0  0.1087761E-03  0.1337915E+04  0.7818609E-02  0.9000027E-01
       -1   -1    0    0    0  501  0.00000000000E+00  0.00000000000E+00  0.35375139005E+03  0.35375139008E+03  0.50400001928E-02 0.  1.
        1   -1    0    0  501    0  0.00000000000E+00  0.00000000000E+00 -0.12650241593E+04  0.12650241593E+04  0.50400001928E-02 0. -1.
    10030    2    1    2    0    0  0.00000000000E+00  0.00000000000E+00 -0.91127276923E+03  0.16187755494E+04  0.13379148774E+04 0.  0.
        3    1    3    3  502    0  0.16241935364E+03  0.34815163433E+03  0.20697186618E+03  0.43637938828E+03  0.10100000352E+00 0.  1.
       -3    1    3    3    0  502 -0.16241935364E+03 -0.34815163433E+03 -0.11182446354E+04  0.11823961611E+04  0.10100000352E+00 0. -1.
</event>
<event>
 5   0  0.2094566E-03  0.1493771E+04  0.7818609E-02  0.8888605E-01
       -2   -1    0    0    0  501  0.00000000000E+00  0.00000000000E+00  0.40473900288E+03  0.40473900289E+03  0.25500000920E-02 0.  1.
        2   -1    0    0  501    0  0.00000000000E+00  0.00000000000E+00 -0.13782667810E+04  0.13782667810E+04  0.25500000920E-02 0. -1.
    10030    2    1    2    0    0  0.00000000000E+00  0.00000000000E+00 -0.97352777809E+03  0.17830057839E+04  0.14937714988E+04 0.  0.
        1    1    3    3  502    0 -0.52708892542E+03 -0.22712646656E+03  0.83721269153E+02  0.58001587741E+03  0.50400001928E-02 0.  1.
       -1    1    3    3    0  502  0.52708892542E+03  0.22712646656E+03 -0.10572490472E+04  0.12029899065E+04  0.50400001928E-02 0. -1.
</event>
<event>
 5   0  0.1077140E-03  0.1398330E+04  0.7818609E-02  0.8955028E-01
       -1   -1    0    0    0  501  0.00000000000E+00  0.00000000000E+00  0.47527601654E+03  0.47527601656E+03  0.50400001928E-02 0. -1.
        1   -1    0    0  501    0  0.00000000000E+00  0.00000000000E+00 -0.10285219647E+04  0.10285219647E+04  0.50400001928E-02 0.  1.
    10030    2    1    2    0    0  0.00000000000E+00  0.00000000000E+00 -0.55324594813E+03  0.15037979812E+04  0.13983301789E+04 0.  0.
        1    1    3    3  502    0  0.44336798205E+03  0.53559671156E+03 -0.35559760822E+03  0.78095368873E+03  0.50400001928E-02 0. -1.
       -1    1    3    3    0  502 -0.44336798205E+03 -0.53559671156E+03 -0.19764833991E+03  0.72284429252E+03  0.50400001928E-02 0.  1.
</event>
<event>
 5   0  0.1087761E-03  0.1499815E+04  0.7818609E-02  0.8884576E-01
        1   -1    0    0  501    0  0.00000000000E+00  0.00000000000E+00  0.97974746008E+03  0.97974746010E+03  0.50400001928E-02 0. -1.
       -1   -1    0    0    0  501  0.00000000000E+00  0.00000000000E+00 -0.57398571005E+03  0.57398571007E+03  0.50400001928E-02 0.  1.
    10030    2    1    2    0    0  0.00000000000E+00  0.00000000000E+00  0.40576175003E+03  0.15537331702E+04  0.14998147107E+04 0.  0.
        3    1    3    3  502    0  0.27637494008E+03  0.11252116889E+03 -0.50983238509E+03  0.59073952978E+03  0.10100000352E+00 0.  1.
       -3    1    3    3    0  502 -0.27637494008E+03 -0.11252116889E+03  0.91559413513E+03  0.96299364039E+03  0.10100000352E+00 0. -1.
</event>
<event>
 5   0  0.1993623E-03  0.1507559E+04  0.7818609E-02  0.8879442E-01
        2   -1    0    0  501    0  0.00000000000E+00  0.00000000000E+00  0.14215337828E+04  0.14215337828E+04  0.25500000920E-02 0.  1.
       -2   -1    0    0    0  501  0.00000000000E+00  0.00000000000E+00 -0.39969743007E+03  0.39969743008E+03  0.25500000920E-02 0. -1.
    10030    2    1    2    0    0  0.00000000000E+00  0.00000000000E+00  0.10218363527E+04  0.18212312128E+04  0.15075588211E+04 0.  0.
        4    1    3    3  502    0  0.27902815073E+03  0.56998246367E+02  0.13540380140E+04  0.13836640001E+04  0.12699999809E+01 0.  1.
       -4    1    3    3    0  502 -0.27902815073E+03 -0.56998246367E+02 -0.33220166130E+03  0.43756721273E+03  0.12699999809E+01 0. -1.
</event>
<event>
 5   0  0.7468375E-04  0.1476347E+04  0.7818609E-02  0.8900336E-01
       -4   -1    0    0    0  501  0.00000000000E+00  0.00000000000E+00  0.50113256414E+03  0.50113417339E+03  0.12699999809E+01 0. -1.
        4   -1    0    0  501    0  0.00000000000E+00  0.00000000000E+00 -0.10873339107E+04  0.10873346524E+04  0.12699999809E+01 0.  1.
    10030    2    1    2    0    0  0.00000000000E+00  0.00000000000E+00 -0.58620134659E+03  0.15884688258E+04  0.14763472463E+04 0.  0.
        5    1    3    3  502    0 -0.48567797467E+03 -0.53776692265E+03 -0.44450666370E+03  0.85010859438E+03  0.46999998093E+01 0.  1.
       -5    1    3    3    0  502  0.48567797467E+03  0.53776692265E+03 -0.14169468289E+03  0.73836023141E+03  0.46999998093E+01 0. -1.
</event>
<event>
 5   0  0.2094566E-03  0.1477127E+04  0.7818609E-02  0.8899807E-01
       -2   -1    0    0    0  501  0.00000000000E+00  0.00000000000E+00  0.28316622235E+03  0.28316622236E+03  0.25500000920E-02 0.  1.
        2   -1    0    0  501    0  0.00000000000E+00  0.00000000000E+00 -0.19263463198E+04  0.19263463198E+04  0.25500000920E-02 0. -1.
    10030    2    1    2    0    0  0.00000000000E+00  0.00000000000E+00 -0.16431800974E+04  0.22095125422E+04  0.14771272258E+04 0.  0.
        1    1    3    3  502    0 -0.34871522092E+03  0.26501013296E+03  0.67941650988E+02  0.44322538718E+03  0.50400001928E-02 0.  1.
       -1    1    3    3    0  502  0.34871522092E+03 -0.26501013296E+03 -0.17111217484E+04  0.17662871550E+04  0.50400001928E-02 0. -1.
</event>
<event>
 5   0  0.2111533E-03  0.1510037E+04  0.7818609E-02  0.8877806E-01
       -2   -1    0    0    0  501  0.00000000000E+00  0.00000000000E+00  0.42531872652E+03  0.42531872653E+03  0.25500000920E-02 0. -1.
        2   -1    0    0  501    0  0.00000000000E+00  0.00000000000E+00 -0.13402957369E+04  0.13402957369E+04  0.25500000920E-02 0.  1.
    10030    2    1    2    0    0  0.00000000000E+00  0.00000000000E+00 -0.91497701040E+03  0.17656144635E+04  0.15100369214E+04 0.  0.
        5    1    3    3  502    0  0.58687637824E+03 -0.25088699621E+03  0.14088033238E+02  0.63842676235E+03  0.46999998093E+01 0. -1.
       -5    1    3    3    0  502 -0.58687637824E+03  0.25088699621E+03 -0.92906504364E+03  0.11271877011E+04  0.46999998093E+01 0.  1.
</event>
<event>
 5   0  0.1993623E-03  0.1539600E+04  0.7818609E-02  0.8858538E-01
        2   -1    0    0  501    0  0.00000000000E+00  0.00000000000E+00  0.81100205537E+03  0.81100205537E+03  0.25500000920E-02 0.  1.
       -2   -1    0    0    0  501  0.00000000000E+00  0.00000000000E+00 -0.73069096814E+03  0.73069096815E+03  0.25500000920E-02 0. -1.
    10030    2    1    2    0    0  0.00000000000E+00  0.00000000000E+00  0.80311087222E+02  0.15416930235E+04  0.15395997883E+04 0.  0.
        4    1    3    3  502    0  0.42890308173E+03 -0.24579360892E+03 -0.55074667177E+03  0.74006476816E+03  0.12699999809E+01 0. -1.
       -4    1    3    3    0  502 -0.42890308173E+03  0.24579360892E+03  0.63105775900E+03  0.80162825536E+03  0.12699999809E+01 0.  1.
</event>
<event>
 5   0  0.1087761E-03  0.1564796E+04  0.7818609E-02  0.8842472E-01
        1   -1    0    0  501    0  0.00000000000E+00  0.00000000000E+00  0.57306681833E+03  0.57306681836E+03  0.50400001928E-02 0.  1.
       -1   -1    0    0    0  501  0.00000000000E+00  0.00000000000E+00 -0.10681945843E+04  0.10681945843E+04  0.50400001928E-02 0. -1.
    10030    2    1    2    0    0  0.00000000000E+00  0.00000000000E+00 -0.49512776594E+03  0.16412614026E+04  0.15647963085E+04 0.  0.
        3    1    3    3  502    0  0.71810918682E+03 -0.26512846532E+03 -0.41725000198E+03  0.87182078529E+03  0.10100000352E+00 0. -1.
       -3    1    3    3    0  502 -0.71810918682E+03  0.26512846532E+03 -0.77877763965E+02  0.76944061735E+03  0.10100000352E+00 0.  1.
</event>
<event>
 5   0  0.1087761E-03  0.1524363E+04  0.7818609E-02  0.8868412E-01
        1   -1    0    0  501    0  0.00000000000E+00  0.00000000000E+00  0.11262281471E+04  0.11262281471E+04  0.50400001928E-02 0. -1.
       -1   -1    0    0    0  501  0.00000000000E+00  0.00000000000E+00 -0.51581071537E+03  0.51581071540E+03  0.50400001928E-02 0.  1.
    10030    2    1    2    0    0  0.00000000000E+00  0.00000000000E+00  0.61041743176E+03  0.16420388625E+04  0.15243628784E+04 0.  0.
        3    1    3    3  502    0 -0.13504783688E+03 -0.61984682377E+03  0.76028139291E+03  0.99018978473E+03  0.10100000352E+00 0. -1.
       -3    1    3    3    0  502  0.13504783688E+03  0.61984682377E+03 -0.14986396115E+03  0.65184907781E+03  0.10100000352E+00 0.  1.
</event>
<event>
 5   0  0.2150197E-03  0.1521051E+04  0.7818609E-02  0.8870574E-01
        2   -1    0    0  501    0  0.00000000000E+00  0.00000000000E+00  0.11651216975E+04  0.11651216975E+04  0.25500000920E-02 0.  1.
       -2   -1    0    0    0  501  0.00000000000E+00  0.00000000000E+00 -0.49642785513E+03  0.49642785514E+03  0.25500000920E-02 0. -1.
    10030    2    1    2    0    0  0.00000000000E+00  0.00000000000E+00  0.66869384240E+03  0.16615495527E+04  0.15210507753E+04 0.  0.
        3    1    3    3  502    0  0.66503395092E+03 -0.98173652952E+02 -0.54160008060E+02  0.67441940859E+03  0.10100000352E+00 0. -1.
       -3    1    3    3    0  502 -0.66503395092E+03  0.98173652952E+02  0.72285385046E+03  0.98713014408E+03  0.10100000352E+00 0.  1.
</event>
<event>
 5   0  0.1993623E-03  0.1523419E+04  0.7818609E-02  0.8869027E-01
       -2   -1    0    0    0  501  0.00000000000E+00  0.00000000000E+00  0.41071088936E+03  0.41071088937E+03  0.25500000920E-02 0.  1.
        2   -1    0    0  501    0  0.00000000000E+00  0.00000000000E+00 -0.14126763583E+04  0.14126763583E+04  0.25500000920E-02 0. -1.
    10030    2    1    2    0    0  0.00000000000E+00  0.00000000000E+00 -0.10019654689E+04  0.18233872476E+04  0.15234192640E+04 0.  0.
        4    1    3    3  502    0 -0.10201080644E+03 -0.11502478136E+03 -0.13939111702E+04  0.14023647415E+04  0.12699999809E+01 0. -1.
       -4    1    3    3    0  502  0.10201080644E+03  0.11502478136E+03  0.39194570132E+03  0.42102250609E+03  0.12699999809E+01 0.  1.
</event>
<event>
 5   0  0.1069697E-03  0.1542258E+04  0.7818609E-02  0.8856828E-01
       -1   -1    0    0    0  501  0.00000000000E+00  0.00000000000E+00  0.31873647000E+03  0.31873647004E+03  0.50400001928E-02 0.  1.
        1   -1    0    0  501    0  0.00000000000E+00  0.00000000000E+00 -0.18656171103E+04  0.18656171103E+04  0.50400001928E-02 0. -1.
    10030    2    1    2    0    0  0.00000000000E+00  0.00000000000E+00 -0.15468806403E+04  0.21843535804E+04  0.15422583599E+04 0.  0.
        2    1    3    3  502    0 -0.71101514880E+02 -0.21118134937E+03  0.27214377067E+03  0.35173174389E+03  0.25500000920E-02 0.  1.
       -2    1    3    3    0  502  0.71101514880E+02  0.21118134937E+03 -0.18190244110E+04  0.18326218365E+04  0.25500000920E-02 0. -1.
</event>
<event>
 5   0  0.1077140E-03  0.1557186E+04  0.7818609E-02  0.8847291E-01
        1   -1    0    0  501    0  0.00000000000E+00  0.00000000000E+00  0.82445002594E+03  0.82445002596E+03  0.50400001928E-02 0. -1.
       -1   -1    0    0    0  501  0.00000000000E+00  0.00000000000E+00 -0.73528654480E+03  0.73528654482E+03  0.50400001928E-02 0.  1.
    10030    2    1    2    0    0  0.00000000000E+00  0.00000000000E+00  0.89163481137E+02  0.15597365708E+04  0.15571859375E+04 0.  0.
        1    1    3    3  502    0 -0.25029193324E+03 -0.51298054223E+03 -0.48582498144E+03  0.74954719743E+03  0.50400001928E-02 0.  1.
       -1    1    3    3    0  502  0.25029193324E+03  0.51298054223E+03  0.57498846258E+03  0.81018937335E+03  0.50400001928E-02 0. -1.
</event>
<event>
 5   0  0.1069697E-03  0.1473056E+04  0.7818609E-02  0.8902570E-01
        1   -1    0    0  501    0  0.00000000000E+00  0.00000000000E+00  0.13804135920E+04  0.13804135920E+04  0.50400001928E-02 0.  1.
       -1   -1    0    0    0  501  0.00000000000E+00  0.00000000000E+00 -0.39297914652E+03  0.39297914655E+03  0.50400001928E-02 0. -1.
    10030    2    1    2    0    0  0.00000000000E+00  0.00000000000E+00  0.98743444546E+03  0.17733927385E+04  0.14730563536E+04 0.  0.
        2    1    3    3  502    0  0.48623907761E+03  0.15113116058E+03 -0.14695483406E+03  0.52996678345E+03  0.25500000920E-02 0. -1.
       -2    1    3    3    0  502 -0.48623907761E+03 -0.15113116058E+03  0.11343892795E+04  0.12434259551E+04  0.25500000920E-02 0.  1.
</event>
<event>
 5   0  0.1993623E-03  0.1493841E+04  0.7818609E-02  0.8888559E-01
       -2   -1    0    0    0  501  0.00000000000E+00  0.00000000000E+00  0.54290800207E+03  0.54290800207E+03  0.25500000920E-02 0.  1.
        2   -1    0    0  501    0  0.00000000000E+00  0.00000000000E+00 -0.10275958119E+04  0.10275958119E+04  0.25500000920E-02 0. -1.
    10030    2    1    2    0    0  0.00000000000E+00  0.00000000000E+00 -0.48468780984E+03  0.15705038140E+04  0.14938406731E+04 0.  0.
        4    1    3    3  502    0 -0.58133231187E+03  0.45830723080E+03 -0.13776217585E+03  0.75297596550E+03  0.12699999809E+01 0. -1.
       -4    1    3    3    0  502  0.58133231187E+03 -0.45830723080E+03 -0.34692563398E+03  0.81752784848E+03  0.12699999809E+01 0.  1.
</event>
<event>
 5   0  0.1993623E-03  0.1512958E+04  0.7818609E-02  0.8875881E-01
        2   -1    0    0  501    0  0.00000000000E+00  0.00000000000E+00  0.87041588576E+03  0.87041588576E+03  0.25500000920E-02 0. -1.
       -2   -1    0    0    0  501  0.00000000000E+00  0.00000000000E+00 -0.65745638383E+03  0.65745638383E+03  0.25500000920E-02 0.  1.
    10030    2    1    2    0    0  0.00000000000E+00  0.00000000000E+00  0.21295950193E+03  0.15278722696E+04  0.15129580043E+04 0.  0.
        4    1    3    3  502    0 -0.49148134793E+03  0.53072573073E+03  0.33010144575E+03  0.79510520939E+03  0.12699999809E+01 0. -1.
       -4    1    3    3    0  502  0.49148134793E+03 -0.53072573073E+03 -0.11714194382E+03  0.73276706020E+03  0.12699999809E+01 0.  1.
</event>
<event>
 5   0  0.2111533E-03  0.1480387E+04  0.7818609E-02  0.8897601E-01
        2   -1    0    0  501    0  0.00000000000E+00  0.00000000000E+00  0.47775536072E+03  0.47775536073E+03  0.25500000920E-02 0.  1.
       -2   -1    0    0    0  501  0.00000000000E+00  0.00000000000E+00 -0.11467931035E+04  0.11467931035E+04  0.25500000920E-02 0. -1.
    10030    2    1    2    0    0  0.00000000000E+00  0.00000000000E+00 -0.66903774277E+03  0.16245484642E+04  0.14803871829E+04 0.  0.
        5    1    3    3  502    0 -0.47594570055E+03  0.56391323219E+03 -0.27107906527E+03  0.78614781876E+03  0.46999998093E+01 0. -1.
       -5    1    3    3    0  502  0.47594570055E+03 -0.56391323219E+03 -0.39795867750E+03  0.83840064546E+03  0.46999998093E+01 0.  1.
</event>
<event>
 5   0  0.1087761E-03  0.1488220E+04  0.7818609E-02  0.8892324E-01
        1   -1    0    0  501    0  0.00000000000E+00  0.00000000000E+00  0.34888862523E+03  0.34888862527E+03  0.50400001928E-02 0.  1.
       -1   -1    0    0    0  501  0.00000000000E+00  0.00000000000E+00 -0.15870391135E+04  0.15870391135E+04  0.50400001928E-02 0. -1.
    10030    2    1    2    0    0  0.00000000000E+00  0.00000000000E+00 -0.12381504883E+04  0.19359277388E+04  0.14882202721E+04 0.  0.
        3    1    3    3  502    0  0.65013610401E+03 -0.23558897386E+03 -0.26159246980E+03  0.73933060859E+03  0.10100000352E+00 0.  1.
       -3    1    3    3    0  502 -0.65013610401E+03  0.23558897386E+03 -0.97655801848E+03  0.11965971302E+04  0.10100000352E+00 0. -1.
</event>
<event>
 5   0  0.1069697E-03  0.1509686E+04  0.7818609E-02  0.8878037E-01
       -1   -1    0    0    0  501  0.00000000000E+00  0.00000000000E+00  0.76465398525E+03  0.76465398526E+03  0.50400001928E-02 0. -1.
        1   -1    0    0  501    0  0.00000000000E+00  0.00000000000E+00 -0.74515826920E+03  0.74515826922E+03  0.50400001928E-02 0.  1.
    10030    2    1    2    0    0  0.00000000000E+00  0.00000000000E+00  0.19495716042E+02  0.15098122545E+04  0.15096863783E+04 0.  0.
        2    1    3    3  502    0  0.39152736559E+03  0.63894915860E+02 -0.63249880628E+03  0.74661300433E+03  0.25500000920E-02 0.  1.
       -2    1    3    3    0  502 -0.39152736559E+03 -0.63894915860E+02  0.65199452233E+03  0.76319925015E+03  0.25500000920E-02 0. -1.
</event>
<event>
 5   0  0.2094566E-03  0.1495196E+04  0.7818609E-02  0.8887654E-01
       -2   -1    0    0    0  501  0.00000000000E+00  0.00000000000E+00  0.77403359092E+03  0.77403359092E+03  0.25500000920E-02 0.  1.
        2   -1    0    0  501    0  0.00000000000E+00  0.00000000000E+00 -0.72206552947E+03  0.72206552947E+03  0.25500000920E-02 0. -1.
    10030    2    1    2    0    0  0.00000000000E+00  0.00000000000E+00  0.51968061453E+02  0.14960991204E+04  0.14951962743E+04 0.  0.
        1    1    3    3  502    0  0.35987814399E+03 -0.18716890469E+03  0.65434291935E+03  0.76987605076E+03  0.50400001928E-02 0.  1.
       -1    1    3    3    0  502 -0.35987814399E+03  0.18716890469E+03 -0.60237485790E+03  0.72622306963E+03  0.50400001928E-02 0. -1.
</event>
<event>
 5   0  0.1078018E-03  0.1501896E+04  0.7818609E-02  0.8883193E-01
        1   -1    0    0  501    0  0.00000000000E+00  0.00000000000E+00  0.15239125118E+04  0.15239125118E+04  0.50400001928E-02 0. -1.
       -1   -1    0    0    0  501  0.00000000000E+00  0.00000000000E+00 -0.37004941614E+03  0.37004941618E+03  0.50400001928E-02 0.  1.
    10030    2    1    2    0    0  0.00000000000E+00  0.00000000000E+00  0.11538630957E+04  0.18939619280E+04  0.15018960487E+04 0.  0.
        4    1    3    3  502    0 -0.73539734059E+02 -0.62837968513E+03  0.10870749751E+04  0.12577769022E+04  0.12699999809E+01 0. -1.
       -4    1    3    3    0  502  0.73539734059E+02  0.62837968513E+03  0.66788120553E+02  0.63618502585E+03  0.12699999809E+01 0.  1.
</event>
<event>
 5   0  0.1993623E-03  0.1571711E+04  0.7818609E-02  0.8838118E-01
       -2   -1    0    0    0  501  0.00000000000E+00  0.00000000000E+00  0.18554471738E+04  0.18554471738E+04  0.25500000920E-02 0.  1.
        2   -1    0    0  501    0  0.00000000000E+00  0.00000000000E+00 -0.33284101750E+03  0.33284101751E+03  0.25500000920E-02 0. -1.
    10030    2    1    2    0    0  0.00000000000E+00  0.00000000000E+00  0.15226061563E+04  0.21882881913E+04  0.15717110743E+04 0.  0.
        4    1    3    3  502    0 -0.22658835501E+03 -0.11369958170E+03  0.17969486008E+04  0.18147439941E+04  0.12699999809E+01 0.  1.
       -4    1    3    3    0  502  0.22658835501E+03  0.11369958170E+03 -0.27434244448E+03  0.37354419717E+03  0.12699999809E+01 0. -1.
</event>
<event>
 5   0  0.1961098E-03  0.1509292E+04  0.7818609E-02  0.8878297E-01
        2   -1    0    0  501    0  0.00000000000E+00  0.00000000000E+00  0.84515889355E+03  0.84515889355E+03  0.25500000920E-02 0. -1.
       -2   -1    0    0    0  501  0.00000000000E+00  0.00000000000E+00 -0.67382706748E+03  0.67382706749E+03  0.25500000920E-02 0.  1.
    10030    2    1    2    0    0  0.00000000000E+00  0.00000000000E+00  0.17133182607E+03  0.15189859610E+04  0.15092924684E+04 0.  0.
        2    1    3    3  502    0 -0.63467537086E+02  0.49286763707E+03  0.65724330540E+03  0.82396322639E+03  0.25500000920E-02 0. -1.
       -2    1    3    3    0  502  0.63467537086E+02 -0.49286763707E+03 -0.48591147933E+03  0.69502273466E+03  0.25500000920E-02 0.  1.
</event>
<event>
 5   0  0.1078018E-03  0.1512143E+04  0.7818609E-02  0.8876418E-01
        1   -1    0    0  501    0  0.00000000000E+00  0.00000000000E+00  0.65767945429E+03  0.65767945431E+03  0.50400001928E-02 0. -1.
       -1   -1    0    0    0  501  0.00000000000E+00  0.00000000000E+00 -0.86918404566E+03  0.86918404567E+03  0.50400001928E-02 0.  1.
    10030    2    1    2    0    0  0.00000000000E+00  0.00000000000E+00 -0.21150459137E+03  0.15268635000E+04  0.15121434970E+04 0.  0.
        4    1    3    3  502    0  0.50794669474E+03  0.10313942151E+03 -0.66156074771E+03  0.84042359604E+03  0.12699999809E+01 0.  1.
       -4    1    3    3    0  502 -0.50794669474E+03 -0.10313942151E+03  0.45005615634E+03  0.68643990394E+03  0.12699999809E+01 0. -1.
</event>
<event>
 5   0  0.1993623E-03  0.1466886E+04  0.7818609E-02  0.8906777E-01
       -2   -1    0    0    0  501  0.00000000000E+00  0.00000000000E+00  0.68201644978E+03  0.68201644979E+03  0.25500000920E-02 0. -1.
        2   -1    0    0  501    0  0.00000000000E+00  0.00000000000E+00 -0.78874706180E+03  0.78874706181E+03  0.25500000920E-02 0.  1.
    10030    2    1    2    0    0  0.00000000000E+00  0.00000000000E+00 -0.10673061202E+03  0.14707635116E+04  0.14668857772E+04 0.  0.
        4    1    3    3  502    0 -0.56764292363E+03 -0.22263993397E+03  0.35532703451E+03  0.70572370181E+03  0.12699999809E+01 0. -1.
       -4    1    3    3    0  502  0.56764292363E+03  0.22263993397E+03 -0.46205764653E+03  0.76503980978E+03  0.12699999809E+01 0.  1.
</event>
<event>
 5   0  0.1087761E-03  0.1498796E+04  0.7818609E-02  0.8885254E-01
        1   -1    0    0  501    0  0.00000000000E+00  0.00000000000E+00  0.14268857763E+04  0.14268857763E+04  0.50400001928E-02 0. -1.
       -1   -1    0    0    0  501  0.00000000000E+00  0.00000000000E+00 -0.39358246159E+03  0.39358246162E+03  0.50400001928E-02 0.  1.
    10030    2    1    2    0    0  0.00000000000E+00  0.00000000000E+00  0.10333033147E+04  0.18204682379E+04  0.14987958050E+04 0.  0.
        3    1    3    3  502    0  0.14654555027E+02  0.36318946566E+03  0.13126460664E+04  0.13620429691E+04  0.10100000352E+00 0. -1.
       -3    1    3    3    0  502 -0.14654555027E+02 -0.36318946566E+03 -0.27934275168E+03  0.45842526880E+03  0.10100000352E+00 0.  1.
</event>
<event>
 5   0  0.2111533E-03  0.1418790E+04  0.7818609E-02  0.8940328E-01
        2   -1    0    0  501    0  0.00000000000E+00  0.00000000000E+00  0.27225293285E+04  0.27225293285E+04  0.25500000920E-02 0.  1.
       -2   -1    0    0    0  501  0.00000000000E+00  0.00000000000E+00 -0.18484336403E+03  0.18484336405E+03  0.25500000920E-02 0. -1.
    10030    2    1    2    0    0  0.00000000000E+00  0.00000000000E+00  0.25376859644E+04  0.29073726925E+04  0.14187903013E+04 0.  0.
        5    1    3    3  502    0  0.42142060552E+03  0.45381522373E+03  0.19777441243E+04  0.20724472238E+04  0.46999998093E+01 0.  1.
       -5    1    3    3    0  502 -0.42142060552E+03 -0.45381522373E+03  0.55994184010E+03  0.83492546873E+03  0.46999998093E+01 0. -1.
</event>
<event>
 5   0  0.2111533E-03  0.1464840E+04  0.7818609E-02  0.8908176E-01
        2   -1    0    0  501    0  0.00000000000E+00  0.00000000000E+00  0.63312346349E+03  0.63312346350E+03  0.25500000920E-02 0. -1.
       -2   -1    0    0    0  501  0.00000000000E+00  0.00000000000E+00 -0.84728998486E+03  0.84728998487E+03  0.25500000920E-02 0.  1.
    10030    2    1    2    0    0  0.00000000000E+00  0.00000000000E+00 -0.21416652137E+03  0.14804134484E+04  0.14648401548E+04 0.  0.
        5    1    3    3  502    0  0.67535434276E+03 -0.27971055876E+03 -0.61040211581E+02  0.73354582842E+03  0.46999998093E+01 0. -1.
       -5    1    3    3    0  502 -0.67535434276E+03  0.27971055876E+03 -0.15312630979E+03  0.74686761994E+03  0.46999998093E+01 0.  1.
</event>
<event>
 5   0  0.2094566E-03  0.1495641E+04  0.7818609E-02  0.8887357E-01
       -2   -1    0    0    0  501  0.00000000000E+00  0.00000000000E+00  0.17547292058E+04  0.17547292058E+04  0.25500000920E-02 0.  1.
        2   -1    0    0  501    0  0.00000000000E+00  0.00000000000E+00 -0.31870170882E+03  0.31870170883E+03  0.25500000920E-02 0. -1.
    10030    2    1    2    0    0  0.00000000000E+00  0.00000000000E+00  0.14360274970E+04  0.20734309146E+04  0.14956405937E+04 0.  0.
        1    1    3    3  502    0 -0.21166307768E+03  0.34293232622E+03  0.15913174821E+04  0.16415526698E+04  0.50400001928E-02 0.  1.
       -1    1    3    3    0  502  0.21166307768E+03 -0.34293232622E+03 -0.15528998516E+03  0.43187824481E+03  0.50400001928E-02 0. -1.
</event>
<event>
 5   0  0.1078018E-03  0.1501566E+04  0.7818609E-02  0.8883412E-01
        1   -1    0    0  501    0  0.00000000000E+00  0.00000000000E+00  0.70006007894E+03  0.70006007896E+03  0.50400001928E-02 0.  1.
       -1   -1    0    0    0  501  0.00000000000E+00  0.00000000000E+00 -0.80518138765E+03  0.80518138767E+03  0.50400001928E-02 0. -1.
    10030    2    1    2    0    0  0.00000000000E+00  0.00000000000E+00 -0.10512130871E+03  0.15052414666E+04  0.15015663100E+04 0.  0.
        4    1    3    3  502    0  0.57837811785E+02 -0.79575215415E+02 -0.79869166839E+03  0.80472816618E+03  0.12699999809E+01 0. -1.
       -4    1    3    3    0  502 -0.57837811785E+02  0.79575215415E+02  0.69357035968E+03  0.70051330045E+03  0.12699999809E+01 0.  1.
</event>
<event>
 5   0  0.1087761E-03  0.1507459E+04  0.7818609E-02  0.8879508E-01
       -1   -1    0    0    0  501  0.00000000000E+00  0.00000000000E+00  0.67080728272E+03  0.67080728274E+03  0.50400001928E-02 0.  1.
        1   -1    0    0  501    0  0.00000000000E+00  0.00000000000E+00 -0.84690216925E+03  0.84690216927E+03  0.50400001928E-02 0. -1.
    10030    2    1    2    0    0  0.00000000000E+00  0.00000000000E+00 -0.17609488653E+03  0.15177094520E+04  0.15074589784E+04 0.  0.
        3    1    3    3  502    0  0.72107293645E+03  0.10497024293E+03  0.10598877473E+03  0.73634133535E+03  0.10100000352E+00 0.  1.
       -3    1    3    3    0  502 -0.72107293645E+03 -0.10497024293E+03 -0.28208366126E+03  0.78136811666E+03  0.10100000352E+00 0. -1.
</event>
<event>
 5   0  0.1087761E-03  0.1501199E+04  0.7818609E-02  0.8883656E-01
       -1   -1    0    0    0  501  0.00000000000E+00  0.00000000000E+00  0.63641492589E+03  0.63641492591E+03  0.50400001928E-02 0. -1.
        1   -1    0    0  501    0  0.00000000000E+00  0.00000000000E+00 -0.88527086615E+03  0.88527086616E+03  0.50400001928E-02 0.  1.
    10030    2    1    2    0    0  0.00000000000E+00  0.00000000000E+00 -0.24885594026E+03  0.15216857921E+04  0.15011989777E+04 0.  0.
        3    1    3    3  502    0  0.52247278540E+03  0.14148073047E+03  0.40267330106E+03  0.67464094611E+03  0.10100000352E+00 0. -1.
       -3    1    3    3    0  502 -0.52247278540E+03 -0.14148073047E+03 -0.65152924132E+03  0.84704484596E+03  0.10100000352E+00 0.  1.
</event>
<event>
 5   0  0.1993623E-03  0.1507821E+04  0.7818609E-02  0.8879269E-01
        2   -1    0    0  501    0  0.00000000000E+00  0.00000000000E+00  0.96712957420E+03  0.96712957421E+03  0.25500000920E-02 0.  1.
       -2   -1    0    0    0  501  0.00000000000E+00  0.00000000000E+00 -0.58769897779E+03  0.58769897780E+03  0.25500000920E-02 0. -1.
    10030    2    1    2    0    0  0.00000000000E+00  0.00000000000E+00  0.37943059641E+03  0.15548285520E+04  0.15078210267E+04 0.  0.
        4    1    3    3  502    0  0.25455212982E+03  0.20450560951E+03 -0.51099890754E+03  0.60641638131E+03  0.12699999809E+01 0. -1.
       -4    1    3    3    0  502 -0.25455212982E+03 -0.20450560951E+03  0.89042950395E+03  0.94841217070E+03  0.12699999809E+01 0.  1.
</event>
<event>
 5   0  0.1078787E-03  0.9544844E+03  0.7818609E-02  0.9359924E-01
        1   -1    0    0  501    0  0.00000000000E+00  0.00000000000E+00  0.79562011075E+03  0.79562011077E+03  0.50400001928E-02 0.  1.
       -1   -1    0    0    0  501  0.00000000000E+00  0.00000000000E+00 -0.28626740519E+03  0.28626740523E+03  0.50400001928E-02 0. -1.
    10030    2    1    2    0    0  0.00000000000E+00  0.00000000000E+00  0.50935270556E+03  0.10818875160E+04  0.95448437316E+03 0.  0.
        5    1    3    3  502    0 -0.29659985765E+03 -0.36052665468E+03  0.36681095383E+03  0.59373673471E+03  0.46999998093E+01 0.  1.
       -5    1    3    3    0  502  0.29659985765E+03  0.36052665468E+03  0.14254175173E+03  0.48815078129E+03  0.46999998093E+01 0. -1.
</event>
<event>
 5   0  0.1077140E-03  0.1532562E+04  0.7818609E-02  0.8863084E-01
        1   -1    0    0  501    0  0.00000000000E+00  0.00000000000E+00  0.12252286946E+04  0.12252286946E+04  0.50400001928E-02 0. -1.
       -1   -1    0    0    0  501  0.00000000000E+00  0.00000000000E+00 -0.47924649400E+03  0.47924649403E+03  0.50400001928E-02 0.  1.
    10030    2    1    2    0    0  0.00000000000E+00  0.00000000000E+00  0.74598220060E+03  0.17044751886E+04  0.15325619808E+04 0.  0.
        1    1    3    3  502    0 -0.54804194188E+03 -0.14397925475E+03 -0.20072947724E+03  0.60114251132E+03  0.50400001928E-02 0.  1.
       -1    1    3    3    0  502  0.54804194188E+03  0.14397925475E+03  0.94671167784E+03  0.11033326773E+04  0.50400001928E-02 0. -1.
</event>
<event>
 5   0  0.1069697E-03  0.1486313E+04  0.7818609E-02  0.8893606E-01
       -1   -1    0    0    0  501  0.00000000000E+00  0.00000000000E+00  0.51818245478E+03  0.51818245480E+03  0.50400001928E-02 0.  1.
        1   -1    0    0  501    0  0.00000000000E+00  0.00000000000E+00 -0.10658051655E+04  0.10658051655E+04  0.50400001928E-02 0. -1.
    10030    2    1    2    0    0  0.00000000000E+00  0.00000000000E+00 -0.54762271070E+03  0.15839876203E+04  0.14863129374E+04 0.  0.
        2    1    3    3  502    0 -0.18966170842E+03 -0.52974447988E+03  0.24356144071E+03  0.61312556056E+03  0.25500000920E-02 0.  1.
       -2    1    3    3    0  502  0.18966170842E+03  0.52974447988E+03 -0.79118415141E+03  0.97086205974E+03  0.25500000920E-02 0. -1.
</event>
<event>
 5   0  0.2150197E-03  0.1457339E+04  0.7818609E-02  0.8913328E-01
       -2   -1    0    0    0  501  0.00000000000E+00  0.00000000000E+00  0.31720005722E+03  0.31720005723E+03  0.25500000920E-02 0.  1.
        2   -1    0    0  501    0  0.00000000000E+00  0.00000000000E+00 -0.16738948795E+04  0.16738948795E+04  0.25500000920E-02 0. -1.
    10030    2    1    2    0    0  0.00000000000E+00  0.00000000000E+00 -0.13566948222E+04  0.19910949367E+04  0.14573394272E+04 0.  0.
        3    1    3    3  502    0  0.46513151492E+03  0.13982274835E+02 -0.14444449439E+04  0.15175519880E+04  0.10100000352E+00 0. -1.
       -3    1    3    3    0  502 -0.46513151492E+03 -0.13982274835E+02  0.87750121660E+02  0.47354294867E+03  0.10100000352E+00 0.  1.
</event>
<event>
 5   0  0.1993623E-03  0.1487104E+04  0.7818609E-02  0.8893074E-01
        2   -1    0    0  501    0  0.00000000000E+00  0.00000000000E+00  0.74655801398E+03  0.74655801399E+03  0.25500000920E-02 0. -1.
       -2   -1    0    0    0  501  0.00000000000E+00  0.00000000000E+00 -0.74055842416E+03  0.74055842416E+03  0.25500000920E-02 0.  1.
    10030    2    1    2    0    0  0.00000000000E+00  0.00000000000E+00  0.59995898245E+01  0.14871164381E+04  0.14871043358E+04 0.  0.
        4    1    3    3  502    0 -0.57979288113E+03 -0.21228566574E+03 -0.41130204956E+03  0.74188676883E+03  0.12699999809E+01 0.  1.
       -4    1    3    3    0  502  0.57979288113E+03  0.21228566574E+03  0.41730163939E+03  0.74522966931E+03  0.12699999809E+01 0. -1.
</event>
<event>
 5   0  0.2094566E-03  0.1471571E+04  0.7818609E-02  0.8903581E-01
        2   -1    0    0  501    0  0.00000000000E+00  0.00000000000E+00  0.92397012418E+03  0.92397012418E+03  0.25500000920E-02 0. -1.
       -2   -1    0    0    0  501  0.00000000000E+00  0.00000000000E+00 -0.58592854398E+03  0.58592854399E+03  0.25500000920E-02 0.  1.
    10030    2    1    2    0    0  0.00000000000E+00  0.00000000000E+00  0.33804158020E+03  0.15098986682E+04  0.14715712277E+04 0.  0.
        1    1    3    3  502    0  0.12516186944E+03  0.42264576214E+02 -0.57366070164E+03  0.58867511294E+03  0.50400001928E-02 0.  1.
       -1    1    3    3    0  502 -0.12516186944E+03 -0.42264576214E+02  0.91170228184E+03  0.92122355522E+03  0.50400001928E-02 0. -1.
</event>
<event>
 5   0  0.2150197E-03  0.1289079E+04  0.7818609E-02  0.9038271E-01
        2   -1    0    0  501    0  0.00000000000E+00  0.00000000000E+00  0.10437129686E+04  0.10437129686E+04  0.25500000920E-02 0.  1.
       -2   -1    0    0    0  501  0.00000000000E+00  0.00000000000E+00 -0.39803173885E+03  0.39803173886E+03  0.25500000920E-02 0. -1.
    10030    2    1    2    0    0  0.00000000000E+00  0.00000000000E+00  0.64568122973E+03  0.14417447074E+04  0.12890785667E+04 0.  0.
        3    1    3    3  502    0  0.16916650155E+03 -0.62046028552E+02  0.10149709365E+04  0.10308409320E+04  0.10100000352E+00 0.  1.
       -3    1    3    3    0  502 -0.16916650155E+03  0.62046028552E+02 -0.36928970681E+03  0.41090377543E+03  0.10100000352E+00 0. -1.
</event>
<event>
 5   0  0.1078787E-03  0.1491536E+04  0.7818609E-02  0.8890101E-01
        1   -1    0    0  501    0  0.00000000000E+00  0.00000000000E+00  0.13546744254E+04  0.13546744254E+04  0.50400001928E-02 0. -1.
       -1   -1    0    0    0  501  0.00000000000E+00  0.00000000000E+00 -0.41055631263E+03  0.41055631266E+03  0.50400001928E-02 0.  1.
    10030    2    1    2    0    0  0.00000000000E+00  0.00000000000E+00  0.94411811278E+03  0.17652307381E+04  0.14915363046E+04 0.  0.
        5    1    3    3  502    0  0.16993471989E+03 -0.69700046926E+03  0.71304147506E+03  0.10115026932E+04  0.46999998093E+01 0.  1.
       -5    1    3    3    0  502 -0.16993471989E+03  0.69700046926E+03  0.23107663773E+03  0.75372804490E+03  0.46999998093E+01 0. -1.
</event>
<event>
 5   0  0.1078018E-03  0.1518494E+04  0.7818609E-02  0.8872247E-01
       -1   -1    0    0    0  501  0.00000000000E+00  0.00000000000E+00  0.53827776733E+03  0.53827776735E+03  0.50400001928E-02 0. -1.
        1   -1    0    0  501    0  0.00000000000E+00  0.00000000000E+00 -0.10709267111E+04  0.10709267111E+04  0.50400001928E-02 0.  1.
    10030    2    1    2    0    0  0.00000000000E+00  0.00000000000E+00 -0.53264894373E+03  0.16092044784E+04  0.15184940422E+04 0.  0.
        4    1    3    3  502    0 -0.18940222152E+03 -0.22731682017E+03  0.47466466298E+03  0.55933379429E+03  0.12699999809E+01 0. -1.
       -4    1    3    3    0  502  0.18940222152E+03  0.22731682017E+03 -0.10073136067E+04  0.10498706841E+04  0.12699999809E+01 0.  1.
</event>
<event>
 5   0  0.1078787E-03  0.1380411E+04  0.7818609E-02  0.8968122E-01
       -1   -1    0    0    0  501  0.00000000000E+00  0.00000000000E+00  0.49471663623E+03  0.49471663626E+03  0.50400001928E-02 0.  1.
        1   -1    0    0  501    0  0.00000000000E+00  0.00000000000E+00 -0.96294189387E+03  0.96294189388E+03  0.50400001928E-02 0. -1.
    10030    2    1    2    0    0  0.00000000000E+00  0.00000000000E+00 -0.46822525764E+03  0.14576585301E+04  0.13804106268E+04 0.  0.
        5    1    3    3  502    0 -0.13875515757E+03  0.32096164525E+02 -0.94724003440E+03  0.95789818369E+03  0.46999998093E+01 0. -1.
       -5    1    3    3    0  502  0.13875515757E+03 -0.32096164525E+02  0.47901477677E+03  0.49976034645E+03  0.46999998093E+01 0.  1.
</event>
<event>
 5   0  0.1087761E-03  0.1493081E+04  0.7818609E-02  0.8889067E-01
        1   -1    0    0  501    0  0.00000000000E+00  0.00000000000E+00  0.55230437334E+03  0.55230437337E+03  0.50400001928E-02 0. -1.
       -1   -1    0    0    0  501  0.00000000000E+00  0.00000000000E+00 -0.10090857862E+04  0.10090857862E+04  0.50400001928E-02 0.  1.
    10030    2    1    2    0    0  0.00000000000E+00  0.00000000000E+00 -0.45678141288E+03  0.15613901596E+04  0.14930806982E+04 0.  0.
        3    1    3    3  502    0 -0.48775404647E+03 -0.51954124782E+03 -0.46104465123E+03  0.84875750286E+03  0.10100000352E+00 0.  1.
       -3    1    3    3    0  502  0.48775404647E+03  0.51954124782E+03  0.42632383503E+01  0.71263265673E+03  0.10100000352E+00 0. -1.
</event>
<event>
 5   0  0.1993623E-03  0.1528261E+04  0.7818609E-02  0.8865874E-01
       -2   -1    0    0    0  501  0.00000000000E+00  0.00000000000E+00  0.17402550777E+04  0.17402550777E+04  0.25500000920E-02 0.  1.
        2   -1    0    0  501    0  0.00000000000E+00  0.00000000000E+00 -0.33552287508E+03  0.33552287509E+03  0.25500000920E-02 0. -1.
    10030    2    1    2    0    0  0.00000000000E+00  0.00000000000E+00  0.14047322026E+04  0.20757779528E+04  0.15282609556E+04 0.  0.
        4    1    3    3  502    0 -0.96803832713E+02  0.55787458553E+03  0.13993259616E+04  0.15095395970E+04  0.12699999809E+01 0.  1.
       -4    1    3    3    0  502  0.96803832713E+02 -0.55787458553E+03  0.54062409934E+01  0.56623835578E+03  0.12699999809E+01 0. -1.
</event>
<event>
 5   0  0.2094566E-03  0.1538101E+04  0.7818609E-02  0.8859504E-01
       -2   -1    0    0    0  501  0.00000000000E+00  0.00000000000E+00  0.44085889087E+03  0.44085889088E+03  0.25500000920E-02 0.  1.
        2   -1    0    0  501    0  0.00000000000E+00  0.00000000000E+00 -0.13415608452E+04  0.13415608452E+04  0.25500000920E-02 0. -1.
    10030    2    1    2    0    0  0.00000000000E+00  0.00000000000E+00 -0.90070195435E+03  0.17824197361E+04  0.15381014612E+04 0.  0.
        1    1    3    3  502    0  0.15506968152E+03  0.52229772561E+03  0.17863292490E+03  0.57336833029E+03  0.50400001928E-02 0.  1.
       -1    1    3    3    0  502 -0.15506968152E+03 -0.52229772561E+03 -0.10793348793E+04  0.12090514058E+04  0.50400001928E-02 0. -1.
</event>
<event>
 5   0  0.1961098E-03  0.1393682E+04  0.7818609E-02  0.8958405E-01
        2   -1    0    0  501    0  0.00000000000E+00  0.00000000000E+00  0.45960207115E+03  0.45960207116E+03  0.25500000920E-02 0.  1.
       -2   -1    0    0    0  501  0.00000000000E+00  0.00000000000E+00 -0.10565381928E+04  0.10565381928E+04  0.25500000920E-02 0. -1.
    10030    2    1    2    0    0  0.00000000000E+00  0.00000000000E+00 -0.59693612166E+03  0.15161402640E+04  0.13936816590E+04 0.  0.
        2    1    3    3  502    0  0.53800835429E+03  0.28506091278E+03 -0.66718023580E+03  0.90323982437E+03  0.25500000920E-02 0. -1.
       -2    1    3    3    0  502 -0.53800835429E+03 -0.28506091278E+03  0.70244114144E+02  0.61290043959E+03  0.25500000920E-02 0.  1.
</event>
<event>
 5   0  0.1087761E-03  0.1464865E+04  0.7818609E-02  0.8908160E-01
        1   -1    0    0  501    0  0.00000000000E+00  0.00000000000E+00  0.97841491791E+03  0.97841491792E+03  0.50400001928E-02 0. -1.
       -1   -1    0    0    0  501  0.00000000000E+00  0.00000000000E+00 -0.54829194077E+03  0.54829194079E+03  0.50400001928E-02 0.  1.
    10030    2    1    2    0    0  0.00000000000E+00  0.00000000000E+00  0.43012297714E+03  0.15267068587E+04  0.14648645183E+04 0.  0.
        3    1    3    3  502    0  0.21222879714E+03 -0.52359822500E+03 -0.27072890738E+03  0.62649047483E+03  0.10100000352E+00 0.  1.
       -3    1    3    3    0  502 -0.21222879714E+03  0.52359822500E+03  0.70085188453E+03  0.90021638388E+03  0.10100000352E+00 0. -1.
</event>
<event>
 5   0  0.2150197E-03  0.1529203E+04  0.7818609E-02  0.8865262E-01
        2   -1    0    0  501    0  0.00000000000E+00  0.00000000000E+00  0.93101407594E+03  0.93101407595E+03  0.25500000920E-02 0.  1.
       -2   -1    0    0    0  501  0.00000000000E+00  0.00000000000E+00 -0.62793438058E+03  0.62793438058E+03  0.25500000920E-02 0. -1.
    10030    2    1    2    0    0  0.00000000000E+00  0.00000000000E+00  0.30307969537E+03  0.15589484565E+04  0.15292033836E+04 0.  0.
        3    1    3    3  502    0 -0.13703892979E+03  0.58434948287E+03  0.63443249659E+03  0.87335479007E+03  0.10100000352E+00 0.  1.
       -3    1    3    3    0  502  0.13703892979E+03 -0.58434948287E+03 -0.33135280123E+03  0.68559366646E+03  0.10100000352E+00 0. -1.
</event>
<event>
 5   0  0.2111533E-03  0.1355509E+04  0.7818609E-02  0.8986669E-01
       -2   -1    0    0    0  501  0.00000000000E+00  0.00000000000E+00  0.27613032517E+03  0.27613032518E+03  0.25500000920E-02 0. -1.
        2   -1    0    0  501    0  0.00000000000E+00  0.00000000000E+00 -0.16635295790E+04  0.16635295790E+04  0.25500000920E-02 0.  1.
    10030    2    1    2    0    0  0.00000000000E+00  0.00000000000E+00 -0.13873992538E+04  0.19396599041E+04  0.13555087068E+04 0.  0.
        5    1    3    3  502    0 -0.38525953631E+03 -0.27617264164E+03 -0.13868340792E+04  0.14656149192E+04  0.46999998093E+01 0.  1.
       -5    1    3    3    0  502  0.38525953631E+03  0.27617264164E+03 -0.56517462502E+00  0.47404498492E+03  0.46999998093E+01 0. -1.
</event>
<event>
 5   0  0.2094566E-03  0.1508068E+04  0.7818609E-02  0.8879105E-01
       -2   -1    0    0    0  501  0.00000000000E+00  0.00000000000E+00  0.28975003304E+03  0.28975003305E+03  0.25500000920E-02 0. -1.
        2   -1    0    0  501    0  0.00000000000E+00  0.00000000000E+00 -0.19622680737E+04  0.19622680737E+04  0.25500000920E-02 0.  1.
    10030    2    1    2    0    0  0.00000000000E+00  0.00000000000E+00 -0.16725180407E+04  0.22520181068E+04  0.15080679550E+04 0.  0.
        1    1    3    3  502    0 -0.37440211306E+03 -0.33688264541E+03 -0.16742465557E+04  0.17483616298E+04  0.50400001928E-02 0.  1.
       -1    1    3    3    0  502  0.37440211306E+03  0.33688264541E+03  0.17285150495E+01  0.50365647701E+03  0.50400001928E-02 0. -1.
</event>
<event>
 5   0  0.1087761E-03  0.1517530E+04  0.7818609E-02  0.8872879E-01
        1   -1    0    0  501    0  0.00000000000E+00  0.00000000000E+00  0.13750482351E+04  0.13750482351E+04  0.50400001928E-02 0. -1.
       -1   -1    0    0    0  501  0.00000000000E+00  0.00000000000E+00 -0.41869402758E+03  0.41869402761E+03  0.50400001928E-02 0.  1.
    10030    2    1    2    0    0  0.00000000000E+00  0.00000000000E+00  0.95635420749E+03  0.17937422627E+04  0.15175302089E+04 0.  0.
        3    1    3    3  502    0 -0.80725945943E+02  0.43032028947E+03  0.12106752676E+04  0.12874109071E+04  0.10100000352E+00 0. -1.
       -3    1    3    3    0  502  0.80725945943E+02 -0.43032028947E+03 -0.25432106010E+03  0.50633135562E+03  0.10100000352E+00 0.  1.
</event>
<event>
 5   0  0.1078018E-03  0.1503833E+04  0.7818609E-02  0.8881908E-01
       -1   -1    0    0    0  501  0.00000000000E+00  0.00000000000E+00  0.29140826432E+03  0.29140826437E+03  0.50400001928E-02 0.  1.
        1   -1    0    0  501    0  0.00000000000E+00  0.00000000000E+00 -0.19401586859E+04  0.19401586859E+04  0.50400001928E-02 0. -1.
    10030    2    1    2    0    0  0.00000000000E+00  0.00000000000E+00 -0.16487504216E+04  0.22315669503E+04  0.15038328035E+04 0.  0.
        4    1    3    3  502    0 -0.57912419878E+03  0.24782527102E+03 -0.21511017586E+03  0.66563969475E+03  0.12699999809E+01 0.  1.
       -4    1    3    3    0  502  0.57912419878E+03 -0.24782527102E+03 -0.14336402457E+04  0.15659272555E+04  0.12699999809E+01 0. -1.
</event>
<event>
 5   0  0.1087761E-03  0.1496221E+04  0.7818609E-02  0.8886970E-01
        1   -1    0    0  501    0  0.00000000000E+00  0.00000000000E+00  0.79153995422E+03  0.79153995424E+03  0.50400001928E-02 0. -1.
       -1   -1    0    0    0  501  0.00000000000E+00  0.00000000000E+00 -0.70706350899E+03  0.70706350901E+03  0.50400001928E-02 0.  1.
    10030    2    1    2    0    0  0.00000000000E+00  0.00000000000E+00  0.84476445233E+02  0.14986034632E+04  0.14962205955E+04 0.  0.
        3    1    3    3  502    0  0.88202850727E+02 -0.69827941569E+03 -0.21173043073E+03  0.73498549016E+03  0.10100000352E+00 0.  1.
       -3    1    3    3    0  502 -0.88202850727E+02  0.69827941569E+03  0.29620687597E+03  0.76361797308E+03  0.10100000352E+00 0. -1.
</event>
<event>
 5   0  0.1993623E-03  0.1510222E+04  0.7818609E-02  0.8877683E-01
        2   -1    0    0  501    0  0.00000000000E+00  0.00000000000E+00  0.93612258807E+03  0.93612258808E+03  0.25500000920E-02 0. -1.
       -2   -1    0    0    0  501  0.00000000000E+00  0.00000000000E+00 -0.60910067462E+03  0.60910067462E+03  0.25500000920E-02 0.  1.
    10030    2    1    2    0    0  0.00000000000E+00  0.00000000000E+00  0.32702191345E+03  0.15452232627E+04  0.15102223676E+04 0.  0.
        4    1    3    3  502    0 -0.10291366855E+03  0.57822518230E+03 -0.32209973094E+03  0.66983985713E+03  0.12699999809E+01 0.  1.
       -4    1    3    3    0  502  0.10291366855E+03 -0.57822518230E+03  0.64912164440E+03  0.87538340557E+03  0.12699999809E+01 0. -1.
</event>
<event>
 5   0  0.7468375E-04  0.1222813E+04  0.7818609E-02  0.9093120E-01
       -4   -1    0    0    0  501  0.00000000000E+00  0.00000000000E+00  0.75534942087E+03  0.75535048852E+03  0.12699999809E+01 0. -1.
        4   -1    0    0  501    0  0.00000000000E+00  0.00000000000E+00 -0.49489168533E+03  0.49489331488E+03  0.12699999809E+01 0.  1.
    10030    2    1    2    0    0  0.00000000000E+00  0.00000000000E+00  0.26045773554E+03  0.12502438034E+04  0.12228128785E+04 0.  0.
        2    1    3    3  502    0  0.30578627568E+03 -0.22588306406E+02  0.67105838978E+03  0.73779051260E+03  0.25500000920E-02 0. -1.
       -2    1    3    3    0  502 -0.30578627568E+03  0.22588306406E+02 -0.41060065424E+03  0.51245329080E+03  0.25500000920E-02 0.  1.
</event>
<event>
 5   0  0.1961098E-03  0.1412834E+04  0.7818609E-02  0.8944581E-01
        2   -1    0    0  501    0  0.00000000000E+00  0.00000000000E+00  0.63604714921E+03  0.63604714921E+03  0.25500000920E-02 0. -1.
       -2   -1    0    0    0  501  0.00000000000E+00  0.00000000000E+00 -0.78457196745E+03  0.78457196745E+03  0.25500000920E-02 0.  1.
    10030    2    1    2    0    0  0.00000000000E+00  0.00000000000E+00 -0.14852481824E+03  0.14206191167E+04  0.14128336962E+04 0.  0.
        2    1    3    3  502    0 -0.41694559375E+03  0.12145495390E+03  0.48597013456E+03  0.65173760491E+03  0.25500000920E-02 0. -1.
       -2    1    3    3    0  502  0.41694559375E+03 -0.12145495390E+03 -0.63449495280E+03  0.76888151175E+03  0.25500000920E-02 0.  1.
</event>
<event>
 5   0  0.2150197E-03  0.1275540E+04  0.7818609E-02  0.9049190E-01
        2   -1    0    0  501    0  0.00000000000E+00  0.00000000000E+00  0.83327631197E+03  0.83327631197E+03  0.25500000920E-02 0. -1.
       -2   -1    0    0    0  501  0.00000000000E+00  0.00000000000E+00 -0.48813445701E+03  0.48813445702E+03  0.25500000920E-02 0.  1.
    10030    2    1    2    0    0  0.00000000000E+00  0.00000000000E+00  0.34514185496E+03  0.13214107690E+04  0.12755404817E+04 0.  0.
        3    1    3    3  502    0 -0.48255398856E+03  0.32774116325E+03  0.43967676403E+03  0.73047127869E+03  0.10100000352E+00 0. -1.
       -3    1    3    3    0  502  0.48255398856E+03 -0.32774116325E+03 -0.94534909069E+02  0.59093949030E+03  0.10100000352E+00 0.  1.
</event>
<event>
 5   0  0.1961098E-03  0.1529405E+04  0.7818609E-02  0.8865131E-01
        2   -1    0    0  501    0  0.00000000000E+00  0.00000000000E+00  0.12593242727E+04  0.12593242727E+04  0.25500000920E-02 0.  1.
       -2   -1    0    0    0  501  0.00000000000E+00  0.00000000000E+00 -0.46435203777E+03  0.46435203777E+03  0.25500000920E-02 0. -1.
    10030    2    1    2    0    0  0.00000000000E+00  0.00000000000E+00  0.79497223491E+03  0.17236763105E+04  0.15294048414E+04 0.  0.
        2    1    3    3  502    0  0.42405358571E+03  0.56187934756E+03  0.60809538762E+02  0.70656043250E+03  0.25500000920E-02 0. -1.
       -2    1    3    3    0  502 -0.42405358571E+03 -0.56187934756E+03  0.73416269615E+03  0.10171158780E+04  0.25500000920E-02 0.  1.
</event>
<event>
 5   0  0.2150197E-03  0.1505480E+04  0.7818609E-02  0.8880817E-01
       -2   -1    0    0    0  501  0.00000000000E+00  0.00000000000E+00  0.10043139936E+04  0.10043139936E+04  0.25500000920E-02 0.  1.
        2   -1    0    0  501    0  0.00000000000E+00  0.00000000000E+00 -0.56418383169E+03  0.56418383169E+03  0.25500000920E-02 0. -1.
    10030    2    1    2    0    0  0.00000000000E+00  0.00000000000E+00  0.44013016195E+03  0.15684978253E+04  0.15054802784E+04 0.  0.
        3    1    3    3  502    0 -0.15596602198E+03  0.71691082608E+03  0.44700799993E+02  0.73504061404E+03  0.10100000352E+00 0.  1.
       -3    1    3    3    0  502  0.15596602198E+03 -0.71691082608E+03  0.39542936196E+03  0.83345721129E+03  0.10100000352E+00 0. -1.
</event>
<event>
 5   0  0.2150197E-03  0.1523201E+04  0.7818609E-02  0.8869169E-01
       -2   -1    0    0    0  501  0.00000000000E+00  0.00000000000E+00  0.50535239840E+03  0.50535239840E+03  0.25500000920E-02 0. -1.
        2   -1    0    0  501    0  0.00000000000E+00  0.00000000000E+00 -0.11477843710E+04  0.11477843710E+04  0.25500000920E-02 0.  1.
    10030    2    1    2    0    0  0.00000000000E+00  0.00000000000E+00 -0.64243197258E+03  0.16531367694E+04  0.15232013455E+04 0.  0.
        3    1    3    3  502    0  0.22118224894E+03  0.64212832239E+03  0.52836586727E+02  0.68120634521E+03  0.10100000352E+00 0. -1.
       -3    1    3    3    0  502 -0.22118224894E+03 -0.64212832239E+03 -0.69526855930E+03  0.97193042417E+03  0.10100000352E+00 0.  1.
</event>
<event>
 5   0  0.1993623E-03  0.1518639E+04  0.7818609E-02  0.8872152E-01
       -2   -1    0    0    0  501  0.00000000000E+00  0.00000000000E+00  0.67181970074E+03  0.67181970075E+03  0.25500000920E-02 0. -1.
        2   -1    0    0  501    0  0.00000000000E+00  0.00000000000E+00 -0.85821535208E+03  0.85821535209E+03  0.25500000920E-02 0.  1.
    10030    2    1    2    0    0  0.00000000000E+00  0.00000000000E+00 -0.18639565134E+03  0.15300350528E+04  0.15186388392E+04 0.  0.
        4    1    3    3  502    0 -0.47011029599E+02 -0.67786078052E+03 -0.43464975410E+03  0.80661471367E+03  0.12699999809E+01 0.  1.
       -4    1    3    3    0  502  0.47011029599E+02  0.67786078052E+03  0.24825410276E+03  0.72342033916E+03  0.12699999809E+01 0. -1.
</event>
<event>
 5   0  0.1078787E-03  0.1598418E+04  0.7818609E-02  0.8821520E-01
        1   -1    0    0  501    0  0.00000000000E+00  0.00000000000E+00  0.78926445298E+03  0.78926445300E+03  0.50400001928E-02 0.  1.
       -1   -1    0    0    0  501  0.00000000000E+00  0.00000000000E+00 -0.80927884717E+03  0.80927884718E+03  0.50400001928E-02 0. -1.
    10030    2    1    2    0    0  0.00000000000E+00  0.00000000000E+00 -0.20014394186E+02  0.15985433002E+04  0.15984180012E+04 0.  0.
        5    1    3    3  502    0  0.43420952862E+03 -0.66976299537E+03  0.29902721769E+02  0.79877196212E+03  0.46999998093E+01 0. -1.
       -5    1    3    3    0  502 -0.43420952862E+03  0.66976299537E+03 -0.49917115954E+02  0.79977133805E+03  0.46999998093E+01 0.  1.
</event>
<event>
 5   0  0.1069697E-03  0.1480061E+04  0.7818609E-02  0.8897821E-01
       -1   -1    0    0    0  501  0.00000000000E+00  0.00000000000E+00  0.49668469875E+03  0.49668469878E+03  0.50400001928E-02 0.  1.
        1   -1    0    0  501    0  0.00000000000E+00  0.00000000000E+00 -0.11026018207E+04  0.11026018207E+04  0.50400001928E-02 0. -1.
    10030    2    1    2    0    0  0.00000000000E+00  0.00000000000E+00 -0.60591712194E+03  0.15992865195E+04  0.14800614220E+04 0.  0.
        2    1    3    3  502    0 -0.24071096536E+03  0.48723752819E+03 -0.84571874628E+03  0.10052772630E+04  0.25500000920E-02 0. -1.
       -2    1    3    3    0  502  0.24071096536E+03 -0.48723752819E+03  0.23980162434E+03  0.59400925647E+03  0.25500000920E-02 0.  1.
</event>
<event>
 5   0  0.1069697E-03  0.1496746E+04  0.7818609E-02  0.8886620E-01
        1   -1    0    0  501    0  0.00000000000E+00  0.00000000000E+00  0.78715708452E+03  0.78715708453E+03  0.50400001928E-02 0.  1.
       -1   -1    0    0    0  501  0.00000000000E+00  0.00000000000E+00 -0.71149940917E+03  0.71149940919E+03  0.50400001928E-02 0. -1.
    10030    2    1    2    0    0  0.00000000000E+00  0.00000000000E+00  0.75657675345E+02  0.14986564937E+04  0.14967455369E+04 0.  0.
        2    1    3    3  502    0  0.51993671721E+03  0.41420677236E+02  0.57518146035E+03  0.77645577772E+03  0.25500000920E-02 0.  1.
       -2    1    3    3    0  502 -0.51993671721E+03 -0.41420677236E+02 -0.49952378501E+03  0.72220071601E+03  0.25500000920E-02 0. -1.
</event>
<event>
 5   0  0.1087761E-03  0.1493389E+04  0.7818609E-02  0.8888861E-01
       -1   -1    0    0    0  501  0.00000000000E+00  0.00000000000E+00  0.63633628485E+03  0.63633628487E+03  0.50400001928E-02 0. -1.
        1   -1    0    0  501    0  0.00000000000E+00  0.00000000000E+00 -0.87619147367E+03  0.87619147369E+03  0.50400001928E-02 0.  1.
    10030    2    1    2    0    0  0.00000000000E+00  0.00000000000E+00 -0.23985518882E+03  0.15125277586E+04  0.14933886664E+04 0.  0.
        3    1    3    3  502    0 -0.45052075323E+03 -0.54382876433E+03  0.12573766323E+03  0.71730652036E+03  0.10100000352E+00 0. -1.
       -3    1    3    3    0  502  0.45052075323E+03  0.54382876433E+03 -0.36559285205E+03  0.79522123819E+03  0.10100000352E+00 0.  1.
</event>
<event>
 5   0  0.2094566E-03  0.1503204E+04  0.7818609E-02  0.8882325E-01
       -2   -1    0    0    0  501  0.00000000000E+00  0.00000000000E+00  0.45652743415E+03  0.45652743416E+03  0.25500000920E-02 0.  1.
        2   -1    0    0  501    0  0.00000000000E+00  0.00000000000E+00 -0.12373972711E+04  0.12373972711E+04  0.25500000920E-02 0. -1.
    10030    2    1    2    0    0  0.00000000000E+00  0.00000000000E+00 -0.78086983696E+03  0.16939247053E+04  0.15032043124E+04 0.  0.
        1    1    3    3  502    0  0.26098657402E+03  0.22804768606E+03 -0.11419741805E+04  0.11934088855E+04  0.50400001928E-02 0. -1.
       -1    1    3    3    0  502 -0.26098657402E+03 -0.22804768606E+03  0.36110434354E+03  0.50051581982E+03  0.50400001928E-02 0.  1.
</event>
<event>
 5   0  0.1087761E-03  0.1390654E+04  0.7818609E-02  0.8960612E-01
        1   -1    0    0  501    0  0.00000000000E+00  0.00000000000E+00  0.18103585560E+04  0.18103585560E+04  0.50400001928E-02 0. -1.
       -1   -1    0    0    0  501  0.00000000000E+00  0.00000000000E+00 -0.26706280731E+03  0.26706280736E+03  0.50400001928E-02 0.  1.
    10030    2    1    2    0    0  0.00000000000E+00  0.00000000000E+00  0.15432957487E+04  0.20774213634E+04  0.13906537143E+04 0.  0.
        3    1    3    3  502    0 -0.68473539287E+03 -0.67788304336E+02  0.62210199060E+03  0.92761452628E+03  0.10100000352E+00 0. -1.
       -3    1    3    3    0  502  0.68473539287E+03  0.67788304336E+02  0.92119375810E+03  0.11498068371E+04  0.10100000352E+00 0.  1.
</event>
<event>
 5   0  0.2150197E-03  0.1471736E+04  0.7818609E-02  0.8903469E-01
       -2   -1    0    0    0  501  0.00000000000E+00  0.00000000000E+00  0.38974531433E+03  0.38974531434E+03  0.25500000920E-02 0. -1.
        2   -1    0    0  501    0  0.00000000000E+00  0.00000000000E+00 -0.13893734255E+04  0.13893734255E+04  0.25500000920E-02 0.  1.
    10030    2    1    2    0    0  0.00000000000E+00  0.00000000000E+00 -0.99962811114E+03  0.17791187398E+04  0.14717360938E+04 0.  0.
        3    1    3    3  502    0  0.52131029566E+03  0.43015274989E+03 -0.85164333331E+03  0.10872406311E+04  0.10100000352E+00 0.  1.
       -3    1    3    3    0  502 -0.52131029566E+03 -0.43015274989E+03 -0.14798477783E+03  0.69187810868E+03  0.10100000352E+00 0. -1.
</event>
<event>
 5   0  0.1077140E-03  0.1468565E+04  0.7818609E-02  0.8905630E-01
       -1   -1    0    0    0  501  0.00000000000E+00  0.00000000000E+00  0.48117310200E+03  0.48117310203E+03  0.50400001928E-02 0. -1.
        1   -1    0    0  501    0  0.00000000000E+00  0.00000000000E+00 -0.11205333432E+04  0.11205333432E+04  0.50400001928E-02 0.  1.
    10030    2    1    2    0    0  0.00000000000E+00  0.00000000000E+00 -0.63936024121E+03  0.16017064453E+04  0.14685646117E+04 0.  0.
        1    1    3    3  502    0 -0.33055241661E+03  0.45983183841E+03  0.19009203765E+03  0.59736521705E+03  0.50400001928E-02 0. -1.
       -1    1    3    3    0  502  0.33055241661E+03 -0.45983183841E+03 -0.82945227885E+03  0.10043412282E+04  0.50400001928E-02 0.  1.
</event>
<event>
 5   0  0.1993623E-03  0.1500857E+04  0.7818609E-02  0.8883883E-01
       -2   -1    0    0    0  501  0.00000000000E+00  0.00000000000E+00  0.60828247070E+03  0.60828247071E+03  0.25500000920E-02 0. -1.
        2   -1    0    0  501    0  0.00000000000E+00  0.00000000000E+00 -0.92579152458E+03  0.92579152459E+03  0.25500000920E-02 0.  1.
    10030    2    1    2    0    0  0.00000000000E+00  0.00000000000E+00 -0.31750905388E+03  0.15340739953E+04  0.15008567632E+04 0.  0.
        4    1    3    3  502    0  0.73866240989E+03  0.45633619842E+02 -0.28574827005E+03  0.79332103828E+03  0.12699999809E+01 0. -1.
       -4    1    3    3    0  502 -0.73866240989E+03 -0.45633619842E+02 -0.31760783828E+02  0.74075295702E+03  0.12699999809E+01 0.  1.
</event>
<event>
 5   0  0.1993623E-03  0.1472642E+04  0.7818609E-02  0.8902852E-01
        2   -1    0    0  501    0  0.00000000000E+00  0.00000000000E+00  0.73714059377E+03  0.73714059377E+03  0.25500000920E-02 0.  1.
       -2   -1    0    0    0  501  0.00000000000E+00  0.00000000000E+00 -0.73550242342E+03  0.73550242342E+03  0.25500000920E-02 0. -1.
    10030    2    1    2    0    0  0.00000000000E+00  0.00000000000E+00  0.16381703519E+01  0.14726430172E+04  0.14726421060E+04 0.  0.
        4    1    3    3  502    0  0.49992017896E+03  0.33056830136E+03 -0.42693285163E+03  0.73584567669E+03  0.12699999809E+01 0. -1.
       -4    1    3    3    0  502 -0.49992017896E+03 -0.33056830136E+03  0.42857102198E+03  0.73679734051E+03  0.12699999809E+01 0.  1.
</event>
<event>
 5   0  0.1078787E-03  0.1521943E+04  0.7818609E-02  0.8869991E-01
        1   -1    0    0  501    0  0.00000000000E+00  0.00000000000E+00  0.64983066664E+03  0.64983066666E+03  0.50400001928E-02 0.  1.
       -1   -1    0    0    0  501  0.00000000000E+00  0.00000000000E+00 -0.89112055379E+03  0.89112055380E+03  0.50400001928E-02 0. -1.
    10030    2    1    2    0    0  0.00000000000E+00  0.00000000000E+00 -0.24128988715E+03  0.15409512205E+04  0.15219427894E+04 0.  0.
        5    1    3    3  502    0  0.18995962897E+03  0.43968573094E+03 -0.71933986348E+03  0.86422226992E+03  0.46999998093E+01 0. -1.
       -5    1    3    3    0  502 -0.18995962897E+03 -0.43968573094E+03  0.47804997633E+03  0.67672895054E+03  0.46999998093E+01 0.  1.
</event>
<event>
 5   0  0.1087761E-03  0.1372376E+04  0.7818609E-02  0.8974060E-01
       -1   -1    0    0    0  501  0.00000000000E+00  0.00000000000E+00  0.45117919988E+03  0.45117919991E+03  0.50400001928E-02 0.  1.
        1   -1    0    0  501    0  0.00000000000E+00  0.00000000000E+00 -0.10436075020E+04  0.10436075021E+04  0.50400001928E-02 0. -1.
    10030    2    1    2    0    0  0.00000000000E+00  0.00000000000E+00 -0.59242830216E+03  0.14947867020E+04  0.13723760385E+04 0.  0.
        3    1    3    3  502    0  0.59458568452E+03 -0.43260206547E+02  0.73872849706E+02  0.60071689658E+03  0.10100000352E+00 0.  1.
       -3    1    3    3    0  502 -0.59458568452E+03  0.43260206547E+02 -0.66630115186E+03  0.89406980538E+03  0.10100000352E+00 0. -1.
</event>
<event>
 5   0  0.1069697E-03  0.1491327E+04  0.7818609E-02  0.8890241E-01
        1   -1    0    0  501    0  0.00000000000E+00  0.00000000000E+00  0.13805258978E+04  0.13805258978E+04  0.50400001928E-02 0.  1.
       -1   -1    0    0    0  501  0.00000000000E+00  0.00000000000E+00 -0.40275506414E+03  0.40275506417E+03  0.50400001928E-02 0. -1.
    10030    2    1    2    0    0  0.00000000000E+00  0.00000000000E+00  0.97777083361E+03  0.17832809619E+04  0.14913266531E+04 0.  0.
        2    1    3    3  502    0  0.16347421493E+03 -0.31837656947E+03  0.12711100745E+04  0.13205333318E+04  0.25500000920E-02 0.  1.
       -2    1    3    3    0  502 -0.16347421493E+03  0.31837656947E+03 -0.29333924089E+03  0.46274763012E+03  0.25500000920E-02 0. -1.
</event>
<event>
 5   0  0.1993623E-03  0.1656481E+04  0.7818609E-02  0.8786582E-01
        2   -1    0    0  501    0  0.00000000000E+00  0.00000000000E+00  0.12858990667E+04  0.12858990667E+04  0.25500000920E-02 0. -1.
       -2   -1    0    0    0  501  0.00000000000E+00  0.00000000000E+00 -0.53346524643E+03  0.53346524644E+03  0.25500000920E-02 0.  1.
    10030    2    1    2    0    0  0.00000000000E+00  0.00000000000E+00  0.75243382027E+03  0.18193643131E+04  0.16564811650E+04 0.  0.
        4    1    3    3  502    0 -0.55891956514E+03  0.54369902916E+03  0.69506903315E+02  0.78283621347E+03  0.12699999809E+01 0. -1.
       -4    1    3    3    0  502  0.55891956514E+03 -0.54369902916E+03  0.68292691695E+03  0.10365280997E+04  0.12699999809E+01 0.  1.
</event>
<event>
 5   0  0.1087761E-03  0.1380764E+04  0.7818609E-02  0.8967861E-01
       -1   -1    0    0    0  501  0.00000000000E+00  0.00000000000E+00  0.61702278251E+03  0.61702278253E+03  0.50400001928E-02 0.  1.
        1   -1    0    0  501    0  0.00000000000E+00  0.00000000000E+00 -0.77246339775E+03  0.77246339777E+03  0.50400001928E-02 0. -1.
    10030    2    1    2    0    0  0.00000000000E+00  0.00000000000E+00 -0.15544061525E+03  0.13894861803E+04  0.13807643030E+04 0.  0.
        3    1    3    3  502    0  0.20998810132E+03  0.36193380395E+03  0.47487166394E+03  0.63292510501E+03  0.10100000352E+00 0.  1.
       -3    1    3    3    0  502 -0.20998810132E+03 -0.36193380395E+03 -0.63031227919E+03  0.75656107529E+03  0.10100000352E+00 0. -1.
</event>
<event>
 5   0  0.1961098E-03  0.1465005E+04  0.7818609E-02  0.8908064E-01
        2   -1    0    0  501    0  0.00000000000E+00  0.00000000000E+00  0.12223458982E+04  0.12223458982E+04  0.25500000920E-02 0. -1.
       -2   -1    0    0    0  501  0.00000000000E+00  0.00000000000E+00 -0.43895909896E+03  0.43895909897E+03  0.25500000920E-02 0.  1.
    10030    2    1    2    0    0  0.00000000000E+00  0.00000000000E+00  0.78338679926E+03  0.16613049972E+04  0.14650049203E+04 0.  0.
        2    1    3    3  502    0  0.21789968760E+03  0.16250742976E+03 -0.37964754964E+03  0.46692740392E+03  0.25500000920E-02 0.  1.
       -2    1    3    3    0  502 -0.21789968760E+03 -0.16250742976E+03  0.11630343489E+04  0.11943775933E+04  0.25500000920E-02 0. -1.
</event>
<event>
 5   0  0.1993623E-03  0.1492054E+04  0.7818609E-02  0.8889754E-01
        2   -1    0    0  501    0  0.00000000000E+00  0.00000000000E+00  0.10101548744E+04  0.10101548744E+04  0.25500000920E-02 0.  1.
       -2   -1    0    0    0  501  0.00000000000E+00  0.00000000000E+00 -0.55096159289E+03  0.55096159290E+03  0.25500000920E-02 0. -1.
    10030    2    1    2    0    0  0.00000000000E+00  0.00000000000E+00  0.45919328153E+03  0.15611164673E+04  0.14920543404E+04 0.  0.
        4    1    3    3  502    0  0.34459024050E+03  0.57504000758E+02  0.91927793081E+03  0.98342395279E+03  0.12699999809E+01 0. -1.
       -4    1    3    3    0  502 -0.34459024050E+03 -0.57504000758E+02 -0.46008464928E+03  0.57769251453E+03  0.12699999809E+01 0.  1.
</event>
<event>
 5   0  0.1078787E-03  0.1496596E+04  0.7818609E-02  0.8886720E-01
       -1   -1    0    0    0  501  0.00000000000E+00  0.00000000000E+00  0.90594339467E+03  0.90594339469E+03  0.50400001928E-02 0. -1.
        1   -1    0    0  501    0  0.00000000000E+00  0.00000000000E+00 -0.61808480895E+03  0.61808480897E+03  0.50400001928E-02 0.  1.
    10030    2    1    2    0    0  0.00000000000E+00  0.00000000000E+00  0.28785858572E+03  0.15240282037E+04  0.14965959375E+04 0.  0.
        5    1    3    3  502    0 -0.21853506011E+03  0.83152116345E+02  0.86777190232E+03  0.89873355974E+03  0.46999998093E+01 0. -1.
       -5    1    3    3    0  502  0.21853506011E+03 -0.83152116345E+02 -0.57991331660E+03  0.62529464392E+03  0.46999998093E+01 0.  1.
</event>
<event>
 5   0  0.1069697E-03  0.1465176E+04  0.7818609E-02  0.8907946E-01
       -1   -1    0    0    0  501  0.00000000000E+00  0.00000000000E+00  0.69400571663E+03  0.69400571665E+03  0.50400001928E-02 0.  1.
        1   -1    0    0  501    0  0.00000000000E+00  0.00000000000E+00 -0.77331545170E+03  0.77331545172E+03  0.50400001928E-02 0. -1.
    10030    2    1    2    0    0  0.00000000000E+00  0.00000000000E+00 -0.79309735069E+02  0.14673211684E+04  0.14651762273E+04 0.  0.
        2    1    3    3  502    0  0.60559611200E+03 -0.14245688451E+03  0.34775085546E+03  0.71272103399E+03  0.25500000920E-02 0.  1.
       -2    1    3    3    0  502 -0.60559611200E+03  0.14245688451E+03 -0.42706059053E+03  0.75460013438E+03  0.25500000920E-02 0. -1.
</event>
<event>
 5   0  0.1961098E-03  0.1537591E+04  0.7818609E-02  0.8859833E-01
        2   -1    0    0  501    0  0.00000000000E+00  0.00000000000E+00  0.23896143596E+04  0.23896143596E+04  0.25500000920E-02 0.  1.
       -2   -1    0    0    0  501  0.00000000000E+00  0.00000000000E+00 -0.24733979763E+03  0.24733979765E+03  0.25500000920E-02 0. -1.
    10030    2    1    2    0    0  0.00000000000E+00  0.00000000000E+00  0.21422745620E+04  0.26369541573E+04  0.15375912749E+04 0.  0.
        2    1    3    3  502    0  0.22928454617E+03 -0.72686265291E+03  0.12438838290E+04  0.14588172262E+04  0.25500000920E-02 0.  1.
       -2    1    3    3    0  502 -0.22928454617E+03  0.72686265291E+03  0.89839073298E+03  0.11781369311E+04  0.25500000920E-02 0. -1.
</event>
<event>
 5   0  0.2150197E-03  0.1517824E+04  0.7818609E-02  0.8872686E-01
       -2   -1    0    0    0  501  0.00000000000E+00  0.00000000000E+00  0.55055291079E+03  0.55055291080E+03  0.25500000920E-02 0. -1.
        2   -1    0    0  501    0  0.00000000000E+00  0.00000000000E+00 -0.10461254179E+04  0.10461254179E+04  0.25500000920E-02 0.  1.
    10030    2    1    2    0    0  0.00000000000E+00  0.00000000000E+00 -0.49557250708E+03  0.15966783287E+04  0.15178239606E+04 0.  0.
        3    1    3    3  502    0  0.31354256674E+03 -0.17559298552E+03  0.45537560268E+03  0.58009377469E+03  0.10100000352E+00 0. -1.
       -3    1    3    3    0  502 -0.31354256674E+03  0.17559298552E+03 -0.95094810976E+03  0.10165845540E+04  0.10100000352E+00 0.  1.
</event>
<event>
 5   0  0.2111533E-03  0.1514140E+04  0.7818609E-02  0.8875104E-01
       -2   -1    0    0    0  501  0.00000000000E+00  0.00000000000E+00  0.32609758210E+03  0.32609758211E+03  0.25500000920E-02 0. -1.
        2   -1    0    0  501    0  0.00000000000E+00  0.00000000000E+00 -0.17576184917E+04  0.17576184918E+04  0.25500000920E-02 0.  1.
    10030    2    1    2    0    0  0.00000000000E+00  0.00000000000E+00 -0.14315209096E+04  0.20837160739E+04  0.15141402054E+04 0.  0.
        5    1    3    3  502    0 -0.10885953152E+03  0.14029753421E+02 -0.17465905670E+04  0.17500422653E+04  0.46999998093E+01 0.  1.
       -5    1    3    3    0  502  0.10885953152E+03 -0.14029753421E+02  0.31506965732E+03  0.33367380860E+03  0.46999998093E+01 0. -1.
</event>
<event>
 5   0  0.1069697E-03  0.1423493E+04  0.7818609E-02  0.8936986E-01
        1   -1    0    0  501    0  0.00000000000E+00  0.00000000000E+00  0.12090095136E+04  0.12090095136E+04  0.50400001928E-02 0. -1.
       -1   -1    0    0    0  501  0.00000000000E+00  0.00000000000E+00 -0.41900697458E+03  0.41900697461E+03  0.50400001928E-02 0.  1.
    10030    2    1    2    0    0  0.00000000000E+00  0.00000000000E+00  0.79000253901E+03  0.16280164882E+04  0.14234934753E+04 0.  0.
        2    1    3    3  502    0 -0.31520383730E+03  0.38628011279E+03  0.97593689801E+03  0.10959099477E+04  0.25500000920E-02 0. -1.
       -2    1    3    3    0  502  0.31520383730E+03 -0.38628011279E+03 -0.18593435900E+03  0.53210654051E+03  0.25500000920E-02 0.  1.
</event>
<event>
 5   0  0.1961098E-03  0.1456445E+04  0.7818609E-02  0.8913945E-01
        2   -1    0    0  501    0  0.00000000000E+00  0.00000000000E+00  0.49093409795E+03  0.49093409795E+03  0.25500000920E-02 0. -1.
       -2   -1    0    0    0  501  0.00000000000E+00  0.00000000000E+00 -0.10802016664E+04  0.10802016664E+04  0.25500000920E-02 0.  1.
    10030    2    1    2    0    0  0.00000000000E+00  0.00000000000E+00 -0.58926756848E+03  0.15711357644E+04  0.14564447545E+04 0.  0.
        2    1    3    3  502    0  0.58120542051E+03 -0.79316542981E+02 -0.76014412611E+03  0.96016141731E+03  0.25500000920E-02 0.  1.
       -2    1    3    3    0  502 -0.58120542051E+03  0.79316542981E+02  0.17087655764E+03  0.61097434707E+03  0.25500000920E-02 0. -1.
</event>
<event>
 5   0  0.1069697E-03  0.1459992E+04  0.7818609E-02  0.8911502E-01
        1   -1    0    0  501    0  0.00000000000E+00  0.00000000000E+00  0.10848241373E+04  0.10848241373E+04  0.50400001928E-02 0. -1.
       -1   -1    0    0    0  501  0.00000000000E+00  0.00000000000E+00 -0.49122628645E+03  0.49122628647E+03  0.50400001928E-02 0.  1.
    10030    2    1    2    0    0  0.00000000000E+00  0.00000000000E+00  0.59359785085E+03  0.15760504238E+04  0.14599919622E+04 0.  0.
        2    1    3    3  502    0  0.29746840740E+02  0.68787738610E+03  0.55863753265E+03  0.88664314452E+03  0.25500000920E-02 0. -1.
       -2    1    3    3    0  502 -0.29746840740E+02 -0.68787738610E+03  0.34960318203E+02  0.68940727926E+03  0.25500000920E-02 0.  1.
</event>
<event>
 5   0  0.2111533E-03  0.1490742E+04  0.7818609E-02  0.8890633E-01
       -2   -1    0    0    0  501  0.00000000000E+00  0.00000000000E+00  0.32658415659E+03  0.32658415660E+03  0.25500000920E-02 0. -1.
        2   -1    0    0  501    0  0.00000000000E+00  0.00000000000E+00 -0.17011777093E+04  0.17011777093E+04  0.25500000920E-02 0.  1.
    10030    2    1    2    0    0  0.00000000000E+00  0.00000000000E+00 -0.13745935527E+04  0.20277618659E+04  0.14907416777E+04 0.  0.
        5    1    3    3  502    0  0.44659026768E+03  0.37659128348E+03 -0.57620590214E+02  0.58703158722E+03  0.46999998093E+01 0. -1.
       -5    1    3    3    0  502 -0.44659026768E+03 -0.37659128348E+03 -0.13169729625E+04  0.14407302787E+04  0.46999998093E+01 0.  1.
</event>
<event>
 5   0  0.1077140E-03  0.1490682E+04  0.7818609E-02  0.8890673E-01
        1   -1    0    0  501    0  0.00000000000E+00  0.00000000000E+00  0.26030353937E+03  0.26030353942E+03  0.50400001928E-02 0.  1.
       -1   -1    0    0    0  501  0.00000000000E+00  0.00000000000E+00 -0.21341746779E+04  0.21341746780E+04  0.50400001928E-02 0. -1.
    10030    2    1    2    0    0  0.00000000000E+00  0.00000000000E+00 -0.18738711386E+04  0.23944782174E+04  0.14906820216E+04 0.  0.
        1    1    3    3  502    0  0.93460620835E+02 -0.51533953345E+03 -0.17887631181E+04  0.18638624453E+04  0.50400001928E-02 0. -1.
       -1    1    3    3    0  502 -0.93460620835E+02  0.51533953345E+03 -0.85108020493E+02  0.53061577207E+03  0.50400001928E-02 0.  1.
</event>
<event>
 5   0  0.1078018E-03  0.1379085E+04  0.7818609E-02  0.8969099E-01
       -1   -1    0    0    0  501  0.00000000000E+00  0.00000000000E+00  0.68351507574E+03  0.68351507576E+03  0.50400001928E-02 0. -1.
        1   -1    0    0  501    0  0.00000000000E+00  0.00000000000E+00 -0.69562284919E+03  0.69562284921E+03  0.50400001928E-02 0.  1.
    10030    2    1    2    0    0  0.00000000000E+00  0.00000000000E+00 -0.12107773447E+02  0.13791379250E+04  0.13790847755E+04 0.  0.
        4    1    3    3  502    0  0.46826727632E+03  0.21613446405E+03  0.45165223052E+03  0.68555065375E+03  0.12699999809E+01 0. -1.
       -4    1    3    3    0  502 -0.46826727632E+03 -0.21613446405E+03 -0.46376000396E+03  0.69358727122E+03  0.12699999809E+01 0.  1.
</event>
<event>
 5   0  0.1077140E-03  0.1487258E+04  0.7818609E-02  0.8892971E-01
       -1   -1    0    0    0  501  0.00000000000E+00  0.00000000000E+00  0.97580279033E+03  0.97580279035E+03  0.50400001928E-02 0. -1.
        1   -1    0    0  501    0  0.00000000000E+00  0.00000000000E+00 -0.56669633512E+03  0.56669633514E+03  0.50400001928E-02 0.  1.
    10030    2    1    2    0    0  0.00000000000E+00  0.00000000000E+00  0.40910645521E+03  0.15424991255E+04  0.14872576981E+04 0.  0.
        1    1    3    3  502    0  0.30508938635E+02  0.38124406733E+03 -0.45686933743E+03  0.59582499588E+03  0.50400001928E-02 0.  1.
       -1    1    3    3    0  502 -0.30508938635E+02 -0.38124406733E+03  0.86597579264E+03  0.94667412961E+03  0.50400001928E-02 0. -1.
</event>
<event>
 5   0  0.2111533E-03  0.1571539E+04  0.7818609E-02  0.8838226E-01
       -2   -1    0    0    0  501  0.00000000000E+00  0.00000000000E+00  0.55429185727E+03  0.55429185728E+03  0.25500000920E-02 0. -1.
        2   -1    0    0  501    0  0.00000000000E+00  0.00000000000E+00 -0.11139142036E+04  0.11139142036E+04  0.25500000920E-02 0.  1.
    10030    2    1    2    0    0  0.00000000000E+00  0.00000000000E+00 -0.55962234633E+03  0.16682060609E+04  0.15715388290E+04 0.  0.
        5    1    3    3  502    0  0.11085010000E+03  0.91631214076E+02  0.54018644358E+03  0.55902370959E+03  0.46999998093E+01 0. -1.
       -5    1    3    3    0  502 -0.11085010000E+03 -0.91631214076E+02 -0.10998087899E+04  0.11091823513E+04  0.46999998093E+01 0.  1.
</event>
<event>
 5   0  0.1078787E-03  0.1553955E+04  0.7818609E-02  0.8849345E-01
        1   -1    0    0  501    0  0.00000000000E+00  0.00000000000E+00  0.22406359652E+04  0.22406359652E+04  0.50400001928E-02 0. -1.
       -1   -1    0    0    0  501  0.00000000000E+00  0.00000000000E+00 -0.26942981435E+03  0.26942981440E+03  0.50400001928E-02 0.  1.
    10030    2    1    2    0    0  0.00000000000E+00  0.00000000000E+00  0.19712061509E+04  0.25100657796E+04  0.15539551244E+04 0.  0.
        5    1    3    3  502    0 -0.19888201785E+03  0.61592224952E+03  0.29130176792E+03  0.70978382939E+03  0.46999998093E+01 0.  1.
       -5    1    3    3    0  502  0.19888201785E+03 -0.61592224952E+03  0.16799043829E+04  0.18002819502E+04  0.46999998093E+01 0. -1.
</event>
<event>
 5   0  0.1087761E-03  0.1428801E+04  0.7818609E-02  0.8933231E-01
        1   -1    0    0  501    0  0.00000000000E+00  0.00000000000E+00  0.18985947576E+04  0.18985947576E+04  0.50400001928E-02 0.  1.
       -1   -1    0    0    0  501  0.00000000000E+00  0.00000000000E+00 -0.26881354792E+03  0.26881354796E+03  0.50400001928E-02 0. -1.
    10030    2    1    2    0    0  0.00000000000E+00  0.00000000000E+00  0.16297812097E+04  0.21674083056E+04  0.14288008859E+04 0.  0.
        3    1    3    3  502    0  0.43024286008E+03  0.17359791938E+03  0.16389725954E+04  0.17033720483E+04  0.10100000352E+00 0.  1.
       -3    1    3    3    0  502 -0.43024286008E+03 -0.17359791938E+03 -0.91913857481E+01  0.46403625724E+03  0.10100000352E+00 0. -1.
</event>
<event>
 5   0  0.2094566E-03  0.1497983E+04  0.7818609E-02  0.8885795E-01
       -2   -1    0    0    0  501  0.00000000000E+00  0.00000000000E+00  0.42907507421E+03  0.42907507422E+03  0.25500000920E-02 0.  1.
        2   -1    0    0  501    0  0.00000000000E+00  0.00000000000E+00 -0.13074361535E+04  0.13074361535E+04  0.25500000920E-02 0. -1.
    10030    2    1    2    0    0  0.00000000000E+00  0.00000000000E+00 -0.87836107929E+03  0.17365112277E+04  0.14979829967E+04 0.  0.
        1    1    3    3  502    0  0.96487533841E+02  0.67952508210E+03 -0.91557365156E+02  0.69242106592E+03  0.50400001928E-02 0.  1.
       -1    1    3    3    0  502 -0.96487533841E+02 -0.67952508210E+03 -0.78680371413E+03  0.10440901618E+04  0.50400001928E-02 0. -1.
</event>
<event>
 5   0  0.1087761E-03  0.1469025E+04  0.7818609E-02  0.8905316E-01
        1   -1    0    0  501    0  0.00000000000E+00  0.00000000000E+00  0.41688922923E+03  0.41688922926E+03  0.50400001928E-02 0.  1.
       -1   -1    0    0    0  501  0.00000000000E+00  0.00000000000E+00 -0.12941293056E+04  0.12941293056E+04  0.50400001928E-02 0. -1.
    10030    2    1    2    0    0  0.00000000000E+00  0.00000000000E+00 -0.87724007640E+03  0.17110185349E+04  0.14690249403E+04 0.  0.
        3    1    3    3  502    0  0.13758051237E+03 -0.35998379195E+03  0.28967841372E+03  0.48211027932E+03  0.10100000352E+00 0.  1.
       -3    1    3    3    0  502 -0.13758051237E+03  0.35998379195E+03 -0.11669184901E+04  0.12289082556E+04  0.10100000352E+00 0. -1.
</event>
<event>
 5   0  0.2150197E-03  0.1406745E+04  0.7818609E-02  0.8948951E-01
       -2   -1    0    0    0  501  0.00000000000E+00  0.00000000000E+00  0.41074971671E+03  0.41074971671E+03  0.25500000920E-02 0. -1.
        2   -1    0    0  501    0  0.00000000000E+00  0.00000000000E+00 -0.12044622466E+04  0.12044622466E+04  0.25500000920E-02 0.  1.
    10030    2    1    2    0    0  0.00000000000E+00  0.00000000000E+00 -0.79371252987E+03  0.16152119633E+04  0.14067445064E+04 0.  0.
        3    1    3    3  502    0  0.39463712059E+03  0.21167787246E+03  0.22591087960E+03  0.50157922043E+03  0.10100000352E+00 0. -1.
       -3    1    3    3    0  502 -0.39463712059E+03 -0.21167787246E+03 -0.10196234095E+04  0.11136327429E+04  0.10100000352E+00 0.  1.
</event>
<event>
 5   0  0.1077140E-03  0.1533766E+04  0.7818609E-02  0.8862305E-01
       -1   -1    0    0    0  501  0.00000000000E+00  0.00000000000E+00  0.15947767713E+04  0.15947767714E+04  0.50400001928E-02 0. -1.
        1   -1    0    0  501    0  0.00000000000E+00  0.00000000000E+00 -0.36877209904E+03  0.36877209907E+03  0.50400001928E-02 0.  1.
    10030    2    1    2    0    0  0.00000000000E+00  0.00000000000E+00  0.12260046723E+04  0.19635488704E+04  0.15337655329E+04 0.  0.
        1    1    3    3  502    0 -0.49091493681E+02  0.21258777814E+03  0.15542043669E+04  0.15694440903E+04  0.50400001928E-02 0. -1.
       -1    1    3    3    0  502  0.49091493681E+02 -0.21258777814E+03 -0.32819969464E+03  0.39410478017E+03  0.50400001928E-02 0.  1.
</event>
<event>
 5   0  0.1077140E-03  0.1468894E+04  0.7818609E-02  0.8905406E-01
        1   -1    0    0  501    0  0.00000000000E+00  0.00000000000E+00  0.99220442286E+03  0.99220442288E+03  0.50400001928E-02 0. -1.
       -1   -1    0    0    0  501  0.00000000000E+00  0.00000000000E+00 -0.54365020788E+03  0.54365020790E+03  0.50400001928E-02 0.  1.
    10030    2    1    2    0    0  0.00000000000E+00  0.00000000000E+00  0.44855421499E+03  0.15358546308E+04  0.14688936528E+04 0.  0.
        1    1    3    3  502    0 -0.28129029664E+03 -0.56046386678E+03 -0.17547075754E+03  0.65117890301E+03  0.50400001928E-02 0.  1.
       -1    1    3    3    0  502  0.28129029664E+03  0.56046386678E+03  0.62402497252E+03  0.88467572777E+03  0.50400001928E-02 0. -1.
</event>
<event>
 5   0  0.2094566E-03  0.8496451E+03  0.7818609E-02  0.9490813E-01
        2   -1    0    0  501    0  0.00000000000E+00  0.00000000000E+00  0.14107431868E+04  0.14107431868E+04  0.25500000920E-02 0. -1.
       -2   -1    0    0    0  501  0.00000000000E+00  0.00000000000E+00 -0.12792844860E+03  0.12792844863E+03  0.25500000920E-02 0.  1.
    10030    2    1    2    0    0  0.00000000000E+00  0.00000000000E+00  0.12828147382E+04  0.15386716355E+04  0.84964507247E+03 0.  0.
        1    1    3    3  502    0  0.11941432227E+02  0.24850633695E+03  0.12650088684E+04  0.12892421939E+04  0.50400001928E-02 0. -1.
       -1    1    3    3    0  502 -0.11941432227E+02 -0.24850633695E+03  0.17805869828E+02  0.24942944159E+03  0.50400001928E-02 0.  1.
</event>
<event>
 5   0  0.1087761E-03  0.1488447E+04  0.7818609E-02  0.8892172E-01
        1   -1    0    0  501    0  0.00000000000E+00  0.00000000000E+00  0.12677802969E+04  0.12677802969E+04  0.50400001928E-02 0. -1.
       -1   -1    0    0    0  501  0.00000000000E+00  0.00000000000E+00 -0.43688038854E+03  0.43688038857E+03  0.50400001928E-02 0.  1.
    10030    2    1    2    0    0  0.00000000000E+00  0.00000000000E+00  0.83089990837E+03  0.17046606855E+04  0.14884466383E+04 0.  0.
        3    1    3    3  502    0  0.31790320103E+03 -0.42288822091E+03 -0.18400606662E+03  0.56013849659E+03  0.10100000352E+00 0.  1.
       -3    1    3    3    0  502 -0.31790320103E+03  0.42288822091E+03  0.10149059750E+04  0.11445221889E+04  0.10100000352E+00 0. -1.
</event>
<event>
 5   0  0.1077140E-03  0.1494556E+04  0.7818609E-02  0.8888081E-01
       -1   -1    0    0    0  501  0.00000000000E+00  0.00000000000E+00  0.38220610659E+03  0.38220610662E+03  0.50400001928E-02 0.  1.
        1   -1    0    0  501    0  0.00000000000E+00  0.00000000000E+00 -0.14610565099E+04  0.14610565099E+04  0.50400001928E-02 0. -1.
    10030    2    1    2    0    0  0.00000000000E+00  0.00000000000E+00 -0.10788504033E+04  0.18432626166E+04  0.14945564161E+04 0.  0.
        1    1    3    3  502    0 -0.55519627107E+03 -0.40852585115E+03 -0.18349299170E+03  0.71330634968E+03  0.50400001928E-02 0. -1.
       -1    1    3    3    0  502  0.55519627107E+03  0.40852585115E+03 -0.89535741164E+03  0.11299562669E+04  0.50400001928E-02 0.  1.
</event>
<event>
 5   0  0.2150197E-03  0.1486777E+04  0.7818609E-02  0.8893294E-01
       -2   -1    0    0    0  501  0.00000000000E+00  0.00000000000E+00  0.66728691764E+03  0.66728691765E+03  0.25500000920E-02 0.  1.
        2   -1    0    0  501    0  0.00000000000E+00  0.00000000000E+00 -0.82816902876E+03  0.82816902876E+03  0.25500000920E-02 0. -1.
    10030    2    1    2    0    0  0.00000000000E+00  0.00000000000E+00 -0.16088211112E+03  0.14954559464E+04  0.14867768609E+04 0.  0.
        3    1    3    3  502    0  0.31145274948E+03  0.20669265291E+02 -0.75906190612E+03  0.82073444013E+03  0.10100000352E+00 0. -1.
       -3    1    3    3    0  502 -0.31145274948E+03 -0.20669265291E+02  0.59817979501E+03  0.67472150628E+03  0.10100000352E+00 0.  1.
</event>
<event>
 5   0  0.2111533E-03  0.1465441E+04  0.7818609E-02  0.8907765E-01
        2   -1    0    0  501    0  0.00000000000E+00  0.00000000000E+00  0.31247243265E+04  0.31247243265E+04  0.25500000920E-02 0.  1.
       -2   -1    0    0    0  501  0.00000000000E+00  0.00000000000E+00 -0.17181644019E+03  0.17181644021E+03  0.25500000920E-02 0. -1.
    10030    2    1    2    0    0  0.00000000000E+00  0.00000000000E+00  0.29529078863E+04  0.32965407667E+04  0.14654405623E+04 0.  0.
        5    1    3    3  502    0  0.26295909298E+03 -0.59315990926E+03  0.22421865948E+04  0.23341827218E+04  0.46999998093E+01 0.  1.
       -5    1    3    3    0  502 -0.26295909298E+03  0.59315990926E+03  0.71072129148E+03  0.96235804495E+03  0.46999998093E+01 0. -1.
</event>
<event>
 5   0  0.1961098E-03  0.1249986E+04  0.7818609E-02  0.9070195E-01
        2   -1    0    0  501    0  0.00000000000E+00  0.00000000000E+00  0.14802612891E+04  0.14802612891E+04  0.25500000920E-02 0.  1.
       -2   -1    0    0    0  501  0.00000000000E+00  0.00000000000E+00 -0.26388313326E+03  0.26388313327E+03  0.25500000920E-02 0. -1.
    10030    2    1    2    0    0  0.00000000000E+00  0.00000000000E+00  0.12163781558E+04  0.17441444224E+04  0.12499855791E+04 0.  0.
        2    1    3    3  502    0 -0.14203362743E+03 -0.29716791848E+03 -0.13295884397E+03  0.35519062106E+03  0.25500000920E-02 0. -1.
       -2    1    3    3    0  502  0.14203362743E+03  0.29716791848E+03  0.13493369998E+04  0.13889538013E+04  0.25500000920E-02 0.  1.
</event>
<event>
 5   0  0.1961098E-03  0.1471122E+04  0.7818609E-02  0.8903887E-01
        2   -1    0    0  501    0  0.00000000000E+00  0.00000000000E+00  0.62175319171E+03  0.62175319171E+03  0.25500000920E-02 0. -1.
       -2   -1    0    0    0  501  0.00000000000E+00  0.00000000000E+00 -0.87020008412E+03  0.87020008413E+03  0.25500000920E-02 0.  1.
    10030    2    1    2    0    0  0.00000000000E+00  0.00000000000E+00 -0.24844689242E+03  0.14919532758E+04  0.14711215854E+04 0.  0.
        2    1    3    3  502    0  0.63557096290E+03 -0.18171389269E+03  0.20295811416E+03  0.69149286604E+03  0.25500000920E-02 0. -1.
       -2    1    3    3    0  502 -0.63557096290E+03  0.18171389269E+03 -0.45140500657E+03  0.80046040979E+03  0.25500000920E-02 0.  1.
</event>
<event>
 5   0  0.2150197E-03  0.1565450E+04  0.7818609E-02  0.8842059E-01
       -2   -1    0    0    0  501  0.00000000000E+00  0.00000000000E+00  0.88008267579E+03  0.88008267579E+03  0.25500000920E-02 0.  1.
        2   -1    0    0  501    0  0.00000000000E+00  0.00000000000E+00 -0.69613770438E+03  0.69613770438E+03  0.25500000920E-02 0. -1.
    10030    2    1    2    0    0  0.00000000000E+00  0.00000000000E+00  0.18394497141E+03  0.15762203802E+04  0.15654503935E+04 0.  0.
        3    1    3    3  502    0 -0.16078884011E+03 -0.36462271652E+03  0.77029564288E+03  0.86727052535E+03  0.10100000352E+00 0.  1.
       -3    1    3    3    0  502  0.16078884011E+03  0.36462271652E+03 -0.58635067147E+03  0.70894985482E+03  0.10100000352E+00 0. -1.
</event>
<event>
 5   0  0.1069697E-03  0.1462843E+04  0.7818609E-02  0.8909545E-01
       -1   -1    0    0    0  501  0.00000000000E+00  0.00000000000E+00  0.28069506487E+03  0.28069506491E+03  0.50400001928E-02 0.  1.
        1   -1    0    0  501    0  0.00000000000E+00  0.00000000000E+00 -0.19059015257E+04  0.19059015257E+04  0.50400001928E-02 0. -1.
    10030    2    1    2    0    0  0.00000000000E+00  0.00000000000E+00 -0.16252064609E+04  0.21865965907E+04  0.14628426470E+04 0.  0.
        2    1    3    3  502    0  0.45794156146E+03  0.34221616867E+03 -0.14945716125E+04  0.16001770792E+04  0.25500000920E-02 0.  1.
       -2    1    3    3    0  502 -0.45794156146E+03 -0.34221616867E+03 -0.13063484833E+03  0.58641951145E+03  0.25500000920E-02 0. -1.
</event>
<event>
 5   0  0.2094566E-03  0.1584245E+04  0.7818609E-02  0.8830286E-01
       -2   -1    0    0    0  501  0.00000000000E+00  0.00000000000E+00  0.32564543170E+03  0.32564543171E+03  0.25500000920E-02 0.  1.
        2   -1    0    0  501    0  0.00000000000E+00  0.00000000000E+00 -0.19268145103E+04  0.19268145103E+04  0.25500000920E-02 0. -1.
    10030    2    1    2    0    0  0.00000000000E+00  0.00000000000E+00 -0.16011690786E+04  0.22524599420E+04  0.15842453636E+04 0.  0.
        1    1    3    3  502    0 -0.33127705019E+03 -0.29214281996E+03  0.13430567878E+03  0.46165996861E+03  0.50400001928E-02 0.  1.
       -1    1    3    3    0  502  0.33127705019E+03  0.29214281996E+03 -0.17354747574E+04  0.17907999734E+04  0.50400001928E-02 0. -1.
</event>
<event>
 5   0  0.1087761E-03  0.1480043E+04  0.7818609E-02  0.8897833E-01
       -1   -1    0    0    0  501  0.00000000000E+00  0.00000000000E+00  0.50050264864E+03  0.50050264866E+03  0.50400001928E-02 0. -1.
        1   -1    0    0  501    0  0.00000000000E+00  0.00000000000E+00 -0.10941640309E+04  0.10941640309E+04  0.50400001928E-02 0.  1.
    10030    2    1    2    0    0  0.00000000000E+00  0.00000000000E+00 -0.59366138223E+03  0.15946666795E+04  0.14800432366E+04 0.  0.
        3    1    3    3  502    0  0.39199259033E+03  0.12032581565E+03  0.36691058823E+03  0.55023620631E+03  0.10100000352E+00 0. -1.
       -3    1    3    3    0  502 -0.39199259033E+03 -0.12032581565E+03 -0.96057197046E+03  0.10444304732E+04  0.10100000352E+00 0.  1.
</event>
<event>
 5   0  0.1087761E-03  0.1507616E+04  0.7818609E-02  0.8879404E-01
        1   -1    0    0  501    0  0.00000000000E+00  0.00000000000E+00  0.17028023475E+04  0.17028023475E+04  0.50400001928E-02 0.  1.
       -1   -1    0    0    0  501  0.00000000000E+00  0.00000000000E+00 -0.33370100178E+03  0.33370100182E+03  0.50400001928E-02 0. -1.
    10030    2    1    2    0    0  0.00000000000E+00  0.00000000000E+00  0.13691013457E+04  0.20365033493E+04  0.15076164622E+04 0.  0.
        3    1    3    3  502    0  0.57866986215E+03  0.10031960477E+03  0.13228766451E+04  0.14473857332E+04  0.10100000352E+00 0.  1.
       -3    1    3    3    0  502 -0.57866986215E+03 -0.10031960477E+03  0.46224700652E+02  0.58911761611E+03  0.10100000352E+00 0. -1.
</event>
<event>
 5   0  0.1078018E-03  0.1404563E+04  0.7818609E-02  0.8950522E-01
       -1   -1    0    0    0  501  0.00000000000E+00  0.00000000000E+00  0.54269384122E+03  0.54269384124E+03  0.50400001928E-02 0.  1.
        1   -1    0    0  501    0  0.00000000000E+00  0.00000000000E+00 -0.90879808317E+03  0.90879808318E+03  0.50400001928E-02 0. -1.
    10030    2    1    2    0    0  0.00000000000E+00  0.00000000000E+00 -0.36610424195E+03  0.14514919244E+04  0.14045627400E+04 0.  0.
        4    1    3    3  502    0  0.60994395422E+02 -0.28683704135E+02  0.53934233538E+03  0.54353917871E+03  0.12699999809E+01 0.  1.
       -4    1    3    3    0  502 -0.60994395422E+02  0.28683704135E+02 -0.90544657733E+03  0.90795274572E+03  0.12699999809E+01 0. -1.
</event>
<event>
 5   0  0.1993623E-03  0.1497112E+04  0.7818609E-02  0.8886376E-01
       -2   -1    0    0    0  501  0.00000000000E+00  0.00000000000E+00  0.76360391687E+03  0.76360391687E+03  0.25500000920E-02 0. -1.
        2   -1    0    0  501    0  0.00000000000E+00  0.00000000000E+00 -0.73380480614E+03  0.73380480615E+03  0.25500000920E-02 0.  1.
    10030    2    1    2    0    0  0.00000000000E+00  0.00000000000E+00  0.29799110727E+02  0.14974087230E+04  0.14971121858E+04 0.  0.
        4    1    3    3  502    0 -0.72784774224E+03 -0.10463884963E+03  0.15500937261E+03  0.75149261023E+03  0.12699999809E+01 0.  1.
       -4    1    3    3    0  502  0.72784774224E+03  0.10463884963E+03 -0.12521026188E+03  0.74591611279E+03  0.12699999809E+01 0. -1.
</event>
<event>
 5   0  0.1087761E-03  0.1467699E+04  0.7818609E-02  0.8906221E-01
        1   -1    0    0  501    0  0.00000000000E+00  0.00000000000E+00  0.85465867799E+03  0.85465867800E+03  0.50400001928E-02 0. -1.
       -1   -1    0    0    0  501  0.00000000000E+00  0.00000000000E+00 -0.63011733412E+03  0.63011733414E+03  0.50400001928E-02 0.  1.
    10030    2    1    2    0    0  0.00000000000E+00  0.00000000000E+00  0.22454134387E+03  0.14847760121E+04  0.14676992168E+04 0.  0.
        3    1    3    3  502    0  0.59860884639E+03 -0.33815019097E+03 -0.14734164712E+03  0.70312706804E+03  0.10100000352E+00 0.  1.
       -3    1    3    3    0  502 -0.59860884639E+03  0.33815019097E+03  0.37188299099E+03  0.78164894410E+03  0.10100000352E+00 0. -1.
</event>
<event>
 5   0  0.2111533E-03  0.1521882E+04  0.7818609E-02  0.8870031E-01
        2   -1    0    0  501    0  0.00000000000E+00  0.00000000000E+00  0.81200156118E+03  0.81200156119E+03  0.25500000920E-02 0.  1.
       -2   -1    0    0    0  501  0.00000000000E+00  0.00000000000E+00 -0.71309115764E+03  0.71309115764E+03  0.25500000920E-02 0. -1.
    10030    2    1    2    0    0  0.00000000000E+00  0.00000000000E+00  0.98910403546E+02  0.15250927188E+04  0.15218819051E+04 0.  0.
        5    1    3    3  502    0 -0.74188245670E+03  0.78276264867E+02 -0.10083550685E+03  0.75279920473E+03  0.46999998093E+01 0.  1.
       -5    1    3    3    0  502  0.74188245670E+03 -0.78276264867E+02  0.19974591039E+03  0.77229351410E+03  0.46999998093E+01 0. -1.
</event>
<event>
 5   0  0.1087761E-03  0.1486157E+04  0.7818609E-02  0.8893711E-01
       -1   -1    0    0    0  501  0.00000000000E+00  0.00000000000E+00  0.24394895088E+03  0.24394895094E+03  0.50400001928E-02 0. -1.
        1   -1    0    0  501    0  0.00000000000E+00  0.00000000000E+00 -0.22634464224E+04  0.22634464224E+04  0.50400001928E-02 0.  1.
    10030    2    1    2    0    0  0.00000000000E+00  0.00000000000E+00 -0.20194974716E+04  0.25073953734E+04  0.14861566273E+04 0.  0.
        3    1    3    3  502    0  0.21944069395E+03 -0.25882914860E+03 -0.21250911302E+04  0.21520127946E+04  0.10100000352E+00 0.  1.
       -3    1    3    3    0  502 -0.21944069395E+03  0.25882914860E+03  0.10559365866E+03  0.35538257875E+03  0.10100000352E+00 0. -1.
</event>
<event>
 5   0  0.2094566E-03  0.1493741E+04  0.7818609E-02  0.8888626E-01
        2   -1    0    0  501    0  0.00000000000E+00  0.00000000000E+00  0.39818009235E+03  0.39818009236E+03  0.25500000920E-02 0.  1.
       -2   -1    0    0    0  501  0.00000000000E+00  0.00000000000E+00 -0.14009123563E+04  0.14009123563E+04  0.25500000920E-02 0. -1.
    10030    2    1    2    0    0  0.00000000000E+00  0.00000000000E+00 -0.10027322639E+04  0.17990924486E+04  0.14937408228E+04 0.  0.
        1    1    3    3  502    0  0.15149274499E+03  0.44739031909E+03 -0.11981703936E+04  0.12879132120E+04  0.50400001928E-02 0. -1.
       -1    1    3    3    0  502 -0.15149274499E+03 -0.44739031909E+03  0.19543812972E+03  0.51117923664E+03  0.50400001928E-02 0.  1.
</event>
<event>
 5   0  0.1087761E-03  0.1397035E+04  0.7818609E-02  0.8955968E-01
        1   -1    0    0  501    0  0.00000000000E+00  0.00000000000E+00  0.12021175929E+04  0.12021175929E+04  0.50400001928E-02 0. -1.
       -1   -1    0    0    0  501  0.00000000000E+00  0.00000000000E+00 -0.40588922054E+03  0.40588922057E+03  0.50400001928E-02 0.  1.
    10030    2    1    2    0    0  0.00000000000E+00  0.00000000000E+00  0.79622837233E+03  0.16080068135E+04  0.13970348210E+04 0.  0.
        3    1    3    3  502    0  0.59115665617E+03 -0.36199418023E+03  0.29896259345E+03  0.75490702814E+03  0.10100000352E+00 0. -1.
       -3    1    3    3    0  502 -0.59115665617E+03  0.36199418023E+03  0.49726577889E+03  0.85309978531E+03  0.10100000352E+00 0.  1.
</event>
<event>
 5   0  0.2111533E-03  0.1509183E+04  0.7818609E-02  0.8878369E-01
        2   -1    0    0  501    0  0.00000000000E+00  0.00000000000E+00  0.87411977061E+03  0.87411977061E+03  0.25500000920E-02 0. -1.
       -2   -1    0    0    0  501  0.00000000000E+00  0.00000000000E+00 -0.65140770876E+03  0.65140770877E+03  0.25500000920E-02 0.  1.
    10030    2    1    2    0    0  0.00000000000E+00  0.00000000000E+00  0.22271206185E+03  0.15255274794E+04  0.15091830333E+04 0.  0.
        5    1    3    3  502    0  0.64554878995E+03 -0.13032509422E+03 -0.26096491307E+03  0.70840853061E+03  0.46999998093E+01 0.  1.
       -5    1    3    3    0  502 -0.64554878995E+03  0.13032509422E+03  0.48367697492E+03  0.81711894878E+03  0.46999998093E+01 0. -1.
</event>
<event>
 5   0  0.2150197E-03  0.1550954E+04  0.7818609E-02  0.8851258E-01
       -2   -1    0    0    0  501  0.00000000000E+00  0.00000000000E+00  0.59288890851E+03  0.59288890851E+03  0.25500000920E-02 0. -1.
        2   -1    0    0  501    0  0.00000000000E+00  0.00000000000E+00 -0.10142959395E+04  0.10142959395E+04  0.25500000920E-02 0.  1.
    10030    2    1    2    0    0  0.00000000000E+00  0.00000000000E+00 -0.42140703095E+03  0.16071848480E+04  0.15509543029E+04 0.  0.
        3    1    3    3  502    0 -0.74770934614E+03 -0.12940695285E+03 -0.37634037225E+03  0.84702273389E+03  0.10100000352E+00 0.  1.
       -3    1    3    3    0  502  0.74770934614E+03  0.12940695285E+03 -0.45066658706E+02  0.76016211408E+03  0.10100000352E+00 0. -1.
</event>
<event>
 5   0  0.2150197E-03  0.1490144E+04  0.7818609E-02  0.8891033E-01
        2   -1    0    0  501    0  0.00000000000E+00  0.00000000000E+00  0.79459338900E+03  0.79459338900E+03  0.25500000920E-02 0.  1.
       -2   -1    0    0    0  501  0.00000000000E+00  0.00000000000E+00 -0.69863717133E+03  0.69863717134E+03  0.25500000920E-02 0. -1.
    10030    2    1    2    0    0  0.00000000000E+00  0.00000000000E+00  0.95956217664E+02  0.14932305603E+04  0.14901442583E+04 0.  0.
        3    1    3    3  502    0 -0.31740556069E+03 -0.48231975640E+03  0.51986087940E+03  0.77693885313E+03  0.10100000352E+00 0.  1.
       -3    1    3    3    0  502  0.31740556069E+03  0.48231975640E+03 -0.42390466174E+03  0.71629170721E+03  0.10100000352E+00 0. -1.
</event>
<event>
 5   0  0.1077140E-03  0.1511493E+04  0.7818609E-02  0.8876846E-01
        1   -1    0    0  501    0  0.00000000000E+00  0.00000000000E+00  0.69956321882E+03  0.69956321884E+03  0.50400001928E-02 0. -1.
       -1   -1    0    0    0  501  0.00000000000E+00  0.00000000000E+00 -0.81644214860E+03  0.81644214862E+03  0.50400001928E-02 0.  1.
    10030    2    1    2    0    0  0.00000000000E+00  0.00000000000E+00 -0.11687892978E+03  0.15160053675E+04  0.15114931657E+04 0.  0.
        1    1    3    3  502    0  0.40585016423E+03  0.29505427150E+03 -0.62526504585E+03  0.80170303512E+03  0.50400001928E-02 0.  1.
       -1    1    3    3    0  502 -0.40585016423E+03 -0.29505427150E+03  0.50838611607E+03  0.71430233233E+03  0.50400001928E-02 0. -1.
</event>
<event>
 5   0  0.1078018E-03  0.1487715E+04  0.7818609E-02  0.8892664E-01
        1   -1    0    0  501    0  0.00000000000E+00  0.00000000000E+00  0.92012764693E+03  0.92012764694E+03  0.50400001928E-02 0. -1.
       -1   -1    0    0    0  501  0.00000000000E+00  0.00000000000E+00 -0.60135545664E+03  0.60135545667E+03  0.50400001928E-02 0.  1.
    10030    2    1    2    0    0  0.00000000000E+00  0.00000000000E+00  0.31877219028E+03  0.15214831036E+04  0.14877147325E+04 0.  0.
        4    1    3    3  502    0 -0.48832547676E+03 -0.55028631780E+03  0.27162862922E+03  0.78425794732E+03  0.12699999809E+01 0. -1.
       -4    1    3    3    0  502  0.48832547676E+03  0.55028631780E+03  0.47143561061E+02  0.73722515629E+03  0.12699999809E+01 0.  1.
</event>
<event>
 5   0  0.1077140E-03  0.1651912E+04  0.7818609E-02  0.8789276E-01
        1   -1    0    0  501    0  0.00000000000E+00  0.00000000000E+00  0.57318521912E+03  0.57318521914E+03  0.50400001928E-02 0.  1.
       -1   -1    0    0    0  501  0.00000000000E+00  0.00000000000E+00 -0.11901976700E+04  0.11901976700E+04  0.50400001928E-02 0. -1.
    10030    2    1    2    0    0  0.00000000000E+00  0.00000000000E+00 -0.61701245084E+03  0.17633828891E+04  0.16519124823E+04 0.  0.
        1    1    3    3  502    0  0.82253925270E+02  0.82181950698E+03 -0.30090520280E+03  0.87903182614E+03  0.50400001928E-02 0. -1.
       -1    1    3    3    0  502 -0.82253925270E+02 -0.82181950698E+03 -0.31610724803E+03  0.88435106296E+03  0.50400001928E-02 0.  1.
</event>
<event>
 5   0  0.7468375E-04  0.1465619E+04  0.7818609E-02  0.8907644E-01
       -3   -1    0    0    0  501  0.00000000000E+00  0.00000000000E+00  0.39770175315E+03  0.39770176598E+03  0.10100000352E+00 0. -1.
        3   -1    0    0  501    0  0.00000000000E+00  0.00000000000E+00 -0.13502817585E+04  0.13502817622E+04  0.10100000352E+00 0.  1.
    10030    2    1    2    0    0  0.00000000000E+00  0.00000000000E+00 -0.95258000532E+03  0.17479835282E+04  0.14656185549E+04 0.  0.
        1    1    3    3  502    0  0.60030023920E+03  0.38766730571E+03 -0.66993879119E+03  0.97952248625E+03  0.50400001928E-02 0. -1.
       -1    1    3    3    0  502 -0.60030023920E+03 -0.38766730571E+03 -0.28264121413E+03  0.76846104198E+03  0.50400001928E-02 0.  1.
</event>
<event>
 5   0  0.1078787E-03  0.1476180E+04  0.7818609E-02  0.8900449E-01
        1   -1    0    0  501    0  0.00000000000E+00  0.00000000000E+00  0.76192875222E+03  0.76192875224E+03  0.50400001928E-02 0. -1.
       -1   -1    0    0    0  501  0.00000000000E+00  0.00000000000E+00 -0.71499706923E+03  0.71499706925E+03  0.50400001928E-02 0.  1.
    10030    2    1    2    0    0  0.00000000000E+00  0.00000000000E+00  0.46931682995E+02  0.14769258215E+04  0.14761799685E+04 0.  0.
        5    1    3    3  502    0  0.41007740039E+03  0.24025240417E+03 -0.54150526223E+03  0.72051004923E+03  0.46999998093E+01 0.  1.
       -5    1    3    3    0  502 -0.41007740039E+03 -0.24025240417E+03  0.58843694522E+03  0.75641577226E+03  0.46999998093E+01 0. -1.
</event>
<event>
 5   0  0.1078018E-03  0.1562320E+04  0.7818609E-02  0.8844037E-01
       -1   -1    0    0    0  501  0.00000000000E+00  0.00000000000E+00  0.13015839874E+04  0.13015839874E+04  0.50400001928E-02 0.  1.
        1   -1    0    0  501    0  0.00000000000E+00  0.00000000000E+00 -0.46882174015E+03  0.46882174018E+03  0.50400001928E-02 0. -1.
    10030    2    1    2    0    0  0.00000000000E+00  0.00000000000E+00  0.83276224720E+03  0.17704057275E+04  0.15623199031E+04 0.  0.
        4    1    3    3  502    0  0.31761413584E+03 -0.55763878244E+03  0.92108924882E+03  0.11226071299E+04  0.12699999809E+01 0.  1.
       -4    1    3    3    0  502 -0.31761413584E+03  0.55763878244E+03 -0.88327001615E+02  0.64779859762E+03  0.12699999809E+01 0. -1.
</event>
<event>
 5   0  0.1069697E-03  0.1513343E+04  0.7818609E-02  0.8875628E-01
        1   -1    0    0  501    0  0.00000000000E+00  0.00000000000E+00  0.60010078081E+03  0.60010078083E+03  0.50400001928E-02 0.  1.
       -1   -1    0    0    0  501  0.00000000000E+00  0.00000000000E+00 -0.95409210318E+03  0.95409210319E+03  0.50400001928E-02 0. -1.
    10030    2    1    2    0    0  0.00000000000E+00  0.00000000000E+00 -0.35399132237E+03  0.15541928840E+04  0.15133425470E+04 0.  0.
        2    1    3    3  502    0  0.39175633227E+03  0.52190548036E+03 -0.57033959841E+03  0.86668657070E+03  0.25500000920E-02 0. -1.
       -2    1    3    3    0  502 -0.39175633227E+03 -0.52190548036E+03  0.21634827604E+03  0.68750631332E+03  0.25500000920E-02 0.  1.
</event>
<event>
 5   0  0.1961098E-03  0.1368448E+04  0.7818609E-02  0.8976979E-01
        2   -1    0    0  501    0  0.00000000000E+00  0.00000000000E+00  0.89014980265E+03  0.89014980265E+03  0.25500000920E-02 0.  1.
       -2   -1    0    0    0  501  0.00000000000E+00  0.00000000000E+00 -0.52593709344E+03  0.52593709345E+03  0.25500000920E-02 0. -1.
    10030    2    1    2    0    0  0.00000000000E+00  0.00000000000E+00  0.36421270921E+03  0.14160868961E+04  0.13684484644E+04 0.  0.
        2    1    3    3  502    0  0.84049701772E+02 -0.23207687703E+03 -0.47826163964E+03  0.53819905720E+03  0.25500000920E-02 0. -1.
       -2    1    3    3    0  502 -0.84049701772E+02  0.23207687703E+03  0.84247434885E+03  0.87788783890E+03  0.25500000920E-02 0.  1.
</event>
<event>
 5   0  0.1078787E-03  0.1512624E+04  0.7818609E-02  0.8876101E-01
        1   -1    0    0  501    0  0.00000000000E+00  0.00000000000E+00  0.56780038724E+03  0.56780038727E+03  0.50400001928E-02 0. -1.
       -1   -1    0    0    0  501  0.00000000000E+00  0.00000000000E+00 -0.10074103100E+04  0.10074103100E+04  0.50400001928E-02 0.  1.
    10030    2    1    2    0    0  0.00000000000E+00  0.00000000000E+00 -0.43960992273E+03  0.15752106972E+04  0.15126241624E+04 0.  0.
        5    1    3    3  502    0  0.34537713710E+02  0.74537906305E+03 -0.34820741038E+03  0.82343991399E+03  0.46999998093E+01 0. -1.
       -5    1    3    3    0  502 -0.34537713710E+02 -0.74537906305E+03 -0.91402512346E+02  0.75177078326E+03  0.46999998093E+01 0.  1.
</event>
<event>
 5   0  0.1087761E-03  0.1503297E+04  0.7818609E-02  0.8882263E-01
        1   -1    0    0  501    0  0.00000000000E+00  0.00000000000E+00  0.20775617442E+04  0.20775617442E+04  0.50400001928E-02 0.  1.
       -1   -1    0    0    0  501  0.00000000000E+00  0.00000000000E+00 -0.27194172382E+03  0.27194172387E+03  0.50400001928E-02 0. -1.
    10030    2    1    2    0    0  0.00000000000E+00  0.00000000000E+00  0.18056200203E+04  0.23495034680E+04  0.15032973387E+04 0.  0.
        3    1    3    3  502    0  0.96000784525E+02 -0.21269170259E+02 -0.26184647054E+03  0.27970004034E+03  0.10100000352E+00 0. -1.
       -3    1    3    3    0  502 -0.96000784525E+02  0.21269170259E+02  0.20674664909E+04  0.20698034277E+04  0.10100000352E+00 0.  1.
</event>
<event>
 5   0  0.1961098E-03  0.1447629E+04  0.7818609E-02  0.8920046E-01
       -2   -1    0    0    0  501  0.00000000000E+00  0.00000000000E+00  0.63682435456E+03  0.63682435457E+03  0.25500000920E-02 0.  1.
        2   -1    0    0  501    0  0.00000000000E+00  0.00000000000E+00 -0.82268747105E+03  0.82268747106E+03  0.25500000920E-02 0. -1.
    10030    2    1    2    0    0  0.00000000000E+00  0.00000000000E+00 -0.18586311649E+03  0.14595118256E+04  0.14476289825E+04 0.  0.
        2    1    3    3  502    0 -0.65363718192E+03 -0.62397281330E+02 -0.40001741743E+03  0.76886209463E+03  0.25500000920E-02 0.  1.
       -2    1    3    3    0  502  0.65363718192E+03  0.62397281330E+02  0.21415430094E+03  0.69064973100E+03  0.25500000920E-02 0. -1.
</event>
<event>
 5   0  0.1069697E-03  0.1476787E+04  0.7818609E-02  0.8900037E-01
        1   -1    0    0  501    0  0.00000000000E+00  0.00000000000E+00  0.93029534990E+03  0.93029534991E+03  0.50400001928E-02 0.  1.
       -1   -1    0    0    0  501  0.00000000000E+00  0.00000000000E+00 -0.58607755033E+03  0.58607755035E+03  0.50400001928E-02 0. -1.
    10030    2    1    2    0    0  0.00000000000E+00  0.00000000000E+00  0.34421779957E+03  0.15163729003E+04  0.14767873507E+04 0.  0.
        2    1    3    3  502    0 -0.60348586656E+03 -0.52077432834E+02 -0.26148743841E+03  0.65975975218E+03  0.25500000920E-02 0. -1.
       -2    1    3    3    0  502  0.60348586656E+03  0.52077432834E+02  0.60570523798E+03  0.85661314808E+03  0.25500000920E-02 0.  1.
</event>
<event>
 5   0  0.1078787E-03  0.1513539E+04  0.7818609E-02  0.8875499E-01
        1   -1    0    0  501    0  0.00000000000E+00  0.00000000000E+00  0.18199237914E+04  0.18199237914E+04  0.50400001928E-02 0.  1.
       -1   -1    0    0    0  501  0.00000000000E+00  0.00000000000E+00 -0.31468339457E+03  0.31468339461E+03  0.50400001928E-02 0. -1.
    10030    2    1    2    0    0  0.00000000000E+00  0.00000000000E+00  0.15052403968E+04  0.21346071860E+04  0.15135386306E+04 0.  0.
        5    1    3    3  502    0 -0.17276138582E+03 -0.83162441756E+02  0.17850784557E+04  0.17953522415E+04  0.46999998093E+01 0.  1.
       -5    1    3    3    0  502  0.17276138582E+03  0.83162441756E+02 -0.27983805889E+03  0.33925494448E+03  0.46999998093E+01 0. -1.
</event>
<event>
 5   0  0.2094566E-03  0.1499193E+04  0.7818609E-02  0.8884990E-01
       -2   -1    0    0    0  501  0.00000000000E+00  0.00000000000E+00  0.14397451489E+04  0.14397451489E+04  0.25500000920E-02 0.  1.
        2   -1    0    0  501    0  0.00000000000E+00  0.00000000000E+00 -0.39027405396E+03  0.39027405397E+03  0.25500000920E-02 0. -1.
    10030    2    1    2    0    0  0.00000000000E+00  0.00000000000E+00  0.10494710950E+04  0.18300192029E+04  0.14991933510E+04 0.  0.
        1    1    3    3  502    0 -0.89888426345E+02 -0.73926682152E+03  0.62902823930E+03  0.97481890033E+03  0.50400001928E-02 0. -1.
       -1    1    3    3    0  502  0.89888426345E+02  0.73926682152E+03  0.42044285567E+03  0.85520030256E+03  0.50400001928E-02 0.  1.
</event>
<event>
 5   0  0.1961098E-03  0.1561165E+04  0.7818609E-02  0.8844768E-01
       -2   -1    0    0    0  501  0.00000000000E+00  0.00000000000E+00  0.33613487687E+03  0.33613487688E+03  0.25500000920E-02 0. -1.
        2   -1    0    0  501    0  0.00000000000E+00  0.00000000000E+00 -0.18126918518E+04  0.18126918518E+04  0.25500000920E-02 0.  1.
    10030    2    1    2    0    0  0.00000000000E+00  0.00000000000E+00 -0.14765569749E+04  0.21488267286E+04  0.15611648887E+04 0.  0.
        2    1    3    3  502    0 -0.34940394485E+03 -0.61761902758E+03 -0.29062790315E+03  0.76681220517E+03  0.25500000920E-02 0. -1.
       -2    1    3    3    0  502  0.34940394485E+03  0.61761902758E+03 -0.11859290717E+04  0.13820145235E+04  0.25500000920E-02 0.  1.
</event>
<event>
 5   0  0.1993623E-03  0.1545691E+04  0.7818609E-02  0.8854625E-01
        2   -1    0    0  501    0  0.00000000000E+00  0.00000000000E+00  0.76668226164E+03  0.76668226165E+03  0.25500000920E-02 0. -1.
       -2   -1    0    0    0  501  0.00000000000E+00  0.00000000000E+00 -0.77905856687E+03  0.77905856688E+03  0.25500000920E-02 0.  1.
    10030    2    1    2    0    0  0.00000000000E+00  0.00000000000E+00 -0.12376305231E+02  0.15457408285E+04  0.15456912810E+04 0.  0.
        4    1    3    3  502    0  0.35805696705E+03 -0.31422663312E+03  0.60239162517E+03  0.76799768984E+03  0.12699999809E+01 0. -1.
       -4    1    3    3    0  502 -0.35805696705E+03  0.31422663312E+03 -0.61476793040E+03  0.77774313869E+03  0.12699999809E+01 0.  1.
</event>
<event>
 5   0  0.2111533E-03  0.1471750E+04  0.7818609E-02  0.8903459E-01
       -2   -1    0    0    0  501  0.00000000000E+00  0.00000000000E+00  0.27652125082E+03  0.27652125083E+03  0.25500000920E-02 0. -1.
        2   -1    0    0  501    0  0.00000000000E+00  0.00000000000E+00 -0.19583011988E+04  0.19583011988E+04  0.25500000920E-02 0.  1.
    10030    2    1    2    0    0  0.00000000000E+00  0.00000000000E+00 -0.16817799479E+04  0.22348224496E+04  0.14717498388E+04 0.  0.
        5    1    3    3  502    0 -0.47908840031E+03  0.54261874925E+03 -0.10419323722E+04  0.12687024712E+04  0.46999998093E+01 0.  1.
       -5    1    3    3    0  502  0.47908840031E+03 -0.54261874925E+03 -0.63984757578E+03  0.96611997836E+03  0.46999998093E+01 0. -1.
</event>
<event>
 5   0  0.1993623E-03  0.1501778E+04  0.7818609E-02  0.8883272E-01
        2   -1    0    0  501    0  0.00000000000E+00  0.00000000000E+00  0.80687458810E+03  0.80687458811E+03  0.25500000920E-02 0.  1.
       -2   -1    0    0    0  501  0.00000000000E+00  0.00000000000E+00 -0.69878786335E+03  0.69878786335E+03  0.25500000920E-02 0. -1.
    10030    2    1    2    0    0  0.00000000000E+00  0.00000000000E+00  0.10808672476E+03  0.15056624515E+04  0.15017778390E+04 0.  0.
        4    1    3    3  502    0  0.11054414189E+03 -0.14543021739E+03 -0.67616922307E+03  0.70041158369E+03  0.12699999809E+01 0. -1.
       -4    1    3    3    0  502 -0.11054414189E+03  0.14543021739E+03  0.78425594783E+03  0.80525086777E+03  0.12699999809E+01 0.  1.
</event>
<event>
 5   0  0.2094566E-03  0.1714856E+04  0.7818609E-02  0.8752936E-01
        2   -1    0    0  501    0  0.00000000000E+00  0.00000000000E+00  0.84560546092E+03  0.84560546092E+03  0.25500000920E-02 0. -1.
       -2   -1    0    0    0  501  0.00000000000E+00  0.00000000000E+00 -0.86941617301E+03  0.86941617301E+03  0.25500000920E-02 0.  1.
    10030    2    1    2    0    0  0.00000000000E+00  0.00000000000E+00 -0.23810712088E+02  0.17150216339E+04  0.17148563365E+04 0.  0.
        1    1    3    3  502    0 -0.25768539162E+03  0.42587435540E+02 -0.82866492842E+03  0.86885039814E+03  0.50400001928E-02 0.  1.
       -1    1    3    3    0  502  0.25768539162E+03 -0.42587435540E+02  0.80485421633E+03  0.84617123580E+03  0.50400001928E-02 0. -1.
</event>
<event>
 5   0  0.1078018E-03  0.1513443E+04  0.7818609E-02  0.8875562E-01
       -1   -1    0    0    0  501  0.00000000000E+00  0.00000000000E+00  0.50672100710E+03  0.50672100713E+03  0.50400001928E-02 0.  1.
        1   -1    0    0  501    0  0.00000000000E+00  0.00000000000E+00 -0.11300648743E+04  0.11300648743E+04  0.50400001928E-02 0. -1.
    10030    2    1    2    0    0  0.00000000000E+00  0.00000000000E+00 -0.62334386716E+03  0.16367858814E+04  0.15134432414E+04 0.  0.
        4    1    3    3  502    0  0.34758842136E+03  0.92998025204E+01  0.41520561974E+03  0.54157318670E+03  0.12699999809E+01 0.  1.
       -4    1    3    3    0  502 -0.34758842136E+03 -0.92998025204E+01 -0.10385494869E+04  0.10952126947E+04  0.12699999809E+01 0. -1.
</event>
<event>
 5   0  0.1961098E-03  0.1410421E+04  0.7818609E-02  0.8946309E-01
       -2   -1    0    0    0  501  0.00000000000E+00  0.00000000000E+00  0.58036731901E+03  0.58036731902E+03  0.25500000920E-02 0.  1.
        2   -1    0    0  501    0  0.00000000000E+00  0.00000000000E+00 -0.85690922037E+03  0.85690922037E+03  0.25500000920E-02 0. -1.
    10030    2    1    2    0    0  0.00000000000E+00  0.00000000000E+00 -0.27654190136E+03  0.14372765394E+04  0.14104213652E+04 0.  0.
        2    1    3    3  502    0 -0.44885416458E+03  0.54388419126E+03 -0.14487762751E+03  0.71990943980E+03  0.25500000920E-02 0. -1.
       -2    1    3    3    0  502  0.44885416458E+03 -0.54388419126E+03 -0.13166427385E+03  0.71736709959E+03  0.25500000920E-02 0.  1.
</event>
<event>
 5   0  0.2150197E-03  0.1552629E+04  0.7818609E-02  0.8850190E-01
        2   -1    0    0  501    0  0.00000000000E+00  0.00000000000E+00  0.10495939330E+04  0.10495939330E+04  0.25500000920E-02 0. -1.
       -2   -1    0    0    0  501  0.00000000000E+00  0.00000000000E+00 -0.57418800444E+03  0.57418800445E+03  0.25500000920E-02 0.  1.
    10030    2    1    2    0    0  0.00000000000E+00  0.00000000000E+00  0.47540592852E+03  0.16237819374E+04  0.15526290553E+04 0.  0.
        3    1    3    3  502    0 -0.47915745629E+03 -0.51426894449E+03  0.58235000244E+03  0.91279567852E+03  0.10100000352E+00 0.  1.
       -3    1    3    3    0  502  0.47915745629E+03  0.51426894449E+03 -0.10694407392E+03  0.71098625889E+03  0.10100000352E+00 0. -1.
</event>
<event>
 5   0  0.7468375E-04  0.1637015E+04  0.7818609E-02  0.8798126E-01
        4   -1    0    0  501    0  0.00000000000E+00  0.00000000000E+00  0.49137460099E+03  0.49137624220E+03  0.12699999809E+01 0.  1.
       -4   -1    0    0    0  501  0.00000000000E+00  0.00000000000E+00 -0.13634250012E+04  0.13634255927E+04  0.12699999809E+01 0. -1.
    10030    2    1    2    0    0  0.00000000000E+00  0.00000000000E+00 -0.87205040022E+03  0.18548018349E+04  0.16370149499E+04 0.  0.
        5    1    3    3  502    0  0.93267439068E+02  0.35815203630E+03  0.39114039890E+03  0.53850218007E+03  0.46999998093E+01 0.  1.
       -5    1    3    3    0  502 -0.93267439068E+02 -0.35815203630E+03 -0.12631907991E+04  0.13162996548E+04  0.46999998093E+01 0. -1.
</event>
<event>
 5   0  0.2094566E-03  0.1701361E+04  0.7818609E-02  0.8760588E-01
        2   -1    0    0  501    0  0.00000000000E+00  0.00000000000E+00  0.18392028672E+04  0.18392028672E+04  0.25500000920E-02 0. -1.
       -2   -1    0    0    0  501  0.00000000000E+00  0.00000000000E+00 -0.39346260194E+03  0.39346260195E+03  0.25500000920E-02 0.  1.
    10030    2    1    2    0    0  0.00000000000E+00  0.00000000000E+00  0.14457402653E+04  0.22326654692E+04  0.17013612734E+04 0.  0.
        1    1    3    3  502    0  0.16448351398E+03 -0.78762981761E+03  0.10852167598E+04  0.13509666805E+04  0.50400001928E-02 0. -1.
       -1    1    3    3    0  502 -0.16448351398E+03  0.78762981761E+03  0.36052350548E+03  0.88169878870E+03  0.50400001928E-02 0.  1.
</event>
<event>
 5   0  0.1077140E-03  0.1472942E+04  0.7818609E-02  0.8902648E-01
       -1   -1    0    0    0  501  0.00000000000E+00  0.00000000000E+00  0.56397250579E+03  0.56397250581E+03  0.50400001928E-02 0.  1.
        1   -1    0    0  501    0  0.00000000000E+00  0.00000000000E+00 -0.96173071576E+03  0.96173071577E+03  0.50400001928E-02 0. -1.
    10030    2    1    2    0    0  0.00000000000E+00  0.00000000000E+00 -0.39775820998E+03  0.15257032216E+04  0.14729422007E+04 0.  0.
        1    1    3    3  502    0  0.57854441915E+03 -0.39141867055E+03  0.42863347632E+02  0.69982818404E+03  0.50400001928E-02 0.  1.
       -1    1    3    3    0  502 -0.57854441915E+03  0.39141867055E+03 -0.44062155761E+03  0.82587503754E+03  0.50400001928E-02 0. -1.
</event>
<event>
 5   0  0.1961098E-03  0.1488445E+04  0.7818609E-02  0.8892173E-01
        2   -1    0    0  501    0  0.00000000000E+00  0.00000000000E+00  0.54668981287E+03  0.54668981288E+03  0.25500000920E-02 0. -1.
       -2   -1    0    0    0  501  0.00000000000E+00  0.00000000000E+00 -0.10131285324E+04  0.10131285324E+04  0.25500000920E-02 0.  1.
    10030    2    1    2    0    0  0.00000000000E+00  0.00000000000E+00 -0.46643871957E+03  0.15598183453E+04  0.14884448902E+04 0.  0.
        2    1    3    3  502    0  0.61079537024E+03 -0.23242436580E+03  0.13990880816E+03  0.66833116397E+03  0.25500000920E-02 0. -1.
       -2    1    3    3    0  502 -0.61079537024E+03  0.23242436580E+03 -0.60634752773E+03  0.89148718135E+03  0.25500000920E-02 0.  1.
</event>
<event>
 5   0  0.1078787E-03  0.1507663E+04  0.7818609E-02  0.8879373E-01
        1   -1    0    0  501    0  0.00000000000E+00  0.00000000000E+00  0.12435265224E+04  0.12435265224E+04  0.50400001928E-02 0. -1.
       -1   -1    0    0    0  501  0.00000000000E+00  0.00000000000E+00 -0.45697632407E+03  0.45697632410E+03  0.50400001928E-02 0.  1.
    10030    2    1    2    0    0  0.00000000000E+00  0.00000000000E+00  0.78655019833E+03  0.17005028465E+04  0.15076633300E+04 0.  0.
        5    1    3    3  502    0 -0.66444869599E+03 -0.17556589764E+03  0.43943341281E+02  0.68867159173E+03  0.46999998093E+01 0.  1.
       -5    1    3    3    0  502  0.66444869599E+03  0.17556589764E+03  0.74260685705E+03  0.10118312548E+04  0.46999998093E+01 0. -1.
</event>
<event>
 5   0  0.2111533E-03  0.1523519E+04  0.7818609E-02  0.8868962E-01
       -2   -1    0    0    0  501  0.00000000000E+00  0.00000000000E+00  0.57061006897E+03  0.57061006898E+03  0.25500000920E-02 0. -1.
        2   -1    0    0  501    0  0.00000000000E+00  0.00000000000E+00 -0.10169417203E+04  0.10169417203E+04  0.25500000920E-02 0.  1.
    10030    2    1    2    0    0  0.00000000000E+00  0.00000000000E+00 -0.44633165137E+03  0.15875517893E+04  0.15235185397E+04 0.  0.
        5    1    3    3  502    0 -0.39604192171E+03  0.44887151917E+02  0.45326408664E+03  0.60360126109E+03  0.46999998093E+01 0. -1.
       -5    1    3    3    0  502  0.39604192171E+03 -0.44887151917E+02 -0.89959573802E+03  0.98395052823E+03  0.46999998093E+01 0.  1.
</event>
<event>
 5   0  0.1078018E-03  0.1503515E+04  0.7818609E-02  0.8882119E-01
       -1   -1    0    0    0  501  0.00000000000E+00  0.00000000000E+00  0.71435455682E+03  0.71435455683E+03  0.50400001928E-02 0.  1.
        1   -1    0    0  501    0  0.00000000000E+00  0.00000000000E+00 -0.79111881418E+03  0.79111881419E+03  0.50400001928E-02 0. -1.
    10030    2    1    2    0    0  0.00000000000E+00  0.00000000000E+00 -0.76764257359E+02  0.15054733710E+04  0.15035149882E+04 0.  0.
        4    1    3    3  502    0  0.50641154024E+02 -0.71963115957E+03  0.17332691268E+03  0.74194161756E+03  0.12699999809E+01 0. -1.
       -4    1    3    3    0  502 -0.50641154024E+02  0.71963115957E+03 -0.25009117004E+03  0.76353175346E+03  0.12699999809E+01 0.  1.
</event>
<event>
 5   0  0.1993623E-03  0.1429485E+04  0.7818609E-02  0.8932748E-01
        2   -1    0    0  501    0  0.00000000000E+00  0.00000000000E+00  0.65294913258E+03  0.65294913258E+03  0.25500000920E-02 0.  1.
       -2   -1    0    0    0  501  0.00000000000E+00  0.00000000000E+00 -0.78238386817E+03  0.78238386818E+03  0.25500000920E-02 0. -1.
    10030    2    1    2    0    0  0.00000000000E+00  0.00000000000E+00 -0.12943473560E+03  0.14353330008E+04  0.14294850374E+04 0.  0.
        4    1    3    3  502    0 -0.33395533842E+03 -0.66884113881E+02 -0.69566339251E+03  0.77456363285E+03  0.12699999809E+01 0. -1.
       -4    1    3    3    0  502  0.33395533842E+03  0.66884113881E+02  0.56622865692E+03  0.66076936791E+03  0.12699999809E+01 0.  1.
</event>
<event>
 5   0  0.1077140E-03  0.1438096E+04  0.7818609E-02  0.8926695E-01
        1   -1    0    0  501    0  0.00000000000E+00  0.00000000000E+00  0.11469309265E+04  0.11469309265E+04  0.50400001928E-02 0.  1.
       -1   -1    0    0    0  501  0.00000000000E+00  0.00000000000E+00 -0.45079412849E+03  0.45079412852E+03  0.50400001928E-02 0. -1.
    10030    2    1    2    0    0  0.00000000000E+00  0.00000000000E+00  0.69613679800E+03  0.15977250550E+04  0.14380955844E+04 0.  0.
        1    1    3    3  502    0 -0.26166939961E+02 -0.55493978971E+02  0.11440175117E+04  0.11456615371E+04  0.50400001928E-02 0.  1.
       -1    1    3    3    0  502  0.26166939961E+02  0.55493978971E+02 -0.44788071374E+03  0.45206351790E+03  0.50400001928E-02 0. -1.
</event>
<event>
 5   0  0.2094566E-03  0.1526149E+04  0.7818609E-02  0.8867248E-01
        2   -1    0    0  501    0  0.00000000000E+00  0.00000000000E+00  0.11815715856E+04  0.11815715856E+04  0.25500000920E-02 0. -1.
       -2   -1    0    0    0  501  0.00000000000E+00  0.00000000000E+00 -0.49280342102E+03  0.49280342103E+03  0.25500000920E-02 0.  1.
    10030    2    1    2    0    0  0.00000000000E+00  0.00000000000E+00  0.68876816461E+03  0.16743750067E+04  0.15261487733E+04 0.  0.
        1    1    3    3  502    0  0.14605062774E+02 -0.56561539274E+03  0.90611651432E+03  0.10682608380E+04  0.50400001928E-02 0. -1.
       -1    1    3    3    0  502 -0.14605062774E+02  0.56561539274E+03 -0.21734834971E+03  0.60611416871E+03  0.50400001928E-02 0.  1.
</event>
<event>
 5   0  0.1078018E-03  0.1393074E+04  0.7818609E-02  0.8958847E-01
       -1   -1    0    0    0  501  0.00000000000E+00  0.00000000000E+00  0.76166472192E+03  0.76166472194E+03  0.50400001928E-02 0. -1.
        1   -1    0    0  501    0  0.00000000000E+00  0.00000000000E+00 -0.63697801783E+03  0.63697801785E+03  0.50400001928E-02 0.  1.
    10030    2    1    2    0    0  0.00000000000E+00  0.00000000000E+00  0.12468670409E+03  0.13986427398E+04  0.13930738456E+04 0.  0.
        4    1    3    3  502    0  0.25671874844E+03  0.57493396564E+03  0.36137369109E+03  0.72597943370E+03  0.12699999809E+01 0. -1.
       -4    1    3    3    0  502 -0.25671874844E+03 -0.57493396564E+03 -0.23668698699E+03  0.67266330609E+03  0.12699999809E+01 0.  1.
</event>
<event>
 5   0  0.2150197E-03  0.1528320E+04  0.7818609E-02  0.8865836E-01
        2   -1    0    0  501    0  0.00000000000E+00  0.00000000000E+00  0.15316954841E+04  0.15316954841E+04  0.25500000920E-02 0. -1.
       -2   -1    0    0    0  501  0.00000000000E+00  0.00000000000E+00 -0.38123777046E+03  0.38123777047E+03  0.25500000920E-02 0.  1.
    10030    2    1    2    0    0  0.00000000000E+00  0.00000000000E+00  0.11504577136E+04  0.19129332545E+04  0.15283195626E+04 0.  0.
        3    1    3    3  502    0  0.75858882082E+03 -0.49699130968E+01  0.69034370579E+03  0.10256978802E+04  0.10100000352E+00 0.  1.
       -3    1    3    3    0  502 -0.75858882082E+03  0.49699130968E+01  0.46011400783E+03  0.88723537436E+03  0.10100000352E+00 0. -1.
</event>
<event>
 5   0  0.1087761E-03  0.1571870E+04  0.7818609E-02  0.8838018E-01
        1   -1    0    0  501    0  0.00000000000E+00  0.00000000000E+00  0.80439492828E+03  0.80439492829E+03  0.50400001928E-02 0.  1.
       -1   -1    0    0    0  501  0.00000000000E+00  0.00000000000E+00 -0.76789883131E+03  0.76789883133E+03  0.50400001928E-02 0. -1.
    10030    2    1    2    0    0  0.00000000000E+00  0.00000000000E+00  0.36496096969E+02  0.15722937596E+04  0.15718701287E+04 0.  0.
        3    1    3    3  502    0 -0.32333004434E+03 -0.40399764604E+03  0.60996263054E+03  0.79988176404E+03  0.10100000352E+00 0.  1.
       -3    1    3    3    0  502  0.32333004434E+03  0.40399764604E+03 -0.57346653357E+03  0.77241199558E+03  0.10100000352E+00 0. -1.
</event>
<event>
 5   0  0.2094566E-03  0.1499561E+04  0.7818609E-02  0.8884745E-01
        2   -1    0    0  501    0  0.00000000000E+00  0.00000000000E+00  0.16049862732E+04  0.16049862732E+04  0.25500000920E-02 0. -1.
       -2   -1    0    0    0  501  0.00000000000E+00  0.00000000000E+00 -0.35026534097E+03  0.35026534098E+03  0.25500000920E-02 0.  1.
    10030    2    1    2    0    0  0.00000000000E+00  0.00000000000E+00  0.12547209322E+04  0.19552516142E+04  0.14995613549E+04 0.  0.
        1    1    3    3  502    0 -0.51464253339E+03 -0.34174471738E+03  0.73364376170E+02  0.62211632413E+03  0.50400001928E-02 0.  1.
       -1    1    3    3    0  502  0.51464253339E+03  0.34174471738E+03  0.11813565560E+04  0.13331352900E+04  0.50400001928E-02 0. -1.
</event>
<event>
 5   0  0.1078018E-03  0.1462722E+04  0.7818609E-02  0.8909628E-01
       -1   -1    0    0    0  501  0.00000000000E+00  0.00000000000E+00  0.23056647046E+03  0.23056647052E+03  0.50400001928E-02 0. -1.
        1   -1    0    0  501    0  0.00000000000E+00  0.00000000000E+00 -0.23198904981E+04  0.23198904981E+04  0.50400001928E-02 0.  1.
    10030    2    1    2    0    0  0.00000000000E+00  0.00000000000E+00 -0.20893240276E+04  0.25504569686E+04  0.14627220708E+04 0.  0.
        4    1    3    3  502    0  0.53704059652E+02 -0.97901543068E+02 -0.23049374321E+04  0.23076410069E+04  0.12699999809E+01 0.  1.
       -4    1    3    3    0  502 -0.53704059652E+02  0.97901543068E+02  0.21561340447E+03  0.24281596167E+03  0.12699999809E+01 0. -1.
</event>
<event>
 5   0  0.2150197E-03  0.1426891E+04  0.7818609E-02  0.8934580E-01
       -2   -1    0    0    0  501  0.00000000000E+00  0.00000000000E+00  0.10438772593E+04  0.10438772593E+04  0.25500000920E-02 0.  1.
        2   -1    0    0  501    0  0.00000000000E+00  0.00000000000E+00 -0.48760961565E+03  0.48760961566E+03  0.25500000920E-02 0. -1.
    10030    2    1    2    0    0  0.00000000000E+00  0.00000000000E+00  0.55626764366E+03  0.15314868750E+04  0.14268911510E+04 0.  0.
        3    1    3    3  502    0  0.68510763615E+03  0.12847754463E+03  0.44135224854E+03  0.82502773898E+03  0.10100000352E+00 0. -1.
       -3    1    3    3    0  502 -0.68510763615E+03 -0.12847754463E+03  0.11491539512E+03  0.70645913599E+03  0.10100000352E+00 0.  1.
</event>
<event>
 5   0  0.1078018E-03  0.1511111E+04  0.7818609E-02  0.8877097E-01
       -1   -1    0    0    0  501  0.00000000000E+00  0.00000000000E+00  0.83696122352E+03  0.83696122354E+03  0.50400001928E-02 0. -1.
        1   -1    0    0  501    0  0.00000000000E+00  0.00000000000E+00 -0.68206794989E+03  0.68206794991E+03  0.50400001928E-02 0.  1.
    10030    2    1    2    0    0  0.00000000000E+00  0.00000000000E+00  0.15489327363E+03  0.15190291734E+04  0.15111114134E+04 0.  0.
        4    1    3    3  502    0 -0.57707721395E+03  0.15843821372E+02 -0.41254319404E+03  0.70955101112E+03  0.12699999809E+01 0.  1.
       -4    1    3    3    0  502  0.57707721395E+03 -0.15843821372E+02  0.56743646767E+03  0.80947816232E+03  0.12699999809E+01 0. -1.
</event>
<event>
 5   0  0.7468375E-04  0.1491051E+04  0.7818609E-02  0.8890426E-01
        3   -1    0    0  501    0  0.00000000000E+00  0.00000000000E+00  0.41924185369E+03  0.41924186585E+03  0.10100000352E+00 0. -1.
       -3   -1    0    0    0  501  0.00000000000E+00  0.00000000000E+00 -0.13257467590E+04  0.13257467629E+04  0.10100000352E+00 0.  1.
    10030    2    1    2    0    0  0.00000000000E+00  0.00000000000E+00 -0.90650490534E+03  0.17449886287E+04  0.14910513643E+04 0.  0.
        1    1    3    3  502    0 -0.76204091045E+02 -0.51463090928E+03  0.17169231954E+03  0.54784148153E+03  0.50400001928E-02 0. -1.
       -1    1    3    3    0  502  0.76204091045E+02  0.51463090928E+03 -0.10781972249E+04  0.11971471472E+04  0.50400001928E-02 0.  1.
</event>
<event>
 5   0  0.1078018E-03  0.1384049E+04  0.7818609E-02  0.8965446E-01
        1   -1    0    0  501    0  0.00000000000E+00  0.00000000000E+00  0.63767376372E+03  0.63767376374E+03  0.50400001928E-02 0. -1.
       -1   -1    0    0    0  501  0.00000000000E+00  0.00000000000E+00 -0.75100815309E+03  0.75100815310E+03  0.50400001928E-02 0.  1.
    10030    2    1    2    0    0  0.00000000000E+00  0.00000000000E+00 -0.11333438936E+03  0.13886819168E+04  0.13840494147E+04 0.  0.
        4    1    3    3  502    0 -0.21194626241E+02  0.68572391353E+03 -0.14769065520E+03  0.70176964903E+03  0.12699999809E+01 0.  1.
       -4    1    3    3    0  502  0.21194626241E+02 -0.68572391353E+03  0.34356265840E+02  0.68691226781E+03  0.12699999809E+01 0. -1.
</event>
<event>
 5   0  0.1078787E-03  0.1435805E+04  0.7818609E-02  0.8928301E-01
       -1   -1    0    0    0  501  0.00000000000E+00  0.00000000000E+00  0.10466501074E+04  0.10466501074E+04  0.50400001928E-02 0. -1.
        1   -1    0    0  501    0  0.00000000000E+00  0.00000000000E+00 -0.49241288797E+03  0.49241288800E+03  0.50400001928E-02 0.  1.
    10030    2    1    2    0    0  0.00000000000E+00  0.00000000000E+00  0.55423721945E+03  0.15390629954E+04  0.14358050036E+04 0.  0.
        5    1    3    3  502    0 -0.39818502261E+03 -0.27405495528E+02 -0.36250170135E+03  0.53919564807E+03  0.46999998093E+01 0.  1.
       -5    1    3    3    0  502  0.39818502261E+03  0.27405495528E+02  0.91673892081E+03  0.99986734737E+03  0.46999998093E+01 0. -1.
</event>
<event>
 5   0  0.1961098E-03  0.1538529E+04  0.7818609E-02  0.8859228E-01
       -2   -1    0    0    0  501  0.00000000000E+00  0.00000000000E+00  0.30332279818E+03  0.30332279819E+03  0.25500000920E-02 0. -1.
        2   -1    0    0  501    0  0.00000000000E+00  0.00000000000E+00 -0.19509517716E+04  0.19509517716E+04  0.25500000920E-02 0.  1.
    10030    2    1    2    0    0  0.00000000000E+00  0.00000000000E+00 -0.16476289735E+04  0.22542745698E+04  0.15385293634E+04 0.  0.
        2    1    3    3  502    0 -0.64881605550E+03  0.38403300764E+03 -0.60004161634E+03  0.96358371001E+03  0.25500000920E-02 0.  1.
       -2    1    3    3    0  502  0.64881605550E+03 -0.38403300764E+03 -0.10475873571E+04  0.12906908598E+04  0.25500000920E-02 0. -1.
</event>
<event>
 5   0  0.1993623E-03  0.1643689E+04  0.7818609E-02  0.8794148E-01
       -2   -1    0    0    0  501  0.00000000000E+00  0.00000000000E+00  0.75753973562E+03  0.75753973562E+03  0.25500000920E-02 0. -1.
        2   -1    0    0  501    0  0.00000000000E+00  0.00000000000E+00 -0.89160832983E+03  0.89160832983E+03  0.25500000920E-02 0.  1.
    10030    2    1    2    0    0  0.00000000000E+00  0.00000000000E+00 -0.13406859421E+03  0.16491480655E+04  0.16436894335E+04 0.  0.
        4    1    3    3  502    0 -0.19780859455E+03  0.50978639563E+02 -0.86573076122E+03  0.88950459560E+03  0.12699999809E+01 0.  1.
       -4    1    3    3    0  502  0.19780859455E+03 -0.50978639563E+02  0.73166216700E+03  0.75964346986E+03  0.12699999809E+01 0. -1.
</event>
<event>
 5   0  0.2111533E-03  0.1333416E+04  0.7818609E-02  0.9003478E-01
        2   -1    0    0  501    0  0.00000000000E+00  0.00000000000E+00  0.45613006203E+03  0.45613006203E+03  0.25500000920E-02 0.  1.
       -2   -1    0    0    0  501  0.00000000000E+00  0.00000000000E+00 -0.97450130647E+03  0.97450130647E+03  0.25500000920E-02 0. -1.
    10030    2    1    2    0    0  0.00000000000E+00  0.00000000000E+00 -0.51837124444E+03  0.14306313685E+04  0.13334156762E+04 0.  0.
        5    1    3    3  502    0 -0.38267216302E+03 -0.25717345035E+03  0.25748477067E+03  0.52810667960E+03  0.46999998093E+01 0.  1.
       -5    1    3    3    0  502  0.38267216302E+03  0.25717345035E+03 -0.77585601510E+03  0.90252468891E+03  0.46999998093E+01 0. -1.
</event>
<event>
 5   0  0.7468375E-04  0.1509920E+04  0.7818609E-02  0.8877883E-01
       -4   -1    0    0    0  501  0.00000000000E+00  0.00000000000E+00  0.45220444572E+03  0.45220622909E+03  0.12699999809E+01 0.  1.
        4   -1    0    0  501    0  0.00000000000E+00  0.00000000000E+00 -0.12604091506E+04  0.12604097905E+04  0.12699999809E+01 0. -1.
    10030    2    1    2    0    0  0.00000000000E+00  0.00000000000E+00 -0.80820470491E+03  0.17126160195E+04  0.15099201255E+04 0.  0.
        3    1    3    3  502    0  0.63567150073E+03  0.27458578961E+03 -0.74529848428E+03  0.10173226890E+04  0.10100000352E+00 0.  1.
       -3    1    3    3    0  502 -0.63567150073E+03 -0.27458578961E+03 -0.62906220635E+02  0.69529333054E+03  0.10100000352E+00 0. -1.
</event>
<event>
 5   0  0.1078018E-03  0.1517255E+04  0.7818609E-02  0.8873059E-01
       -1   -1    0    0    0  501  0.00000000000E+00  0.00000000000E+00  0.32064177858E+03  0.32064177862E+03  0.50400001928E-02 0. -1.
        1   -1    0    0  501    0  0.00000000000E+00  0.00000000000E+00 -0.17948862343E+04  0.17948862343E+04  0.50400001928E-02 0.  1.
    10030    2    1    2    0    0  0.00000000000E+00  0.00000000000E+00 -0.14742444557E+04  0.21155280129E+04  0.15172547769E+04 0.  0.
        4    1    3    3  502    0  0.35252644472E+03  0.80426557295E+02 -0.16670051921E+04  0.17057699870E+04  0.12699999809E+01 0.  1.
       -4    1    3    3    0  502 -0.35252644472E+03 -0.80426557295E+02  0.19276073640E+03  0.40975802584E+03  0.12699999809E+01 0. -1.
</event>
<event>
 5   0  0.1077140E-03  0.1477487E+04  0.7818609E-02  0.8899564E-01
       -1   -1    0    0    0  501  0.00000000000E+00  0.00000000000E+00  0.33222016041E+03  0.33222016045E+03  0.50400001928E-02 0. -1.
        1   -1    0    0  501    0  0.00000000000E+00  0.00000000000E+00 -0.16427106738E+04  0.16427106738E+04  0.50400001928E-02 0.  1.
    10030    2    1    2    0    0  0.00000000000E+00  0.00000000000E+00 -0.13104905133E+04  0.19749308342E+04  0.14774865192E+04 0.  0.
        1    1    3    3  502    0  0.53619595501E+03 -0.45849451678E+03 -0.94815354500E+03  0.11818284431E+04  0.50400001928E-02 0.  1.
       -1    1    3    3    0  502 -0.53619595501E+03  0.45849451678E+03 -0.36233696833E+03  0.79310239107E+03  0.50400001928E-02 0. -1.
</event>
<event>
 5   0  0.2150197E-03  0.1468269E+04  0.7818609E-02  0.8905832E-01
        2   -1    0    0  501    0  0.00000000000E+00  0.00000000000E+00  0.17271589596E+04  0.17271589596E+04  0.25500000920E-02 0. -1.
       -2   -1    0    0    0  501  0.00000000000E+00  0.00000000000E+00 -0.31204611580E+03  0.31204611581E+03  0.25500000920E-02 0.  1.
    10030    2    1    2    0    0  0.00000000000E+00  0.00000000000E+00  0.14151128438E+04  0.20392050754E+04  0.14682687012E+04 0.  0.
        3    1    3    3  502    0 -0.60013154329E+02  0.69406758550E+02  0.17191641057E+04  0.17216109053E+04  0.10100000352E+00 0. -1.
       -3    1    3    3    0  502  0.60013154329E+02 -0.69406758550E+02 -0.30405126188E+03  0.31759417010E+03  0.10100000352E+00 0.  1.
</event>
<event>
 5   0  0.2094566E-03  0.1484547E+04  0.7818609E-02  0.8894795E-01
        2   -1    0    0  501    0  0.00000000000E+00  0.00000000000E+00  0.12534149874E+04  0.12534149874E+04  0.25500000920E-02 0. -1.
       -2   -1    0    0    0  501  0.00000000000E+00  0.00000000000E+00 -0.43957492687E+03  0.43957492687E+03  0.25500000920E-02 0.  1.
    10030    2    1    2    0    0  0.00000000000E+00  0.00000000000E+00  0.81384006049E+03  0.16929899142E+04  0.14845468014E+04 0.  0.
        1    1    3    3  502    0  0.46357559703E+03 -0.41976312254E+03 -0.49052898091E+02  0.62730343538E+03  0.50400001928E-02 0. -1.
       -1    1    3    3    0  502 -0.46357559703E+03  0.41976312254E+03  0.86289295858E+03  0.10656864788E+04  0.50400001928E-02 0.  1.
</event>
<event>
 5   0  0.2111533E-03  0.1565988E+04  0.7818609E-02  0.8841720E-01
        2   -1    0    0  501    0  0.00000000000E+00  0.00000000000E+00  0.15924872401E+04  0.15924872401E+04  0.25500000920E-02 0. -1.
       -2   -1    0    0    0  501  0.00000000000E+00  0.00000000000E+00 -0.38498223794E+03  0.38498223794E+03  0.25500000920E-02 0.  1.
    10030    2    1    2    0    0  0.00000000000E+00  0.00000000000E+00  0.12075050022E+04  0.19774694781E+04  0.15659876137E+04 0.  0.
        5    1    3    3  502    0 -0.25597301394E+03  0.46605672167E+03  0.13295123709E+04  0.14319065214E+04  0.46999998093E+01 0. -1.
       -5    1    3    3    0  502  0.25597301394E+03 -0.46605672167E+03 -0.12200736870E+03  0.54556295667E+03  0.46999998093E+01 0.  1.
</event>
<event>
 5   0  0.1087761E-03  0.9890324E+03  0.7818609E-02  0.9320656E-01
        1   -1    0    0  501    0  0.00000000000E+00  0.00000000000E+00  0.44708363110E+03  0.44708363113E+03  0.50400001928E-02 0. -1.
       -1   -1    0    0    0  501  0.00000000000E+00  0.00000000000E+00 -0.54698108432E+03  0.54698108435E+03  0.50400001928E-02 0.  1.
    10030    2    1    2    0    0  0.00000000000E+00  0.00000000000E+00 -0.99897453217E+02  0.99406471548E+03  0.98903243496E+03 0.  0.
        3    1    3    3  502    0 -0.21255219864E+03  0.17179754935E+03  0.36428103890E+03  0.45540478765E+03  0.10100000352E+00 0. -1.
       -3    1    3    3    0  502  0.21255219864E+03 -0.17179754935E+03 -0.46417849211E+03  0.53865992783E+03  0.10100000352E+00 0.  1.
</event>
<event>
 5   0  0.1961098E-03  0.1500067E+04  0.7818609E-02  0.8884408E-01
        2   -1    0    0  501    0  0.00000000000E+00  0.00000000000E+00  0.21364989955E+04  0.21364989955E+04  0.25500000920E-02 0. -1.
       -2   -1    0    0    0  501  0.00000000000E+00  0.00000000000E+00 -0.26330478517E+03  0.26330478519E+03  0.25500000920E-02 0.  1.
    10030    2    1    2    0    0  0.00000000000E+00  0.00000000000E+00  0.18731942103E+04  0.23998037807E+04  0.15000672106E+04 0.  0.
        2    1    3    3  502    0  0.55147900454E+02  0.33597231261E+03  0.20057499565E+04  0.20344413420E+04  0.25500000920E-02 0. -1.
       -2    1    3    3    0  502 -0.55147900454E+02 -0.33597231261E+03 -0.13255574621E+03  0.36536243872E+03  0.25500000920E-02 0.  1.
</event>
<event>
 5   0  0.1077140E-03  0.1807001E+04  0.7818609E-02  0.8702585E-01
        1   -1    0    0  501    0  0.00000000000E+00  0.00000000000E+00  0.14435719127E+04  0.14435719127E+04  0.50400001928E-02 0.  1.
       -1   -1    0    0    0  501  0.00000000000E+00  0.00000000000E+00 -0.56548150262E+03  0.56548150265E+03  0.50400001928E-02 0. -1.
    10030    2    1    2    0    0  0.00000000000E+00  0.00000000000E+00  0.87809041007E+03  0.20090534153E+04  0.18070010674E+04 0.  0.
        1    1    3    3  502    0 -0.47127512285E+03 -0.32126961166E+03 -0.34001907793E+03  0.66402362773E+03  0.50400001928E-02 0. -1.
       -1    1    3    3    0  502  0.47127512285E+03  0.32126961166E+03  0.12181094880E+04  0.13450297876E+04  0.50400001928E-02 0.  1.
</event>
<event>
 5   0  0.2150197E-03  0.1379300E+04  0.7818609E-02  0.8968940E-01
        2   -1    0    0  501    0  0.00000000000E+00  0.00000000000E+00  0.99314353778E+03  0.99314353778E+03  0.25500000920E-02 0.  1.
       -2   -1    0    0    0  501  0.00000000000E+00  0.00000000000E+00 -0.47890034951E+03  0.47890034951E+03  0.25500000920E-02 0. -1.
    10030    2    1    2    0    0  0.00000000000E+00  0.00000000000E+00  0.51424318827E+03  0.14720438873E+04  0.13792995140E+04 0.  0.
        3    1    3    3  502    0 -0.25631155422E+03 -0.54365542087E+03  0.61803178815E+03  0.86210215800E+03  0.10100000352E+00 0.  1.
       -3    1    3    3    0  502  0.25631155422E+03  0.54365542087E+03 -0.10378859988E+03  0.60994172929E+03  0.10100000352E+00 0. -1.
</event>
<event>
 5   0  0.1961098E-03  0.1503185E+04  0.7818609E-02  0.8882338E-01
       -2   -1    0    0    0  501  0.00000000000E+00  0.00000000000E+00  0.62354741442E+03  0.62354741443E+03  0.25500000920E-02 0. -1.
        2   -1    0    0  501    0  0.00000000000E+00  0.00000000000E+00 -0.90593156025E+03  0.90593156026E+03  0.25500000920E-02 0.  1.
    10030    2    1    2    0    0  0.00000000000E+00  0.00000000000E+00 -0.28238414583E+03  0.15294789747E+04  0.15031849947E+04 0.  0.
        2    1    3    3  502    0 -0.36226747261E+03  0.60926588081E+03  0.11307644725E+03  0.71779448184E+03  0.25500000920E-02 0. -1.
       -2    1    3    3    0  502  0.36226747261E+03 -0.60926588081E+03 -0.39546059308E+03  0.81168449284E+03  0.25500000920E-02 0.  1.
</event>
<event>
 5   0  0.1077140E-03  0.1520999E+04  0.7818609E-02  0.8870608E-01
        1   -1    0    0  501    0  0.00000000000E+00  0.00000000000E+00  0.82131804322E+03  0.82131804323E+03  0.50400001928E-02 0.  1.
       -1   -1    0    0    0  501  0.00000000000E+00  0.00000000000E+00 -0.70418479328E+03  0.70418479330E+03  0.50400001928E-02 0. -1.
    10030    2    1    2    0    0  0.00000000000E+00  0.00000000000E+00  0.11713324994E+03  0.15255028365E+04  0.15209992459E+04 0.  0.
        1    1    3    3  502    0  0.13692965599E+03 -0.11583973800E+03  0.79980232962E+03  0.81966599422E+03  0.50400001928E-02 0.  1.
       -1    1    3    3    0  502 -0.13692965599E+03  0.11583973800E+03 -0.68266907968E+03  0.70583684231E+03  0.50400001928E-02 0. -1.
</event>
<event>
 5   0  0.2111533E-03  0.1495889E+04  0.7818609E-02  0.8887192E-01
        2   -1    0    0  501    0  0.00000000000E+00  0.00000000000E+00  0.13634055309E+04  0.13634055309E+04  0.25500000920E-02 0. -1.
       -2   -1    0    0    0  501  0.00000000000E+00  0.00000000000E+00 -0.41031124417E+03  0.41031124418E+03  0.25500000920E-02 0.  1.
    10030    2    1    2    0    0  0.00000000000E+00  0.00000000000E+00  0.95309428671E+03  0.17737167751E+04  0.14958885249E+04 0.  0.
        5    1    3    3  502    0 -0.77477945356E+02  0.67500407787E+03  0.10580054696E+03  0.68764030051E+03  0.46999998093E+01 0.  1.
       -5    1    3    3    0  502  0.77477945356E+02 -0.67500407787E+03  0.84729373975E+03  0.10860764746E+04  0.46999998093E+01 0. -1.
</event>
<event>
 5   0  0.1961098E-03  0.1304364E+04  0.7818609E-02  0.9026111E-01
       -2   -1    0    0    0  501  0.00000000000E+00  0.00000000000E+00  0.69872046827E+03  0.69872046827E+03  0.25500000920E-02 0.  1.
        2   -1    0    0  501    0  0.00000000000E+00  0.00000000000E+00 -0.60874362415E+03  0.60874362416E+03  0.25500000920E-02 0. -1.
    10030    2    1    2    0    0  0.00000000000E+00  0.00000000000E+00  0.89976844117E+02  0.13074640924E+04  0.13043644125E+04 0.  0.
        2    1    3    3  502    0  0.24928004212E+03  0.26075099340E+02  0.64851655840E+03  0.69526554404E+03  0.25500000920E-02 0.  1.
       -2    1    3    3    0  502 -0.24928004212E+03 -0.26075099340E+02 -0.55853971429E+03  0.61219854839E+03  0.25500000920E-02 0. -1.
</event>
<event>
 5   0  0.7468375E-04  0.1502297E+04  0.7818609E-02  0.8882927E-01
        4   -1    0    0  501    0  0.00000000000E+00  0.00000000000E+00  0.86240120586E+03  0.86240214098E+03  0.12699999809E+01 0. -1.
       -4   -1    0    0    0  501  0.00000000000E+00  0.00000000000E+00 -0.65424584752E+03  0.65424708016E+03  0.12699999809E+01 0.  1.
    10030    2    1    2    0    0  0.00000000000E+00  0.00000000000E+00  0.20815535835E+03  0.15166492211E+04  0.15022969769E+04 0.  0.
        1    1    3    3  502    0 -0.30569175770E+03  0.68398786982E+03  0.49364023364E+02  0.75081533257E+03  0.50400001928E-02 0.  1.
       -1    1    3    3    0  502  0.30569175770E+03 -0.68398786982E+03  0.15879133498E+03  0.76583388857E+03  0.50400001928E-02 0. -1.
</event>
<event>
 5   0  0.1077140E-03  0.1520393E+04  0.7818609E-02  0.8871004E-01
        1   -1    0    0  501    0  0.00000000000E+00  0.00000000000E+00  0.79066876154E+03  0.79066876156E+03  0.50400001928E-02 0.  1.
       -1   -1    0    0    0  501  0.00000000000E+00  0.00000000000E+00 -0.73089877279E+03  0.73089877281E+03  0.50400001928E-02 0. -1.
    10030    2    1    2    0    0  0.00000000000E+00  0.00000000000E+00  0.59769988755E+02  0.15215675344E+04  0.15203931433E+04 0.  0.
        1    1    3    3  502    0  0.25478542753E+03 -0.23395074850E+03  0.70734972621E+03  0.78739583565E+03  0.50400001928E-02 0.  1.
       -1    1    3    3    0  502 -0.25478542753E+03  0.23395074850E+03 -0.64757973746E+03  0.73417169872E+03  0.50400001928E-02 0. -1.
</event>
<event>
 5   0  0.1993623E-03  0.1513645E+04  0.7818609E-02  0.8875429E-01
       -2   -1    0    0    0  501  0.00000000000E+00  0.00000000000E+00  0.69229511007E+03  0.69229511007E+03  0.25500000920E-02 0. -1.
        2   -1    0    0  501    0  0.00000000000E+00  0.00000000000E+00 -0.82736450956E+03  0.82736450956E+03  0.25500000920E-02 0.  1.
    10030    2    1    2    0    0  0.00000000000E+00  0.00000000000E+00 -0.13506939949E+03  0.15196596196E+04  0.15136451423E+04 0.  0.
        4    1    3    3  502    0  0.22632763455E+03  0.27414525628E+02  0.65699969367E+03  0.69543221435E+03  0.12699999809E+01 0. -1.
       -4    1    3    3    0  502 -0.22632763455E+03 -0.27414525628E+02 -0.79206909316E+03  0.82422740528E+03  0.12699999809E+01 0.  1.
</event>
<event>
 5   0  0.2150197E-03  0.1533156E+04  0.7818609E-02  0.8862699E-01
        2   -1    0    0  501    0  0.00000000000E+00  0.00000000000E+00  0.11435237682E+04  0.11435237682E+04  0.25500000920E-02 0.  1.
       -2   -1    0    0    0  501  0.00000000000E+00  0.00000000000E+00 -0.51388671097E+03  0.51388671098E+03  0.25500000920E-02 0. -1.
    10030    2    1    2    0    0  0.00000000000E+00  0.00000000000E+00  0.62963705727E+03  0.16574104792E+04  0.15331557888E+04 0.  0.
        3    1    3    3  502    0 -0.54063883727E+03 -0.42086781183E+03  0.68651821305E+03  0.96991099305E+03  0.10100000352E+00 0.  1.
       -3    1    3    3    0  502  0.54063883727E+03  0.42086781183E+03 -0.56881155776E+02  0.68749948617E+03  0.10100000352E+00 0. -1.
</event>
<event>
 5   0  0.7468375E-04  0.1521478E+04  0.7818609E-02  0.8870294E-01
        4   -1    0    0  501    0  0.00000000000E+00  0.00000000000E+00  0.11302091567E+04  0.11302098703E+04  0.12699999809E+01 0. -1.
       -4   -1    0    0    0  501  0.00000000000E+00  0.00000000000E+00 -0.51204875583E+03  0.51205033077E+03  0.12699999809E+01 0.  1.
    10030    2    1    2    0    0  0.00000000000E+00  0.00000000000E+00  0.61816040089E+03  0.16422602010E+04  0.15214783228E+04 0.  0.
        3    1    3    3  502    0  0.67338117683E+03  0.22740192572E+03  0.60185063382E+03  0.93133132706E+03  0.10100000352E+00 0. -1.
       -3    1    3    3    0  502 -0.67338117683E+03 -0.22740192572E+03  0.16309767065E+02  0.71092887396E+03  0.10100000352E+00 0.  1.
</event>
<event>
 5   0  0.2150197E-03  0.1532444E+04  0.7818609E-02  0.8863160E-01
        2   -1    0    0  501    0  0.00000000000E+00  0.00000000000E+00  0.10001342605E+04  0.10001342605E+04  0.25500000920E-02 0.  1.
       -2   -1    0    0    0  501  0.00000000000E+00  0.00000000000E+00 -0.58701758744E+03  0.58701758745E+03  0.25500000920E-02 0. -1.
    10030    2    1    2    0    0  0.00000000000E+00  0.00000000000E+00  0.41311667305E+03  0.15871518480E+04  0.15324443229E+04 0.  0.
        3    1    3    3  502    0 -0.47092459973E+03  0.46484323290E+02  0.83070426003E+03  0.95603365463E+03  0.10100000352E+00 0.  1.
       -3    1    3    3    0  502  0.47092459973E+03 -0.46484323290E+02 -0.41758758698E+03  0.63111819332E+03  0.10100000352E+00 0. -1.
</event>
<event>
 5   0  0.1087761E-03  0.1529597E+04  0.7818609E-02  0.8865007E-01
       -1   -1    0    0    0  501  0.00000000000E+00  0.00000000000E+00  0.46343901986E+03  0.46343901989E+03  0.50400001928E-02 0. -1.
        1   -1    0    0  501    0  0.00000000000E+00  0.00000000000E+00 -0.12621216714E+04  0.12621216714E+04  0.50400001928E-02 0.  1.
    10030    2    1    2    0    0  0.00000000000E+00  0.00000000000E+00 -0.79868265151E+03  0.17255606913E+04  0.15295965878E+04 0.  0.
        3    1    3    3  502    0  0.11019420778E+03  0.42002675578E+03  0.31087951339E+03  0.53405179622E+03  0.10100000352E+00 0. -1.
       -3    1    3    3    0  502 -0.11019420778E+03 -0.42002675578E+03 -0.11095621649E+04  0.11915088951E+04  0.10100000352E+00 0.  1.
</event>
<event>
 5   0  0.1087761E-03  0.1493838E+04  0.7818609E-02  0.8888561E-01
        1   -1    0    0  501    0  0.00000000000E+00  0.00000000000E+00  0.63038356346E+03  0.63038356348E+03  0.50400001928E-02 0. -1.
       -1   -1    0    0    0  501  0.00000000000E+00  0.00000000000E+00 -0.88499751200E+03  0.88499751201E+03  0.50400001928E-02 0.  1.
    10030    2    1    2    0    0  0.00000000000E+00  0.00000000000E+00 -0.25461394854E+03  0.15153810755E+04  0.14938378564E+04 0.  0.
        3    1    3    3  502    0 -0.66038486639E+03  0.34781630081E+03 -0.98551675319E+02  0.75285907962E+03  0.10100000352E+00 0. -1.
       -3    1    3    3    0  502  0.66038486639E+03 -0.34781630081E+03 -0.15606227322E+03  0.76252199587E+03  0.10100000352E+00 0.  1.
</event>
<event>
 5   0  0.1993623E-03  0.1518515E+04  0.7818609E-02  0.8872233E-01
       -2   -1    0    0    0  501  0.00000000000E+00  0.00000000000E+00  0.52292546375E+03  0.52292546376E+03  0.25500000920E-02 0.  1.
        2   -1    0    0  501    0  0.00000000000E+00  0.00000000000E+00 -0.11023982446E+04  0.11023982446E+04  0.25500000920E-02 0. -1.
    10030    2    1    2    0    0  0.00000000000E+00  0.00000000000E+00 -0.57947278083E+03  0.16253237083E+04  0.15185152134E+04 0.  0.
        4    1    3    3  502    0  0.61613835696E+03 -0.41889146050E+03 -0.44621800511E+03  0.86845187062E+03  0.12699999809E+01 0. -1.
       -4    1    3    3    0  502 -0.61613835696E+03  0.41889146050E+03 -0.13325477572E+03  0.75687183773E+03  0.12699999809E+01 0.  1.
</event>
<event>
 5   0  0.1078787E-03  0.1503135E+04  0.7818609E-02  0.8882371E-01
        1   -1    0    0  501    0  0.00000000000E+00  0.00000000000E+00  0.32229018041E+03  0.32229018045E+03  0.50400001928E-02 0. -1.
       -1   -1    0    0    0  501  0.00000000000E+00  0.00000000000E+00 -0.17526251827E+04  0.17526251827E+04  0.50400001928E-02 0.  1.
    10030    2    1    2    0    0  0.00000000000E+00  0.00000000000E+00 -0.14303350022E+04  0.20749153631E+04  0.15031352386E+04 0.  0.
        5    1    3    3  502    0  0.40436836079E+03  0.50158491363E+02 -0.15868956622E+04  0.16383801690E+04  0.46999998093E+01 0.  1.
       -5    1    3    3    0  502 -0.40436836079E+03 -0.50158491363E+02  0.15656065995E+03  0.43653519412E+03  0.46999998093E+01 0. -1.
</event>
<event>
 5   0  0.1078787E-03  0.1531113E+04  0.7818609E-02  0.8864023E-01
       -1   -1    0    0    0  501  0.00000000000E+00  0.00000000000E+00  0.38723127852E+03  0.38723127856E+03  0.50400001928E-02 0. -1.
        1   -1    0    0  501    0  0.00000000000E+00  0.00000000000E+00 -0.15135048451E+04  0.15135048451E+04  0.50400001928E-02 0.  1.
    10030    2    1    2    0    0  0.00000000000E+00  0.00000000000E+00 -0.11262735666E+04  0.19007361237E+04  0.15311125579E+04 0.  0.
        5    1    3    3  502    0  0.35681782531E+03 -0.44127683479E+03 -0.12009962392E+04  0.13283291241E+04  0.46999998093E+01 0.  1.
       -5    1    3    3    0  502 -0.35681782531E+03  0.44127683479E+03  0.74722672591E+02  0.57240699959E+03  0.46999998093E+01 0. -1.
</event>
<event>
 5   0  0.7468375E-04  0.1013461E+04  0.7818609E-02  0.9293903E-01
        3   -1    0    0  501    0  0.00000000000E+00  0.00000000000E+00  0.12672551930E+04  0.12672551970E+04  0.10100000352E+00 0. -1.
       -3   -1    0    0    0  501  0.00000000000E+00  0.00000000000E+00 -0.20262355969E+03  0.20262358486E+03  0.10100000352E+00 0.  1.
    10030    2    1    2    0    0  0.00000000000E+00  0.00000000000E+00  0.10646316333E+04  0.14698787819E+04  0.10134609607E+04 0.  0.
        3    1    3    3  502    0  0.24286263326E+02  0.33478822274E+03  0.10828834743E+04  0.11337149579E+04  0.10100000352E+00 0. -1.
       -3    1    3    3    0  502 -0.24286263326E+02 -0.33478822274E+03 -0.18251840950E+02  0.33616382401E+03  0.10100000352E+00 0.  1.
</event>
<event>
 5   0  0.1087761E-03  0.1623586E+04  0.7818609E-02  0.8806188E-01
       -1   -1    0    0    0  501  0.00000000000E+00  0.00000000000E+00  0.11109974810E+04  0.11109974810E+04  0.50400001928E-02 0. -1.
        1   -1    0    0  501    0  0.00000000000E+00  0.00000000000E+00 -0.59316767594E+03  0.59316767596E+03  0.50400001928E-02 0.  1.
    10030    2    1    2    0    0  0.00000000000E+00  0.00000000000E+00  0.51782980507E+03  0.17041651570E+04  0.16235859002E+04 0.  0.
        3    1    3    3  502    0  0.27660998744E+03  0.76290096152E+03  0.28183488419E+03  0.85904707344E+03  0.10100000352E+00 0.  1.
       -3    1    3    3    0  502 -0.27660998744E+03 -0.76290096152E+03  0.23599492088E+03  0.84511808354E+03  0.10100000352E+00 0. -1.
</event>
<event>
 5   0  0.2094566E-03  0.1467905E+04  0.7818609E-02  0.8906081E-01
        2   -1    0    0  501    0  0.00000000000E+00  0.00000000000E+00  0.75626075239E+03  0.75626075239E+03  0.25500000920E-02 0.  1.
       -2   -1    0    0    0  501  0.00000000000E+00  0.00000000000E+00 -0.71230263722E+03  0.71230263723E+03  0.25500000920E-02 0. -1.
    10030    2    1    2    0    0  0.00000000000E+00  0.00000000000E+00  0.43958115170E+02  0.14685633896E+04  0.14679053489E+04 0.  0.
        1    1    3    3  502    0  0.38448112030E+03 -0.43232325974E+03 -0.42983982076E+03  0.72075752117E+03  0.50400001928E-02 0. -1.
       -1    1    3    3    0  502 -0.38448112030E+03  0.43232325974E+03  0.47379793593E+03  0.74780586846E+03  0.50400001928E-02 0.  1.
</event>
<event>
 5   0  0.1069697E-03  0.1522718E+04  0.7818609E-02  0.8869485E-01
       -1   -1    0    0    0  501  0.00000000000E+00  0.00000000000E+00  0.40750339315E+03  0.40750339318E+03  0.50400001928E-02 0. -1.
        1   -1    0    0  501    0  0.00000000000E+00  0.00000000000E+00 -0.14224849082E+04  0.14224849082E+04  0.50400001928E-02 0.  1.
    10030    2    1    2    0    0  0.00000000000E+00  0.00000000000E+00 -0.10149815150E+04  0.18299883014E+04  0.15227178686E+04 0.  0.
        2    1    3    3  502    0  0.30226035697E+03  0.69861377419E+03 -0.52629783980E+03  0.92542527795E+03  0.25500000920E-02 0.  1.
       -2    1    3    3    0  502 -0.30226035697E+03 -0.69861377419E+03 -0.48868367522E+03  0.90456302341E+03  0.25500000920E-02 0. -1.
</event>
<event>
 5   0  0.1087761E-03  0.1523121E+04  0.7818609E-02  0.8869221E-01
       -1   -1    0    0    0  501  0.00000000000E+00  0.00000000000E+00  0.74625298407E+03  0.74625298409E+03  0.50400001928E-02 0. -1.
        1   -1    0    0  501    0  0.00000000000E+00  0.00000000000E+00 -0.77718237713E+03  0.77718237715E+03  0.50400001928E-02 0.  1.
    10030    2    1    2    0    0  0.00000000000E+00  0.00000000000E+00 -0.30929393062E+02  0.15234353612E+04  0.15231213584E+04 0.  0.
        3    1    3    3  502    0  0.22246603456E+03 -0.34873266709E+03  0.62409581544E+03  0.74873306771E+03  0.10100000352E+00 0. -1.
       -3    1    3    3    0  502 -0.22246603456E+03  0.34873266709E+03 -0.65502520850E+03  0.77470229353E+03  0.10100000352E+00 0.  1.
</event>
<event>
 5   0  0.1069697E-03  0.1233830E+04  0.7818609E-02  0.9083750E-01
        1   -1    0    0  501    0  0.00000000000E+00  0.00000000000E+00  0.21519750360E+04  0.21519750360E+04  0.50400001928E-02 0. -1.
       -1   -1    0    0    0  501  0.00000000000E+00  0.00000000000E+00 -0.17685353775E+03  0.17685353782E+03  0.50400001928E-02 0.  1.
    10030    2    1    2    0    0  0.00000000000E+00  0.00000000000E+00  0.19751214983E+04  0.23288285738E+04  0.12338304557E+04 0.  0.
        2    1    3    3  502    0 -0.84376742121E+02  0.36192868986E+03  0.19169836264E+04  0.19526745850E+04  0.25500000920E-02 0. -1.
       -2    1    3    3    0  502  0.84376742121E+02 -0.36192868986E+03  0.58137871891E+02  0.37615398882E+03  0.25500000920E-02 0.  1.
</event>
<event>
 5   0  0.1087761E-03  0.1483981E+04  0.7818609E-02  0.8895175E-01
       -1   -1    0    0    0  501  0.00000000000E+00  0.00000000000E+00  0.43810819507E+03  0.43810819510E+03  0.50400001928E-02 0.  1.
        1   -1    0    0  501    0  0.00000000000E+00  0.00000000000E+00 -0.12566535555E+04  0.12566535555E+04  0.50400001928E-02 0. -1.
    10030    2    1    2    0    0  0.00000000000E+00  0.00000000000E+00 -0.81854536047E+03  0.16947617506E+04  0.14839814299E+04 0.  0.
        3    1    3    3  502    0  0.21869913471E+03  0.46153619353E+03  0.20542045601E+03  0.55049300032E+03  0.10100000352E+00 0.  1.
       -3    1    3    3    0  502 -0.21869913471E+03 -0.46153619353E+03 -0.10239658165E+04  0.11442687503E+04  0.10100000352E+00 0. -1.
</event>
<event>
 5   0  0.2111533E-03  0.1494810E+04  0.7818609E-02  0.8887911E-01
        2   -1    0    0  501    0  0.00000000000E+00  0.00000000000E+00  0.17335984965E+04  0.17335984965E+04  0.25500000920E-02 0.  1.
       -2   -1    0    0    0  501  0.00000000000E+00  0.00000000000E+00 -0.32222833112E+03  0.32222833113E+03  0.25500000920E-02 0. -1.
    10030    2    1    2    0    0  0.00000000000E+00  0.00000000000E+00  0.14113701653E+04  0.20558268276E+04  0.14948104232E+04 0.  0.
        5    1    3    3  502    0 -0.56059043385E+03 -0.77525994816E+02  0.34285365191E+02  0.56698279574E+03  0.46999998093E+01 0.  1.
       -5    1    3    3    0  502  0.56059043385E+03  0.77525994816E+02  0.13770848001E+04  0.14888440318E+04  0.46999998093E+01 0. -1.
</event>
<event>
 5   0  0.2094566E-03  0.1448905E+04  0.7818609E-02  0.8919160E-01
       -2   -1    0    0    0  501  0.00000000000E+00  0.00000000000E+00  0.59902200776E+03  0.59902200777E+03  0.25500000920E-02 0.  1.
        2   -1    0    0  501    0  0.00000000000E+00  0.00000000000E+00 -0.87614700871E+03  0.87614700871E+03  0.25500000920E-02 0. -1.
    10030    2    1    2    0    0  0.00000000000E+00  0.00000000000E+00 -0.27712500095E+03  0.14751690165E+04  0.14489048834E+04 0.  0.
        1    1    3    3  502    0  0.19142553737E+03  0.75152602352E+02 -0.84580512405E+03  0.87044698741E+03  0.50400001928E-02 0. -1.
       -1    1    3    3    0  502 -0.19142553737E+03 -0.75152602352E+02  0.56868012310E+03  0.60472202906E+03  0.50400001928E-02 0.  1.
</event>
<event>
 5   0  0.1077140E-03  0.1456629E+04  0.7818609E-02  0.8913818E-01
       -1   -1    0    0    0  501  0.00000000000E+00  0.00000000000E+00  0.51803719998E+03  0.51803720000E+03  0.50400001928E-02 0. -1.
        1   -1    0    0  501    0  0.00000000000E+00  0.00000000000E+00 -0.10239458598E+04  0.10239458598E+04  0.50400001928E-02 0.  1.
    10030    2    1    2    0    0  0.00000000000E+00  0.00000000000E+00 -0.50590865979E+03  0.15419830598E+04  0.14566290484E+04 0.  0.
        1    1    3    3  502    0  0.65860033618E+03  0.22420372316E+03 -0.24875610535E+02  0.69616126603E+03  0.50400001928E-02 0. -1.
       -1    1    3    3    0  502 -0.65860033618E+03 -0.22420372316E+03 -0.48103304925E+03  0.84582179376E+03  0.50400001928E-02 0.  1.
</event>
<event>
 5   0  0.1961098E-03  0.1250121E+04  0.7818609E-02  0.9070083E-01
        2   -1    0    0  501    0  0.00000000000E+00  0.00000000000E+00  0.41431282052E+03  0.41431282053E+03  0.25500000920E-02 0.  1.
       -2   -1    0    0    0  501  0.00000000000E+00  0.00000000000E+00 -0.94300859085E+03  0.94300859085E+03  0.25500000920E-02 0. -1.
    10030    2    1    2    0    0  0.00000000000E+00  0.00000000000E+00 -0.52869577033E+03  0.13573214114E+04  0.12501208726E+04 0.  0.
        2    1    3    3  502    0 -0.38298042940E+03  0.16691885746E+03 -0.76915214992E+03  0.87528906312E+03  0.25500000920E-02 0. -1.
       -2    1    3    3    0  502  0.38298042940E+03 -0.16691885746E+03  0.24045637959E+03  0.48203234826E+03  0.25500000920E-02 0.  1.
</event>
<event>
 5   0  0.2111533E-03  0.1559540E+04  0.7818609E-02  0.8845797E-01
        2   -1    0    0  501    0  0.00000000000E+00  0.00000000000E+00  0.21117673656E+04  0.21117673656E+04  0.25500000920E-02 0.  1.
       -2   -1    0    0    0  501  0.00000000000E+00  0.00000000000E+00 -0.28792987581E+03  0.28792987582E+03  0.25500000920E-02 0. -1.
    10030    2    1    2    0    0  0.00000000000E+00  0.00000000000E+00  0.18238374898E+04  0.23996972414E+04  0.15595395671E+04 0.  0.
        5    1    3    3  502    0 -0.35156954009E+02 -0.52159863664E+03  0.21694581064E+02  0.52325318346E+03  0.46999998093E+01 0. -1.
       -5    1    3    3    0  502  0.35156954009E+02  0.52159863664E+03  0.18021429087E+04  0.18764440579E+04  0.46999998093E+01 0.  1.
</event>
<event>
 5   0  0.1069697E-03  0.1478328E+04  0.7818609E-02  0.8898994E-01
        1   -1    0    0  501    0  0.00000000000E+00  0.00000000000E+00  0.24199170908E+04  0.24199170908E+04  0.50400001928E-02 0.  1.
       -1   -1    0    0    0  501  0.00000000000E+00  0.00000000000E+00 -0.22577780281E+03  0.22577780287E+03  0.50400001928E-02 0. -1.
    10030    2    1    2    0    0  0.00000000000E+00  0.00000000000E+00  0.21941392880E+04  0.26456948936E+04  0.14783281961E+04 0.  0.
        2    1    3    3  502    0 -0.14812615390E+03  0.36138068157E+03  0.22201768312E+04  0.22542676231E+04  0.25500000920E-02 0.  1.
       -2    1    3    3    0  502  0.14812615390E+03 -0.36138068157E+03 -0.26037543271E+02  0.39142727057E+03  0.25500000920E-02 0. -1.
</event>
<event>
 5   0  0.1961098E-03  0.1515507E+04  0.7818609E-02  0.8874206E-01
       -2   -1    0    0    0  501  0.00000000000E+00  0.00000000000E+00  0.61234690490E+03  0.61234690491E+03  0.25500000920E-02 0.  1.
        2   -1    0    0  501    0  0.00000000000E+00  0.00000000000E+00 -0.93768834496E+03  0.93768834497E+03  0.25500000920E-02 0. -1.
    10030    2    1    2    0    0  0.00000000000E+00  0.00000000000E+00 -0.32534144006E+03  0.15500352499E+04  0.15155072495E+04 0.  0.
        2    1    3    3  502    0 -0.53120769469E+03  0.48661540871E+03 -0.40300165488E+03  0.82546138900E+03  0.25500000920E-02 0. -1.
       -2    1    3    3    0  502  0.53120769469E+03 -0.48661540871E+03  0.77660214818E+02  0.72457386087E+03  0.25500000920E-02 0.  1.
</event>
<event>
 5   0  0.2150197E-03  0.1489808E+04  0.7818609E-02  0.8891259E-01
       -2   -1    0    0    0  501  0.00000000000E+00  0.00000000000E+00  0.39931795115E+03  0.39931795115E+03  0.25500000920E-02 0. -1.
        2   -1    0    0  501    0  0.00000000000E+00  0.00000000000E+00 -0.13895743481E+04  0.13895743481E+04  0.25500000920E-02 0.  1.
    10030    2    1    2    0    0  0.00000000000E+00  0.00000000000E+00 -0.99025639696E+03  0.17888922993E+04  0.14898080167E+04 0.  0.
        3    1    3    3  502    0 -0.58389232222E+03 -0.21421585320E+03 -0.28729837227E+01  0.62195413010E+03  0.10100000352E+00 0. -1.
       -3    1    3    3    0  502  0.58389232222E+03  0.21421585320E+03 -0.98738341324E+03  0.11669381692E+04  0.10100000352E+00 0.  1.
</event>
<event>
 5   0  0.7468375E-04  0.1480887E+04  0.7818609E-02  0.8897263E-01
        3   -1    0    0  501    0  0.00000000000E+00  0.00000000000E+00  0.13377708971E+04  0.13377709009E+04  0.10100000352E+00 0. -1.
       -3   -1    0    0    0  501  0.00000000000E+00  0.00000000000E+00 -0.40982838232E+03  0.40982839476E+03  0.10100000352E+00 0.  1.
    10030    2    1    2    0    0  0.00000000000E+00  0.00000000000E+00  0.92794251481E+03  0.17475992957E+04  0.14808868922E+04 0.  0.
        1    1    3    3  502    0  0.56234529606E+03  0.48078268363E+03  0.49882480011E+03  0.89230622665E+03  0.50400001928E-02 0.  1.
       -1    1    3    3    0  502 -0.56234529606E+03 -0.48078268363E+03  0.42911771470E+03  0.85529306906E+03  0.50400001928E-02 0. -1.
</event>
<event>
 5   0  0.1078787E-03  0.1651965E+04  0.7818609E-02  0.8789245E-01
        1   -1    0    0  501    0  0.00000000000E+00  0.00000000000E+00  0.10992652270E+04  0.10992652270E+04  0.50400001928E-02 0.  1.
       -1   -1    0    0    0  501  0.00000000000E+00  0.00000000000E+00 -0.62063888826E+03  0.62063888828E+03  0.50400001928E-02 0. -1.
    10030    2    1    2    0    0  0.00000000000E+00  0.00000000000E+00  0.47862633875E+03  0.17199041153E+04  0.16519645861E+04 0.  0.
        5    1    3    3  502    0 -0.16066610447E+03 -0.34251862870E+03 -0.52511197953E+03  0.64722275082E+03  0.46999998093E+01 0. -1.
       -5    1    3    3    0  502  0.16066610447E+03  0.34251862870E+03  0.10037383183E+04  0.10726813645E+04  0.46999998093E+01 0.  1.
</event>
<event>
 5   0  0.2094566E-03  0.1565458E+04  0.7818609E-02  0.8842054E-01
       -2   -1    0    0    0  501  0.00000000000E+00  0.00000000000E+00  0.11189176961E+04  0.11189176961E+04  0.25500000920E-02 0.  1.
        2   -1    0    0  501    0  0.00000000000E+00  0.00000000000E+00 -0.54755131898E+03  0.54755131898E+03  0.25500000920E-02 0. -1.
    10030    2    1    2    0    0  0.00000000000E+00  0.00000000000E+00  0.57136637713E+03  0.16664690151E+04  0.15654582209E+04 0.  0.
        1    1    3    3  502    0  0.43851993576E+03 -0.64833433810E+03  0.28007926830E+03  0.83131314472E+03  0.50400001928E-02 0.  1.
       -1    1    3    3    0  502 -0.43851993576E+03  0.64833433810E+03  0.29128710883E+03  0.83515587037E+03  0.50400001928E-02 0. -1.
</event>
<event>
 5   0  0.1078018E-03  0.1503487E+04  0.7818609E-02  0.8882137E-01
       -1   -1    0    0    0  501  0.00000000000E+00  0.00000000000E+00  0.10520795635E+04  0.10520795635E+04  0.50400001928E-02 0.  1.
        1   -1    0    0  501    0  0.00000000000E+00  0.00000000000E+00 -0.53714403855E+03  0.53714403857E+03  0.50400001928E-02 0. -1.
    10030    2    1    2    0    0  0.00000000000E+00  0.00000000000E+00  0.51493552494E+03  0.15892236021E+04  0.15034869679E+04 0.  0.
        4    1    3    3  502    0 -0.44172559147E+03 -0.45218534325E+03 -0.17257858208E+03  0.65526945809E+03  0.12699999809E+01 0. -1.
       -4    1    3    3    0  502  0.44172559147E+03  0.45218534325E+03  0.68751410702E+03  0.93395414398E+03  0.12699999809E+01 0.  1.
</event>
<event>
 5   0  0.1069697E-03  0.1487270E+04  0.7818609E-02  0.8892963E-01
        1   -1    0    0  501    0  0.00000000000E+00  0.00000000000E+00  0.11371781328E+04  0.11371781328E+04  0.50400001928E-02 0.  1.
       -1   -1    0    0    0  501  0.00000000000E+00  0.00000000000E+00 -0.48628539585E+03  0.48628539588E+03  0.50400001928E-02 0. -1.
    10030    2    1    2    0    0  0.00000000000E+00  0.00000000000E+00  0.65089273695E+03  0.16234635287E+04  0.14872701416E+04 0.  0.
        2    1    3    3  502    0  0.35253386108E+03  0.56715746983E+03  0.68258487774E+03  0.95491875787E+03  0.25500000920E-02 0. -1.
       -2    1    3    3    0  502 -0.35253386108E+03 -0.56715746983E+03 -0.31692140794E+02  0.66854477082E+03  0.25500000920E-02 0.  1.
</event>
<event>
 5   0  0.1993623E-03  0.1503075E+04  0.7818609E-02  0.8882411E-01
        2   -1    0    0  501    0  0.00000000000E+00  0.00000000000E+00  0.12366805821E+04  0.12366805821E+04  0.25500000920E-02 0.  1.
       -2   -1    0    0    0  501  0.00000000000E+00  0.00000000000E+00 -0.45671334160E+03  0.45671334160E+03  0.25500000920E-02 0. -1.
    10030    2    1    2    0    0  0.00000000000E+00  0.00000000000E+00  0.77996724053E+03  0.16933939237E+04  0.15030748766E+04 0.  0.
        4    1    3    3  502    0 -0.43197769118E+01 -0.62173711311E+03  0.86561364155E+03  0.10657693407E+04  0.12699999809E+01 0.  1.
       -4    1    3    3    0  502  0.43197769118E+01  0.62173711311E+03 -0.85646401015E+02  0.62762458301E+03  0.12699999809E+01 0. -1.
</event>
<event>
 5   0  0.1961098E-03  0.1496354E+04  0.7818609E-02  0.8886881E-01
        2   -1    0    0  501    0  0.00000000000E+00  0.00000000000E+00  0.10368462414E+04  0.10368462414E+04  0.25500000920E-02 0.  1.
       -2   -1    0    0    0  501  0.00000000000E+00  0.00000000000E+00 -0.53987649185E+03  0.53987649185E+03  0.25500000920E-02 0. -1.
    10030    2    1    2    0    0  0.00000000000E+00  0.00000000000E+00  0.49696974953E+03  0.15767227332E+04  0.14963541177E+04 0.  0.
        2    1    3    3  502    0 -0.53855139875E+03 -0.32125877556E+02 -0.29771822116E+03  0.61620274287E+03  0.25500000920E-02 0.  1.
       -2    1    3    3    0  502  0.53855139875E+03  0.32125877556E+02  0.79468797069E+03  0.96051999036E+03  0.25500000920E-02 0. -1.
</event>
<event>
 5   0  0.2111533E-03  0.1426527E+04  0.7818609E-02  0.8934838E-01
       -2   -1    0    0    0  501  0.00000000000E+00  0.00000000000E+00  0.47828357515E+03  0.47828357516E+03  0.25500000920E-02 0.  1.
        2   -1    0    0  501    0  0.00000000000E+00  0.00000000000E+00 -0.10636885380E+04  0.10636885380E+04  0.25500000920E-02 0. -1.
    10030    2    1    2    0    0  0.00000000000E+00  0.00000000000E+00 -0.58540496285E+03  0.15419721132E+04  0.14265269108E+04 0.  0.
        5    1    3    3  502    0 -0.42277282914E+03 -0.21261585078E+03 -0.86953737497E+03  0.98997964703E+03  0.46999998093E+01 0. -1.
       -5    1    3    3    0  502  0.42277282914E+03  0.21261585078E+03  0.28413241211E+03  0.55199246614E+03  0.46999998093E+01 0.  1.
</event>
<event>
 5   0  0.1069697E-03  0.1427874E+04  0.7818609E-02  0.8933886E-01
       -1   -1    0    0    0  501  0.00000000000E+00  0.00000000000E+00  0.12459831485E+04  0.12459831485E+04  0.50400001928E-02 0.  1.
        1   -1    0    0  501    0  0.00000000000E+00  0.00000000000E+00 -0.40907928399E+03  0.40907928402E+03  0.50400001928E-02 0. -1.
    10030    2    1    2    0    0  0.00000000000E+00  0.00000000000E+00  0.83690386453E+03  0.16550624325E+04  0.14278737959E+04 0.  0.
        2    1    3    3  502    0  0.81650934050E+02 -0.25159792266E+03 -0.35018511163E+03  0.43885988895E+03  0.25500000920E-02 0. -1.
       -2    1    3    3    0  502 -0.81650934050E+02  0.25159792266E+03  0.11870889762E+04  0.12162025436E+04  0.25500000920E-02 0.  1.
</event>
<event>
 5   0  0.1993623E-03  0.9313522E+03  0.7818609E-02  0.9387217E-01
        2   -1    0    0  501    0  0.00000000000E+00  0.00000000000E+00  0.11443291733E+04  0.11443291733E+04  0.25500000920E-02 0. -1.
       -2   -1    0    0    0  501  0.00000000000E+00  0.00000000000E+00 -0.18950335351E+03  0.18950335352E+03  0.25500000920E-02 0.  1.
    10030    2    1    2    0    0  0.00000000000E+00  0.00000000000E+00  0.95482581979E+03  0.13338325268E+04  0.93135216941E+03 0.  0.
        4    1    3    3  502    0 -0.12345054039E+02  0.29935933502E+03  0.98795686440E+03  0.10323898443E+04  0.12699999809E+01 0. -1.
       -4    1    3    3    0  502  0.12345054039E+02 -0.29935933502E+03 -0.33131044609E+02  0.30144268251E+03  0.12699999809E+01 0.  1.
</event>
<event>
 5   0  0.2150197E-03  0.1468686E+04  0.7818609E-02  0.8905547E-01
        2   -1    0    0  501    0  0.00000000000E+00  0.00000000000E+00  0.42775705573E+03  0.42775705573E+03  0.25500000920E-02 0. -1.
       -2   -1    0    0    0  501  0.00000000000E+00  0.00000000000E+00 -0.12606686510E+04  0.12606686510E+04  0.25500000920E-02 0.  1.
    10030    2    1    2    0    0  0.00000000000E+00  0.00000000000E+00 -0.83291159530E+03  0.16884257068E+04  0.14686863660E+04 0.  0.
        3    1    3    3  502    0  0.60626489883E+03 -0.41096962644E+03 -0.35555066518E+03  0.81416794774E+03  0.10100000352E+00 0. -1.
       -3    1    3    3    0  502 -0.60626489883E+03  0.41096962644E+03 -0.47736093012E+03  0.87425775903E+03  0.10100000352E+00 0.  1.
</event>
<event>
 5   0  0.1087761E-03  0.1470668E+04  0.7818609E-02  0.8904196E-01
        1   -1    0    0  501    0  0.00000000000E+00  0.00000000000E+00  0.46189801435E+03  0.46189801438E+03  0.50400001928E-02 0.  1.
       -1   -1    0    0    0  501  0.00000000000E+00  0.00000000000E+00 -0.11706389558E+04  0.11706389558E+04  0.50400001928E-02 0. -1.
    10030    2    1    2    0    0  0.00000000000E+00  0.00000000000E+00 -0.70874094146E+03  0.16325369702E+04  0.14706676161E+04 0.  0.
        3    1    3    3  502    0  0.14110369352E+03  0.13707743995E+03 -0.11408854205E+04  0.11577219138E+04  0.10100000352E+00 0. -1.
       -3    1    3    3    0  502 -0.14110369352E+03 -0.13707743995E+03  0.43214447900E+03  0.47481505641E+03  0.10100000352E+00 0.  1.
</event>
<event>
 5   0  0.2150197E-03  0.1515024E+04  0.7818609E-02  0.8874523E-01
        2   -1    0    0  501    0  0.00000000000E+00  0.00000000000E+00  0.11440511063E+04  0.11440511063E+04  0.25500000920E-02 0.  1.
       -2   -1    0    0    0  501  0.00000000000E+00  0.00000000000E+00 -0.50157208307E+03  0.50157208307E+03  0.25500000920E-02 0. -1.
    10030    2    1    2    0    0  0.00000000000E+00  0.00000000000E+00  0.64247902324E+03  0.16456231894E+04  0.15150235596E+04 0.  0.
        3    1    3    3  502    0 -0.74608825184E+02  0.72508996510E+03  0.97307349950E+02  0.73538470534E+03  0.10100000352E+00 0.  1.
       -3    1    3    3    0  502  0.74608825184E+02 -0.72508996510E+03  0.54517167329E+03  0.91023848405E+03  0.10100000352E+00 0. -1.
</event>
<event>
 5   0  0.1069697E-03  0.1454096E+04  0.7818609E-02  0.8915566E-01
       -1   -1    0    0    0  501  0.00000000000E+00  0.00000000000E+00  0.58385216921E+03  0.58385216923E+03  0.50400001928E-02 0. -1.
        1   -1    0    0  501    0  0.00000000000E+00  0.00000000000E+00 -0.90536418923E+03  0.90536418924E+03  0.50400001928E-02 0.  1.
    10030    2    1    2    0    0  0.00000000000E+00  0.00000000000E+00 -0.32151202002E+03  0.14892163585E+04  0.14540960709E+04 0.  0.
        2    1    3    3  502    0  0.52635147564E+03 -0.20939469373E+03 -0.62751220227E+03  0.84537777217E+03  0.25500000920E-02 0.  1.
       -2    1    3    3    0  502 -0.52635147564E+03  0.20939469373E+03  0.30600018225E+03  0.64383858631E+03  0.25500000920E-02 0. -1.
</event>
<event>
 5   0  0.1077140E-03  0.1379519E+04  0.7818609E-02  0.8968779E-01
        1   -1    0    0  501    0  0.00000000000E+00  0.00000000000E+00  0.11599349420E+04  0.11599349420E+04  0.50400001928E-02 0. -1.
       -1   -1    0    0    0  501  0.00000000000E+00  0.00000000000E+00 -0.41016801108E+03  0.41016801111E+03  0.50400001928E-02 0.  1.
    10030    2    1    2    0    0  0.00000000000E+00  0.00000000000E+00  0.74976693093E+03  0.15701029531E+04  0.13795190585E+04 0.  0.
        1    1    3    3  502    0 -0.50001863143E+03 -0.26829378468E+03 -0.71423267720E+02  0.57192785373E+03  0.50400001928E-02 0. -1.
       -1    1    3    3    0  502  0.50001863143E+03  0.26829378468E+03  0.82119019865E+03  0.99817509940E+03  0.50400001928E-02 0.  1.
</event>
<event>
 5   0  0.1993623E-03  0.1500514E+04  0.7818609E-02  0.8884112E-01
        2   -1    0    0  501    0  0.00000000000E+00  0.00000000000E+00  0.23011584941E+04  0.23011584941E+04  0.25500000920E-02 0. -1.
       -2   -1    0    0    0  501  0.00000000000E+00  0.00000000000E+00 -0.24460948643E+03  0.24460948645E+03  0.25500000920E-02 0.  1.
    10030    2    1    2    0    0  0.00000000000E+00  0.00000000000E+00  0.20565490077E+04  0.25457679806E+04  0.15005135087E+04 0.  0.
        4    1    3    3  502    0  0.74675190238E+03 -0.64456633845E+02  0.97224763285E+03  0.12276237754E+04  0.12699999809E+01 0. -1.
       -4    1    3    3    0  502 -0.74675190238E+03  0.64456633845E+02  0.10843013749E+04  0.13181442052E+04  0.12699999809E+01 0.  1.
</event>
<event>
 5   0  0.1993623E-03  0.1513379E+04  0.7818609E-02  0.8875604E-01
       -2   -1    0    0    0  501  0.00000000000E+00  0.00000000000E+00  0.30339209362E+03  0.30339209363E+03  0.25500000920E-02 0. -1.
        2   -1    0    0  501    0  0.00000000000E+00  0.00000000000E+00 -0.18872578399E+04  0.18872578399E+04  0.25500000920E-02 0.  1.
    10030    2    1    2    0    0  0.00000000000E+00  0.00000000000E+00 -0.15838657463E+04  0.21906499335E+04  0.15133791425E+04 0.  0.
        4    1    3    3  502    0  0.66782012229E+03  0.33887685434E+03 -0.94888230926E+03  0.12088012607E+04  0.12699999809E+01 0. -1.
       -4    1    3    3    0  502 -0.66782012229E+03 -0.33887685434E+03 -0.63498343699E+03  0.98184867281E+03  0.12699999809E+01 0.  1.
</event>
<event>
 5   0  0.1993623E-03  0.1530678E+04  0.7818609E-02  0.8864305E-01
        2   -1    0    0  501    0  0.00000000000E+00  0.00000000000E+00  0.10116133939E+04  0.10116133939E+04  0.25500000920E-02 0.  1.
       -2   -1    0    0    0  501  0.00000000000E+00  0.00000000000E+00 -0.57901966164E+03  0.57901966164E+03  0.25500000920E-02 0. -1.
    10030    2    1    2    0    0  0.00000000000E+00  0.00000000000E+00  0.43259373229E+03  0.15906330556E+04  0.15306783399E+04 0.  0.
        4    1    3    3  502    0 -0.73621927893E+02  0.20732106385E+03  0.97804384650E+03  0.10024837108E+04  0.12699999809E+01 0.  1.
       -4    1    3    3    0  502  0.73621927893E+02 -0.20732106385E+03 -0.54545011422E+03  0.58814934479E+03  0.12699999809E+01 0. -1.
</event>
<event>
 5   0  0.1077140E-03  0.1494871E+04  0.7818609E-02  0.8887871E-01
       -1   -1    0    0    0  501  0.00000000000E+00  0.00000000000E+00  0.53388859596E+03  0.53388859598E+03  0.50400001928E-02 0. -1.
        1   -1    0    0  501    0  0.00000000000E+00  0.00000000000E+00 -0.10463973103E+04  0.10463973103E+04  0.50400001928E-02 0.  1.
    10030    2    1    2    0    0  0.00000000000E+00  0.00000000000E+00 -0.51250871430E+03  0.15802859063E+04  0.14948706845E+04 0.  0.
        1    1    3    3  502    0  0.52858285278E+03 -0.28103328393E+03 -0.72935211449E+03  0.94357514056E+03  0.50400001928E-02 0.  1.
       -1    1    3    3    0  502 -0.52858285278E+03  0.28103328393E+03  0.21684340019E+03  0.63671076571E+03  0.50400001928E-02 0. -1.
</event>
<event>
 5   0  0.2111533E-03  0.1448899E+04  0.7818609E-02  0.8919164E-01
        2   -1    0    0  501    0  0.00000000000E+00  0.00000000000E+00  0.76410193633E+03  0.76410193634E+03  0.25500000920E-02 0.  1.
       -2   -1    0    0    0  501  0.00000000000E+00  0.00000000000E+00 -0.68685468633E+03  0.68685468633E+03  0.25500000920E-02 0. -1.
    10030    2    1    2    0    0  0.00000000000E+00  0.00000000000E+00  0.77247250005E+02  0.14509566227E+04  0.14488988865E+04 0.  0.
        5    1    3    3  502    0 -0.46692707049E+03  0.27258806006E+03  0.52146995025E+03  0.75118449043E+03  0.46999998093E+01 0. -1.
       -5    1    3    3    0  502  0.46692707049E+03 -0.27258806006E+03 -0.44422270025E+03  0.69977213224E+03  0.46999998093E+01 0.  1.
</event>
<event>
 5   0  0.2094566E-03  0.1158456E+04  0.7818609E-02  0.9150018E-01
        2   -1    0    0  501    0  0.00000000000E+00  0.00000000000E+00  0.17744790506E+04  0.17744790506E+04  0.25500000920E-02 0. -1.
       -2   -1    0    0    0  501  0.00000000000E+00  0.00000000000E+00 -0.18907232633E+03  0.18907232635E+03  0.25500000920E-02 0.  1.
    10030    2    1    2    0    0  0.00000000000E+00  0.00000000000E+00  0.15854067243E+04  0.19635513770E+04  0.11584556654E+04 0.  0.
        1    1    3    3  502    0  0.52572718268E+03 -0.18915102293E+03  0.53376768287E+03  0.77270636038E+03  0.50400001928E-02 0. -1.
       -1    1    3    3    0  502 -0.52572718268E+03  0.18915102293E+03  0.10516390414E+04  0.11908450166E+04  0.50400001928E-02 0.  1.
</event>
<event>
 5   0  0.1069697E-03  0.1496032E+04  0.7818609E-02  0.8887096E-01
       -1   -1    0    0    0  501  0.00000000000E+00  0.00000000000E+00  0.59963668040E+03  0.59963668042E+03  0.50400001928E-02 0. -1.
        1   -1    0    0  501    0  0.00000000000E+00  0.00000000000E+00 -0.93311144164E+03  0.93311144166E+03  0.50400001928E-02 0.  1.
    10030    2    1    2    0    0  0.00000000000E+00  0.00000000000E+00 -0.33347476125E+03  0.15327481221E+04  0.14960318811E+04 0.  0.
        2    1    3    3  502    0  0.55153972058E+02  0.56153195978E+03  0.33640344168E+03  0.65690743493E+03  0.25500000920E-02 0. -1.
       -2    1    3    3    0  502 -0.55153972058E+02 -0.56153195978E+03 -0.66987820293E+03  0.87584068714E+03  0.25500000920E-02 0.  1.
</event>
<event>
 5   0  0.1077140E-03  0.1465378E+04  0.7818609E-02  0.8907808E-01
       -1   -1    0    0    0  501  0.00000000000E+00  0.00000000000E+00  0.24595125707E+03  0.24595125712E+03  0.50400001928E-02 0.  1.
        1   -1    0    0  501    0  0.00000000000E+00  0.00000000000E+00 -0.21826805126E+04  0.21826805126E+04  0.50400001928E-02 0. -1.
    10030    2    1    2    0    0  0.00000000000E+00  0.00000000000E+00 -0.19367292555E+04  0.24286317697E+04  0.14653777887E+04 0.  0.
        1    1    3    3  502    0 -0.23003635843E+03  0.17485501030E+03 -0.20842640500E+04  0.21041976216E+04  0.50400001928E-02 0. -1.
       -1    1    3    3    0  502  0.23003635843E+03 -0.17485501030E+03  0.14753479447E+03  0.32443414807E+03  0.50400001928E-02 0.  1.
</event>
<event>
 5   0  0.1069697E-03  0.1482669E+04  0.7818609E-02  0.8896060E-01
       -1   -1    0    0    0  501  0.00000000000E+00  0.00000000000E+00  0.11354830125E+04  0.11354830125E+04  0.50400001928E-02 0. -1.
        1   -1    0    0  501    0  0.00000000000E+00  0.00000000000E+00 -0.48400279719E+03  0.48400279721E+03  0.50400001928E-02 0.  1.
    10030    2    1    2    0    0  0.00000000000E+00  0.00000000000E+00  0.65148021532E+03  0.16194858097E+04  0.14826691529E+04 0.  0.
        2    1    3    3  502    0 -0.74571171929E+02  0.63559489300E+03  0.73448425202E+03  0.97417084958E+03  0.25500000920E-02 0. -1.
       -2    1    3    3    0  502  0.74571171929E+02 -0.63559489300E+03 -0.83004036700E+02  0.64531496016E+03  0.25500000920E-02 0.  1.
</event>
<event>
 5   0  0.2150197E-03  0.1497765E+04  0.7818609E-02  0.8885941E-01
        2   -1    0    0  501    0  0.00000000000E+00  0.00000000000E+00  0.14233101073E+04  0.14233101073E+04  0.25500000920E-02 0. -1.
       -2   -1    0    0    0  501  0.00000000000E+00  0.00000000000E+00 -0.39402858742E+03  0.39402858743E+03  0.25500000920E-02 0.  1.
    10030    2    1    2    0    0  0.00000000000E+00  0.00000000000E+00  0.10292815199E+04  0.18173386948E+04  0.14977648294E+04 0.  0.
        3    1    3    3  502    0 -0.73976857554E+03  0.85415176980E+02  0.41855032890E+03  0.85424685299E+03  0.10100000352E+00 0. -1.
       -3    1    3    3    0  502  0.73976857554E+03 -0.85415176980E+02  0.61073119100E+03  0.96309184177E+03  0.10100000352E+00 0.  1.
</event>
<event>
 5   0  0.1069697E-03  0.1304702E+04  0.7818609E-02  0.9025845E-01
       -1   -1    0    0    0  501  0.00000000000E+00  0.00000000000E+00  0.62032373183E+03  0.62032373185E+03  0.50400001928E-02 0. -1.
        1   -1    0    0  501    0  0.00000000000E+00  0.00000000000E+00 -0.68603192317E+03  0.68603192319E+03  0.50400001928E-02 0.  1.
    10030    2    1    2    0    0  0.00000000000E+00  0.00000000000E+00 -0.65708191341E+02  0.13063556550E+04  0.13047020852E+04 0.  0.
        2    1    3    3  502    0  0.14822667208E+03 -0.52021907430E+03  0.33224876249E+03  0.63481357245E+03  0.25500000920E-02 0. -1.
       -2    1    3    3    0  502 -0.14822667208E+03  0.52021907430E+03 -0.39795695384E+03  0.67154208259E+03  0.25500000920E-02 0.  1.
</event>
<event>
 5   0  0.1961098E-03  0.1506906E+04  0.7818609E-02  0.8879873E-01
        2   -1    0    0  501    0  0.00000000000E+00  0.00000000000E+00  0.11311495340E+04  0.11311495340E+04  0.25500000920E-02 0. -1.
       -2   -1    0    0    0  501  0.00000000000E+00  0.00000000000E+00 -0.50187125686E+03  0.50187125686E+03  0.25500000920E-02 0.  1.
    10030    2    1    2    0    0  0.00000000000E+00  0.00000000000E+00  0.62927827713E+03  0.16330207908E+04  0.15069060201E+04 0.  0.
        2    1    3    3  502    0  0.51806490895E+03  0.20114301318E+03  0.86598313294E+03  0.10289686818E+04  0.25500000920E-02 0. -1.
       -2    1    3    3    0  502 -0.51806490895E+03 -0.20114301318E+03 -0.23670485582E+03  0.60405210902E+03  0.25500000920E-02 0.  1.
</event>
<event>
 5   0  0.1087761E-03  0.1597791E+04  0.7818609E-02  0.8821906E-01
        1   -1    0    0  501    0  0.00000000000E+00  0.00000000000E+00  0.81832211630E+03  0.81832211631E+03  0.50400001928E-02 0. -1.
       -1   -1    0    0    0  501  0.00000000000E+00  0.00000000000E+00 -0.77993030608E+03  0.77993030610E+03  0.50400001928E-02 0.  1.
    10030    2    1    2    0    0  0.00000000000E+00  0.00000000000E+00  0.38391810212E+02  0.15982524224E+04  0.15977912488E+04 0.  0.
        3    1    3    3  502    0  0.57142447980E+03 -0.36901890751E+03  0.43828379795E+03  0.80919317098E+03  0.10100000352E+00 0. -1.
       -3    1    3    3    0  502 -0.57142447980E+03  0.36901890751E+03 -0.39989198774E+03  0.78905925143E+03  0.10100000352E+00 0.  1.
</event>
<event>
 5   0  0.1077140E-03  0.1525203E+04  0.7818609E-02  0.8867864E-01
       -1   -1    0    0    0  501  0.00000000000E+00  0.00000000000E+00  0.11342049522E+04  0.11342049523E+04  0.50400001928E-02 0.  1.
        1   -1    0    0  501    0  0.00000000000E+00  0.00000000000E+00 -0.51274806737E+03  0.51274806739E+03  0.50400001928E-02 0. -1.
    10030    2    1    2    0    0  0.00000000000E+00  0.00000000000E+00  0.62145688488E+03  0.16469530197E+04  0.15252034583E+04 0.  0.
        1    1    3    3  502    0  0.36206720727E+03  0.38269632735E+03 -0.28465804702E+03  0.59881495080E+03  0.50400001928E-02 0. -1.
       -1    1    3    3    0  502 -0.36206720727E+03 -0.38269632735E+03  0.90611493190E+03  0.10481380689E+04  0.50400001928E-02 0.  1.
</event>
<event>
 5   0  0.1993623E-03  0.1484119E+04  0.7818609E-02  0.8895083E-01
       -2   -1    0    0    0  501  0.00000000000E+00  0.00000000000E+00  0.45866165406E+03  0.45866165407E+03  0.25500000920E-02 0. -1.
        2   -1    0    0  501    0  0.00000000000E+00  0.00000000000E+00 -0.12005628787E+04  0.12005628787E+04  0.25500000920E-02 0.  1.
    10030    2    1    2    0    0  0.00000000000E+00  0.00000000000E+00 -0.74190122464E+03  0.16592245328E+04  0.14841188035E+04 0.  0.
        4    1    3    3  502    0 -0.25731005557E+03  0.52361337385E+03  0.14170568856E+03  0.60038449767E+03  0.12699999809E+01 0. -1.
       -4    1    3    3    0  502  0.25731005557E+03 -0.52361337385E+03 -0.88360691320E+03  0.10588400351E+04  0.12699999809E+01 0.  1.
</event>
<event>
 5   0  0.2111533E-03  0.1494660E+04  0.7818609E-02  0.8888012E-01
       -2   -1    0    0    0  501  0.00000000000E+00  0.00000000000E+00  0.33679977152E+03  0.33679977153E+03  0.25500000920E-02 0.  1.
        2   -1    0    0  501    0  0.00000000000E+00  0.00000000000E+00 -0.16582612855E+04  0.16582612855E+04  0.25500000920E-02 0. -1.
    10030    2    1    2    0    0  0.00000000000E+00  0.00000000000E+00 -0.13214615140E+04  0.19950610570E+04  0.14946598571E+04 0.  0.
        5    1    3    3  502    0 -0.53636397758E+03 -0.24124506897E+03 -0.45285025239E+02  0.58987992275E+03  0.46999998093E+01 0.  1.
       -5    1    3    3    0  502  0.53636397758E+03  0.24124506897E+03 -0.12761764887E+04  0.14051811343E+04  0.46999998093E+01 0. -1.
</event>
<event>
 5   0  0.1069697E-03  0.1439126E+04  0.7818609E-02  0.8925974E-01
        1   -1    0    0  501    0  0.00000000000E+00  0.00000000000E+00  0.19482958451E+04  0.19482958451E+04  0.50400001928E-02 0. -1.
       -1   -1    0    0    0  501  0.00000000000E+00  0.00000000000E+00 -0.26575582828E+03  0.26575582833E+03  0.50400001928E-02 0.  1.
    10030    2    1    2    0    0  0.00000000000E+00  0.00000000000E+00  0.16825400168E+04  0.22140516735E+04  0.14391260905E+04 0.  0.
        2    1    3    3  502    0  0.72587441614E+02 -0.46688946502E+03  0.63525366962E+01  0.47254107119E+03  0.25500000920E-02 0.  1.
       -2    1    3    3    0  502 -0.72587441614E+02  0.46688946502E+03  0.16761874802E+04  0.17415106023E+04  0.25500000920E-02 0. -1.
</event>
<event>
 5   0  0.1078018E-03  0.1515156E+04  0.7818609E-02  0.8874436E-01
       -1   -1    0    0    0  501  0.00000000000E+00  0.00000000000E+00  0.66598004670E+03  0.66598004672E+03  0.50400001928E-02 0.  1.
        1   -1    0    0  501    0  0.00000000000E+00  0.00000000000E+00 -0.86177431748E+03  0.86177431750E+03  0.50400001928E-02 0. -1.
    10030    2    1    2    0    0  0.00000000000E+00  0.00000000000E+00 -0.19579427078E+03  0.15277543642E+04  0.15151560979E+04 0.  0.
        4    1    3    3  502    0  0.18498691958E+03 -0.60265178039E+03  0.32573138430E+03  0.70958570761E+03  0.12699999809E+01 0.  1.
       -4    1    3    3    0  502 -0.18498691958E+03  0.60265178039E+03 -0.52152565509E+03  0.81816865660E+03  0.12699999809E+01 0. -1.
</event>
<event>
 5   0  0.1077140E-03  0.1465721E+04  0.7818609E-02  0.8907574E-01
       -1   -1    0    0    0  501  0.00000000000E+00  0.00000000000E+00  0.64781030034E+03  0.64781030036E+03  0.50400001928E-02 0. -1.
        1   -1    0    0  501    0  0.00000000000E+00  0.00000000000E+00 -0.82907676519E+03  0.82907676520E+03  0.50400001928E-02 0.  1.
    10030    2    1    2    0    0  0.00000000000E+00  0.00000000000E+00 -0.18126646485E+03  0.14768870656E+04  0.14657209397E+04 0.  0.
        1    1    3    3  502    0  0.59319951053E+02  0.26081828352E+03  0.59686918892E+03  0.65406258288E+03  0.50400001928E-02 0. -1.
       -1    1    3    3    0  502 -0.59319951053E+02 -0.26081828352E+03 -0.77813565377E+03  0.82282448268E+03  0.50400001928E-02 0.  1.
</event>
<event>
 5   0  0.1078787E-03  0.1604771E+04  0.7818609E-02  0.8817622E-01
       -1   -1    0    0    0  501  0.00000000000E+00  0.00000000000E+00  0.55907820503E+03  0.55907820505E+03  0.50400001928E-02 0.  1.
        1   -1    0    0  501    0  0.00000000000E+00  0.00000000000E+00 -0.11515791144E+04  0.11515791144E+04  0.50400001928E-02 0. -1.
    10030    2    1    2    0    0  0.00000000000E+00  0.00000000000E+00 -0.59250090938E+03  0.17106573195E+04  0.16047713660E+04 0.  0.
        5    1    3    3  502    0 -0.21431832380E+03  0.77314782338E+03 -0.28503008682E+03  0.85144238860E+03  0.46999998093E+01 0.  1.
       -5    1    3    3    0  502  0.21431832380E+03 -0.77314782338E+03 -0.30747082256E+03  0.85921493087E+03  0.46999998093E+01 0. -1.
</event>
<event>
 5   0  0.1087761E-03  0.1493513E+04  0.7818609E-02  0.8888778E-01
       -1   -1    0    0    0  501  0.00000000000E+00  0.00000000000E+00  0.19463793495E+04  0.19463793495E+04  0.50400001928E-02 0.  1.
        1   -1    0    0  501    0  0.00000000000E+00  0.00000000000E+00 -0.28650403334E+03  0.28650403338E+03  0.50400001928E-02 0. -1.
    10030    2    1    2    0    0  0.00000000000E+00  0.00000000000E+00  0.16598753162E+04  0.22328833829E+04  0.14935133533E+04 0.  0.
        3    1    3    3  502    0 -0.64534427891E+03 -0.36152910069E+03  0.98293799188E+03  0.12301787005E+04  0.10100000352E+00 0. -1.
       -3    1    3    3    0  502  0.64534427891E+03  0.36152910069E+03  0.67693732428E+03  0.10027046824E+04  0.10100000352E+00 0.  1.
</event>
<event>
 5   0  0.2094566E-03  0.1497292E+04  0.7818609E-02  0.8886256E-01
       -2   -1    0    0    0  501  0.00000000000E+00  0.00000000000E+00  0.44662898549E+03  0.44662898550E+03  0.25500000920E-02 0. -1.
        2   -1    0    0  501    0  0.00000000000E+00  0.00000000000E+00 -0.12548911916E+04  0.12548911916E+04  0.25500000920E-02 0.  1.
    10030    2    1    2    0    0  0.00000000000E+00  0.00000000000E+00 -0.80826220615E+03  0.17015201771E+04  0.14972919286E+04 0.  0.
        1    1    3    3  502    0 -0.30833610085E+02  0.30681914065E+03  0.37110760598E+03  0.48250342157E+03  0.50400001928E-02 0. -1.
       -1    1    3    3    0  502  0.30833610085E+02 -0.30681914065E+03 -0.11793698121E+04  0.12190167556E+04  0.50400001928E-02 0.  1.
</event>
<event>
 5   0  0.1078787E-03  0.1378029E+04  0.7818609E-02  0.8969878E-01
        1   -1    0    0  501    0  0.00000000000E+00  0.00000000000E+00  0.41859374716E+03  0.41859374719E+03  0.50400001928E-02 0.  1.
       -1   -1    0    0    0  501  0.00000000000E+00  0.00000000000E+00 -0.11341323422E+04  0.11341323422E+04  0.50400001928E-02 0. -1.
    10030    2    1    2    0    0  0.00000000000E+00  0.00000000000E+00 -0.71553859505E+03  0.15527260894E+04  0.13780286019E+04 0.  0.
        5    1    3    3  502    0 -0.16565293789E+02  0.49289129352E+03 -0.89991291499E+03  0.10261976324E+04  0.46999998093E+01 0. -1.
       -5    1    3    3    0  502  0.16565293789E+02 -0.49289129352E+03  0.18437431994E+03  0.52652845701E+03  0.46999998093E+01 0.  1.
</event>
<event>
 5   0  0.1077140E-03  0.1510534E+04  0.7818609E-02  0.8877478E-01
        1   -1    0    0  501    0  0.00000000000E+00  0.00000000000E+00  0.12782113445E+04  0.12782113446E+04  0.50400001928E-02 0. -1.
       -1   -1    0    0    0  501  0.00000000000E+00  0.00000000000E+00 -0.44627084857E+03  0.44627084859E+03  0.50400001928E-02 0.  1.
    10030    2    1    2    0    0  0.00000000000E+00  0.00000000000E+00  0.83194049598E+03  0.17244821931E+04  0.15105342914E+04 0.  0.
        1    1    3    3  502    0  0.53049532526E+03  0.18269327967E+03 -0.16123586731E+03  0.58378003519E+03  0.50400001928E-02 0.  1.
       -1    1    3    3    0  502 -0.53049532526E+03 -0.18269327967E+03  0.99317636328E+03  0.11407021580E+04  0.50400001928E-02 0. -1.
</event>
<event>
 5   0  0.1087761E-03  0.1249351E+04  0.7818609E-02  0.9070723E-01
       -1   -1    0    0    0  501  0.00000000000E+00  0.00000000000E+00  0.55328464935E+03  0.55328464937E+03  0.50400001928E-02 0.  1.
        1   -1    0    0  501    0  0.00000000000E+00  0.00000000000E+00 -0.70527821956E+03  0.70527821958E+03  0.50400001928E-02 0. -1.
    10030    2    1    2    0    0  0.00000000000E+00  0.00000000000E+00 -0.15199357021E+03  0.12585628689E+04  0.12493512115E+04 0.  0.
        3    1    3    3  502    0 -0.30204234718E+03 -0.15364824260E+03 -0.60463473464E+03  0.69312375120E+03  0.10100000352E+00 0. -1.
       -3    1    3    3    0  502  0.30204234718E+03  0.15364824260E+03  0.45264116443E+03  0.56543911775E+03  0.10100000352E+00 0.  1.
</event>
<event>
 5   0  0.1078018E-03  0.1477362E+04  0.7818609E-02  0.8899648E-01
       -1   -1    0    0    0  501  0.00000000000E+00  0.00000000000E+00  0.40471698201E+03  0.40471698204E+03  0.50400001928E-02 0. -1.
        1   -1    0    0  501    0  0.00000000000E+00  0.00000000000E+00 -0.13482247280E+04  0.13482247280E+04  0.50400001928E-02 0.  1.
    10030    2    1    2    0    0  0.00000000000E+00  0.00000000000E+00 -0.94350774595E+03  0.17529417100E+04  0.14773617607E+04 0.  0.
        4    1    3    3  502    0  0.65120429238E+03  0.34476409292E+03 -0.40988860745E+03  0.84317233920E+03  0.12699999809E+01 0. -1.
       -4    1    3    3    0  502 -0.65120429238E+03 -0.34476409292E+03 -0.53361913849E+03  0.90976937080E+03  0.12699999809E+01 0.  1.
</event>
<event>
 5   0  0.1087761E-03  0.1428526E+04  0.7818609E-02  0.8933425E-01
        1   -1    0    0  501    0  0.00000000000E+00  0.00000000000E+00  0.76760272275E+03  0.76760272276E+03  0.50400001928E-02 0. -1.
       -1   -1    0    0    0  501  0.00000000000E+00  0.00000000000E+00 -0.66463009031E+03  0.66463009033E+03  0.50400001928E-02 0.  1.
    10030    2    1    2    0    0  0.00000000000E+00  0.00000000000E+00  0.10297263243E+03  0.14322328131E+04  0.14285263273E+04 0.  0.
        3    1    3    3  502    0  0.34215108816E+03 -0.61893561031E+03 -0.48889379199E+02  0.70889973793E+03  0.10100000352E+00 0.  1.
       -3    1    3    3    0  502 -0.34215108816E+03  0.61893561031E+03  0.15186201163E+03  0.72333307516E+03  0.10100000352E+00 0. -1.
</event>
<event>
 5   0  0.2094566E-03  0.1497952E+04  0.7818609E-02  0.8885816E-01
       -2   -1    0    0    0  501  0.00000000000E+00  0.00000000000E+00  0.53496434037E+03  0.53496434037E+03  0.25500000920E-02 0. -1.
        2   -1    0    0  501    0  0.00000000000E+00  0.00000000000E+00 -0.10486021625E+04  0.10486021625E+04  0.25500000920E-02 0.  1.
    10030    2    1    2    0    0  0.00000000000E+00  0.00000000000E+00 -0.51363782214E+03  0.15835665029E+04  0.14979516203E+04 0.  0.
        1    1    3    3  502    0 -0.69961125369E+03 -0.21629415573E+03 -0.90587618156E+02  0.73786528898E+03  0.50400001928E-02 0. -1.
       -1    1    3    3    0  502  0.69961125369E+03  0.21629415573E+03 -0.42305020399E+03  0.84570121391E+03  0.50400001928E-02 0.  1.
</event>
<event>
 5   0  0.2111533E-03  0.1331704E+04  0.7818609E-02  0.9004795E-01
        2   -1    0    0  501    0  0.00000000000E+00  0.00000000000E+00  0.19875458737E+04  0.19875458737E+04  0.25500000920E-02 0.  1.
       -2   -1    0    0    0  501  0.00000000000E+00  0.00000000000E+00 -0.22306844748E+03  0.22306844749E+03  0.25500000920E-02 0. -1.
    10030    2    1    2    0    0  0.00000000000E+00  0.00000000000E+00  0.17644774262E+04  0.22106143212E+04  0.13317038295E+04 0.  0.
        5    1    3    3  502    0 -0.18777454973E+03  0.52290861480E+03  0.27312440222E+03  0.61912174089E+03  0.46999998093E+01 0. -1.
       -5    1    3    3    0  502  0.18777454973E+03 -0.52290861480E+03  0.14913530240E+04  0.15914925803E+04  0.46999998093E+01 0.  1.
</event>
<event>
 5   0  0.1087761E-03  0.1487137E+04  0.7818609E-02  0.8893052E-01
       -1   -1    0    0    0  501  0.00000000000E+00  0.00000000000E+00  0.22363744697E+03  0.22363744702E+03  0.50400001928E-02 0.  1.
        1   -1    0    0  501    0  0.00000000000E+00  0.00000000000E+00 -0.24722782901E+04  0.24722782901E+04  0.50400001928E-02 0. -1.
    10030    2    1    2    0    0  0.00000000000E+00  0.00000000000E+00 -0.22486408432E+04  0.26959157371E+04  0.14871368533E+04 0.  0.
        3    1    3    3  502    0 -0.19161472362E+03  0.52926629817E+03 -0.20050892979E+04  0.20825998462E+04  0.10100000352E+00 0. -1.
       -3    1    3    3    0  502  0.19161472362E+03 -0.52926629817E+03 -0.24355154527E+03  0.61331589095E+03  0.10100000352E+00 0.  1.
</event>
<event>
 5   0  0.7468375E-04  0.1568170E+04  0.7818609E-02  0.8840345E-01
        4   -1    0    0  501    0  0.00000000000E+00  0.00000000000E+00  0.14419190398E+04  0.14419195991E+04  0.12699999809E+01 0.  1.
       -4   -1    0    0    0  501  0.00000000000E+00  0.00000000000E+00 -0.42636711051E+03  0.42636900195E+03  0.12699999809E+01 0. -1.
    10030    2    1    2    0    0  0.00000000000E+00  0.00000000000E+00  0.10155519293E+04  0.18682886011E+04  0.15681698173E+04 0.  0.
        5    1    3    3  502    0  0.36220688050E+03  0.44251022434E+03  0.11468696471E+04  0.12815386067E+04  0.46999998093E+01 0.  1.
       -5    1    3    3    0  502 -0.36220688050E+03 -0.44251022434E+03 -0.13131771778E+03  0.58674999440E+03  0.46999998093E+01 0. -1.
</event>
<event>
 5   0  0.1078018E-03  0.1344319E+04  0.7818609E-02  0.8995140E-01
       -1   -1    0    0    0  501  0.00000000000E+00  0.00000000000E+00  0.10909377080E+04  0.10909377080E+04  0.50400001928E-02 0. -1.
        1   -1    0    0  501    0  0.00000000000E+00  0.00000000000E+00 -0.41413773938E+03  0.41413773941E+03  0.50400001928E-02 0.  1.
    10030    2    1    2    0    0  0.00000000000E+00  0.00000000000E+00  0.67679996863E+03  0.15050754474E+04  0.13443191232E+04 0.  0.
        4    1    3    3  502    0 -0.50929274494E+02  0.16925748074E+03 -0.38765127536E+03  0.42604813105E+03  0.12699999809E+01 0.  1.
       -4    1    3    3    0  502  0.50929274494E+02 -0.16925748074E+03  0.10644512440E+04  0.10790273164E+04  0.12699999809E+01 0. -1.
</event>
<event>
 5   0  0.1069697E-03  0.1385359E+04  0.7818609E-02  0.8964485E-01
        1   -1    0    0  501    0  0.00000000000E+00  0.00000000000E+00  0.58511250562E+03  0.58511250564E+03  0.50400001928E-02 0. -1.
       -1   -1    0    0    0  501  0.00000000000E+00  0.00000000000E+00 -0.82002140918E+03  0.82002140919E+03  0.50400001928E-02 0.  1.
    10030    2    1    2    0    0  0.00000000000E+00  0.00000000000E+00 -0.23490890355E+03  0.14051339148E+04  0.13853588436E+04 0.  0.
        2    1    3    3  502    0 -0.53168084363E+03 -0.35524523677E+03  0.15265707410E+03  0.65740997863E+03  0.25500000920E-02 0.  1.
       -2    1    3    3    0  502  0.53168084363E+03  0.35524523677E+03 -0.38756597765E+03  0.74772393620E+03  0.25500000920E-02 0. -1.
</event>
<event>
 5   0  0.1077140E-03  0.1485858E+04  0.7818609E-02  0.8893912E-01
        1   -1    0    0  501    0  0.00000000000E+00  0.00000000000E+00  0.58408497789E+03  0.58408497791E+03  0.50400001928E-02 0.  1.
       -1   -1    0    0    0  501  0.00000000000E+00  0.00000000000E+00 -0.94497127885E+03  0.94497127887E+03  0.50400001928E-02 0. -1.
    10030    2    1    2    0    0  0.00000000000E+00  0.00000000000E+00 -0.36088630096E+03  0.15290562568E+04  0.14858580397E+04 0.  0.
        1    1    3    3  502    0 -0.32290363997E+03 -0.52329721932E+03  0.24861582383E+03  0.66326206611E+03  0.50400001928E-02 0.  1.
       -1    1    3    3    0  502  0.32290363997E+03  0.52329721932E+03 -0.60950212480E+03  0.86579419067E+03  0.50400001928E-02 0. -1.
</event>
<event>
 5   0  0.1078787E-03  0.1525761E+04  0.7818609E-02  0.8867501E-01
       -1   -1    0    0    0  501  0.00000000000E+00  0.00000000000E+00  0.10703587069E+04  0.10703587069E+04  0.50400001928E-02 0. -1.
        1   -1    0    0  501    0  0.00000000000E+00  0.00000000000E+00 -0.54373048508E+03  0.54373048510E+03  0.50400001928E-02 0.  1.
    10030    2    1    2    0    0  0.00000000000E+00  0.00000000000E+00  0.52662822184E+03  0.16140891920E+04  0.15257610022E+04 0.  0.
        5    1    3    3  502    0 -0.41099756383E+03  0.44700387076E+03 -0.22519013268E+03  0.64766051586E+03  0.46999998093E+01 0.  1.
       -5    1    3    3    0  502  0.41099756383E+03 -0.44700387076E+03  0.75181835452E+03  0.96642867618E+03  0.46999998093E+01 0. -1.
</event>
<event>
 5   0  0.2111533E-03  0.1499110E+04  0.7818609E-02  0.8885045E-01
        2   -1    0    0  501    0  0.00000000000E+00  0.00000000000E+00  0.21120976948E+04  0.21120976948E+04  0.25500000920E-02 0.  1.
       -2   -1    0    0    0  501  0.00000000000E+00  0.00000000000E+00 -0.26600691366E+03  0.26600691367E+03  0.25500000920E-02 0. -1.
    10030    2    1    2    0    0  0.00000000000E+00  0.00000000000E+00  0.18460907812E+04  0.23781046085E+04  0.14991098548E+04 0.  0.
        5    1    3    3  502    0 -0.42782777397E+03 -0.38905784083E+03  0.16795302863E+04  0.17763014047E+04  0.46999998093E+01 0.  1.
       -5    1    3    3    0  502  0.42782777397E+03  0.38905784083E+03  0.16656049489E+03  0.60180320383E+03  0.46999998093E+01 0. -1.
</event>
<event>
 5   0  0.1993623E-03  0.1476795E+04  0.7818609E-02  0.8900032E-01
       -2   -1    0    0    0  501  0.00000000000E+00  0.00000000000E+00  0.72715167726E+03  0.72715167727E+03  0.25500000920E-02 0. -1.
        2   -1    0    0  501    0  0.00000000000E+00  0.00000000000E+00 -0.74981737755E+03  0.74981737755E+03  0.25500000920E-02 0.  1.
    10030    2    1    2    0    0  0.00000000000E+00  0.00000000000E+00 -0.22665700283E+02  0.14769690548E+04  0.14767951296E+04 0.  0.
        4    1    3    3  502    0  0.90983366546E+02 -0.60789414398E+03  0.39788044846E+03  0.73220470323E+03  0.12699999809E+01 0. -1.
       -4    1    3    3    0  502 -0.90983366546E+02  0.60789414398E+03 -0.42054614875E+03  0.74476435159E+03  0.12699999809E+01 0.  1.
</event>
<event>
 5   0  0.1078787E-03  0.1549022E+04  0.7818609E-02  0.8852493E-01
        1   -1    0    0  501    0  0.00000000000E+00  0.00000000000E+00  0.10423628907E+04  0.10423628907E+04  0.50400001928E-02 0. -1.
       -1   -1    0    0    0  501  0.00000000000E+00  0.00000000000E+00 -0.57548788166E+03  0.57548788168E+03  0.50400001928E-02 0.  1.
    10030    2    1    2    0    0  0.00000000000E+00  0.00000000000E+00  0.46687500907E+03  0.16178507724E+04  0.15490219003E+04 0.  0.
        5    1    3    3  502    0  0.62174076906E+03  0.13721585384E+03  0.69400241621E+03  0.94183396529E+03  0.46999998093E+01 0. -1.
       -5    1    3    3    0  502 -0.62174076906E+03 -0.13721585384E+03 -0.22712740714E+03  0.67601680714E+03  0.46999998093E+01 0.  1.
</event>
<event>
 5   0  0.7468375E-04  0.1215026E+04  0.7818609E-02  0.9099805E-01
       -3   -1    0    0    0  501  0.00000000000E+00  0.00000000000E+00  0.15470727564E+04  0.15470727597E+04  0.10100000352E+00 0.  1.
        3   -1    0    0  501    0  0.00000000000E+00  0.00000000000E+00 -0.23856133153E+03  0.23856135291E+03  0.10100000352E+00 0. -1.
    10030    2    1    2    0    0  0.00000000000E+00  0.00000000000E+00  0.13085114248E+04  0.17856341126E+04  0.12150255286E+04 0.  0.
        3    1    3    3  502    0 -0.23525700591E+03  0.54429990836E+02 -0.16500458649E+03  0.29246368406E+03  0.10100000352E+00 0. -1.
       -3    1    3    3    0  502  0.23525700591E+03 -0.54429990836E+02  0.14735160113E+04  0.14931704285E+04  0.10100000352E+00 0.  1.
</event>
<event>
 5   0  0.2150197E-03  0.1593147E+04  0.7818609E-02  0.8824769E-01
       -2   -1    0    0    0  501  0.00000000000E+00  0.00000000000E+00  0.43436285414E+03  0.43436285415E+03  0.25500000920E-02 0. -1.
        2   -1    0    0  501    0  0.00000000000E+00  0.00000000000E+00 -0.14608286899E+04  0.14608286899E+04  0.25500000920E-02 0.  1.
    10030    2    1    2    0    0  0.00000000000E+00  0.00000000000E+00 -0.10264658357E+04  0.18951915440E+04  0.15931474749E+04 0.  0.
        3    1    3    3  502    0 -0.11033095065E+03  0.45314942514E+03  0.25496231741E+03  0.53152903371E+03  0.10100000352E+00 0. -1.
       -3    1    3    3    0  502  0.11033095065E+03 -0.45314942514E+03 -0.12814281531E+04  0.13636625103E+04  0.10100000352E+00 0.  1.
</event>
<event>
 5   0  0.1993623E-03  0.1388365E+04  0.7818609E-02  0.8962284E-01
       -2   -1    0    0    0  501  0.00000000000E+00  0.00000000000E+00  0.69744593792E+03  0.69744593793E+03  0.25500000920E-02 0.  1.
        2   -1    0    0  501    0  0.00000000000E+00  0.00000000000E+00 -0.69093414139E+03  0.69093414139E+03  0.25500000920E-02 0. -1.
    10030    2    1    2    0    0  0.00000000000E+00  0.00000000000E+00  0.65117965348E+01  0.13883800793E+04  0.13883648084E+04 0.  0.
        4    1    3    3  502    0  0.28824838030E+03  0.29419335141E+03 -0.55554425357E+03  0.69156914863E+03  0.12699999809E+01 0. -1.
       -4    1    3    3    0  502 -0.28824838030E+03 -0.29419335141E+03  0.56205605011E+03  0.69681093069E+03  0.12699999809E+01 0.  1.
</event>
<event>
 5   0  0.1993623E-03  0.1473023E+04  0.7818609E-02  0.8902593E-01
        2   -1    0    0  501    0  0.00000000000E+00  0.00000000000E+00  0.18581503694E+04  0.18581503694E+04  0.25500000920E-02 0.  1.
       -2   -1    0    0    0  501  0.00000000000E+00  0.00000000000E+00 -0.29192955548E+03  0.29192955549E+03  0.25500000920E-02 0. -1.
    10030    2    1    2    0    0  0.00000000000E+00  0.00000000000E+00  0.15662208139E+04  0.21500799249E+04  0.14730227580E+04 0.  0.
        4    1    3    3  502    0 -0.66808464247E+03 -0.46665896094E+02  0.12304664687E+04  0.14009154646E+04  0.12699999809E+01 0.  1.
       -4    1    3    3    0  502  0.66808464247E+03  0.46665896094E+02  0.33575434520E+03  0.74916446030E+03  0.12699999809E+01 0. -1.
</event>
<event>
 5   0  0.1077140E-03  0.1332966E+04  0.7818609E-02  0.9003823E-01
       -1   -1    0    0    0  501  0.00000000000E+00  0.00000000000E+00  0.37867690955E+03  0.37867690959E+03  0.50400001928E-02 0.  1.
        1   -1    0    0  501    0  0.00000000000E+00  0.00000000000E+00 -0.11730310621E+04  0.11730310621E+04  0.50400001928E-02 0. -1.
    10030    2    1    2    0    0  0.00000000000E+00  0.00000000000E+00 -0.79435415256E+03  0.15517079717E+04  0.13329662823E+04 0.  0.
        1    1    3    3  502    0 -0.37880387683E+03 -0.63110876249E+02  0.23693711163E+03  0.45123669475E+03  0.50400001928E-02 0.  1.
       -1    1    3    3    0  502  0.37880387683E+03  0.63110876249E+02 -0.10312912642E+04  0.11004712770E+04  0.50400001928E-02 0. -1.
</event>
<event>
 5   0  0.1078787E-03  0.1539400E+04  0.7818609E-02  0.8858667E-01
       -1   -1    0    0    0  501  0.00000000000E+00  0.00000000000E+00  0.42710737469E+03  0.42710737472E+03  0.50400001928E-02 0. -1.
        1   -1    0    0  501    0  0.00000000000E+00  0.00000000000E+00 -0.13870948873E+04  0.13870948873E+04  0.50400001928E-02 0.  1.
    10030    2    1    2    0    0  0.00000000000E+00  0.00000000000E+00 -0.95998751262E+03  0.18142022620E+04  0.15394004752E+04 0.  0.
        5    1    3    3  502    0  0.24023179275E+03  0.21682746118E+03  0.34301871347E+03  0.47160300037E+03  0.46999998093E+01 0. -1.
       -5    1    3    3    0  502 -0.24023179275E+03 -0.21682746118E+03 -0.13030062261E+04  0.13425992617E+04  0.46999998093E+01 0.  1.
</event>
<event>
 5   0  0.1087761E-03  0.1554199E+04  0.7818609E-02  0.8849190E-01
        1   -1    0    0  501    0  0.00000000000E+00  0.00000000000E+00  0.50939456108E+03  0.50939456111E+03  0.50400001928E-02 0. -1.
       -1   -1    0    0    0  501  0.00000000000E+00  0.00000000000E+00 -0.11854922141E+04  0.11854922141E+04  0.50400001928E-02 0.  1.
    10030    2    1    2    0    0  0.00000000000E+00  0.00000000000E+00 -0.67609765300E+03  0.16948867752E+04  0.15541985537E+04 0.  0.
        3    1    3    3  502    0  0.25535668056E+03  0.14561200174E+03  0.44642453376E+03  0.53451357691E+03  0.10100000352E+00 0. -1.
       -3    1    3    3    0  502 -0.25535668056E+03 -0.14561200174E+03 -0.11225221868E+04  0.11603731983E+04  0.10100000352E+00 0.  1.
</event>
<event>
 5   0  0.1993623E-03  0.1480706E+04  0.7818609E-02  0.8897386E-01
        2   -1    0    0  501    0  0.00000000000E+00  0.00000000000E+00  0.15647671676E+04  0.15647671676E+04  0.25500000920E-02 0. -1.
       -2   -1    0    0    0  501  0.00000000000E+00  0.00000000000E+00 -0.35029004452E+03  0.35029004453E+03  0.25500000920E-02 0.  1.
    10030    2    1    2    0    0  0.00000000000E+00  0.00000000000E+00  0.12144771231E+04  0.19150572121E+04  0.14807057247E+04 0.  0.
        4    1    3    3  502    0 -0.35912451403E+02  0.27863288316E+03 -0.27867137783E+03  0.39570865225E+03  0.12699999809E+01 0.  1.
       -4    1    3    3    0  502  0.35912451403E+02 -0.27863288316E+03  0.14931485009E+04  0.15193485599E+04  0.12699999809E+01 0. -1.
</event>
<event>
 5   0  0.1078018E-03  0.1535957E+04  0.7818609E-02  0.8860888E-01
       -1   -1    0    0    0  501  0.00000000000E+00  0.00000000000E+00  0.13011094301E+04  0.13011094301E+04  0.50400001928E-02 0. -1.
        1   -1    0    0  501    0  0.00000000000E+00  0.00000000000E+00 -0.45329877776E+03  0.45329877779E+03  0.50400001928E-02 0.  1.
    10030    2    1    2    0    0  0.00000000000E+00  0.00000000000E+00  0.84781065232E+03  0.17544082079E+04  0.15359574401E+04 0.  0.
        4    1    3    3  502    0  0.31204934527E+02  0.34556134403E+02  0.12994945908E+04  0.13003290655E+04  0.12699999809E+01 0. -1.
       -4    1    3    3    0  502 -0.31204934527E+02 -0.34556134403E+02 -0.45168393844E+03  0.45407914234E+03  0.12699999809E+01 0.  1.
</event>
<event>
 5   0  0.2150197E-03  0.1516393E+04  0.7818609E-02  0.8873625E-01
        2   -1    0    0  501    0  0.00000000000E+00  0.00000000000E+00  0.20785020685E+04  0.20785020685E+04  0.25500000920E-02 0. -1.
       -2   -1    0    0    0  501  0.00000000000E+00  0.00000000000E+00 -0.27657499330E+03  0.27657499331E+03  0.25500000920E-02 0.  1.
    10030    2    1    2    0    0  0.00000000000E+00  0.00000000000E+00  0.18019270752E+04  0.23550770618E+04  0.15163926875E+04 0.  0.
        3    1    3    3  502    0 -0.15836007210E+03  0.74071069814E+03  0.95320414142E+03  0.12175090949E+04  0.10100000352E+00 0. -1.
       -3    1    3    3    0  502  0.15836007210E+03 -0.74071069814E+03  0.84872293374E+03  0.11375679669E+04  0.10100000352E+00 0.  1.
</event>
<event>
 5   0  0.1078787E-03  0.1497735E+04  0.7818609E-02  0.8885961E-01
        1   -1    0    0  501    0  0.00000000000E+00  0.00000000000E+00  0.18705540567E+04  0.18705540567E+04  0.50400001928E-02 0.  1.
       -1   -1    0    0    0  501  0.00000000000E+00  0.00000000000E+00 -0.29980551754E+03  0.29980551758E+03  0.50400001928E-02 0. -1.
    10030    2    1    2    0    0  0.00000000000E+00  0.00000000000E+00  0.15707485391E+04  0.21703595743E+04  0.14977348592E+04 0.  0.
        5    1    3    3  502    0 -0.40703237339E+03 -0.60694066809E+03  0.54846608634E+03  0.91372286030E+03  0.46999998093E+01 0. -1.
       -5    1    3    3    0  502  0.40703237339E+03  0.60694066809E+03  0.10222824528E+04  0.12566367140E+04  0.46999998093E+01 0.  1.
</event>
<event>
 5   0  0.2150197E-03  0.1427853E+04  0.7818609E-02  0.8933900E-01
        2   -1    0    0  501    0  0.00000000000E+00  0.00000000000E+00  0.93367653705E+03  0.93367653705E+03  0.25500000920E-02 0. -1.
       -2   -1    0    0    0  501  0.00000000000E+00  0.00000000000E+00 -0.54589661184E+03  0.54589661184E+03  0.25500000920E-02 0.  1.
    10030    2    1    2    0    0  0.00000000000E+00  0.00000000000E+00  0.38777992521E+03  0.14795731489E+04  0.14278527349E+04 0.  0.
        3    1    3    3  502    0  0.64644377043E+03  0.21553361758E+02  0.50705682836E+03  0.82186418168E+03  0.10100000352E+00 0. -1.
       -3    1    3    3    0  502 -0.64644377043E+03 -0.21553361758E+02 -0.11927690315E+03  0.65770896722E+03  0.10100000352E+00 0.  1.
</event>
<event>
 5   0  0.2094566E-03  0.1481973E+04  0.7818609E-02  0.8896530E-01
        2   -1    0    0  501    0  0.00000000000E+00  0.00000000000E+00  0.11924139372E+04  0.11924139372E+04  0.25500000920E-02 0.  1.
       -2   -1    0    0    0  501  0.00000000000E+00  0.00000000000E+00 -0.46046173136E+03  0.46046173137E+03  0.25500000920E-02 0. -1.
    10030    2    1    2    0    0  0.00000000000E+00  0.00000000000E+00  0.73195220588E+03  0.16528756686E+04  0.14819729904E+04 0.  0.
        1    1    3    3  502    0  0.18110909926E+03  0.43236853125E+03  0.10060167989E+04  0.11098706467E+04  0.50400001928E-02 0.  1.
       -1    1    3    3    0  502 -0.18110909926E+03 -0.43236853125E+03 -0.27406459304E+03  0.54300502192E+03  0.50400001928E-02 0. -1.
</event>
<event>
 5   0  0.1078787E-03  0.1490453E+04  0.7818609E-02  0.8890826E-01
       -1   -1    0    0    0  501  0.00000000000E+00  0.00000000000E+00  0.48193082590E+03  0.48193082592E+03  0.50400001928E-02 0. -1.
        1   -1    0    0  501    0  0.00000000000E+00  0.00000000000E+00 -0.11523699621E+04  0.11523699621E+04  0.50400001928E-02 0.  1.
    10030    2    1    2    0    0  0.00000000000E+00  0.00000000000E+00 -0.67043913622E+03  0.16343007880E+04  0.14904530957E+04 0.  0.
        5    1    3    3  502    0  0.56560725103E+03  0.24949322901E+03 -0.79153500113E+03  0.10043446529E+04  0.46999998093E+01 0. -1.
       -5    1    3    3    0  502 -0.56560725103E+03 -0.24949322901E+03  0.12109586491E+03  0.62995613517E+03  0.46999998093E+01 0.  1.
</event>
<event>
 5   0  0.1069697E-03  0.1483327E+04  0.7818609E-02  0.8895617E-01
        1   -1    0    0  501    0  0.00000000000E+00  0.00000000000E+00  0.48584599920E+03  0.48584599922E+03  0.50400001928E-02 0. -1.
       -1   -1    0    0    0  501  0.00000000000E+00  0.00000000000E+00 -0.11321791555E+04  0.11321791556E+04  0.50400001928E-02 0.  1.
    10030    2    1    2    0    0  0.00000000000E+00  0.00000000000E+00 -0.64633315635E+03  0.16180251548E+04  0.14833269540E+04 0.  0.
        2    1    3    3  502    0 -0.19614597980E+03  0.27615706058E+03  0.39654262026E+03  0.52151895190E+03  0.25500000920E-02 0. -1.
       -2    1    3    3    0  502  0.19614597980E+03 -0.27615706058E+03 -0.10428757766E+04  0.10965062029E+04  0.25500000920E-02 0.  1.
</event>
<event>
 5   0  0.1961098E-03  0.1509170E+04  0.7818609E-02  0.8878378E-01
        2   -1    0    0  501    0  0.00000000000E+00  0.00000000000E+00  0.34532675271E+04  0.34532675271E+04  0.25500000920E-02 0. -1.
       -2   -1    0    0    0  501  0.00000000000E+00  0.00000000000E+00 -0.16488695879E+03  0.16488695881E+03  0.25500000920E-02 0.  1.
    10030    2    1    2    0    0  0.00000000000E+00  0.00000000000E+00  0.32883805683E+04  0.36181544859E+04  0.15091703422E+04 0.  0.
        2    1    3    3  502    0  0.35527263322E+03 -0.44715265117E+03  0.28265824927E+04  0.28837012199E+04  0.25500000920E-02 0. -1.
       -2    1    3    3    0  502 -0.35527263322E+03  0.44715265117E+03  0.46179807558E+03  0.73445326603E+03  0.25500000920E-02 0.  1.
</event>
<event>
 5   0  0.1961098E-03  0.1022191E+04  0.7818609E-02  0.9284536E-01
        2   -1    0    0  501    0  0.00000000000E+00  0.00000000000E+00  0.41578305989E+03  0.41578305990E+03  0.25500000920E-02 0. -1.
       -2   -1    0    0    0  501  0.00000000000E+00  0.00000000000E+00 -0.62825642446E+03  0.62825642447E+03  0.25500000920E-02 0.  1.
    10030    2    1    2    0    0  0.00000000000E+00  0.00000000000E+00 -0.21247336457E+03  0.10440394844E+04  0.10221905470E+04 0.  0.
        2    1    3    3  502    0 -0.10028381851E+03  0.15480108017E+03 -0.59307804340E+03  0.62109724218E+03  0.25500000920E-02 0.  1.
       -2    1    3    3    0  502  0.10028381851E+03 -0.15480108017E+03  0.38060467883E+03  0.42294224219E+03  0.25500000920E-02 0. -1.
</event>
<event>
 5   0  0.1087761E-03  0.1487063E+04  0.7818609E-02  0.8893102E-01
        1   -1    0    0  501    0  0.00000000000E+00  0.00000000000E+00  0.93054014871E+03  0.93054014872E+03  0.50400001928E-02 0.  1.
       -1   -1    0    0    0  501  0.00000000000E+00  0.00000000000E+00 -0.59410548754E+03  0.59410548756E+03  0.50400001928E-02 0. -1.
    10030    2    1    2    0    0  0.00000000000E+00  0.00000000000E+00  0.33643466117E+03  0.15246456363E+04  0.14870628887E+04 0.  0.
        3    1    3    3  502    0 -0.39653697867E+01 -0.72296891124E+03 -0.97767829399E+01  0.72304589513E+03  0.10100000352E+00 0. -1.
       -3    1    3    3    0  502  0.39653697867E+01  0.72296891124E+03  0.34621144411E+03  0.80159974115E+03  0.10100000352E+00 0.  1.
</event>
<event>
 5   0  0.1069697E-03  0.1498920E+04  0.7818609E-02  0.8885171E-01
       -1   -1    0    0    0  501  0.00000000000E+00  0.00000000000E+00  0.51804229466E+03  0.51804229468E+03  0.50400001928E-02 0. -1.
        1   -1    0    0  501    0  0.00000000000E+00  0.00000000000E+00 -0.10842560245E+04  0.10842560245E+04  0.50400001928E-02 0.  1.
    10030    2    1    2    0    0  0.00000000000E+00  0.00000000000E+00 -0.56621372982E+03  0.16022983192E+04  0.14989202500E+04 0.  0.
        2    1    3    3  502    0  0.33901806860E+03  0.43706529374E+03  0.25746902524E+03  0.61012262767E+03  0.25500000920E-02 0. -1.
       -2    1    3    3    0  502 -0.33901806860E+03 -0.43706529374E+03 -0.82368275506E+03  0.99217569151E+03  0.25500000920E-02 0.  1.
</event>
<event>
 5   0  0.2094566E-03  0.1519211E+04  0.7818609E-02  0.8871777E-01
       -2   -1    0    0    0  501  0.00000000000E+00  0.00000000000E+00  0.75492083947E+03  0.75492083948E+03  0.25500000920E-02 0. -1.
        2   -1    0    0  501    0  0.00000000000E+00  0.00000000000E+00 -0.76431967023E+03  0.76431967023E+03  0.25500000920E-02 0.  1.
    10030    2    1    2    0    0  0.00000000000E+00  0.00000000000E+00 -0.93988307562E+01  0.15192405097E+04  0.15192114363E+04 0.  0.
        1    1    3    3  502    0  0.24171240178E+03  0.24336459135E+03 -0.68246576081E+03  0.76381327836E+03  0.50400001928E-02 0.  1.
       -1    1    3    3    0  502 -0.24171240178E+03 -0.24336459135E+03  0.67306693006E+03  0.75542723135E+03  0.50400001928E-02 0. -1.
</event>
<event>
 5   0  0.1078018E-03  0.1437533E+04  0.7818609E-02  0.8927089E-01
        1   -1    0    0  501    0  0.00000000000E+00  0.00000000000E+00  0.64001729208E+03  0.64001729210E+03  0.50400001928E-02 0. -1.
       -1   -1    0    0    0  501  0.00000000000E+00  0.00000000000E+00 -0.80720540333E+03  0.80720540334E+03  0.50400001928E-02 0.  1.
    10030    2    1    2    0    0  0.00000000000E+00  0.00000000000E+00 -0.16718811124E+03  0.14472226954E+04  0.14375331877E+04 0.  0.
        4    1    3    3  502    0  0.44603999327E+03 -0.63423544875E+02 -0.64741322984E+03  0.78874566542E+03  0.12699999809E+01 0.  1.
       -4    1    3    3    0  502 -0.44603999327E+03  0.63423544875E+02  0.48022511860E+03  0.65847703003E+03  0.12699999809E+01 0. -1.
</event>
<event>
 5   0  0.2094566E-03  0.1483961E+04  0.7818609E-02  0.8895189E-01
        2   -1    0    0  501    0  0.00000000000E+00  0.00000000000E+00  0.75572838367E+03  0.75572838367E+03  0.25500000920E-02 0. -1.
       -2   -1    0    0    0  501  0.00000000000E+00  0.00000000000E+00 -0.72848263513E+03  0.72848263513E+03  0.25500000920E-02 0.  1.
    10030    2    1    2    0    0  0.00000000000E+00  0.00000000000E+00  0.27245748538E+02  0.14842110188E+04  0.14839609218E+04 0.  0.
        1    1    3    3  502    0 -0.16428859571E+03  0.71968961647E+03 -0.61163503969E+02  0.74073265148E+03  0.50400001928E-02 0.  1.
       -1    1    3    3    0  502  0.16428859571E+03 -0.71968961647E+03  0.88409252507E+02  0.74347836733E+03  0.50400001928E-02 0. -1.
</event>
<event>
 5   0  0.1077140E-03  0.1504287E+04  0.7818609E-02  0.8881607E-01
        1   -1    0    0  501    0  0.00000000000E+00  0.00000000000E+00  0.55618448489E+03  0.55618448491E+03  0.50400001928E-02 0.  1.
       -1   -1    0    0    0  501  0.00000000000E+00  0.00000000000E+00 -0.10171444373E+04  0.10171444373E+04  0.50400001928E-02 0. -1.
    10030    2    1    2    0    0  0.00000000000E+00  0.00000000000E+00 -0.46095995244E+03  0.15733289222E+04  0.15042871467E+04 0.  0.
        1    1    3    3  502    0 -0.34079544472E+03 -0.43310043293E+02  0.46933562304E+03  0.58162979813E+03  0.50400001928E-02 0.  1.
       -1    1    3    3    0  502  0.34079544472E+03  0.43310043293E+02 -0.93029557548E+03  0.99169912412E+03  0.50400001928E-02 0. -1.
</event>
<event>
 5   0  0.1993623E-03  0.1507388E+04  0.7818609E-02  0.8879555E-01
       -2   -1    0    0    0  501  0.00000000000E+00  0.00000000000E+00  0.35673344076E+03  0.35673344077E+03  0.25500000920E-02 0.  1.
        2   -1    0    0  501    0  0.00000000000E+00  0.00000000000E+00 -0.15923775142E+04  0.15923775142E+04  0.25500000920E-02 0. -1.
    10030    2    1    2    0    0  0.00000000000E+00  0.00000000000E+00 -0.12356440735E+04  0.19491109550E+04  0.15073875542E+04 0.  0.
        4    1    3    3  502    0 -0.14849400620E+03 -0.57090253033E+03 -0.11233005070E+02  0.59000674769E+03  0.12699999809E+01 0.  1.
       -4    1    3    3    0  502  0.14849400620E+03  0.57090253033E+03 -0.12244110684E+04  0.13591042073E+04  0.12699999809E+01 0. -1.
</event>
<event>
 5   0  0.7468375E-04  0.1527202E+04  0.7818609E-02  0.8866563E-01
       -3   -1    0    0    0  501  0.00000000000E+00  0.00000000000E+00  0.67366270347E+03  0.67366271105E+03  0.10100000352E+00 0.  1.
        3   -1    0    0  501    0  0.00000000000E+00  0.00000000000E+00 -0.86554631136E+03  0.86554631725E+03  0.10100000352E+00 0. -1.
    10030    2    1    2    0    0  0.00000000000E+00  0.00000000000E+00 -0.19188360788E+03  0.15392090283E+04  0.15272017266E+04 0.  0.
        1    1    3    3  502    0 -0.48388080359E+03  0.16778238529E+03 -0.66678233276E+03  0.84076764936E+03  0.50400001928E-02 0. -1.
       -1    1    3    3    0  502  0.48388080359E+03 -0.16778238529E+03  0.47489872488E+03  0.69844137894E+03  0.50400001928E-02 0.  1.
</event>
<event>
 5   0  0.2150197E-03  0.1698844E+04  0.7818609E-02  0.8762024E-01
        2   -1    0    0  501    0  0.00000000000E+00  0.00000000000E+00  0.10775051832E+04  0.10775051832E+04  0.25500000920E-02 0. -1.
       -2   -1    0    0    0  501  0.00000000000E+00  0.00000000000E+00 -0.66961862279E+03  0.66961862279E+03  0.25500000920E-02 0.  1.
    10030    2    1    2    0    0  0.00000000000E+00  0.00000000000E+00  0.40788656043E+03  0.17471238060E+04  0.16988437678E+04 0.  0.
        3    1    3    3  502    0  0.45685146027E+03  0.74121296333E+02 -0.52855579624E+03  0.70255139546E+03  0.10100000352E+00 0.  1.
       -3    1    3    3    0  502 -0.45685146027E+03 -0.74121296333E+02  0.93644235666E+03  0.10445724105E+04  0.10100000352E+00 0. -1.
</event>
<event>
 5   0  0.1961098E-03  0.1517883E+04  0.7818609E-02  0.8872647E-01
       -2   -1    0    0    0  501  0.00000000000E+00  0.00000000000E+00  0.48874580533E+03  0.48874580534E+03  0.25500000920E-02 0.  1.
        2   -1    0    0  501    0  0.00000000000E+00  0.00000000000E+00 -0.11785111976E+04  0.11785111976E+04  0.25500000920E-02 0. -1.
    10030    2    1    2    0    0  0.00000000000E+00  0.00000000000E+00 -0.68976539223E+03  0.16672570029E+04  0.15178832687E+04 0.  0.
        2    1    3    3  502    0 -0.40540478824E+03  0.15464477718E+02  0.35964234171E+03  0.54215754754E+03  0.25500000920E-02 0.  1.
       -2    1    3    3    0  502  0.40540478824E+03 -0.15464477718E+02 -0.10494077339E+04  0.11250994554E+04  0.25500000920E-02 0. -1.
</event>
<event>
 5   0  0.2094566E-03  0.1502193E+04  0.7818609E-02  0.8882996E-01
        2   -1    0    0  501    0  0.00000000000E+00  0.00000000000E+00  0.65564652488E+03  0.65564652489E+03  0.25500000920E-02 0.  1.
       -2   -1    0    0    0  501  0.00000000000E+00  0.00000000000E+00 -0.86044241033E+03  0.86044241034E+03  0.25500000920E-02 0. -1.
    10030    2    1    2    0    0  0.00000000000E+00  0.00000000000E+00 -0.20479588545E+03  0.15160889352E+04  0.15021931649E+04 0.  0.
        1    1    3    3  502    0 -0.53671690410E+03 -0.44125316096E+03 -0.39030274190E+03  0.79693514012E+03  0.50400001928E-02 0. -1.
       -1    1    3    3    0  502  0.53671690410E+03  0.44125316096E+03  0.18550685646E+03  0.71915379510E+03  0.50400001928E-02 0.  1.
</event>
<event>
 5   0  0.1078018E-03  0.1525757E+04  0.7818609E-02  0.8867503E-01
       -1   -1    0    0    0  501  0.00000000000E+00  0.00000000000E+00  0.40388818898E+03  0.40388818901E+03  0.50400001928E-02 0. -1.
        1   -1    0    0  501    0  0.00000000000E+00  0.00000000000E+00 -0.14409524418E+04  0.14409524418E+04  0.50400001928E-02 0.  1.
    10030    2    1    2    0    0  0.00000000000E+00  0.00000000000E+00 -0.10370642528E+04  0.18448406308E+04  0.15257570870E+04 0.  0.
        4    1    3    3  502    0 -0.69951562267E+03  0.30280800423E+03 -0.48092706479E+03  0.90128089314E+03  0.12699999809E+01 0.  1.
       -4    1    3    3    0  502  0.69951562267E+03 -0.30280800423E+03 -0.55613718805E+03  0.94355973771E+03  0.12699999809E+01 0. -1.
</event>
<event>
 5   0  0.1961098E-03  0.1501956E+04  0.7818609E-02  0.8883153E-01
        2   -1    0    0  501    0  0.00000000000E+00  0.00000000000E+00  0.70302964492E+03  0.70302964492E+03  0.25500000920E-02 0.  1.
       -2   -1    0    0    0  501  0.00000000000E+00  0.00000000000E+00 -0.80219624939E+03  0.80219624939E+03  0.25500000920E-02 0. -1.
    10030    2    1    2    0    0  0.00000000000E+00  0.00000000000E+00 -0.99166604467E+02  0.15052258943E+04  0.15019557175E+04 0.  0.
        2    1    3    3  502    0 -0.18643420090E+03  0.66700464356E+03 -0.34058569419E+03  0.77178463375E+03  0.25500000920E-02 0.  1.
       -2    1    3    3    0  502  0.18643420090E+03 -0.66700464356E+03  0.24141908973E+03  0.73344126056E+03  0.25500000920E-02 0. -1.
</event>
<event>
 5   0  0.1078787E-03  0.1540932E+04  0.7818609E-02  0.8857681E-01
        1   -1    0    0  501    0  0.00000000000E+00  0.00000000000E+00  0.68975534517E+03  0.68975534519E+03  0.50400001928E-02 0.  1.
       -1   -1    0    0    0  501  0.00000000000E+00  0.00000000000E+00 -0.86062085419E+03  0.86062085420E+03  0.50400001928E-02 0. -1.
    10030    2    1    2    0    0  0.00000000000E+00  0.00000000000E+00 -0.17086550901E+03  0.15503761994E+04  0.15409319704E+04 0.  0.
        5    1    3    3  502    0 -0.53865392074E+03 -0.11643902459E+03 -0.62714665906E+03  0.83488988180E+03  0.46999998093E+01 0. -1.
       -5    1    3    3    0  502  0.53865392074E+03  0.11643902459E+03  0.45628115005E+03  0.71548631759E+03  0.46999998093E+01 0.  1.
</event>
<event>
 5   0  0.1078018E-03  0.1545042E+04  0.7818609E-02  0.8855041E-01
        1   -1    0    0  501    0  0.00000000000E+00  0.00000000000E+00  0.23733305798E+04  0.23733305798E+04  0.50400001928E-02 0. -1.
       -1   -1    0    0    0  501  0.00000000000E+00  0.00000000000E+00 -0.25145633795E+03  0.25145633800E+03  0.50400001928E-02 0.  1.
    10030    2    1    2    0    0  0.00000000000E+00  0.00000000000E+00  0.21218742418E+04  0.26247869178E+04  0.15450424155E+04 0.  0.
        4    1    3    3  502    0 -0.39808852545E+03  0.46960703194E+03  0.18537392390E+04  0.19532936333E+04  0.12699999809E+01 0. -1.
       -4    1    3    3    0  502  0.39808852545E+03 -0.46960703194E+03  0.26813500281E+03  0.67149328453E+03  0.12699999809E+01 0.  1.
</event>
<event>
 5   0  0.1069697E-03  0.1455400E+04  0.7818609E-02  0.8914665E-01
       -1   -1    0    0    0  501  0.00000000000E+00  0.00000000000E+00  0.34366994453E+03  0.34366994457E+03  0.50400001928E-02 0.  1.
        1   -1    0    0  501    0  0.00000000000E+00  0.00000000000E+00 -0.15408606760E+04  0.15408606760E+04  0.50400001928E-02 0. -1.
    10030    2    1    2    0    0  0.00000000000E+00  0.00000000000E+00 -0.11971907315E+04  0.18845306206E+04  0.14554002928E+04 0.  0.
        2    1    3    3  502    0  0.52647961395E+03  0.39022991772E+03 -0.10082428513E+04  0.12025031475E+04  0.25500000920E-02 0. -1.
       -2    1    3    3    0  502 -0.52647961395E+03 -0.39022991772E+03 -0.18894788019E+03  0.68202747307E+03  0.25500000920E-02 0.  1.
</event>
<event>
 5   0  0.1078787E-03  0.1454976E+04  0.7818609E-02  0.8914958E-01
        1   -1    0    0  501    0  0.00000000000E+00  0.00000000000E+00  0.98348961042E+03  0.98348961043E+03  0.50400001928E-02 0. -1.
       -1   -1    0    0    0  501  0.00000000000E+00  0.00000000000E+00 -0.53812316649E+03  0.53812316652E+03  0.50400001928E-02 0.  1.
    10030    2    1    2    0    0  0.00000000000E+00  0.00000000000E+00  0.44536644393E+03  0.15216127769E+04  0.14549756608E+04 0.  0.
        5    1    3    3  502    0  0.41891357719E+03 -0.57837913024E+03  0.77752431433E+02  0.71838606198E+03  0.46999998093E+01 0.  1.
       -5    1    3    3    0  502 -0.41891357719E+03  0.57837913024E+03  0.36761401249E+03  0.80322671497E+03  0.46999998093E+01 0. -1.
</event>
<event>
 5   0  0.2150197E-03  0.1462490E+04  0.7818609E-02  0.8909787E-01
        2   -1    0    0  501    0  0.00000000000E+00  0.00000000000E+00  0.80045755921E+03  0.80045755922E+03  0.25500000920E-02 0.  1.
       -2   -1    0    0    0  501  0.00000000000E+00  0.00000000000E+00 -0.66801658882E+03  0.66801658883E+03  0.25500000920E-02 0. -1.
    10030    2    1    2    0    0  0.00000000000E+00  0.00000000000E+00  0.13244097039E+03  0.14684741480E+04  0.14624895599E+04 0.  0.
        3    1    3    3  502    0  0.51202804766E+03 -0.29681526089E+03 -0.36500975455E+03  0.69534462808E+03  0.10100000352E+00 0. -1.
       -3    1    3    3    0  502 -0.51202804766E+03  0.29681526089E+03  0.49745072495E+03  0.77312951996E+03  0.10100000352E+00 0.  1.
</event>
<event>
 5   0  0.1993623E-03  0.1527516E+04  0.7818609E-02  0.8866359E-01
        2   -1    0    0  501    0  0.00000000000E+00  0.00000000000E+00  0.69033033054E+03  0.69033033054E+03  0.25500000920E-02 0.  1.
       -2   -1    0    0    0  501  0.00000000000E+00  0.00000000000E+00 -0.84499541803E+03  0.84499541803E+03  0.25500000920E-02 0. -1.
    10030    2    1    2    0    0  0.00000000000E+00  0.00000000000E+00 -0.15466508749E+03  0.15353257486E+04  0.15275155858E+04 0.  0.
        4    1    3    3  502    0  0.20421834125E+03 -0.50033269946E+03  0.46513654551E+03  0.71301582025E+03  0.12699999809E+01 0.  1.
       -4    1    3    3    0  502 -0.20421834125E+03  0.50033269946E+03 -0.61980163300E+03  0.82230992833E+03  0.12699999809E+01 0. -1.
</event>
<event>
 5   0  0.2111533E-03  0.1490947E+04  0.7818609E-02  0.8890495E-01
        2   -1    0    0  501    0  0.00000000000E+00  0.00000000000E+00  0.38820986757E+03  0.38820986758E+03  0.25500000920E-02 0.  1.
       -2   -1    0    0    0  501  0.00000000000E+00  0.00000000000E+00 -0.14315222027E+04  0.14315222027E+04  0.25500000920E-02 0. -1.
    10030    2    1    2    0    0  0.00000000000E+00  0.00000000000E+00 -0.10433123351E+04  0.18197320703E+04  0.14909474099E+04 0.  0.
        5    1    3    3  502    0  0.18165865993E+03  0.54412664367E+03 -0.11026999846E+04  0.12429975942E+04  0.46999998093E+01 0. -1.
       -5    1    3    3    0  502 -0.18165865993E+03 -0.54412664367E+03  0.59387649439E+02  0.57673447615E+03  0.46999998093E+01 0.  1.
</event>
<event>
 5   0  0.1069697E-03  0.1519492E+04  0.7818609E-02  0.8871593E-01
       -1   -1    0    0    0  501  0.00000000000E+00  0.00000000000E+00  0.66447316390E+03  0.66447316392E+03  0.50400001928E-02 0.  1.
        1   -1    0    0  501    0  0.00000000000E+00  0.00000000000E+00 -0.86867945404E+03  0.86867945405E+03  0.50400001928E-02 0. -1.
    10030    2    1    2    0    0  0.00000000000E+00  0.00000000000E+00 -0.20420629013E+03  0.15331526180E+04  0.15194922642E+04 0.  0.
        2    1    3    3  502    0 -0.44657870509E+03  0.11958489087E+02  0.51794456505E+03  0.68398985210E+03  0.25500000920E-02 0.  1.
       -2    1    3    3    0  502  0.44657870509E+03 -0.11958489087E+02 -0.72215085519E+03  0.84916276588E+03  0.25500000920E-02 0. -1.
</event>
<event>
 5   0  0.1069697E-03  0.1502512E+04  0.7818609E-02  0.8882784E-01
        1   -1    0    0  501    0  0.00000000000E+00  0.00000000000E+00  0.12245249733E+04  0.12245249733E+04  0.50400001928E-02 0.  1.
       -1   -1    0    0    0  501  0.00000000000E+00  0.00000000000E+00 -0.46090161245E+03  0.46090161248E+03  0.50400001928E-02 0. -1.
    10030    2    1    2    0    0  0.00000000000E+00  0.00000000000E+00  0.76362336082E+03  0.16854265858E+04  0.15025119430E+04 0.  0.
        2    1    3    3  502    0 -0.11763446506E+03  0.21844970703E+03  0.11772405912E+04  0.12031016381E+04  0.25500000920E-02 0.  1.
       -2    1    3    3    0  502  0.11763446506E+03 -0.21844970703E+03 -0.41361723041E+03  0.48232494770E+03  0.25500000920E-02 0. -1.
</event>
<event>
 5   0  0.7468375E-04  0.1524351E+04  0.7818609E-02  0.8868420E-01
       -3   -1    0    0    0  501  0.00000000000E+00  0.00000000000E+00  0.25807677150E+03  0.25807679126E+03  0.10100000352E+00 0. -1.
        3   -1    0    0  501    0  0.00000000000E+00  0.00000000000E+00 -0.22509240886E+04  0.22509240909E+04  0.10100000352E+00 0.  1.
    10030    2    1    2    0    0  0.00000000000E+00  0.00000000000E+00 -0.19928473172E+04  0.25090008822E+04  0.15243506805E+04 0.  0.
        5    1    3    3  502    0 -0.25643464706E+03  0.56520909398E+03 -0.17245002383E+04  0.18327965544E+04  0.46999998093E+01 0.  1.
       -5    1    3    3    0  502  0.25643464706E+03 -0.56520909398E+03 -0.26834707889E+03  0.67620432776E+03  0.46999998093E+01 0. -1.
</event>
<event>
 5   0  0.7468375E-04  0.1463715E+04  0.7818609E-02  0.8908947E-01
       -3   -1    0    0    0  501  0.00000000000E+00  0.00000000000E+00  0.54911516287E+03  0.54911517216E+03  0.10100000352E+00 0. -1.
        3   -1    0    0  501    0  0.00000000000E+00  0.00000000000E+00 -0.97541532750E+03  0.97541533273E+03  0.10100000352E+00 0.  1.
    10030    2    1    2    0    0  0.00000000000E+00  0.00000000000E+00 -0.42630016463E+03  0.15245305049E+04  0.14637149415E+04 0.  0.
        1    1    3    3  502    0 -0.24145307918E+03 -0.56631247157E+03 -0.62532707420E+03  0.87752114200E+03  0.50400001928E-02 0.  1.
       -1    1    3    3    0  502  0.24145307918E+03  0.56631247157E+03  0.19902690957E+03  0.64700936289E+03  0.50400001928E-02 0. -1.
</event>
<event>
 5   0  0.1078018E-03  0.1490219E+04  0.7818609E-02  0.8890983E-01
       -1   -1    0    0    0  501  0.00000000000E+00  0.00000000000E+00  0.36584519610E+03  0.36584519613E+03  0.50400001928E-02 0. -1.
        1   -1    0    0  501    0  0.00000000000E+00  0.00000000000E+00 -0.15175498803E+04  0.15175498803E+04  0.50400001928E-02 0.  1.
    10030    2    1    2    0    0  0.00000000000E+00  0.00000000000E+00 -0.11517046842E+04  0.18833950764E+04  0.14902192236E+04 0.  0.
        4    1    3    3  502    0  0.74776601896E+02  0.47001216499E+03 -0.13004223992E+04  0.13847754347E+04  0.12699999809E+01 0.  1.
       -4    1    3    3    0  502 -0.74776601896E+02 -0.47001216499E+03  0.14871771499E+03  0.49861964170E+03  0.12699999809E+01 0. -1.
</event>
<event>
 5   0  0.1087761E-03  0.1500247E+04  0.7818609E-02  0.8884288E-01
        1   -1    0    0  501    0  0.00000000000E+00  0.00000000000E+00  0.15686388162E+04  0.15686388162E+04  0.50400001928E-02 0.  1.
       -1   -1    0    0    0  501  0.00000000000E+00  0.00000000000E+00 -0.35870944295E+03  0.35870944298E+03  0.50400001928E-02 0. -1.
    10030    2    1    2    0    0  0.00000000000E+00  0.00000000000E+00  0.12099293732E+04  0.19273482591E+04  0.15002473876E+04 0.  0.
        3    1    3    3  502    0  0.34486723253E+02 -0.19843838235E+03 -0.32332136394E+03  0.38092497982E+03  0.10100000352E+00 0. -1.
       -3    1    3    3    0  502 -0.34486723253E+02  0.19843838235E+03  0.15332507371E+04  0.15464232793E+04  0.10100000352E+00 0.  1.
</event>
<event>
 5   0  0.1993623E-03  0.1479721E+04  0.7818609E-02  0.8898052E-01
        2   -1    0    0  501    0  0.00000000000E+00  0.00000000000E+00  0.17295170188E+04  0.17295170188E+04  0.25500000920E-02 0.  1.
       -2   -1    0    0    0  501  0.00000000000E+00  0.00000000000E+00 -0.31650065463E+03  0.31650065464E+03  0.25500000920E-02 0. -1.
    10030    2    1    2    0    0  0.00000000000E+00  0.00000000000E+00  0.14130163642E+04  0.20460176734E+04  0.14797206069E+04 0.  0.
        4    1    3    3  502    0 -0.32560895201E+03  0.64569098925E+03  0.92273082528E+03  0.11723360576E+04  0.12699999809E+01 0.  1.
       -4    1    3    3    0  502  0.32560895201E+03 -0.64569098925E+03  0.49028553890E+03  0.87368161580E+03  0.12699999809E+01 0. -1.
</event>
<event>
 5   0  0.2111533E-03  0.1449856E+04  0.7818609E-02  0.8918500E-01
       -2   -1    0    0    0  501  0.00000000000E+00  0.00000000000E+00  0.45655745519E+03  0.45655745519E+03  0.25500000920E-02 0.  1.
        2   -1    0    0  501    0  0.00000000000E+00  0.00000000000E+00 -0.11510499527E+04  0.11510499527E+04  0.25500000920E-02 0. -1.
    10030    2    1    2    0    0  0.00000000000E+00  0.00000000000E+00 -0.69449249747E+03  0.16076074078E+04  0.14498557683E+04 0.  0.
        5    1    3    3  502    0 -0.30448538671E+03  0.37633901049E+03 -0.94554490797E+03  0.10622709939E+04  0.46999998093E+01 0. -1.
       -5    1    3    3    0  502  0.30448538671E+03 -0.37633901049E+03  0.25105241050E+03  0.54533641393E+03  0.46999998093E+01 0.  1.
</event>
<event>
 5   0  0.1078787E-03  0.1423618E+04  0.7818609E-02  0.8936898E-01
       -1   -1    0    0    0  501  0.00000000000E+00  0.00000000000E+00  0.43136345360E+03  0.43136345363E+03  0.50400001928E-02 0. -1.
        1   -1    0    0  501    0  0.00000000000E+00  0.00000000000E+00 -0.11745824231E+04  0.11745824231E+04  0.50400001928E-02 0.  1.
    10030    2    1    2    0    0  0.00000000000E+00  0.00000000000E+00 -0.74321896946E+03  0.16059458767E+04  0.14236178288E+04 0.  0.
        5    1    3    3  502    0  0.63701663645E+03 -0.23710387094E+03 -0.60995467296E+03  0.91327719440E+03  0.46999998093E+01 0.  1.
       -5    1    3    3    0  502 -0.63701663645E+03  0.23710387094E+03 -0.13326429650E+03  0.69266868231E+03  0.46999998093E+01 0. -1.
</event>
<event>
 5   0  0.2094566E-03  0.1505999E+04  0.7818609E-02  0.8880473E-01
        2   -1    0    0  501    0  0.00000000000E+00  0.00000000000E+00  0.11784461380E+04  0.11784461380E+04  0.25500000920E-02 0. -1.
       -2   -1    0    0    0  501  0.00000000000E+00  0.00000000000E+00 -0.48114912799E+03  0.48114912800E+03  0.25500000920E-02 0.  1.
    10030    2    1    2    0    0  0.00000000000E+00  0.00000000000E+00  0.69729701003E+03  0.16595952660E+04  0.15059991125E+04 0.  0.
        1    1    3    3  502    0  0.50000059907E+03 -0.56230031935E+03  0.38032152226E+03  0.84310539586E+03  0.50400001928E-02 0.  1.
       -1    1    3    3    0  502 -0.50000059907E+03  0.56230031935E+03  0.31697548776E+03  0.81648987016E+03  0.50400001928E-02 0. -1.
</event>
<event>
 5   0  0.1961098E-03  0.1498415E+04  0.7818609E-02  0.8885508E-01
       -2   -1    0    0    0  501  0.00000000000E+00  0.00000000000E+00  0.75099734620E+03  0.75099734621E+03  0.25500000920E-02 0. -1.
        2   -1    0    0  501    0  0.00000000000E+00  0.00000000000E+00 -0.74742206229E+03  0.74742206229E+03  0.25500000920E-02 0.  1.
    10030    2    1    2    0    0  0.00000000000E+00  0.00000000000E+00  0.35752839183E+01  0.14984194085E+04  0.14984151431E+04 0.  0.
        2    1    3    3  502    0  0.35382144929E+03  0.40490854133E+03  0.52348965459E+03  0.75045450447E+03  0.25500000920E-02 0. -1.
       -2    1    3    3    0  502 -0.35382144929E+03 -0.40490854133E+03 -0.51991437067E+03  0.74796490403E+03  0.25500000920E-02 0.  1.
</event>
<event>
 5   0  0.1961098E-03  0.1473022E+04  0.7818609E-02  0.8902594E-01
        2   -1    0    0  501    0  0.00000000000E+00  0.00000000000E+00  0.90624726538E+03  0.90624726538E+03  0.25500000920E-02 0. -1.
       -2   -1    0    0    0  501  0.00000000000E+00  0.00000000000E+00 -0.59856544565E+03  0.59856544566E+03  0.25500000920E-02 0.  1.
    10030    2    1    2    0    0  0.00000000000E+00  0.00000000000E+00  0.30768181973E+03  0.15048127110E+04  0.14730217898E+04 0.  0.
        2    1    3    3  502    0  0.22743429946E+03 -0.36868062557E+03 -0.45466242696E+03  0.62798860399E+03  0.25500000920E-02 0.  1.
       -2    1    3    3    0  502 -0.22743429946E+03  0.36868062557E+03  0.76234424669E+03  0.87682410705E+03  0.25500000920E-02 0. -1.
</event>
<event>
 5   0  0.1078018E-03  0.1775218E+04  0.7818609E-02  0.8719590E-01
       -1   -1    0    0    0  501  0.00000000000E+00  0.00000000000E+00  0.62542183510E+03  0.62542183512E+03  0.50400001928E-02 0.  1.
        1   -1    0    0  501    0  0.00000000000E+00  0.00000000000E+00 -0.12597097895E+04  0.12597097895E+04  0.50400001928E-02 0. -1.
    10030    2    1    2    0    0  0.00000000000E+00  0.00000000000E+00 -0.63428795435E+03  0.18851316246E+04  0.17752183057E+04 0.  0.
        4    1    3    3  502    0 -0.80436403615E+03 -0.36838881528E+03 -0.39325133838E+03  0.96817356394E+03  0.12699999809E+01 0. -1.
       -4    1    3    3    0  502  0.80436403615E+03  0.36838881528E+03 -0.24103661597E+03  0.91695806066E+03  0.12699999809E+01 0.  1.
</event>
<event>
 5   0  0.1077140E-03  0.1493147E+04  0.7818609E-02  0.8889023E-01
       -1   -1    0    0    0  501  0.00000000000E+00  0.00000000000E+00  0.41110542793E+03  0.41110542796E+03  0.50400001928E-02 0. -1.
        1   -1    0    0  501    0  0.00000000000E+00  0.00000000000E+00 -0.13557877864E+04  0.13557877865E+04  0.50400001928E-02 0.  1.
    10030    2    1    2    0    0  0.00000000000E+00  0.00000000000E+00 -0.94468235851E+03  0.17668932144E+04  0.14931466347E+04 0.  0.
        1    1    3    3  502    0  0.11288533668E+03  0.30987715667E+03 -0.12649151129E+04  0.13072020480E+04  0.50400001928E-02 0.  1.
       -1    1    3    3    0  502 -0.11288533668E+03 -0.30987715667E+03  0.32023275438E+03  0.45969116640E+03  0.50400001928E-02 0. -1.
</event>
<event>
 5   0  0.2111533E-03  0.1461776E+04  0.7818609E-02  0.8910277E-01
        2   -1    0    0  501    0  0.00000000000E+00  0.00000000000E+00  0.94265538310E+03  0.94265538310E+03  0.25500000920E-02 0. -1.
       -2   -1    0    0    0  501  0.00000000000E+00  0.00000000000E+00 -0.56669423968E+03  0.56669423969E+03  0.25500000920E-02 0.  1.
    10030    2    1    2    0    0  0.00000000000E+00  0.00000000000E+00  0.37596114341E+03  0.15093496228E+04  0.14617761465E+04 0.  0.
        5    1    3    3  502    0  0.58759169603E+03  0.67657615719E+02 -0.25533336745E+03  0.64425055121E+03  0.46999998093E+01 0.  1.
       -5    1    3    3    0  502 -0.58759169603E+03 -0.67657615719E+02  0.63129451086E+03  0.86509907158E+03  0.46999998093E+01 0. -1.
</event>
<event>
 5   0  0.1078787E-03  0.1306918E+04  0.7818609E-02  0.9024097E-01
       -1   -1    0    0    0  501  0.00000000000E+00  0.00000000000E+00  0.32203293217E+03  0.32203293221E+03  0.50400001928E-02 0.  1.
        1   -1    0    0  501    0  0.00000000000E+00  0.00000000000E+00 -0.13259773078E+04  0.13259773078E+04  0.50400001928E-02 0. -1.
    10030    2    1    2    0    0  0.00000000000E+00  0.00000000000E+00 -0.10039443757E+04  0.16480102401E+04  0.13069175345E+04 0.  0.
        5    1    3    3  502    0 -0.16736198466E+03 -0.15486417940E+03  0.27021659448E+03  0.35359870743E+03  0.46999998093E+01 0.  1.
       -5    1    3    3    0  502  0.16736198466E+03  0.15486417940E+03 -0.12741609701E+04  0.12944115326E+04  0.46999998093E+01 0. -1.
</event>
<event>
 5   0  0.1961098E-03  0.1571283E+04  0.7818609E-02  0.8838387E-01
       -2   -1    0    0    0  501  0.00000000000E+00  0.00000000000E+00  0.36230689145E+03  0.36230689146E+03  0.25500000920E-02 0. -1.
        2   -1    0    0  501    0  0.00000000000E+00  0.00000000000E+00 -0.17036182863E+04  0.17036182863E+04  0.25500000920E-02 0.  1.
    10030    2    1    2    0    0  0.00000000000E+00  0.00000000000E+00 -0.13413113949E+04  0.20659251778E+04  0.15712831006E+04 0.  0.
        2    1    3    3  502    0  0.45450996315E+03 -0.63107893710E+03 -0.52428863251E+03  0.93793310083E+03  0.25500000920E-02 0.  1.
       -2    1    3    3    0  502 -0.45450996315E+03  0.63107893710E+03 -0.81702276238E+03  0.11279920770E+04  0.25500000920E-02 0. -1.
</event>
<event>
 5   0  0.1993623E-03  0.1572315E+04  0.7818609E-02  0.8837739E-01
        2   -1    0    0  501    0  0.00000000000E+00  0.00000000000E+00  0.94948421053E+03  0.94948421053E+03  0.25500000920E-02 0. -1.
       -2   -1    0    0    0  501  0.00000000000E+00  0.00000000000E+00 -0.65092577082E+03  0.65092577082E+03  0.25500000920E-02 0.  1.
    10030    2    1    2    0    0  0.00000000000E+00  0.00000000000E+00  0.29855843971E+03  0.16004099814E+04  0.15723151613E+04 0.  0.
        4    1    3    3  502    0 -0.36285167075E+02  0.21378092393E+03 -0.61988405169E+03  0.65671664150E+03  0.12699999809E+01 0.  1.
       -4    1    3    3    0  502  0.36285167075E+02 -0.21378092393E+03  0.91844249140E+03  0.94369333986E+03  0.12699999809E+01 0. -1.
</event>
<event>
 5   0  0.1078018E-03  0.1479278E+04  0.7818609E-02  0.8898351E-01
       -1   -1    0    0    0  501  0.00000000000E+00  0.00000000000E+00  0.14442679872E+04  0.14442679872E+04  0.50400001928E-02 0. -1.
        1   -1    0    0  501    0  0.00000000000E+00  0.00000000000E+00 -0.37878435646E+03  0.37878435649E+03  0.50400001928E-02 0.  1.
    10030    2    1    2    0    0  0.00000000000E+00  0.00000000000E+00  0.10654836307E+04  0.18230523437E+04  0.14792783648E+04 0.  0.
        4    1    3    3  502    0 -0.30823202827E+03 -0.13286176343E+03 -0.27952138579E+03  0.43679863719E+03  0.12699999809E+01 0.  1.
       -4    1    3    3    0  502  0.30823202827E+03  0.13286176343E+03  0.13450050165E+04  0.13862537065E+04  0.12699999809E+01 0. -1.
</event>
<event>
 5   0  0.7468375E-04  0.1508276E+04  0.7818609E-02  0.8878968E-01
        4   -1    0    0  501    0  0.00000000000E+00  0.00000000000E+00  0.11772784874E+04  0.11772791724E+04  0.12699999809E+01 0.  1.
       -4   -1    0    0    0  501  0.00000000000E+00  0.00000000000E+00 -0.48308208992E+03  0.48308375930E+03  0.12699999809E+01 0. -1.
    10030    2    1    2    0    0  0.00000000000E+00  0.00000000000E+00  0.69419639749E+03  0.16603629317E+04  0.15082759783E+04 0.  0.
        2    1    3    3  502    0  0.21803782523E+03  0.72101791886E+03  0.30715177925E+03  0.81347990021E+03  0.25500000920E-02 0. -1.
       -2    1    3    3    0  502 -0.21803782523E+03 -0.72101791886E+03  0.38704461824E+03  0.84688303151E+03  0.25500000920E-02 0.  1.
</event>
<event>
 5   0  0.2150197E-03  0.1486311E+04  0.7818609E-02  0.8893608E-01
       -2   -1    0    0    0  501  0.00000000000E+00  0.00000000000E+00  0.56240274267E+03  0.56240274268E+03  0.25500000920E-02 0.  1.
        2   -1    0    0  501    0  0.00000000000E+00  0.00000000000E+00 -0.98200041375E+03  0.98200041376E+03  0.25500000920E-02 0. -1.
    10030    2    1    2    0    0  0.00000000000E+00  0.00000000000E+00 -0.41959767108E+03  0.15444031564E+04  0.14863105005E+04 0.  0.
        3    1    3    3  502    0 -0.61639754737E+03  0.18314654830E+03  0.17730901304E+03  0.66702855326E+03  0.10100000352E+00 0.  1.
       -3    1    3    3    0  502  0.61639754737E+03 -0.18314654830E+03 -0.59690668412E+03  0.87737460318E+03  0.10100000352E+00 0. -1.
</event>
<event>
 5   0  0.1993623E-03  0.1510612E+04  0.7818609E-02  0.8877427E-01
        2   -1    0    0  501    0  0.00000000000E+00  0.00000000000E+00  0.30698310912E+03  0.30698310913E+03  0.25500000920E-02 0. -1.
       -2   -1    0    0    0  501  0.00000000000E+00  0.00000000000E+00 -0.18583667804E+04  0.18583667804E+04  0.25500000920E-02 0.  1.
    10030    2    1    2    0    0  0.00000000000E+00  0.00000000000E+00 -0.15513836713E+04  0.21653498895E+04  0.15106120775E+04 0.  0.
        4    1    3    3  502    0  0.57826579825E+03 -0.23470049767E+03 -0.16583717884E+03  0.64573929710E+03  0.12699999809E+01 0. -1.
       -4    1    3    3    0  502 -0.57826579825E+03  0.23470049767E+03 -0.13855464924E+04  0.15196105924E+04  0.12699999809E+01 0.  1.
</event>
<event>
 5   0  0.1069697E-03  0.1252001E+04  0.7818609E-02  0.9068519E-01
        1   -1    0    0  501    0  0.00000000000E+00  0.00000000000E+00  0.91818693097E+03  0.91818693098E+03  0.50400001928E-02 0. -1.
       -1   -1    0    0    0  501  0.00000000000E+00  0.00000000000E+00 -0.42679425972E+03  0.42679425975E+03  0.50400001928E-02 0.  1.
    10030    2    1    2    0    0  0.00000000000E+00  0.00000000000E+00  0.49139267124E+03  0.13449811907E+04  0.12520014561E+04 0.  0.
        2    1    3    3  502    0  0.25742664197E+03  0.60244930717E+02 -0.36387584635E+03  0.44978167953E+03  0.25500000920E-02 0.  1.
       -2    1    3    3    0  502 -0.25742664197E+03 -0.60244930717E+02  0.85526851759E+03  0.89519951121E+03  0.25500000920E-02 0. -1.
</event>
<event>
 5   0  0.2111533E-03  0.1405586E+04  0.7818609E-02  0.8949785E-01
        2   -1    0    0  501    0  0.00000000000E+00  0.00000000000E+00  0.10392403648E+04  0.10392403648E+04  0.25500000920E-02 0.  1.
       -2   -1    0    0    0  501  0.00000000000E+00  0.00000000000E+00 -0.47526832241E+03  0.47526832242E+03  0.25500000920E-02 0. -1.
    10030    2    1    2    0    0  0.00000000000E+00  0.00000000000E+00  0.56397204237E+03  0.15145086872E+04  0.14055860340E+04 0.  0.
        5    1    3    3  502    0  0.89706420406E+02 -0.79598773919E+02  0.10281158545E+04  0.10350978248E+04  0.46999998093E+01 0.  1.
       -5    1    3    3    0  502 -0.89706420406E+02  0.79598773919E+02 -0.46414381211E+03  0.47941086240E+03  0.46999998093E+01 0. -1.
</event>
<event>
 5   0  0.1078787E-03  0.1503093E+04  0.7818609E-02  0.8882399E-01
        1   -1    0    0  501    0  0.00000000000E+00  0.00000000000E+00  0.65852023925E+03  0.65852023927E+03  0.50400001928E-02 0.  1.
       -1   -1    0    0    0  501  0.00000000000E+00  0.00000000000E+00 -0.85771364380E+03  0.85771364381E+03  0.50400001928E-02 0. -1.
    10030    2    1    2    0    0  0.00000000000E+00  0.00000000000E+00 -0.19919340455E+03  0.15162338831E+04  0.15030925373E+04 0.  0.
        5    1    3    3  502    0  0.27378855000E+03 -0.52407956119E+03 -0.56752744532E+03  0.81959078066E+03  0.46999998093E+01 0. -1.
       -5    1    3    3    0  502 -0.27378855000E+03  0.52407956119E+03  0.36833404077E+03  0.69664310242E+03  0.46999998093E+01 0.  1.
</event>
<event>
 5   0  0.1993623E-03  0.1270847E+04  0.7818609E-02  0.9053009E-01
        2   -1    0    0  501    0  0.00000000000E+00  0.00000000000E+00  0.69785189883E+03  0.69785189883E+03  0.25500000920E-02 0. -1.
       -2   -1    0    0    0  501  0.00000000000E+00  0.00000000000E+00 -0.57857951084E+03  0.57857951084E+03  0.25500000920E-02 0.  1.
    10030    2    1    2    0    0  0.00000000000E+00  0.00000000000E+00  0.11927238799E+03  0.12764314097E+04  0.12708466631E+04 0.  0.
        4    1    3    3  502    0 -0.54837405421E+03 -0.23782852686E+03 -0.15691435034E+03  0.61798077459E+03  0.12699999809E+01 0. -1.
       -4    1    3    3    0  502  0.54837405421E+03  0.23782852686E+03  0.27618673833E+03  0.65845063509E+03  0.12699999809E+01 0.  1.
</event>
<event>
 5   0  0.1077140E-03  0.1505412E+04  0.7818609E-02  0.8880862E-01
       -1   -1    0    0    0  501  0.00000000000E+00  0.00000000000E+00  0.38476185179E+03  0.38476185183E+03  0.50400001928E-02 0.  1.
        1   -1    0    0  501    0  0.00000000000E+00  0.00000000000E+00 -0.14725108589E+04  0.14725108589E+04  0.50400001928E-02 0. -1.
    10030    2    1    2    0    0  0.00000000000E+00  0.00000000000E+00 -0.10877490071E+04  0.18572727107E+04  0.15054115781E+04 0.  0.
        1    1    3    3  502    0  0.67177843442E+03 -0.78038112991E+02 -0.95154703180E+03  0.11673979466E+04  0.50400001928E-02 0. -1.
       -1    1    3    3    0  502 -0.67177843442E+03  0.78038112991E+02 -0.13620197529E+03  0.68987476409E+03  0.50400001928E-02 0.  1.
</event>
<event>
 5   0  0.2111533E-03  0.1521696E+04  0.7818609E-02  0.8870152E-01
       -2   -1    0    0    0  501  0.00000000000E+00  0.00000000000E+00  0.45146015124E+03  0.45146015125E+03  0.25500000920E-02 0.  1.
        2   -1    0    0  501    0  0.00000000000E+00  0.00000000000E+00 -0.12822600262E+04  0.12822600262E+04  0.25500000920E-02 0. -1.
    10030    2    1    2    0    0  0.00000000000E+00  0.00000000000E+00 -0.83079987491E+03  0.17337201774E+04  0.15216955088E+04 0.  0.
        5    1    3    3  502    0 -0.75679006784E+03 -0.11232294257E+02 -0.50372477537E+03  0.90918541043E+03  0.46999998093E+01 0. -1.
       -5    1    3    3    0  502  0.75679006784E+03  0.11232294257E+02 -0.32707509954E+03  0.82453476697E+03  0.46999998093E+01 0.  1.
</event>
<event>
 5   0  0.1078787E-03  0.1410549E+04  0.7818609E-02  0.8946218E-01
       -1   -1    0    0    0  501  0.00000000000E+00  0.00000000000E+00  0.64222129159E+03  0.64222129161E+03  0.50400001928E-02 0. -1.
        1   -1    0    0  501    0  0.00000000000E+00  0.00000000000E+00 -0.77451822118E+03  0.77451822120E+03  0.50400001928E-02 0.  1.
    10030    2    1    2    0    0  0.00000000000E+00  0.00000000000E+00 -0.13229692959E+03  0.14167395128E+04  0.14105489604E+04 0.  0.
        5    1    3    3  502    0  0.16687401084E+03  0.57608893949E+03  0.30651170805E+03  0.67357027760E+03  0.46999998093E+01 0. -1.
       -5    1    3    3    0  502 -0.16687401084E+03 -0.57608893949E+03 -0.43880863764E+03  0.74316923521E+03  0.46999998093E+01 0.  1.
</event>
<event>
 5   0  0.1078787E-03  0.1533758E+04  0.7818609E-02  0.8862310E-01
       -1   -1    0    0    0  501  0.00000000000E+00  0.00000000000E+00  0.26336598766E+03  0.26336598771E+03  0.50400001928E-02 0. -1.
        1   -1    0    0  501    0  0.00000000000E+00  0.00000000000E+00 -0.22330257655E+04  0.22330257655E+04  0.50400001928E-02 0.  1.
    10030    2    1    2    0    0  0.00000000000E+00  0.00000000000E+00 -0.19696597779E+04  0.24963917533E+04  0.15337575249E+04 0.  0.
        5    1    3    3  502    0  0.54316084392E+03  0.54004807439E+03 -0.10458459041E+04  0.12963376760E+04  0.46999998093E+01 0. -1.
       -5    1    3    3    0  502 -0.54316084392E+03 -0.54004807439E+03 -0.92381387376E+03  0.12000540773E+04  0.46999998093E+01 0.  1.
</event>
<event>
 5   0  0.2111533E-03  0.1524110E+04  0.7818609E-02  0.8868577E-01
       -2   -1    0    0    0  501  0.00000000000E+00  0.00000000000E+00  0.61783156919E+03  0.61783156919E+03  0.25500000920E-02 0. -1.
        2   -1    0    0  501    0  0.00000000000E+00  0.00000000000E+00 -0.93994466740E+03  0.93994466741E+03  0.25500000920E-02 0.  1.
    10030    2    1    2    0    0  0.00000000000E+00  0.00000000000E+00 -0.32211309822E+03  0.15577762366E+04  0.15241095614E+04 0.  0.
        5    1    3    3  502    0 -0.96345616595E+02 -0.21162566239E+03  0.58067162737E+03  0.62551540960E+03  0.46999998093E+01 0. -1.
       -5    1    3    3    0  502  0.96345616595E+02  0.21162566239E+03 -0.90278472558E+03  0.93226082700E+03  0.46999998093E+01 0.  1.
</event>
<event>
 5   0  0.1077140E-03  0.1360125E+04  0.7818609E-02  0.8983199E-01
       -1   -1    0    0    0  501  0.00000000000E+00  0.00000000000E+00  0.25329685462E+03  0.25329685467E+03  0.50400001928E-02 0.  1.
        1   -1    0    0  501    0  0.00000000000E+00  0.00000000000E+00 -0.18258612417E+04  0.18258612417E+04  0.50400001928E-02 0. -1.
    10030    2    1    2    0    0  0.00000000000E+00  0.00000000000E+00 -0.15725643871E+04  0.20791580964E+04  0.13601248612E+04 0.  0.
        1    1    3    3  502    0  0.11258477925E+03 -0.11429925586E+03 -0.17965181768E+04  0.18036677111E+04  0.50400001928E-02 0. -1.
       -1    1    3    3    0  502 -0.11258477925E+03  0.11429925586E+03  0.22395378974E+03  0.27549038527E+03  0.50400001928E-02 0.  1.
</event>
<event>
 5   0  0.1078018E-03  0.1466881E+04  0.7818609E-02  0.8906780E-01
       -1   -1    0    0    0  501  0.00000000000E+00  0.00000000000E+00  0.10415129828E+04  0.10415129828E+04  0.50400001928E-02 0.  1.
        1   -1    0    0  501    0  0.00000000000E+00  0.00000000000E+00 -0.51649360771E+03  0.51649360774E+03  0.50400001928E-02 0. -1.
    10030    2    1    2    0    0  0.00000000000E+00  0.00000000000E+00  0.52501937505E+03  0.15580065905E+04  0.14668807695E+04 0.  0.
        4    1    3    3  502    0  0.24643738141E+02 -0.64778060702E+03 -0.10188670139E+03  0.65620845886E+03  0.12699999809E+01 0. -1.
       -4    1    3    3    0  502 -0.24643738141E+02  0.64778060702E+03  0.62690607644E+03  0.90179813165E+03  0.12699999809E+01 0.  1.
</event>
<event>
 5   0  0.1078787E-03  0.1504839E+04  0.7818609E-02  0.8881242E-01
        1   -1    0    0  501    0  0.00000000000E+00  0.00000000000E+00  0.86829341906E+03  0.86829341907E+03  0.50400001928E-02 0. -1.
       -1   -1    0    0    0  501  0.00000000000E+00  0.00000000000E+00 -0.65200876794E+03  0.65200876796E+03  0.50400001928E-02 0.  1.
    10030    2    1    2    0    0  0.00000000000E+00  0.00000000000E+00  0.21628465112E+03  0.15203021870E+04  0.15048387587E+04 0.  0.
        5    1    3    3  502    0  0.48019789385E+03  0.57412805974E+03  0.18574167618E+03  0.77119070697E+03  0.46999998093E+01 0. -1.
       -5    1    3    3    0  502 -0.48019789385E+03 -0.57412805974E+03  0.30542974941E+02  0.74911148006E+03  0.46999998093E+01 0.  1.
</event>
<event>
 5   0  0.1078018E-03  0.1488281E+04  0.7818609E-02  0.8892283E-01
        1   -1    0    0  501    0  0.00000000000E+00  0.00000000000E+00  0.11207765952E+04  0.11207765953E+04  0.50400001928E-02 0.  1.
       -1   -1    0    0    0  501  0.00000000000E+00  0.00000000000E+00 -0.49407297354E+03  0.49407297357E+03  0.50400001928E-02 0. -1.
    10030    2    1    2    0    0  0.00000000000E+00  0.00000000000E+00  0.62670362171E+03  0.16148495688E+04  0.14882814588E+04 0.  0.
        4    1    3    3  502    0  0.42008575856E+03 -0.59838961900E+03  0.46370618476E+03  0.86577550171E+03  0.12699999809E+01 0.  1.
       -4    1    3    3    0  502 -0.42008575856E+03  0.59838961900E+03  0.16299743694E+03  0.74907406712E+03  0.12699999809E+01 0. -1.
</event>
<event>
 5   0  0.1078018E-03  0.1200379E+04  0.7818609E-02  0.9112525E-01
        1   -1    0    0  501    0  0.00000000000E+00  0.00000000000E+00  0.76261835169E+03  0.76261835170E+03  0.50400001928E-02 0.  1.
       -1   -1    0    0    0  501  0.00000000000E+00  0.00000000000E+00 -0.47235609242E+03  0.47235609245E+03  0.50400001928E-02 0. -1.
    10030    2    1    2    0    0  0.00000000000E+00  0.00000000000E+00  0.29026225927E+03  0.12349744442E+04  0.12003789812E+04 0.  0.
        4    1    3    3  502    0  0.28416723962E+03  0.10205223028E+03  0.67879065476E+03  0.74291590619E+03  0.12699999809E+01 0.  1.
       -4    1    3    3    0  502 -0.28416723962E+03 -0.10205223028E+03 -0.38852839549E+03  0.49205853796E+03  0.12699999809E+01 0. -1.
</event>
<event>
 5   0  0.1078018E-03  0.1449671E+04  0.7818609E-02  0.8918629E-01
        1   -1    0    0  501    0  0.00000000000E+00  0.00000000000E+00  0.85679410367E+03  0.85679410368E+03  0.50400001928E-02 0. -1.
       -1   -1    0    0    0  501  0.00000000000E+00  0.00000000000E+00 -0.61319999742E+03  0.61319999744E+03  0.50400001928E-02 0.  1.
    10030    2    1    2    0    0  0.00000000000E+00  0.00000000000E+00  0.24359410625E+03  0.14699941011E+04  0.14496705035E+04 0.  0.
        4    1    3    3  502    0 -0.25672450261E+03  0.18858118627E+03 -0.53841776779E+03  0.62559223111E+03  0.12699999809E+01 0.  1.
       -4    1    3    3    0  502  0.25672450261E+03 -0.18858118627E+03  0.78201187403E+03  0.84440187002E+03  0.12699999809E+01 0. -1.
</event>
<event>
 5   0  0.1087761E-03  0.1340730E+04  0.7818609E-02  0.8997875E-01
        1   -1    0    0  501    0  0.00000000000E+00  0.00000000000E+00  0.39565913852E+03  0.39565913856E+03  0.50400001928E-02 0. -1.
       -1   -1    0    0    0  501  0.00000000000E+00  0.00000000000E+00 -0.11357995089E+04  0.11357995089E+04  0.50400001928E-02 0.  1.
    10030    2    1    2    0    0  0.00000000000E+00  0.00000000000E+00 -0.74014037039E+03  0.15314586475E+04  0.13407303312E+04 0.  0.
        3    1    3    3  502    0  0.44895132852E+03  0.27902415541E+03  0.10086352206E+03  0.53813124325E+03  0.10100000352E+00 0.  1.
       -3    1    3    3    0  502 -0.44895132852E+03 -0.27902415541E+03 -0.84100389245E+03  0.99332740423E+03  0.10100000352E+00 0. -1.
</event>
<event>
 5   0  0.1961098E-03  0.1374799E+04  0.7818609E-02  0.8972265E-01
       -2   -1    0    0    0  501  0.00000000000E+00  0.00000000000E+00  0.30005636433E+03  0.30005636434E+03  0.25500000920E-02 0. -1.
        2   -1    0    0  501    0  0.00000000000E+00  0.00000000000E+00 -0.15747645837E+04  0.15747645837E+04  0.25500000920E-02 0.  1.
    10030    2    1    2    0    0  0.00000000000E+00  0.00000000000E+00 -0.12747082194E+04  0.18748209480E+04  0.13747990917E+04 0.  0.
        2    1    3    3  502    0 -0.12490767169E+03 -0.19223771065E+03  0.24638683167E+03  0.33654677932E+03  0.25500000920E-02 0. -1.
       -2    1    3    3    0  502  0.12490767169E+03  0.19223771065E+03 -0.15210950510E+04  0.15382741687E+04  0.25500000920E-02 0.  1.
</event>
<event>
 5   0  0.1077140E-03  0.1356552E+04  0.7818609E-02  0.8985883E-01
        1   -1    0    0  501    0  0.00000000000E+00  0.00000000000E+00  0.20545352885E+04  0.20545352885E+04  0.50400001928E-02 0.  1.
       -1   -1    0    0    0  501  0.00000000000E+00  0.00000000000E+00 -0.22392342796E+03  0.22392342802E+03  0.50400001928E-02 0. -1.
    10030    2    1    2    0    0  0.00000000000E+00  0.00000000000E+00  0.18306118605E+04  0.22784587165E+04  0.13565523724E+04 0.  0.
        1    1    3    3  502    0 -0.10918812283E+03  0.66930510118E+03  0.93702537985E+03  0.11566796995E+04  0.50400001928E-02 0. -1.
       -1    1    3    3    0  502  0.10918812283E+03 -0.66930510118E+03  0.89358648070E+03  0.11217790171E+04  0.50400001928E-02 0.  1.
</event>
<event>
 5   0  0.1077140E-03  0.1600877E+04  0.7818609E-02  0.8820010E-01
        1   -1    0    0  501    0  0.00000000000E+00  0.00000000000E+00  0.98157771686E+03  0.98157771687E+03  0.50400001928E-02 0.  1.
       -1   -1    0    0    0  501  0.00000000000E+00  0.00000000000E+00 -0.65272617812E+03  0.65272617814E+03  0.50400001928E-02 0. -1.
    10030    2    1    2    0    0  0.00000000000E+00  0.00000000000E+00  0.32885153874E+03  0.16343038950E+04  0.16008765995E+04 0.  0.
        1    1    3    3  502    0  0.33044888690E+03  0.72882292753E+03  0.14610259422E+03  0.81346499285E+03  0.50400001928E-02 0. -1.
       -1    1    3    3    0  502 -0.33044888690E+03 -0.72882292753E+03  0.18274894452E+03  0.82083890215E+03  0.50400001928E-02 0.  1.
</event>
<event>
 5   0  0.7468375E-04  0.1474795E+04  0.7818609E-02  0.8901389E-01
        4   -1    0    0  501    0  0.00000000000E+00  0.00000000000E+00  0.52722488507E+03  0.52722641469E+03  0.12699999809E+01 0.  1.
       -4   -1    0    0    0  501  0.00000000000E+00  0.00000000000E+00 -0.10313495891E+04  0.10313503710E+04  0.12699999809E+01 0. -1.
    10030    2    1    2    0    0  0.00000000000E+00  0.00000000000E+00 -0.50412470402E+03  0.15585767857E+04  0.14747948602E+04 0.  0.
        4    1    3    3  502    0  0.43288830599E+03 -0.21604021315E+02 -0.88252175622E+03  0.98321171794E+03  0.12699999809E+01 0. -1.
       -4    1    3    3    0  502 -0.43288830599E+03  0.21604021315E+02  0.37839705220E+03  0.57536506777E+03  0.12699999809E+01 0.  1.
</event>
<event>
 5   0  0.1069697E-03  0.1618054E+04  0.7818609E-02  0.8809533E-01
       -1   -1    0    0    0  501  0.00000000000E+00  0.00000000000E+00  0.74438033370E+03  0.74438033372E+03  0.50400001928E-02 0. -1.
        1   -1    0    0  501    0  0.00000000000E+00  0.00000000000E+00 -0.87928811215E+03  0.87928811216E+03  0.50400001928E-02 0.  1.
    10030    2    1    2    0    0  0.00000000000E+00  0.00000000000E+00 -0.13490777845E+03  0.16236684459E+04  0.16180541133E+04 0.  0.
        2    1    3    3  502    0  0.47555038716E+03  0.62572365784E+02 -0.72122144204E+03  0.86615462831E+03  0.25500000920E-02 0.  1.
       -2    1    3    3    0  502 -0.47555038716E+03 -0.62572365784E+02  0.58631366359E+03  0.75751381757E+03  0.25500000920E-02 0. -1.
</event>
<event>
 5   0  0.1087761E-03  0.1532990E+04  0.7818609E-02  0.8862807E-01
        1   -1    0    0  501    0  0.00000000000E+00  0.00000000000E+00  0.43556622326E+03  0.43556622329E+03  0.50400001928E-02 0.  1.
       -1   -1    0    0    0  501  0.00000000000E+00  0.00000000000E+00 -0.13488523490E+04  0.13488523490E+04  0.50400001928E-02 0. -1.
    10030    2    1    2    0    0  0.00000000000E+00  0.00000000000E+00 -0.91328612575E+03  0.17844185723E+04  0.15329899196E+04 0.  0.
        3    1    3    3  502    0  0.25617294226E+03  0.51895377559E+03  0.12835477836E+03  0.59280060465E+03  0.10100000352E+00 0.  1.
       -3    1    3    3    0  502 -0.25617294226E+03 -0.51895377559E+03 -0.10416409041E+04  0.11916179677E+04  0.10100000352E+00 0. -1.
</event>
<event>
 5   0  0.1078018E-03  0.1419385E+04  0.7818609E-02  0.8939905E-01
       -1   -1    0    0    0  501  0.00000000000E+00  0.00000000000E+00  0.54358393444E+03  0.54358393446E+03  0.50400001928E-02 0.  1.
        1   -1    0    0  501    0  0.00000000000E+00  0.00000000000E+00 -0.92656088338E+03  0.92656088339E+03  0.50400001928E-02 0. -1.
    10030    2    1    2    0    0  0.00000000000E+00  0.00000000000E+00 -0.38297694894E+03  0.14701448179E+04  0.14193852338E+04 0.  0.
        4    1    3    3  502    0  0.36216360257E+03  0.19878454624E+03  0.40619557437E+03  0.57937399699E+03  0.12699999809E+01 0.  1.
       -4    1    3    3    0  502 -0.36216360257E+03 -0.19878454624E+03 -0.78917252331E+03  0.89077082086E+03  0.12699999809E+01 0. -1.
</event>
<event>
 5   0  0.1078018E-03  0.1550816E+04  0.7818609E-02  0.8851347E-01
        1   -1    0    0  501    0  0.00000000000E+00  0.00000000000E+00  0.62688394519E+03  0.62688394521E+03  0.50400001928E-02 0.  1.
       -1   -1    0    0    0  501  0.00000000000E+00  0.00000000000E+00 -0.95912070497E+03  0.95912070499E+03  0.50400001928E-02 0. -1.
    10030    2    1    2    0    0  0.00000000000E+00  0.00000000000E+00 -0.33223675978E+03  0.15860046502E+04  0.15508157485E+04 0.  0.
        4    1    3    3  502    0 -0.51137360358E+03 -0.61126922889E+02 -0.75894053172E+03  0.91718689847E+03  0.12699999809E+01 0. -1.
       -4    1    3    3    0  502  0.51137360358E+03  0.61126922889E+02  0.42670377194E+03  0.66881775173E+03  0.12699999809E+01 0.  1.
</event>
<event>
 5   0  0.1993623E-03  0.1495865E+04  0.7818609E-02  0.8887207E-01
       -2   -1    0    0    0  501  0.00000000000E+00  0.00000000000E+00  0.55328048963E+03  0.55328048964E+03  0.25500000920E-02 0.  1.
        2   -1    0    0  501    0  0.00000000000E+00  0.00000000000E+00 -0.10110665320E+04  0.10110665320E+04  0.25500000920E-02 0. -1.
    10030    2    1    2    0    0  0.00000000000E+00  0.00000000000E+00 -0.45778604240E+03  0.15643470217E+04  0.14958654831E+04 0.  0.
        4    1    3    3  502    0 -0.26191238237E+03 -0.68583309096E+03 -0.79391574862E+02  0.73842383477E+03  0.12699999809E+01 0.  1.
       -4    1    3    3    0  502  0.26191238237E+03  0.68583309096E+03 -0.37839446754E+03  0.82592318690E+03  0.12699999809E+01 0. -1.
</event>
<event>
 5   0  0.7468375E-04  0.1442435E+04  0.7818609E-02  0.8923662E-01
       -3   -1    0    0    0  501  0.00000000000E+00  0.00000000000E+00  0.81979334369E+03  0.81979334991E+03  0.10100000352E+00 0.  1.
        3   -1    0    0  501    0  0.00000000000E+00  0.00000000000E+00 -0.63449484921E+03  0.63449485725E+03  0.10100000352E+00 0. -1.
    10030    2    1    2    0    0  0.00000000000E+00  0.00000000000E+00  0.18529849448E+03  0.14542882072E+04  0.14424349751E+04 0.  0.
        3    1    3    3  502    0 -0.19500144927E+03 -0.68191602154E+02  0.78932608738E+03  0.81591135685E+03  0.10100000352E+00 0.  1.
       -3    1    3    3    0  502  0.19500144927E+03  0.68191602154E+02 -0.60402759290E+03  0.63837685031E+03  0.10100000352E+00 0. -1.
</event>
<event>
 5   0  0.1087761E-03  0.1477899E+04  0.7818609E-02  0.8899284E-01
       -1   -1    0    0    0  501  0.00000000000E+00  0.00000000000E+00  0.38217716027E+03  0.38217716030E+03  0.50400001928E-02 0.  1.
        1   -1    0    0  501    0  0.00000000000E+00  0.00000000000E+00 -0.14287779855E+04  0.14287779855E+04  0.50400001928E-02 0. -1.
    10030    2    1    2    0    0  0.00000000000E+00  0.00000000000E+00 -0.10466008252E+04  0.18109551458E+04  0.14778989318E+04 0.  0.
        3    1    3    3  502    0  0.45119356845E+03 -0.24974810884E+03 -0.11718106517E+04  0.12802694903E+04  0.10100000352E+00 0. -1.
       -3    1    3    3    0  502 -0.45119356845E+03  0.24974810884E+03  0.12520982652E+03  0.53068565549E+03  0.10100000352E+00 0.  1.
</event>
<event>
 5   0  0.1961098E-03  0.1499195E+04  0.7818609E-02  0.8884988E-01
       -2   -1    0    0    0  501  0.00000000000E+00  0.00000000000E+00  0.83300545134E+03  0.83300545134E+03  0.25500000920E-02 0. -1.
        2   -1    0    0  501    0  0.00000000000E+00  0.00000000000E+00 -0.67454115014E+03  0.67454115014E+03  0.25500000920E-02 0.  1.
    10030    2    1    2    0    0  0.00000000000E+00  0.00000000000E+00  0.15846430120E+03  0.15075466015E+04  0.14991950577E+04 0.  0.
        2    1    3    3  502    0 -0.42717698169E+03 -0.59286397706E+03 -0.88817293501E+02  0.73610894616E+03  0.25500000920E-02 0.  1.
       -2    1    3    3    0  502  0.42717698169E+03  0.59286397706E+03  0.24728159470E+03  0.77143765533E+03  0.25500000920E-02 0. -1.
</event>
<event>
 5   0  0.2111533E-03  0.1351857E+04  0.7818609E-02  0.8989424E-01
        2   -1    0    0  501    0  0.00000000000E+00  0.00000000000E+00  0.14853421422E+04  0.14853421422E+04  0.25500000920E-02 0.  1.
       -2   -1    0    0    0  501  0.00000000000E+00  0.00000000000E+00 -0.30759176416E+03  0.30759176417E+03  0.25500000920E-02 0. -1.
    10030    2    1    2    0    0  0.00000000000E+00  0.00000000000E+00  0.11777503781E+04  0.17929339064E+04  0.13518565159E+04 0.  0.
        5    1    3    3  502    0 -0.44118023615E+03  0.19171121875E+03  0.12186307675E+04  0.13101435913E+04  0.46999998093E+01 0.  1.
       -5    1    3    3    0  502  0.44118023615E+03 -0.19171121875E+03 -0.40880389438E+02  0.48279031515E+03  0.46999998093E+01 0. -1.
</event>
<event>
 5   0  0.2150197E-03  0.1494447E+04  0.7818609E-02  0.8888154E-01
        2   -1    0    0  501    0  0.00000000000E+00  0.00000000000E+00  0.13949061237E+04  0.13949061237E+04  0.25500000920E-02 0. -1.
       -2   -1    0    0    0  501  0.00000000000E+00  0.00000000000E+00 -0.40027288993E+03  0.40027288994E+03  0.25500000920E-02 0.  1.
    10030    2    1    2    0    0  0.00000000000E+00  0.00000000000E+00  0.99463323379E+03  0.17951790137E+04  0.14944471959E+04 0.  0.
        3    1    3    3  502    0  0.63755108894E+03  0.11092936564E+03  0.48553046052E+02  0.64894847534E+03  0.10100000352E+00 0.  1.
       -3    1    3    3    0  502 -0.63755108894E+03 -0.11092936564E+03  0.94608018774E+03  0.11462305383E+04  0.10100000352E+00 0. -1.
</event>
<event>
 5   0  0.1069697E-03  0.1502024E+04  0.7818609E-02  0.8883108E-01
       -1   -1    0    0    0  501  0.00000000000E+00  0.00000000000E+00  0.10713422489E+04  0.10713422489E+04  0.50400001928E-02 0. -1.
        1   -1    0    0  501    0  0.00000000000E+00  0.00000000000E+00 -0.52646005762E+03  0.52646005764E+03  0.50400001928E-02 0.  1.
    10030    2    1    2    0    0  0.00000000000E+00  0.00000000000E+00  0.54488219130E+03  0.15978023066E+04  0.15020238375E+04 0.  0.
        2    1    3    3  502    0  0.47915449613E+03 -0.33127652296E+03 -0.23179504508E+03  0.62694665543E+03  0.25500000920E-02 0.  1.
       -2    1    3    3    0  502 -0.47915449613E+03  0.33127652296E+03  0.77667723638E+03  0.97085565114E+03  0.25500000920E-02 0. -1.
</event>
<event>
 5   0  0.2150197E-03  0.1439874E+04  0.7818609E-02  0.8925451E-01
        2   -1    0    0  501    0  0.00000000000E+00  0.00000000000E+00  0.94720183284E+03  0.94720183284E+03  0.25500000920E-02 0. -1.
       -2   -1    0    0    0  501  0.00000000000E+00  0.00000000000E+00 -0.54720058364E+03  0.54720058365E+03  0.25500000920E-02 0.  1.
    10030    2    1    2    0    0  0.00000000000E+00  0.00000000000E+00  0.40000124919E+03  0.14944024165E+04  0.14398741553E+04 0.  0.
        3    1    3    3  502    0  0.55346512960E+01 -0.70299593919E+02  0.94360885920E+03  0.94624011468E+03  0.10100000352E+00 0. -1.
       -3    1    3    3    0  502 -0.55346512960E+01  0.70299593919E+02 -0.54360761000E+03  0.54816230181E+03  0.10100000352E+00 0.  1.
</event>
<event>
 5   0  0.1078787E-03  0.1537506E+04  0.7818609E-02  0.8859888E-01
       -1   -1    0    0    0  501  0.00000000000E+00  0.00000000000E+00  0.46425396202E+03  0.46425396205E+03  0.50400001928E-02 0.  1.
        1   -1    0    0  501    0  0.00000000000E+00  0.00000000000E+00 -0.12729693795E+04  0.12729693795E+04  0.50400001928E-02 0. -1.
    10030    2    1    2    0    0  0.00000000000E+00  0.00000000000E+00 -0.80871541746E+03  0.17372233415E+04  0.15375058738E+04 0.  0.
        5    1    3    3  502    0 -0.40510317370E+03 -0.73473808776E+02 -0.11378793561E+04  0.12100820224E+04  0.46999998093E+01 0. -1.
       -5    1    3    3    0  502  0.40510317370E+03  0.73473808776E+02  0.32916393860E+03  0.52714131918E+03  0.46999998093E+01 0.  1.
</event>
<event>
 5   0  0.1087761E-03  0.1501393E+04  0.7818609E-02  0.8883527E-01
       -1   -1    0    0    0  501  0.00000000000E+00  0.00000000000E+00  0.12316357795E+04  0.12316357795E+04  0.50400001928E-02 0.  1.
        1   -1    0    0  501    0  0.00000000000E+00  0.00000000000E+00 -0.45755859437E+03  0.45755859440E+03  0.50400001928E-02 0. -1.
    10030    2    1    2    0    0  0.00000000000E+00  0.00000000000E+00  0.77407718516E+03  0.16891943740E+04  0.15013934009E+04 0.  0.
        3    1    3    3  502    0  0.61809753679E+03  0.42554077588E+03  0.40998615041E+03  0.85511295783E+03  0.10100000352E+00 0.  1.
       -3    1    3    3    0  502 -0.61809753679E+03 -0.42554077588E+03  0.36409103476E+03  0.83408141612E+03  0.10100000352E+00 0. -1.
</event>
<event>
 5   0  0.1077140E-03  0.1471437E+04  0.7818609E-02  0.8903672E-01
       -1   -1    0    0    0  501  0.00000000000E+00  0.00000000000E+00  0.15552566321E+04  0.15552566322E+04  0.50400001928E-02 0.  1.
        1   -1    0    0  501    0  0.00000000000E+00  0.00000000000E+00 -0.34803363187E+03  0.34803363190E+03  0.50400001928E-02 0. -1.
    10030    2    1    2    0    0  0.00000000000E+00  0.00000000000E+00  0.12072230003E+04  0.19032902641E+04  0.14714368681E+04 0.  0.
        1    1    3    3  502    0  0.46928584901E+03 -0.55446437953E+03  0.75457723235E+03  0.10473999980E+04  0.50400001928E-02 0. -1.
       -1    1    3    3    0  502 -0.46928584901E+03  0.55446437953E+03  0.45264576793E+03  0.85589026604E+03  0.50400001928E-02 0.  1.
</event>
<event>
 5   0  0.1993623E-03  0.1151095E+04  0.7818609E-02  0.9156774E-01
       -2   -1    0    0    0  501  0.00000000000E+00  0.00000000000E+00  0.41222803183E+03  0.41222803184E+03  0.25500000920E-02 0. -1.
        2   -1    0    0  501    0  0.00000000000E+00  0.00000000000E+00 -0.80357151876E+03  0.80357151876E+03  0.25500000920E-02 0.  1.
    10030    2    1    2    0    0  0.00000000000E+00  0.00000000000E+00 -0.39134348693E+03  0.12157995506E+04  0.11510946193E+04 0.  0.
        4    1    3    3  502    0 -0.54871224107E+03  0.37583684510E+02 -0.37477807232E+03  0.66555080440E+03  0.12699999809E+01 0. -1.
       -4    1    3    3    0  502  0.54871224107E+03 -0.37583684510E+02 -0.16565414610E+02  0.55024874621E+03  0.12699999809E+01 0.  1.
</event>
<event>
 5   0  0.1078018E-03  0.1497117E+04  0.7818609E-02  0.8886372E-01
       -1   -1    0    0    0  501  0.00000000000E+00  0.00000000000E+00  0.79196564925E+03  0.79196564927E+03  0.50400001928E-02 0.  1.
        1   -1    0    0  501    0  0.00000000000E+00  0.00000000000E+00 -0.70753072048E+03  0.70753072050E+03  0.50400001928E-02 0. -1.
    10030    2    1    2    0    0  0.00000000000E+00  0.00000000000E+00  0.84434928771E+02  0.14994963698E+04  0.14971172652E+04 0.  0.
        4    1    3    3  502    0 -0.12340806246E+03  0.44096773680E+03 -0.55088596406E+03  0.71635120791E+03  0.12699999809E+01 0. -1.
       -4    1    3    3    0  502  0.12340806246E+03 -0.44096773680E+03  0.63532089283E+03  0.78314516186E+03  0.12699999809E+01 0.  1.
</event>
<event>
 5   0  0.7468375E-04  0.1472689E+04  0.7818609E-02  0.8902820E-01
        4   -1    0    0  501    0  0.00000000000E+00  0.00000000000E+00  0.44831771812E+03  0.44831951696E+03  0.12699999809E+01 0. -1.
       -4   -1    0    0    0  501  0.00000000000E+00  0.00000000000E+00 -0.12094127843E+04  0.12094134511E+04  0.12699999809E+01 0.  1.
    10030    2    1    2    0    0  0.00000000000E+00  0.00000000000E+00 -0.76109506619E+03  0.16577329681E+04  0.14726890010E+04 0.  0.
        5    1    3    3  502    0 -0.79943999948E+02 -0.22621859582E+03 -0.11641613118E+04  0.11886376850E+04  0.46999998093E+01 0.  1.
       -5    1    3    3    0  502  0.79943999948E+02  0.22621859582E+03  0.40306624565E+03  0.46909528308E+03  0.46999998093E+01 0. -1.
</event>
<event>
 5   0  0.1078787E-03  0.1490638E+04  0.7818609E-02  0.8890702E-01
        1   -1    0    0  501    0  0.00000000000E+00  0.00000000000E+00  0.16019207401E+04  0.16019207401E+04  0.50400001928E-02 0. -1.
       -1   -1    0    0    0  501  0.00000000000E+00  0.00000000000E+00 -0.34677149780E+03  0.34677149784E+03  0.50400001928E-02 0.  1.
    10030    2    1    2    0    0  0.00000000000E+00  0.00000000000E+00  0.12551492423E+04  0.19486922379E+04  0.14906380573E+04 0.  0.
        5    1    3    3  502    0 -0.53268901058E+03 -0.31837168332E+03  0.87995434172E+02  0.62680411388E+03  0.46999998093E+01 0. -1.
       -5    1    3    3    0  502  0.53268901058E+03  0.31837168332E+03  0.11671538081E+04  0.13218881240E+04  0.46999998093E+01 0.  1.
</event>
<event>
 5   0  0.1961098E-03  0.1388715E+04  0.7818609E-02  0.8962028E-01
       -2   -1    0    0    0  501  0.00000000000E+00  0.00000000000E+00  0.34860233610E+03  0.34860233611E+03  0.25500000920E-02 0.  1.
        2   -1    0    0  501    0  0.00000000000E+00  0.00000000000E+00 -0.13830433532E+04  0.13830433532E+04  0.25500000920E-02 0. -1.
    10030    2    1    2    0    0  0.00000000000E+00  0.00000000000E+00 -0.10344410171E+04  0.17316456893E+04  0.13887147207E+04 0.  0.
        2    1    3    3  502    0 -0.62485604195E+03  0.25305681414E+03 -0.72456295596E+03  0.98968394021E+03  0.25500000920E-02 0. -1.
       -2    1    3    3    0  502  0.62485604195E+03 -0.25305681414E+03 -0.30987806115E+03  0.74196174911E+03  0.25500000920E-02 0.  1.
</event>
<event>
 5   0  0.1993623E-03  0.1502904E+04  0.7818609E-02  0.8882524E-01
        2   -1    0    0  501    0  0.00000000000E+00  0.00000000000E+00  0.43845378745E+03  0.43845378745E+03  0.25500000920E-02 0. -1.
       -2   -1    0    0    0  501  0.00000000000E+00  0.00000000000E+00 -0.12878893022E+04  0.12878893022E+04  0.25500000920E-02 0.  1.
    10030    2    1    2    0    0  0.00000000000E+00  0.00000000000E+00 -0.84943551473E+03  0.17263430896E+04  0.15029037792E+04 0.  0.
        4    1    3    3  502    0  0.67400917349E+03  0.12393078724E+03 -0.77882015386E+03  0.10374052491E+04  0.12699999809E+01 0. -1.
       -4    1    3    3    0  502 -0.67400917349E+03 -0.12393078724E+03 -0.70615360871E+02  0.68893784050E+03  0.12699999809E+01 0.  1.
</event>
<event>
 5   0  0.1961098E-03  0.1520741E+04  0.7818609E-02  0.8870776E-01
       -2   -1    0    0    0  501  0.00000000000E+00  0.00000000000E+00  0.83708580706E+03  0.83708580706E+03  0.25500000920E-02 0.  1.
        2   -1    0    0  501    0  0.00000000000E+00  0.00000000000E+00 -0.69068615018E+03  0.69068615019E+03  0.25500000920E-02 0. -1.
    10030    2    1    2    0    0  0.00000000000E+00  0.00000000000E+00  0.14639965687E+03  0.15277719572E+04  0.15207413632E+04 0.  0.
        2    1    3    3  502    0 -0.13831561135E+03  0.62937599087E+03  0.47869717189E+03  0.80274300284E+03  0.25500000920E-02 0.  1.
       -2    1    3    3    0  502  0.13831561135E+03 -0.62937599087E+03 -0.33229751502E+03  0.72502895440E+03  0.25500000920E-02 0. -1.
</event>
<event>
 5   0  0.1078018E-03  0.1508298E+04  0.7818609E-02  0.8878953E-01
        1   -1    0    0  501    0  0.00000000000E+00  0.00000000000E+00  0.41267687733E+03  0.41267687736E+03  0.50400001928E-02 0.  1.
       -1   -1    0    0    0  501  0.00000000000E+00  0.00000000000E+00 -0.13781750832E+04  0.13781750832E+04  0.50400001928E-02 0. -1.
    10030    2    1    2    0    0  0.00000000000E+00  0.00000000000E+00 -0.96549820584E+03  0.17908519605E+04  0.15082983654E+04 0.  0.
        4    1    3    3  502    0 -0.32339479972E+03 -0.83140666287E+02  0.32012207736E+03  0.46257574967E+03  0.12699999809E+01 0.  1.
       -4    1    3    3    0  502  0.32339479972E+03  0.83140666287E+02 -0.12856202832E+04  0.13282762109E+04  0.12699999809E+01 0. -1.
</event>
<event>
 5   0  0.2111533E-03  0.1489195E+04  0.7818609E-02  0.8891670E-01
        2   -1    0    0  501    0  0.00000000000E+00  0.00000000000E+00  0.12127232411E+04  0.12127232411E+04  0.25500000920E-02 0.  1.
       -2   -1    0    0    0  501  0.00000000000E+00  0.00000000000E+00 -0.45717408172E+03  0.45717408172E+03  0.25500000920E-02 0. -1.
    10030    2    1    2    0    0  0.00000000000E+00  0.00000000000E+00  0.75554915934E+03  0.16698973228E+04  0.14891952647E+04 0.  0.
        5    1    3    3  502    0  0.18391853430E+01 -0.48822597918E+03  0.10081599041E+04  0.11201680551E+04  0.46999998093E+01 0.  1.
       -5    1    3    3    0  502 -0.18391853430E+01  0.48822597918E+03 -0.25261074480E+03  0.54972926768E+03  0.46999998093E+01 0. -1.
</event>
<event>
 5   0  0.1069697E-03  0.1492724E+04  0.7818609E-02  0.8889306E-01
        1   -1    0    0  501    0  0.00000000000E+00  0.00000000000E+00  0.74988880568E+03  0.74988880569E+03  0.50400001928E-02 0. -1.
       -1   -1    0    0    0  501  0.00000000000E+00  0.00000000000E+00 -0.74285205975E+03  0.74285205977E+03  0.50400001928E-02 0.  1.
    10030    2    1    2    0    0  0.00000000000E+00  0.00000000000E+00  0.70367459270E+01  0.14927408655E+04  0.14927242798E+04 0.  0.
        2    1    3    3  502    0 -0.70301436966E+03 -0.25065145140E+03  0.45623485352E+01  0.74637535401E+03  0.25500000920E-02 0.  1.
       -2    1    3    3    0  502  0.70301436966E+03  0.25065145140E+03  0.24743973918E+01  0.74636551145E+03  0.25500000920E-02 0. -1.
</event>
<event>
 5   0  0.1077140E-03  0.1481935E+04  0.7818609E-02  0.8896555E-01
        1   -1    0    0  501    0  0.00000000000E+00  0.00000000000E+00  0.19365669941E+04  0.19365669941E+04  0.50400001928E-02 0. -1.
       -1   -1    0    0    0  501  0.00000000000E+00  0.00000000000E+00 -0.28350838651E+03  0.28350838656E+03  0.50400001928E-02 0.  1.
    10030    2    1    2    0    0  0.00000000000E+00  0.00000000000E+00  0.16530586076E+04  0.22200753807E+04  0.14819351996E+04 0.  0.
        1    1    3    3  502    0 -0.73715306430E+03  0.36709939854E+00  0.71404055394E+03  0.10262790496E+04  0.50400001928E-02 0. -1.
       -1    1    3    3    0  502  0.73715306430E+03 -0.36709939854E+00  0.93901805368E+03  0.11937963311E+04  0.50400001928E-02 0.  1.
</event>
<event>
 5   0  0.1078787E-03  0.1448264E+04  0.7818609E-02  0.8919605E-01
        1   -1    0    0  501    0  0.00000000000E+00  0.00000000000E+00  0.73945933913E+03  0.73945933915E+03  0.50400001928E-02 0.  1.
       -1   -1    0    0    0  501  0.00000000000E+00  0.00000000000E+00 -0.70912252363E+03  0.70912252365E+03  0.50400001928E-02 0. -1.
    10030    2    1    2    0    0  0.00000000000E+00  0.00000000000E+00  0.30336815497E+02  0.14485818628E+04  0.14482641647E+04 0.  0.
        5    1    3    3  502    0  0.64005760286E+03  0.15888467219E+03 -0.28394084870E+03  0.71802685854E+03  0.46999998093E+01 0. -1.
       -5    1    3    3    0  502 -0.64005760286E+03 -0.15888467219E+03  0.31427766419E+03  0.73055500425E+03  0.46999998093E+01 0.  1.
</event>
<event>
 5   0  0.1078018E-03  0.1547259E+04  0.7818609E-02  0.8853620E-01
       -1   -1    0    0    0  501  0.00000000000E+00  0.00000000000E+00  0.62838648735E+03  0.62838648737E+03  0.50400001928E-02 0.  1.
        1   -1    0    0  501    0  0.00000000000E+00  0.00000000000E+00 -0.95244360768E+03  0.95244360769E+03  0.50400001928E-02 0. -1.
    10030    2    1    2    0    0  0.00000000000E+00  0.00000000000E+00 -0.32405712033E+03  0.15808300951E+04  0.15472591161E+04 0.  0.
        4    1    3    3  502    0 -0.34926838041E+03  0.67160256570E+03  0.10039201645E+01  0.75699473483E+03  0.12699999809E+01 0. -1.
       -4    1    3    3    0  502  0.34926838041E+03 -0.67160256570E+03 -0.32506104049E+03  0.82383536022E+03  0.12699999809E+01 0.  1.
</event>
<event>
 5   0  0.2094566E-03  0.1460691E+04  0.7818609E-02  0.8911022E-01
       -2   -1    0    0    0  501  0.00000000000E+00  0.00000000000E+00  0.33285674789E+03  0.33285674790E+03  0.25500000920E-02 0. -1.
        2   -1    0    0  501    0  0.00000000000E+00  0.00000000000E+00 -0.16025054540E+04  0.16025054540E+04  0.25500000920E-02 0.  1.
    10030    2    1    2    0    0  0.00000000000E+00  0.00000000000E+00 -0.12696487062E+04  0.19353622019E+04  0.14606912801E+04 0.  0.
        1    1    3    3  502    0 -0.46044210372E+03 -0.12025929006E+03 -0.13688773187E+04  0.14492392285E+04  0.50400001928E-02 0.  1.
       -1    1    3    3    0  502  0.46044210372E+03  0.12025929006E+03  0.99228612565E+02  0.48612297343E+03  0.50400001928E-02 0. -1.
</event>
<event>
 5   0  0.1077140E-03  0.1501344E+04  0.7818609E-02  0.8883560E-01
       -1   -1    0    0    0  501  0.00000000000E+00  0.00000000000E+00  0.21279276385E+04  0.21279276385E+04  0.50400001928E-02 0. -1.
        1   -1    0    0  501    0  0.00000000000E+00  0.00000000000E+00 -0.26481556272E+03  0.26481556277E+03  0.50400001928E-02 0.  1.
    10030    2    1    2    0    0  0.00000000000E+00  0.00000000000E+00  0.18631120758E+04  0.23927432013E+04  0.15013438714E+04 0.  0.
        1    1    3    3  502    0  0.15186195773E+03  0.67163477635E+03  0.45515735431E+03  0.82542325156E+03  0.50400001928E-02 0.  1.
       -1    1    3    3    0  502 -0.15186195773E+03 -0.67163477635E+03  0.14079547215E+04  0.15673199497E+04  0.50400001928E-02 0. -1.
</event>
<event>
 5   0  0.2150197E-03  0.1507234E+04  0.7818609E-02  0.8879657E-01
        2   -1    0    0  501    0  0.00000000000E+00  0.00000000000E+00  0.17027635863E+04  0.17027635863E+04  0.25500000920E-02 0. -1.
       -2   -1    0    0    0  501  0.00000000000E+00  0.00000000000E+00 -0.33353909082E+03  0.33353909083E+03  0.25500000920E-02 0.  1.
    10030    2    1    2    0    0  0.00000000000E+00  0.00000000000E+00  0.13692244955E+04  0.20363026771E+04  0.15072335167E+04 0.  0.
        3    1    3    3  502    0 -0.52720113211E+03 -0.26729849249E+03  0.13162031905E+04  0.14428376093E+04  0.10100000352E+00 0. -1.
       -3    1    3    3    0  502  0.52720113211E+03  0.26729849249E+03  0.53021304962E+02  0.59346506786E+03  0.10100000352E+00 0.  1.
</event>
<event>
 5   0  0.2094566E-03  0.1489416E+04  0.7818609E-02  0.8891522E-01
        2   -1    0    0  501    0  0.00000000000E+00  0.00000000000E+00  0.16826564138E+04  0.16826564138E+04  0.25500000920E-02 0. -1.
       -2   -1    0    0    0  501  0.00000000000E+00  0.00000000000E+00 -0.32959206538E+03  0.32959206539E+03  0.25500000920E-02 0.  1.
    10030    2    1    2    0    0  0.00000000000E+00  0.00000000000E+00  0.13530643484E+04  0.20122484792E+04  0.14894162652E+04 0.  0.
        1    1    3    3  502    0  0.10847433046E+03  0.47277700428E+03  0.14399611954E+04  0.15194647151E+04  0.50400001928E-02 0. -1.
       -1    1    3    3    0  502 -0.10847433046E+03 -0.47277700428E+03 -0.86896846949E+02  0.49278376412E+03  0.50400001928E-02 0.  1.
</event>
<event>
 5   0  0.2094566E-03  0.1439632E+04  0.7818609E-02  0.8925620E-01
        2   -1    0    0  501    0  0.00000000000E+00  0.00000000000E+00  0.11204772956E+04  0.11204772956E+04  0.25500000920E-02 0. -1.
       -2   -1    0    0    0  501  0.00000000000E+00  0.00000000000E+00 -0.46242342986E+03  0.46242342987E+03  0.25500000920E-02 0.  1.
    10030    2    1    2    0    0  0.00000000000E+00  0.00000000000E+00  0.65805386569E+03  0.15829007254E+04  0.14396318336E+04 0.  0.
        1    1    3    3  502    0  0.17108439622E+03  0.18509483924E+03 -0.41231630946E+03  0.48325429042E+03  0.50400001928E-02 0.  1.
       -1    1    3    3    0  502 -0.17108439622E+03 -0.18509483924E+03  0.10703701752E+04  0.10996464350E+04  0.50400001928E-02 0. -1.
</event>
<event>
 5   0  0.2111533E-03  0.1454782E+04  0.7818609E-02  0.8915092E-01
        2   -1    0    0  501    0  0.00000000000E+00  0.00000000000E+00  0.11981816360E+04  0.11981816360E+04  0.25500000920E-02 0. -1.
       -2   -1    0    0    0  501  0.00000000000E+00  0.00000000000E+00 -0.44158378143E+03  0.44158378143E+03  0.25500000920E-02 0.  1.
    10030    2    1    2    0    0  0.00000000000E+00  0.00000000000E+00  0.75659785454E+03  0.16397654174E+04  0.14547818773E+04 0.  0.
        5    1    3    3  502    0 -0.46728828869E+03 -0.42491873546E+02 -0.24817202326E+03  0.53082515689E+03  0.46999998093E+01 0.  1.
       -5    1    3    3    0  502  0.46728828869E+03  0.42491873546E+02  0.10047698778E+04  0.11089402605E+04  0.46999998093E+01 0. -1.
</event>
<event>
 5   0  0.1078787E-03  0.1508068E+04  0.7818609E-02  0.8879105E-01
        1   -1    0    0  501    0  0.00000000000E+00  0.00000000000E+00  0.98730145672E+03  0.98730145673E+03  0.50400001928E-02 0. -1.
       -1   -1    0    0    0  501  0.00000000000E+00  0.00000000000E+00 -0.57588008150E+03  0.57588008153E+03  0.50400001928E-02 0.  1.
    10030    2    1    2    0    0  0.00000000000E+00  0.00000000000E+00  0.41142137521E+03  0.15631815383E+04  0.15080679605E+04 0.  0.
        5    1    3    3  502    0  0.61260858011E+03  0.28936607687E+03 -0.13732671550E+03  0.69130508146E+03  0.46999998093E+01 0.  1.
       -5    1    3    3    0  502 -0.61260858011E+03 -0.28936607687E+03  0.54874809071E+03  0.87187645680E+03  0.46999998093E+01 0. -1.
</event>
<event>
 5   0  0.2150197E-03  0.1430170E+04  0.7818609E-02  0.8932265E-01
       -2   -1    0    0    0  501  0.00000000000E+00  0.00000000000E+00  0.30000633676E+03  0.30000633677E+03  0.25500000920E-02 0.  1.
        2   -1    0    0  501    0  0.00000000000E+00  0.00000000000E+00 -0.17044527706E+04  0.17044527706E+04  0.25500000920E-02 0. -1.
    10030    2    1    2    0    0  0.00000000000E+00  0.00000000000E+00 -0.14044464339E+04  0.20044591074E+04  0.14301701044E+04 0.  0.
        3    1    3    3  502    0 -0.15201727729E+03 -0.40033139090E+03 -0.15048764999E+04  0.15646174501E+04  0.10100000352E+00 0. -1.
       -3    1    3    3    0  502  0.15201727729E+03  0.40033139090E+03  0.10043006600E+03  0.43984165729E+03  0.10100000352E+00 0.  1.
</event>
<event>
 5   0  0.1069697E-03  0.1488923E+04  0.7818609E-02  0.8891853E-01
        1   -1    0    0  501    0  0.00000000000E+00  0.00000000000E+00  0.12446775559E+04  0.12446775559E+04  0.50400001928E-02 0. -1.
       -1   -1    0    0    0  501  0.00000000000E+00  0.00000000000E+00 -0.44527403033E+03  0.44527403036E+03  0.50400001928E-02 0.  1.
    10030    2    1    2    0    0  0.00000000000E+00  0.00000000000E+00  0.79940352552E+03  0.16899515862E+04  0.14889225524E+04 0.  0.
        2    1    3    3  502    0 -0.41123634683E+03  0.24394140683E+03 -0.24795402700E+03  0.53861298019E+03  0.25500000920E-02 0.  1.
       -2    1    3    3    0  502  0.41123634683E+03 -0.24394140683E+03  0.10473575525E+04  0.11513386060E+04  0.25500000920E-02 0. -1.
</event>
<event>
 5   0  0.1077140E-03  0.1493925E+04  0.7818609E-02  0.8888503E-01
       -1   -1    0    0    0  501  0.00000000000E+00  0.00000000000E+00  0.41230526382E+03  0.41230526385E+03  0.50400001928E-02 0.  1.
        1   -1    0    0  501    0  0.00000000000E+00  0.00000000000E+00 -0.13532528763E+04  0.13532528763E+04  0.50400001928E-02 0. -1.
    10030    2    1    2    0    0  0.00000000000E+00  0.00000000000E+00 -0.94094761248E+03  0.17655581402E+04  0.14939254121E+04 0.  0.
        1    1    3    3  502    0 -0.72339291337E+03 -0.13906797666E+03 -0.61673423764E+03  0.96072802038E+03  0.50400001928E-02 0. -1.
       -1    1    3    3    0  502  0.72339291337E+03  0.13906797666E+03 -0.32421337485E+03  0.80483011978E+03  0.50400001928E-02 0.  1.
</event>
<event>
 5   0  0.1087761E-03  0.1521489E+04  0.7818609E-02  0.8870287E-01
        1   -1    0    0  501    0  0.00000000000E+00  0.00000000000E+00  0.13728199007E+04  0.13728199007E+04  0.50400001928E-02 0. -1.
       -1   -1    0    0    0  501  0.00000000000E+00  0.00000000000E+00 -0.42156479087E+03  0.42156479090E+03  0.50400001928E-02 0.  1.
    10030    2    1    2    0    0  0.00000000000E+00  0.00000000000E+00  0.95125510982E+03  0.17943846916E+04  0.15214894471E+04 0.  0.
        3    1    3    3  502    0 -0.12918966736E+02 -0.37641969262E+03 -0.30388772173E+03  0.48394880133E+03  0.10100000352E+00 0.  1.
       -3    1    3    3    0  502  0.12918966736E+02  0.37641969262E+03  0.12551428316E+04  0.13104358903E+04  0.10100000352E+00 0. -1.
</event>
<event>
 5   0  0.1087761E-03  0.1504545E+04  0.7818609E-02  0.8881436E-01
        1   -1    0    0  501    0  0.00000000000E+00  0.00000000000E+00  0.11484422775E+04  0.11484422775E+04  0.50400001928E-02 0. -1.
       -1   -1    0    0    0  501  0.00000000000E+00  0.00000000000E+00 -0.49276664038E+03  0.49276664041E+03  0.50400001928E-02 0.  1.
    10030    2    1    2    0    0  0.00000000000E+00  0.00000000000E+00  0.65567563709E+03  0.16412089179E+04  0.15045451708E+04 0.  0.
        3    1    3    3  502    0 -0.64786684100E+03 -0.33800163303E+03  0.13289421327E+03  0.74272298317E+03  0.10100000352E+00 0.  1.
       -3    1    3    3    0  502  0.64786684100E+03  0.33800163303E+03  0.52278142382E+03  0.89848593472E+03  0.10100000352E+00 0. -1.
</event>
<event>
 5   0  0.1961098E-03  0.1299544E+04  0.7818609E-02  0.9029927E-01
       -2   -1    0    0    0  501  0.00000000000E+00  0.00000000000E+00  0.77437346865E+03  0.77437346865E+03  0.25500000920E-02 0. -1.
        2   -1    0    0  501    0  0.00000000000E+00  0.00000000000E+00 -0.54521971704E+03  0.54521971705E+03  0.25500000920E-02 0.  1.
    10030    2    1    2    0    0  0.00000000000E+00  0.00000000000E+00  0.22915375161E+03  0.13195931857E+04  0.12995440485E+04 0.  0.
        2    1    3    3  502    0  0.58253980002E+02  0.22576324888E+03 -0.50127914760E+03  0.55285020987E+03  0.25500000920E-02 0.  1.
       -2    1    3    3    0  502 -0.58253980002E+02 -0.22576324888E+03  0.73043289921E+03  0.76674297583E+03  0.25500000920E-02 0. -1.
</event>
<event>
 5   0  0.1078787E-03  0.8636948E+03  0.7818609E-02  0.9472138E-01
        1   -1    0    0  501    0  0.00000000000E+00  0.00000000000E+00  0.63591970389E+03  0.63591970391E+03  0.50400001928E-02 0.  1.
       -1   -1    0    0    0  501  0.00000000000E+00  0.00000000000E+00 -0.29326370577E+03  0.29326370581E+03  0.50400001928E-02 0. -1.
    10030    2    1    2    0    0  0.00000000000E+00  0.00000000000E+00  0.34265599812E+03  0.92918340972E+03  0.86369478165E+03 0.  0.
        5    1    3    3  502    0 -0.23103034403E+03  0.26204980363E+03 -0.10173837813E+03  0.36389271363E+03  0.46999998093E+01 0. -1.
       -5    1    3    3    0  502  0.23103034403E+03 -0.26204980363E+03  0.44439437625E+03  0.56529069609E+03  0.46999998093E+01 0.  1.
</event>
<event>
 5   0  0.2111533E-03  0.1440379E+04  0.7818609E-02  0.8925098E-01
        2   -1    0    0  501    0  0.00000000000E+00  0.00000000000E+00  0.14652413532E+04  0.14652413532E+04  0.25500000920E-02 0.  1.
       -2   -1    0    0    0  501  0.00000000000E+00  0.00000000000E+00 -0.35398456620E+03  0.35398456621E+03  0.25500000920E-02 0. -1.
    10030    2    1    2    0    0  0.00000000000E+00  0.00000000000E+00  0.11112567870E+04  0.18192259194E+04  0.14403788735E+04 0.  0.
        5    1    3    3  502    0 -0.22122198119E+03 -0.68396181725E+03  0.61079504043E+03  0.94331097938E+03  0.46999998093E+01 0.  1.
       -5    1    3    3    0  502  0.22122198119E+03  0.68396181725E+03  0.50046174659E+03  0.87591494005E+03  0.46999998093E+01 0. -1.
</event>
<event>
 5   0  0.1069697E-03  0.1421992E+04  0.7818609E-02  0.8938052E-01
        1   -1    0    0  501    0  0.00000000000E+00  0.00000000000E+00  0.54015584951E+03  0.54015584953E+03  0.50400001928E-02 0.  1.
       -1   -1    0    0    0  501  0.00000000000E+00  0.00000000000E+00 -0.93586946268E+03  0.93586946270E+03  0.50400001928E-02 0. -1.
    10030    2    1    2    0    0  0.00000000000E+00  0.00000000000E+00 -0.39571361318E+03  0.14760253122E+04  0.14219920741E+04 0.  0.
        2    1    3    3  502    0 -0.67123816401E+03 -0.21788617420E+03 -0.10808161538E+03  0.71394446095E+03  0.25500000920E-02 0.  1.
       -2    1    3    3    0  502  0.67123816401E+03  0.21788617420E+03 -0.28763199779E+03  0.76208085128E+03  0.25500000920E-02 0. -1.
</event>
<event>
 5   0  0.1069697E-03  0.1162443E+04  0.7818609E-02  0.9146381E-01
        1   -1    0    0  501    0  0.00000000000E+00  0.00000000000E+00  0.11628990943E+04  0.11628990943E+04  0.50400001928E-02 0.  1.
       -1   -1    0    0    0  501  0.00000000000E+00  0.00000000000E+00 -0.29049660957E+03  0.29049660962E+03  0.50400001928E-02 0. -1.
    10030    2    1    2    0    0  0.00000000000E+00  0.00000000000E+00  0.87240248469E+03  0.14533957039E+04  0.11624426768E+04 0.  0.
        2    1    3    3  502    0 -0.68043272403E+02 -0.40977453279E+03  0.94449354210E+03  0.10318009041E+04  0.25500000920E-02 0.  1.
       -2    1    3    3    0  502  0.68043272403E+02  0.40977453279E+03 -0.72091057406E+02  0.42159479979E+03  0.25500000920E-02 0. -1.
</event>
<event>
 5   0  0.1077140E-03  0.1501642E+04  0.7818609E-02  0.8883362E-01
       -1   -1    0    0    0  501  0.00000000000E+00  0.00000000000E+00  0.24270044876E+03  0.24270044881E+03  0.50400001928E-02 0.  1.
        1   -1    0    0  501    0  0.00000000000E+00  0.00000000000E+00 -0.23227483722E+04  0.23227483722E+04  0.50400001928E-02 0. -1.
    10030    2    1    2    0    0  0.00000000000E+00  0.00000000000E+00 -0.20800479234E+04  0.25654488210E+04  0.15016418646E+04 0.  0.
        1    1    3    3  502    0 -0.73679461545E+03 -0.14752358467E+02 -0.79453192889E+03  0.10836811909E+04  0.50400001928E-02 0. -1.
       -1    1    3    3    0  502  0.73679461545E+03  0.14752358467E+02 -0.12855159945E+04  0.14817676301E+04  0.50400001928E-02 0.  1.
</event>
<event>
 5   0  0.1069697E-03  0.1727369E+04  0.7818609E-02  0.8745907E-01
        1   -1    0    0  501    0  0.00000000000E+00  0.00000000000E+00  0.71092900027E+03  0.71092900029E+03  0.50400001928E-02 0.  1.
       -1   -1    0    0    0  501  0.00000000000E+00  0.00000000000E+00 -0.10492619631E+04  0.10492619632E+04  0.50400001928E-02 0. -1.
    10030    2    1    2    0    0  0.00000000000E+00  0.00000000000E+00 -0.33833296288E+03  0.17601909634E+04  0.17273688182E+04 0.  0.
        2    1    3    3  502    0  0.24228324108E+02 -0.57389334961E+03 -0.82641056506E+03  0.10064268530E+04  0.25500000920E-02 0. -1.
       -2    1    3    3    0  502 -0.24228324108E+02  0.57389334961E+03  0.48807760218E+03  0.75376411043E+03  0.25500000920E-02 0.  1.
</event>
<event>
 5   0  0.2094566E-03  0.1484128E+04  0.7818609E-02  0.8895077E-01
       -2   -1    0    0    0  501  0.00000000000E+00  0.00000000000E+00  0.28590704351E+03  0.28590704352E+03  0.25500000920E-02 0. -1.
        2   -1    0    0  501    0  0.00000000000E+00  0.00000000000E+00 -0.19260064690E+04  0.19260064690E+04  0.25500000920E-02 0.  1.
    10030    2    1    2    0    0  0.00000000000E+00  0.00000000000E+00 -0.16400994255E+04  0.22119135125E+04  0.14841277780E+04 0.  0.
        1    1    3    3  502    0 -0.55702350814E+03 -0.66352850329E+02 -0.15440442651E+04  0.16427874428E+04  0.50400001928E-02 0.  1.
       -1    1    3    3    0  502  0.55702350814E+03  0.66352850329E+02 -0.96055160304E+02  0.56912606970E+03  0.50400001928E-02 0. -1.
</event>
<event>
 5   0  0.2094566E-03  0.1568635E+04  0.7818609E-02  0.8840052E-01
       -2   -1    0    0    0  501  0.00000000000E+00  0.00000000000E+00  0.48996076366E+03  0.48996076367E+03  0.25500000920E-02 0.  1.
        2   -1    0    0  501    0  0.00000000000E+00  0.00000000000E+00 -0.12555174545E+04  0.12555174545E+04  0.25500000920E-02 0. -1.
    10030    2    1    2    0    0  0.00000000000E+00  0.00000000000E+00 -0.76555669087E+03  0.17454782182E+04  0.15686354463E+04 0.  0.
        1    1    3    3  502    0  0.42582617137E+02  0.72768543032E+03 -0.70492460426E+03  0.10140306023E+04  0.50400001928E-02 0. -1.
       -1    1    3    3    0  502 -0.42582617137E+02 -0.72768543032E+03 -0.60632086603E+02  0.73144761585E+03  0.50400001928E-02 0.  1.
</event>
<event>
 5   0  0.7468375E-04  0.1517149E+04  0.7818609E-02  0.8873128E-01
        3   -1    0    0  501    0  0.00000000000E+00  0.00000000000E+00  0.19523319983E+04  0.19523320009E+04  0.10100000352E+00 0.  1.
       -3   -1    0    0    0  501  0.00000000000E+00  0.00000000000E+00 -0.29474255604E+03  0.29474257335E+03  0.10100000352E+00 0. -1.
    10030    2    1    2    0    0  0.00000000000E+00  0.00000000000E+00  0.16575894422E+04  0.22470745742E+04  0.15171490972E+04 0.  0.
        5    1    3    3  502    0  0.40385965381E+03 -0.61879132478E+03  0.57480188541E+03  0.93617552899E+03  0.46999998093E+01 0. -1.
       -5    1    3    3    0  502 -0.40385965381E+03  0.61879132478E+03  0.10827875568E+04  0.13108990452E+04  0.46999998093E+01 0.  1.
</event>
<event>
 5   0  0.1078018E-03  0.1493449E+04  0.7818609E-02  0.8888821E-01
        1   -1    0    0  501    0  0.00000000000E+00  0.00000000000E+00  0.10182871993E+04  0.10182871993E+04  0.50400001928E-02 0.  1.
       -1   -1    0    0    0  501  0.00000000000E+00  0.00000000000E+00 -0.54758371325E+03  0.54758371328E+03  0.50400001928E-02 0. -1.
    10030    2    1    2    0    0  0.00000000000E+00  0.00000000000E+00  0.47070348608E+03  0.15658709126E+04  0.14934490092E+04 0.  0.
        4    1    3    3  502    0 -0.28535552531E+03 -0.89918966237E+02 -0.48199121935E+03  0.56730092962E+03  0.12699999809E+01 0. -1.
       -4    1    3    3    0  502  0.28535552531E+03  0.89918966237E+02  0.95269470542E+03  0.99856998301E+03  0.12699999809E+01 0.  1.
</event>
<event>
 5   0  0.2111533E-03  0.1503536E+04  0.7818609E-02  0.8882105E-01
        2   -1    0    0  501    0  0.00000000000E+00  0.00000000000E+00  0.11346073506E+04  0.11346073506E+04  0.25500000920E-02 0.  1.
       -2   -1    0    0    0  501  0.00000000000E+00  0.00000000000E+00 -0.49810629051E+03  0.49810629052E+03  0.25500000920E-02 0. -1.
    10030    2    1    2    0    0  0.00000000000E+00  0.00000000000E+00  0.63650106004E+03  0.16327136411E+04  0.15035359106E+04 0.  0.
        5    1    3    3  502    0  0.29271524112E+03 -0.63017988849E+03  0.66776722878E+01  0.69489249928E+03  0.46999998093E+01 0. -1.
       -5    1    3    3    0  502 -0.29271524112E+03  0.63017988849E+03  0.62982338775E+03  0.93782114180E+03  0.46999998093E+01 0.  1.
</event>
<event>
 5   0  0.1078787E-03  0.7722049E+03  0.7818609E-02  0.9601144E-01
        1   -1    0    0  501    0  0.00000000000E+00  0.00000000000E+00  0.12935222669E+04  0.12935222669E+04  0.50400001928E-02 0.  1.
       -1   -1    0    0    0  501  0.00000000000E+00  0.00000000000E+00 -0.11524740470E+03  0.11524740481E+03  0.50400001928E-02 0. -1.
    10030    2    1    2    0    0  0.00000000000E+00  0.00000000000E+00  0.11782748622E+04  0.14087696717E+04  0.77220485434E+03 0.  0.
        5    1    3    3  502    0  0.12751913908E+03  0.14931057089E+03  0.11955736077E+04  0.12115994052E+04  0.46999998093E+01 0.  1.
       -5    1    3    3    0  502 -0.12751913908E+03 -0.14931057089E+03 -0.17298745421E+02  0.19717026653E+03  0.46999998093E+01 0. -1.
</event>
<event>
 5   0  0.1069697E-03  0.1491164E+04  0.7818609E-02  0.8890350E-01
        1   -1    0    0  501    0  0.00000000000E+00  0.00000000000E+00  0.12991868153E+04  0.12991868154E+04  0.50400001928E-02 0. -1.
       -1   -1    0    0    0  501  0.00000000000E+00  0.00000000000E+00 -0.42787744082E+03  0.42787744085E+03  0.50400001928E-02 0.  1.
    10030    2    1    2    0    0  0.00000000000E+00  0.00000000000E+00  0.87130937453E+03  0.17270642562E+04  0.14911642830E+04 0.  0.
        2    1    3    3  502    0  0.61102077797E+01  0.11317336243E+03 -0.41784189565E+03  0.43294040510E+03  0.25500000920E-02 0.  1.
       -2    1    3    3    0  502 -0.61102077797E+01 -0.11317336243E+03  0.12891512702E+04  0.12941238511E+04  0.25500000920E-02 0. -1.
</event>
<event>
 5   0  0.2111533E-03  0.1436020E+04  0.7818609E-02  0.8928151E-01
       -2   -1    0    0    0  501  0.00000000000E+00  0.00000000000E+00  0.49848446558E+03  0.49848446559E+03  0.25500000920E-02 0. -1.
        2   -1    0    0  501    0  0.00000000000E+00  0.00000000000E+00 -0.10342110888E+04  0.10342110888E+04  0.25500000920E-02 0.  1.
    10030    2    1    2    0    0  0.00000000000E+00  0.00000000000E+00 -0.53572662317E+03  0.15326955543E+04  0.14360197239E+04 0.  0.
        5    1    3    3  502    0  0.39913000902E+03  0.31474201945E+03  0.27337398668E+03  0.57716785210E+03  0.46999998093E+01 0. -1.
       -5    1    3    3    0  502 -0.39913000902E+03 -0.31474201945E+03 -0.80910060985E+03  0.95552770225E+03  0.46999998093E+01 0.  1.
</event>
<event>
 5   0  0.2094566E-03  0.1527545E+04  0.7818609E-02  0.8866340E-01
       -2   -1    0    0    0  501  0.00000000000E+00  0.00000000000E+00  0.29268643360E+03  0.29268643361E+03  0.25500000920E-02 0. -1.
        2   -1    0    0  501    0  0.00000000000E+00  0.00000000000E+00 -0.19930836563E+04  0.19930836563E+04  0.25500000920E-02 0.  1.
    10030    2    1    2    0    0  0.00000000000E+00  0.00000000000E+00 -0.17003972227E+04  0.22857700899E+04  0.15275451512E+04 0.  0.
        1    1    3    3  502    0 -0.47272654296E+03 -0.30584976243E+03 -0.77959372386E+02  0.56841193281E+03  0.50400001928E-02 0. -1.
       -1    1    3    3    0  502  0.47272654296E+03  0.30584976243E+03 -0.16224378503E+04  0.17173581571E+04  0.50400001928E-02 0.  1.
</event>
<event>
 5   0  0.1078018E-03  0.1526235E+04  0.7818609E-02  0.8867192E-01
        1   -1    0    0  501    0  0.00000000000E+00  0.00000000000E+00  0.96675156019E+03  0.96675156020E+03  0.50400001928E-02 0.  1.
       -1   -1    0    0    0  501  0.00000000000E+00  0.00000000000E+00 -0.60237667356E+03  0.60237667358E+03  0.50400001928E-02 0. -1.
    10030    2    1    2    0    0  0.00000000000E+00  0.00000000000E+00  0.36437488663E+03  0.15691282338E+04  0.15262353541E+04 0.  0.
        4    1    3    3  502    0  0.24581957758E+03 -0.23827443864E+02 -0.56015182503E+03  0.61218191070E+03  0.12699999809E+01 0. -1.
       -4    1    3    3    0  502 -0.24581957758E+03  0.23827443864E+02  0.92452671166E+03  0.95694632309E+03  0.12699999809E+01 0.  1.
</event>
<event>
 5   0  0.7468375E-04  0.1525565E+04  0.7818609E-02  0.8867628E-01
        3   -1    0    0  501    0  0.00000000000E+00  0.00000000000E+00  0.55540260071E+03  0.55540260989E+03  0.10100000352E+00 0.  1.
       -3   -1    0    0    0  501  0.00000000000E+00  0.00000000000E+00 -0.10475958590E+04  0.10475958639E+04  0.10100000352E+00 0. -1.
    10030    2    1    2    0    0  0.00000000000E+00  0.00000000000E+00 -0.49219325830E+03  0.16029984738E+04  0.15255654373E+04 0.  0.
        2    1    3    3  502    0 -0.29429701284E+03 -0.58433120065E+03  0.16596061226E+03  0.67497896904E+03  0.25500000920E-02 0.  1.
       -2    1    3    3    0  502  0.29429701284E+03  0.58433120065E+03 -0.65815387056E+03  0.92801950473E+03  0.25500000920E-02 0. -1.
</event>
<event>
 5   0  0.1087761E-03  0.1383210E+04  0.7818609E-02  0.8966062E-01
       -1   -1    0    0    0  501  0.00000000000E+00  0.00000000000E+00  0.12718905594E+04  0.12718905594E+04  0.50400001928E-02 0.  1.
        1   -1    0    0  501    0  0.00000000000E+00  0.00000000000E+00 -0.37606827935E+03  0.37606827938E+03  0.50400001928E-02 0. -1.
    10030    2    1    2    0    0  0.00000000000E+00  0.00000000000E+00  0.89582228001E+03  0.16479588388E+04  0.13832103155E+04 0.  0.
        3    1    3    3  502    0  0.16150091512E+03  0.26542990835E+03  0.11840604739E+04  0.12241465590E+04  0.10100000352E+00 0.  1.
       -3    1    3    3    0  502 -0.16150091512E+03 -0.26542990835E+03 -0.28823819391E+03  0.42381227974E+03  0.10100000352E+00 0. -1.
</event>
<event>
 5   0  0.1087761E-03  0.1476720E+04  0.7818609E-02  0.8900083E-01
       -1   -1    0    0    0  501  0.00000000000E+00  0.00000000000E+00  0.30371196499E+03  0.30371196503E+03  0.50400001928E-02 0.  1.
        1   -1    0    0  501    0  0.00000000000E+00  0.00000000000E+00 -0.17950401672E+04  0.17950401672E+04  0.50400001928E-02 0. -1.
    10030    2    1    2    0    0  0.00000000000E+00  0.00000000000E+00 -0.14913282022E+04  0.20987521322E+04  0.14767195759E+04 0.  0.
        3    1    3    3  502    0  0.23931899466E+03 -0.24346726492E+03 -0.16761333124E+04  0.17105475093E+04  0.10100000352E+00 0. -1.
       -3    1    3    3    0  502 -0.23931899466E+03  0.24346726492E+03  0.18480511024E+03  0.38820462293E+03  0.10100000352E+00 0.  1.
</event>
<event>
 5   0  0.1078787E-03  0.1464760E+04  0.7818609E-02  0.8908231E-01
        1   -1    0    0  501    0  0.00000000000E+00  0.00000000000E+00  0.20218498673E+04  0.20218498673E+04  0.50400001928E-02 0.  1.
       -1   -1    0    0    0  501  0.00000000000E+00  0.00000000000E+00 -0.26529210743E+03  0.26529210748E+03  0.50400001928E-02 0. -1.
    10030    2    1    2    0    0  0.00000000000E+00  0.00000000000E+00  0.17565577598E+04  0.22871419748E+04  0.14647604750E+04 0.  0.
        5    1    3    3  502    0 -0.32251942051E+03 -0.40143831445E+03  0.16914110167E+04  0.17680681023E+04  0.46999998093E+01 0.  1.
       -5    1    3    3    0  502  0.32251942051E+03  0.40143831445E+03  0.65146743116E+02  0.51907387245E+03  0.46999998093E+01 0. -1.
</event>
<event>
 5   0  0.1078018E-03  0.1525065E+04  0.7818609E-02  0.8867954E-01
       -1   -1    0    0    0  501  0.00000000000E+00  0.00000000000E+00  0.92446336881E+03  0.92446336883E+03  0.50400001928E-02 0. -1.
        1   -1    0    0  501    0  0.00000000000E+00  0.00000000000E+00 -0.62896568236E+03  0.62896568238E+03  0.50400001928E-02 0.  1.
    10030    2    1    2    0    0  0.00000000000E+00  0.00000000000E+00  0.29549768645E+03  0.15534290512E+04  0.15250648952E+04 0.  0.
        4    1    3    3  502    0  0.22305953716E+03  0.37385180187E+03 -0.48994060750E+03  0.65541142701E+03  0.12699999809E+01 0.  1.
       -4    1    3    3    0  502 -0.22305953716E+03 -0.37385180187E+03  0.78543829395E+03  0.89801762420E+03  0.12699999809E+01 0. -1.
</event>
<event>
 5   0  0.1078787E-03  0.1516429E+04  0.7818609E-02  0.8873601E-01
       -1   -1    0    0    0  501  0.00000000000E+00  0.00000000000E+00  0.27631945868E+03  0.27631945873E+03  0.50400001928E-02 0. -1.
        1   -1    0    0  501    0  0.00000000000E+00  0.00000000000E+00 -0.20805228137E+04  0.20805228137E+04  0.50400001928E-02 0.  1.
    10030    2    1    2    0    0  0.00000000000E+00  0.00000000000E+00 -0.18042033550E+04  0.23568422725E+04  0.15164286171E+04 0.  0.
        5    1    3    3  502    0 -0.74759618460E+03 -0.72966599614E+02 -0.74176465975E+03  0.10556803874E+04  0.46999998093E+01 0. -1.
       -5    1    3    3    0  502  0.74759618460E+03  0.72966599614E+02 -0.10624386953E+04  0.13011618851E+04  0.46999998093E+01 0.  1.
</event>
<event>
 5   0  0.1993623E-03  0.1184679E+04  0.7818609E-02  0.9126374E-01
       -2   -1    0    0    0  501  0.00000000000E+00  0.00000000000E+00  0.17136263024E+03  0.17136263026E+03  0.25500000920E-02 0. -1.
        2   -1    0    0  501    0  0.00000000000E+00  0.00000000000E+00 -0.20475069746E+04  0.20475069746E+04  0.25500000920E-02 0.  1.
    10030    2    1    2    0    0  0.00000000000E+00  0.00000000000E+00 -0.18761443444E+04  0.22188696049E+04  0.11846791644E+04 0.  0.
        4    1    3    3  502    0  0.16568405378E+03  0.19959784581E+03 -0.19354605030E+04  0.19527671334E+04  0.12699999809E+01 0.  1.
       -4    1    3    3    0  502 -0.16568405378E+03 -0.19959784581E+03  0.59316158654E+02  0.26610247144E+03  0.12699999809E+01 0. -1.
</event>
<event>
 5   0  0.1078787E-03  0.1505857E+04  0.7818609E-02  0.8880568E-01
        1   -1    0    0  501    0  0.00000000000E+00  0.00000000000E+00  0.18490772901E+04  0.18490772901E+04  0.50400001928E-02 0.  1.
       -1   -1    0    0    0  501  0.00000000000E+00  0.00000000000E+00 -0.30658597670E+03  0.30658597674E+03  0.50400001928E-02 0. -1.
    10030    2    1    2    0    0  0.00000000000E+00  0.00000000000E+00  0.15424913134E+04  0.21556632668E+04  0.15058567887E+04 0.  0.
        5    1    3    3  502    0  0.60141190158E+03  0.85526459813E+02  0.13447204007E+03  0.62218636296E+03  0.46999998093E+01 0. -1.
       -5    1    3    3    0  502 -0.60141190158E+03 -0.85526459813E+02  0.14080192733E+04  0.15334769038E+04  0.46999998093E+01 0.  1.
</event>
<event>
 5   0  0.2150197E-03  0.1487946E+04  0.7818609E-02  0.8892508E-01
        2   -1    0    0  501    0  0.00000000000E+00  0.00000000000E+00  0.51659388757E+03  0.51659388758E+03  0.25500000920E-02 0. -1.
       -2   -1    0    0    0  501  0.00000000000E+00  0.00000000000E+00 -0.10714331857E+04  0.10714331857E+04  0.25500000920E-02 0.  1.
    10030    2    1    2    0    0  0.00000000000E+00  0.00000000000E+00 -0.55483929815E+03  0.15880270733E+04  0.14879460134E+04 0.  0.
        3    1    3    3  502    0  0.11503931993E+03 -0.49461869998E+03 -0.85769392175E+03  0.99675502362E+03  0.10100000352E+00 0.  1.
       -3    1    3    3    0  502 -0.11503931993E+03  0.49461869998E+03  0.30285462360E+03  0.59127204968E+03  0.10100000352E+00 0. -1.
</event>
<event>
 5   0  0.2150197E-03  0.1503411E+04  0.7818609E-02  0.8882188E-01
       -2   -1    0    0    0  501  0.00000000000E+00  0.00000000000E+00  0.29575346455E+03  0.29575346456E+03  0.25500000920E-02 0.  1.
        2   -1    0    0  501    0  0.00000000000E+00  0.00000000000E+00 -0.19105823269E+04  0.19105823269E+04  0.25500000920E-02 0. -1.
    10030    2    1    2    0    0  0.00000000000E+00  0.00000000000E+00 -0.16148288624E+04  0.22063357915E+04  0.15034112445E+04 0.  0.
        3    1    3    3  502    0  0.70818155336E+03 -0.21555688874E+03 -0.99918407575E+03  0.12435251152E+04  0.10100000352E+00 0. -1.
       -3    1    3    3    0  502 -0.70818155336E+03  0.21555688874E+03 -0.61564478662E+03  0.96281067625E+03  0.10100000352E+00 0.  1.
</event>
<event>
 5   0  0.1069697E-03  0.1638310E+04  0.7818609E-02  0.8797352E-01
        1   -1    0    0  501    0  0.00000000000E+00  0.00000000000E+00  0.20198670278E+04  0.20198670278E+04  0.50400001928E-02 0.  1.
       -1   -1    0    0    0  501  0.00000000000E+00  0.00000000000E+00 -0.33220745805E+03  0.33220745809E+03  0.50400001928E-02 0. -1.
    10030    2    1    2    0    0  0.00000000000E+00  0.00000000000E+00  0.16876595697E+04  0.23520744859E+04  0.16383099718E+04 0.  0.
        2    1    3    3  502    0  0.41907603684E+03 -0.69946809256E+03  0.95627642542E+03  0.12567199127E+04  0.25500000920E-02 0. -1.
       -2    1    3    3    0  502 -0.41907603684E+03  0.69946809256E+03  0.73138314431E+03  0.10953545732E+04  0.25500000920E-02 0.  1.
</event>
<event>
 5   0  0.2111533E-03  0.1527812E+04  0.7818609E-02  0.8866166E-01
        2   -1    0    0  501    0  0.00000000000E+00  0.00000000000E+00  0.77409358626E+03  0.77409358626E+03  0.25500000920E-02 0. -1.
       -2   -1    0    0    0  501  0.00000000000E+00  0.00000000000E+00 -0.75385283814E+03  0.75385283814E+03  0.25500000920E-02 0.  1.
    10030    2    1    2    0    0  0.00000000000E+00  0.00000000000E+00  0.20240748122E+02  0.15279464244E+04  0.15278123536E+04 0.  0.
        5    1    3    3  502    0 -0.58062828674E+02 -0.56356238766E+03 -0.50232746002E+03  0.75718480171E+03  0.46999998093E+01 0.  1.
       -5    1    3    3    0  502  0.58062828674E+02  0.56356238766E+03  0.52256820814E+03  0.77076162269E+03  0.46999998093E+01 0. -1.
</event>
<event>
 5   0  0.1078787E-03  0.1551923E+04  0.7818609E-02  0.8850640E-01
        1   -1    0    0  501    0  0.00000000000E+00  0.00000000000E+00  0.79182501949E+03  0.79182501950E+03  0.50400001928E-02 0. -1.
       -1   -1    0    0    0  501  0.00000000000E+00  0.00000000000E+00 -0.76041564754E+03  0.76041564755E+03  0.50400001928E-02 0.  1.
    10030    2    1    2    0    0  0.00000000000E+00  0.00000000000E+00  0.31409371949E+02  0.15522406671E+04  0.15519228524E+04 0.  0.
        5    1    3    3  502    0 -0.27428907758E+03  0.14748205135E+03  0.72656015131E+03  0.79050439406E+03  0.46999998093E+01 0. -1.
       -5    1    3    3    0  502  0.27428907758E+03 -0.14748205135E+03 -0.69515077936E+03  0.76173627300E+03  0.46999998093E+01 0.  1.
</event>
<event>
 5   0  0.1069697E-03  0.7656610E+03  0.7818609E-02  0.9611096E-01
       -1   -1    0    0    0  501  0.00000000000E+00  0.00000000000E+00  0.21064373910E+03  0.21064373916E+03  0.50400001928E-02 0.  1.
        1   -1    0    0  501    0  0.00000000000E+00  0.00000000000E+00 -0.69576816666E+03  0.69576816667E+03  0.50400001928E-02 0. -1.
    10030    2    1    2    0    0  0.00000000000E+00  0.00000000000E+00 -0.48512442755E+03  0.90641190584E+03  0.76566104304E+03 0.  0.
        2    1    3    3  502    0 -0.27088767550E+03  0.91901362236E+02 -0.54376059919E+03  0.61441157408E+03  0.25500000920E-02 0. -1.
       -2    1    3    3    0  502  0.27088767550E+03 -0.91901362236E+02  0.58636171641E+02  0.29200033176E+03  0.25500000920E-02 0.  1.
</event>
<event>
 5   0  0.2111533E-03  0.1489369E+04  0.7818609E-02  0.8891553E-01
        2   -1    0    0  501    0  0.00000000000E+00  0.00000000000E+00  0.13167938444E+04  0.13167938444E+04  0.25500000920E-02 0.  1.
       -2   -1    0    0    0  501  0.00000000000E+00  0.00000000000E+00 -0.42114026906E+03  0.42114026907E+03  0.25500000920E-02 0. -1.
    10030    2    1    2    0    0  0.00000000000E+00  0.00000000000E+00  0.89565357530E+03  0.17379341134E+04  0.14893688783E+04 0.  0.
        5    1    3    3  502    0 -0.47975032614E+02  0.31643893729E+03  0.12324246911E+04  0.12733137531E+04  0.46999998093E+01 0.  1.
       -5    1    3    3    0  502  0.47975032614E+02 -0.31643893729E+03 -0.33677111577E+03  0.46462036029E+03  0.46999998093E+01 0. -1.
</event>
<event>
 5   0  0.2094566E-03  0.1516649E+04  0.7818609E-02  0.8873456E-01
       -2   -1    0    0    0  501  0.00000000000E+00  0.00000000000E+00  0.61665701262E+03  0.61665701262E+03  0.25500000920E-02 0.  1.
        2   -1    0    0  501    0  0.00000000000E+00  0.00000000000E+00 -0.93253842944E+03  0.93253842944E+03  0.25500000920E-02 0. -1.
    10030    2    1    2    0    0  0.00000000000E+00  0.00000000000E+00 -0.31588141682E+03  0.15491954421E+04  0.15166494151E+04 0.  0.
        1    1    3    3  502    0  0.37084405008E+03  0.54353258792E+03  0.22711468439E+03  0.69608481057E+03  0.50400001928E-02 0. -1.
       -1    1    3    3    0  502 -0.37084405008E+03 -0.54353258792E+03 -0.54299610121E+03  0.85311063149E+03  0.50400001928E-02 0.  1.
</event>
<event>
 5   0  0.1069697E-03  0.1487124E+04  0.7818609E-02  0.8893061E-01
       -1   -1    0    0    0  501  0.00000000000E+00  0.00000000000E+00  0.14407296765E+04  0.14407296765E+04  0.50400001928E-02 0.  1.
        1   -1    0    0  501    0  0.00000000000E+00  0.00000000000E+00 -0.38375316125E+03  0.38375316129E+03  0.50400001928E-02 0. -1.
    10030    2    1    2    0    0  0.00000000000E+00  0.00000000000E+00  0.10569765153E+04  0.18244828378E+04  0.14871241615E+04 0.  0.
        2    1    3    3  502    0 -0.39906595835E+02 -0.72491938897E+03  0.72548858585E+03  0.10263694974E+04  0.25500000920E-02 0.  1.
       -2    1    3    3    0  502  0.39906595835E+02  0.72491938897E+03  0.33148792944E+03  0.79811334048E+03  0.25500000920E-02 0. -1.
</event>
<event>
 5   0  0.2094566E-03  0.1483192E+04  0.7818609E-02  0.8895708E-01
       -2   -1    0    0    0  501  0.00000000000E+00  0.00000000000E+00  0.38769125695E+03  0.38769125696E+03  0.25500000920E-02 0.  1.
        2   -1    0    0  501    0  0.00000000000E+00  0.00000000000E+00 -0.14185631136E+04  0.14185631136E+04  0.25500000920E-02 0. -1.
    10030    2    1    2    0    0  0.00000000000E+00  0.00000000000E+00 -0.10308718566E+04  0.18062543706E+04  0.14831918508E+04 0.  0.
        1    1    3    3  502    0 -0.40667166768E+03 -0.78460782197E+02 -0.12645921575E+04  0.13306882672E+04  0.50400001928E-02 0. -1.
       -1    1    3    3    0  502  0.40667166768E+03  0.78460782197E+02  0.23372030083E+03  0.47556610338E+03  0.50400001928E-02 0.  1.
</event>
<event>
 5   0  0.1078018E-03  0.1442504E+04  0.7818609E-02  0.8923614E-01
       -1   -1    0    0    0  501  0.00000000000E+00  0.00000000000E+00  0.17340900710E+04  0.17340900710E+04  0.50400001928E-02 0.  1.
        1   -1    0    0  501    0  0.00000000000E+00  0.00000000000E+00 -0.29998701475E+03  0.29998701479E+03  0.50400001928E-02 0. -1.
    10030    2    1    2    0    0  0.00000000000E+00  0.00000000000E+00  0.14341030563E+04  0.20340770858E+04  0.14425040780E+04 0.  0.
        4    1    3    3  502    0  0.46763886751E+02 -0.42148895242E+03  0.15397138150E+04  0.15970472889E+04  0.12699999809E+01 0.  1.
       -4    1    3    3    0  502 -0.46763886751E+02  0.42148895242E+03 -0.10561075871E+03  0.43702979689E+03  0.12699999809E+01 0. -1.
</event>
<event>
 5   0  0.2150197E-03  0.1472747E+04  0.7818609E-02  0.8902781E-01
        2   -1    0    0  501    0  0.00000000000E+00  0.00000000000E+00  0.20371305215E+04  0.20371305215E+04  0.25500000920E-02 0. -1.
       -2   -1    0    0    0  501  0.00000000000E+00  0.00000000000E+00 -0.26618110925E+03  0.26618110926E+03  0.25500000920E-02 0.  1.
    10030    2    1    2    0    0  0.00000000000E+00  0.00000000000E+00  0.17709494123E+04  0.23033116308E+04  0.14727466339E+04 0.  0.
        3    1    3    3  502    0  0.47937177861E+03  0.31257509759E+03  0.16102215820E+04  0.17088926377E+04  0.10100000352E+00 0. -1.
       -3    1    3    3    0  502 -0.47937177861E+03 -0.31257509759E+03  0.16072783029E+03  0.59441899313E+03  0.10100000352E+00 0.  1.
</event>
<event>
 5   0  0.1078018E-03  0.1571604E+04  0.7818609E-02  0.8838185E-01
       -1   -1    0    0    0  501  0.00000000000E+00  0.00000000000E+00  0.14384494047E+04  0.14384494047E+04  0.50400001928E-02 0.  1.
        1   -1    0    0  501    0  0.00000000000E+00  0.00000000000E+00 -0.42927101090E+03  0.42927101093E+03  0.50400001928E-02 0. -1.
    10030    2    1    2    0    0  0.00000000000E+00  0.00000000000E+00  0.10091783938E+04  0.18677204156E+04  0.15716038052E+04 0.  0.
        4    1    3    3  502    0  0.11965431779E+03 -0.69701521054E+03  0.91167297859E+03  0.11538182666E+04  0.12699999809E+01 0.  1.
       -4    1    3    3    0  502 -0.11965431779E+03  0.69701521054E+03  0.97505415174E+02  0.71390214902E+03  0.12699999809E+01 0. -1.
</event>
<event>
 5   0  0.2150197E-03  0.1429082E+04  0.7818609E-02  0.8933032E-01
       -2   -1    0    0    0  501  0.00000000000E+00  0.00000000000E+00  0.52621956872E+03  0.52621956873E+03  0.25500000920E-02 0.  1.
        2   -1    0    0  501    0  0.00000000000E+00  0.00000000000E+00 -0.97025861081E+03  0.97025861082E+03  0.25500000920E-02 0. -1.
    10030    2    1    2    0    0  0.00000000000E+00  0.00000000000E+00 -0.44403904209E+03  0.14964781795E+04  0.14290823178E+04 0.  0.
        3    1    3    3  502    0  0.71328868512E+03 -0.42114919198E+02 -0.22602657551E+03  0.74942807378E+03  0.10100000352E+00 0.  1.
       -3    1    3    3    0  502 -0.71328868512E+03  0.42114919198E+02 -0.21801246658E+03  0.74705010576E+03  0.10100000352E+00 0. -1.
</event>
<event>
 5   0  0.1993623E-03  0.8665209E+03  0.7818609E-02  0.9468428E-01
       -2   -1    0    0    0  501  0.00000000000E+00  0.00000000000E+00  0.45594195153E+03  0.45594195153E+03  0.25500000920E-02 0.  1.
        2   -1    0    0  501    0  0.00000000000E+00  0.00000000000E+00 -0.41170730419E+03  0.41170730420E+03  0.25500000920E-02 0. -1.
    10030    2    1    2    0    0  0.00000000000E+00  0.00000000000E+00  0.44234647331E+02  0.86764925574E+03  0.86652093278E+03 0.  0.
        4    1    3    3  502    0  0.39771129575E+03  0.98606878958E+02 -0.11883325496E+03  0.42663866062E+03  0.12699999809E+01 0. -1.
       -4    1    3    3    0  502 -0.39771129575E+03 -0.98606878958E+02  0.16306790229E+03  0.44101059512E+03  0.12699999809E+01 0.  1.
</event>
<event>
 5   0  0.1961098E-03  0.1513175E+04  0.7818609E-02  0.8875739E-01
        2   -1    0    0  501    0  0.00000000000E+00  0.00000000000E+00  0.12689203818E+04  0.12689203818E+04  0.25500000920E-02 0. -1.
       -2   -1    0    0    0  501  0.00000000000E+00  0.00000000000E+00 -0.45111170635E+03  0.45111170636E+03  0.25500000920E-02 0.  1.
    10030    2    1    2    0    0  0.00000000000E+00  0.00000000000E+00  0.81780867541E+03  0.17200320881E+04  0.15131752557E+04 0.  0.
        2    1    3    3  502    0  0.38815944482E+03  0.55132551174E+03  0.18769331959E+02  0.67452195096E+03  0.25500000920E-02 0.  1.
       -2    1    3    3    0  502 -0.38815944482E+03 -0.55132551174E+03  0.79903934345E+03  0.10455101372E+04  0.25500000920E-02 0. -1.
</event>
<event>
 5   0  0.1961098E-03  0.1521604E+04  0.7818609E-02  0.8870213E-01
        2   -1    0    0  501    0  0.00000000000E+00  0.00000000000E+00  0.86067376140E+03  0.86067376140E+03  0.25500000920E-02 0.  1.
       -2   -1    0    0    0  501  0.00000000000E+00  0.00000000000E+00 -0.67251889878E+03  0.67251889879E+03  0.25500000920E-02 0. -1.
    10030    2    1    2    0    0  0.00000000000E+00  0.00000000000E+00  0.18815486261E+03  0.15331926602E+04  0.15216035886E+04 0.  0.
        2    1    3    3  502    0  0.23662512509E+03  0.56801016917E+03 -0.35675896134E+03  0.71126925886E+03  0.25500000920E-02 0. -1.
       -2    1    3    3    0  502 -0.23662512509E+03 -0.56801016917E+03  0.54491382396E+03  0.82192340132E+03  0.25500000920E-02 0.  1.
</event>
<event>
 5   0  0.1078018E-03  0.1491779E+04  0.7818609E-02  0.8889938E-01
        1   -1    0    0  501    0  0.00000000000E+00  0.00000000000E+00  0.14254334834E+04  0.14254334834E+04  0.50400001928E-02 0. -1.
       -1   -1    0    0    0  501  0.00000000000E+00  0.00000000000E+00 -0.39030320807E+03  0.39030320810E+03  0.50400001928E-02 0.  1.
    10030    2    1    2    0    0  0.00000000000E+00  0.00000000000E+00  0.10351302753E+04  0.18157366915E+04  0.14917791546E+04 0.  0.
        4    1    3    3  502    0  0.36514731555E+03 -0.35989312757E+03 -0.14183337966E+03  0.53195295451E+03  0.12699999809E+01 0.  1.
       -4    1    3    3    0  502 -0.36514731555E+03  0.35989312757E+03  0.11769636550E+04  0.12837837370E+04  0.12699999809E+01 0. -1.
</event>
<event>
 5   0  0.1961098E-03  0.1512093E+04  0.7818609E-02  0.8876451E-01
        2   -1    0    0  501    0  0.00000000000E+00  0.00000000000E+00  0.58477235813E+03  0.58477235813E+03  0.25500000920E-02 0. -1.
       -2   -1    0    0    0  501  0.00000000000E+00  0.00000000000E+00 -0.97748563553E+03  0.97748563554E+03  0.25500000920E-02 0.  1.
    10030    2    1    2    0    0  0.00000000000E+00  0.00000000000E+00 -0.39271327741E+03  0.15622579937E+04  0.15120933571E+04 0.  0.
        2    1    3    3  502    0  0.82565581787E+02 -0.41877385968E+03  0.44837968468E+03  0.61905812529E+03  0.25500000920E-02 0. -1.
       -2    1    3    3    0  502 -0.82565581787E+02  0.41877385968E+03 -0.84109296209E+03  0.94319986838E+03  0.25500000920E-02 0.  1.
</event>
<event>
 5   0  0.7468375E-04  0.1484287E+04  0.7818609E-02  0.8894970E-01
       -4   -1    0    0    0  501  0.00000000000E+00  0.00000000000E+00  0.10844795246E+04  0.10844802683E+04  0.12699999809E+01 0.  1.
        4   -1    0    0  501    0  0.00000000000E+00  0.00000000000E+00 -0.50787054288E+03  0.50787213078E+03  0.12699999809E+01 0. -1.
    10030    2    1    2    0    0  0.00000000000E+00  0.00000000000E+00  0.57660898176E+03  0.15923523991E+04  0.14842871167E+04 0.  0.
        4    1    3    3  502    0 -0.72592015102E+03 -0.11720619813E+03  0.39600317086E+03  0.83517512102E+03  0.12699999809E+01 0. -1.
       -4    1    3    3    0  502  0.72592015102E+03  0.11720619813E+03  0.18060581091E+03  0.75717727804E+03  0.12699999809E+01 0.  1.
</event>
<event>
 5   0  0.2111533E-03  0.1509956E+04  0.7818609E-02  0.8877859E-01
        2   -1    0    0  501    0  0.00000000000E+00  0.00000000000E+00  0.61458976907E+03  0.61458976907E+03  0.25500000920E-02 0. -1.
       -2   -1    0    0    0  501  0.00000000000E+00  0.00000000000E+00 -0.92743419699E+03  0.92743419699E+03  0.25500000920E-02 0.  1.
    10030    2    1    2    0    0  0.00000000000E+00  0.00000000000E+00 -0.31284442792E+03  0.15420239661E+04  0.15099557198E+04 0.  0.
        5    1    3    3  502    0 -0.13904331172E+03 -0.62740041188E+03  0.24823182011E+03  0.68891613849E+03  0.46999998093E+01 0. -1.
       -5    1    3    3    0  502  0.13904331172E+03  0.62740041188E+03 -0.56107624803E+03  0.85310782757E+03  0.46999998093E+01 0.  1.
</event>
<event>
 5   0  0.2150197E-03  0.1569995E+04  0.7818609E-02  0.8839196E-01
        2   -1    0    0  501    0  0.00000000000E+00  0.00000000000E+00  0.15561781031E+04  0.15561781031E+04  0.25500000920E-02 0. -1.
       -2   -1    0    0    0  501  0.00000000000E+00  0.00000000000E+00 -0.39598366602E+03  0.39598366603E+03  0.25500000920E-02 0.  1.
    10030    2    1    2    0    0  0.00000000000E+00  0.00000000000E+00  0.11601944371E+04  0.19521617691E+04  0.15699950449E+04 0.  0.
        3    1    3    3  502    0 -0.53891950190E+03  0.45623289158E+03  0.15362365849E+03  0.72262225232E+03  0.10100000352E+00 0.  1.
       -3    1    3    3    0  502  0.53891950190E+03 -0.45623289158E+03  0.10065707786E+04  0.12295395168E+04  0.10100000352E+00 0. -1.
</event>
<event>
 5   0  0.1078787E-03  0.1432056E+04  0.7818609E-02  0.8930936E-01
       -1   -1    0    0    0  501  0.00000000000E+00  0.00000000000E+00  0.67213965077E+03  0.67213965079E+03  0.50400001928E-02 0.  1.
        1   -1    0    0  501    0  0.00000000000E+00  0.00000000000E+00 -0.76278231304E+03  0.76278231305E+03  0.50400001928E-02 0. -1.
    10030    2    1    2    0    0  0.00000000000E+00  0.00000000000E+00 -0.90642662262E+02  0.14349219638E+04  0.14320561966E+04 0.  0.
        5    1    3    3  502    0 -0.36346219440E+03  0.22497074280E+02  0.57240507747E+03  0.67843978939E+03  0.46999998093E+01 0.  1.
       -5    1    3    3    0  502  0.36346219440E+03 -0.22497074280E+02 -0.66304773974E+03  0.75648217446E+03  0.46999998093E+01 0. -1.
</event>
<event>
 5   0  0.1077140E-03  0.1528350E+04  0.7818609E-02  0.8865816E-01
        1   -1    0    0  501    0  0.00000000000E+00  0.00000000000E+00  0.63684215277E+03  0.63684215279E+03  0.50400001928E-02 0.  1.
       -1   -1    0    0    0  501  0.00000000000E+00  0.00000000000E+00 -0.91696744821E+03  0.91696744822E+03  0.50400001928E-02 0. -1.
    10030    2    1    2    0    0  0.00000000000E+00  0.00000000000E+00 -0.28012529544E+03  0.15538096010E+04  0.15283501219E+04 0.  0.
        1    1    3    3  502    0  0.48645939432E+03  0.57525853547E+03 -0.27025206003E+03  0.80037572485E+03  0.50400001928E-02 0. -1.
       -1    1    3    3    0  502 -0.48645939432E+03 -0.57525853547E+03 -0.98732354075E+01  0.75343387616E+03  0.50400001928E-02 0.  1.
</event>
<event>
 5   0  0.2150197E-03  0.1360060E+04  0.7818609E-02  0.8983248E-01
       -2   -1    0    0    0  501  0.00000000000E+00  0.00000000000E+00  0.75031485876E+03  0.75031485876E+03  0.25500000920E-02 0.  1.
        2   -1    0    0  501    0  0.00000000000E+00  0.00000000000E+00 -0.61632864448E+03  0.61632864449E+03  0.25500000920E-02 0. -1.
    10030    2    1    2    0    0  0.00000000000E+00  0.00000000000E+00  0.13398621427E+03  0.13666435032E+04  0.13600596161E+04 0.  0.
        3    1    3    3  502    0 -0.56756072141E+03  0.22469833195E+03  0.36815385480E+03  0.71284765825E+03  0.10100000352E+00 0.  1.
       -3    1    3    3    0  502  0.56756072141E+03 -0.22469833195E+03 -0.23416764052E+03  0.65379584500E+03  0.10100000352E+00 0. -1.
</event>
<event>
 5   0  0.1069697E-03  0.1464354E+04  0.7818609E-02  0.8908510E-01
       -1   -1    0    0    0  501  0.00000000000E+00  0.00000000000E+00  0.71869843236E+03  0.71869843238E+03  0.50400001928E-02 0. -1.
        1   -1    0    0  501    0  0.00000000000E+00  0.00000000000E+00 -0.74590806346E+03  0.74590806348E+03  0.50400001928E-02 0.  1.
    10030    2    1    2    0    0  0.00000000000E+00  0.00000000000E+00 -0.27209631100E+02  0.14646064959E+04  0.14643537222E+04 0.  0.
        2    1    3    3  502    0 -0.56837161895E+03 -0.25236579365E+03 -0.40012742764E+03  0.73948411031E+03  0.25500000920E-02 0.  1.
       -2    1    3    3    0  502  0.56837161895E+03  0.25236579365E+03  0.37291779654E+03  0.72512238555E+03  0.25500000920E-02 0. -1.
</event>
<event>
 5   0  0.1993623E-03  0.1492741E+04  0.7818609E-02  0.8889294E-01
        2   -1    0    0  501    0  0.00000000000E+00  0.00000000000E+00  0.10673410543E+04  0.10673410543E+04  0.25500000920E-02 0. -1.
       -2   -1    0    0    0  501  0.00000000000E+00  0.00000000000E+00 -0.52192217854E+03  0.52192217855E+03  0.25500000920E-02 0.  1.
    10030    2    1    2    0    0  0.00000000000E+00  0.00000000000E+00  0.54541887572E+03  0.15892632328E+04  0.14927410603E+04 0.  0.
        4    1    3    3  502    0  0.46348744117E+03  0.11794457617E+03  0.88276654711E+03  0.10039969725E+04  0.12699999809E+01 0. -1.
       -4    1    3    3    0  502 -0.46348744117E+03 -0.11794457617E+03 -0.33734767139E+03  0.58526626032E+03  0.12699999809E+01 0.  1.
</event>
<event>
 5   0  0.1078018E-03  0.1465679E+04  0.7818609E-02  0.8907603E-01
       -1   -1    0    0    0  501  0.00000000000E+00  0.00000000000E+00  0.37811532087E+03  0.37811532091E+03  0.50400001928E-02 0. -1.
        1   -1    0    0  501    0  0.00000000000E+00  0.00000000000E+00 -0.14203428291E+04  0.14203428291E+04  0.50400001928E-02 0.  1.
    10030    2    1    2    0    0  0.00000000000E+00  0.00000000000E+00 -0.10422275082E+04  0.17984581500E+04  0.14656785249E+04 0.  0.
        4    1    3    3  502    0 -0.19464112648E+03  0.37675891965E+01  0.34580459903E+03  0.39683976168E+03  0.12699999809E+01 0. -1.
       -4    1    3    3    0  502  0.19464112648E+03 -0.37675891965E+01 -0.13880321073E+04  0.14016183883E+04  0.12699999809E+01 0.  1.
</event>
<event>
 5   0  0.1993623E-03  0.1466759E+04  0.7818609E-02  0.8906863E-01
        2   -1    0    0  501    0  0.00000000000E+00  0.00000000000E+00  0.20249531811E+04  0.20249531811E+04  0.25500000920E-02 0. -1.
       -2   -1    0    0    0  501  0.00000000000E+00  0.00000000000E+00 -0.26560900156E+03  0.26560900157E+03  0.25500000920E-02 0.  1.
    10030    2    1    2    0    0  0.00000000000E+00  0.00000000000E+00  0.17593441796E+04  0.22905621827E+04  0.14667594113E+04 0.  0.
        4    1    3    3  502    0 -0.25741982417E+03  0.40266752535E+03  0.17483726070E+04  0.18125160655E+04  0.12699999809E+01 0. -1.
       -4    1    3    3    0  502  0.25741982417E+03 -0.40266752535E+03  0.10971572531E+02  0.47804611718E+03  0.12699999809E+01 0.  1.
</event>
<event>
 5   0  0.2094566E-03  0.1302169E+04  0.7818609E-02  0.9027847E-01
        2   -1    0    0  501    0  0.00000000000E+00  0.00000000000E+00  0.11288407875E+04  0.11288407875E+04  0.25500000920E-02 0. -1.
       -2   -1    0    0    0  501  0.00000000000E+00  0.00000000000E+00 -0.37552758579E+03  0.37552758580E+03  0.25500000920E-02 0.  1.
    10030    2    1    2    0    0  0.00000000000E+00  0.00000000000E+00  0.75331320171E+03  0.15043683733E+04  0.13021687382E+04 0.  0.
        1    1    3    3  502    0 -0.24060502714E+03  0.44520358303E+03  0.84991771897E+03  0.98916992396E+03  0.50400001928E-02 0. -1.
       -1    1    3    3    0  502  0.24060502714E+03 -0.44520358303E+03 -0.96604517261E+02  0.51519844934E+03  0.50400001928E-02 0.  1.
</event>
<event>
 5   0  0.1961098E-03  0.1549094E+04  0.7818609E-02  0.8852446E-01
       -2   -1    0    0    0  501  0.00000000000E+00  0.00000000000E+00  0.65906189842E+03  0.65906189842E+03  0.25500000920E-02 0.  1.
        2   -1    0    0  501    0  0.00000000000E+00  0.00000000000E+00 -0.91026861576E+03  0.91026861577E+03  0.25500000920E-02 0. -1.
    10030    2    1    2    0    0  0.00000000000E+00  0.00000000000E+00 -0.25120671735E+03  0.15693305142E+04  0.15490943961E+04 0.  0.
        2    1    3    3  502    0  0.27421805165E+03 -0.11658553104E+03 -0.84988022986E+03  0.90060209361E+03  0.25500000920E-02 0. -1.
       -2    1    3    3    0  502 -0.27421805165E+03  0.11658553104E+03  0.59867351252E+03  0.66872842058E+03  0.25500000920E-02 0.  1.
</event>
<event>
 5   0  0.1087761E-03  0.1456576E+04  0.7818609E-02  0.8913854E-01
       -1   -1    0    0    0  501  0.00000000000E+00  0.00000000000E+00  0.11292588375E+04  0.11292588375E+04  0.50400001928E-02 0. -1.
        1   -1    0    0  501    0  0.00000000000E+00  0.00000000000E+00 -0.46969168798E+03  0.46969168800E+03  0.50400001928E-02 0.  1.
    10030    2    1    2    0    0  0.00000000000E+00  0.00000000000E+00  0.65956714956E+03  0.15989505255E+04  0.14565761080E+04 0.  0.
        3    1    3    3  502    0  0.24644652958E+03 -0.52143533588E+03  0.81796932772E+03  0.10008519035E+04  0.10100000352E+00 0. -1.
       -3    1    3    3    0  502 -0.24644652958E+03  0.52143533588E+03 -0.15840217816E+03  0.59809862205E+03  0.10100000352E+00 0.  1.
</event>
<event>
 5   0  0.1077140E-03  0.1216473E+04  0.7818609E-02  0.9098558E-01
        1   -1    0    0  501    0  0.00000000000E+00  0.00000000000E+00  0.73569081104E+03  0.73569081106E+03  0.50400001928E-02 0.  1.
       -1   -1    0    0    0  501  0.00000000000E+00  0.00000000000E+00 -0.50286333075E+03  0.50286333077E+03  0.50400001928E-02 0. -1.
    10030    2    1    2    0    0  0.00000000000E+00  0.00000000000E+00  0.23282748030E+03  0.12385541418E+04  0.12164734796E+04 0.  0.
        1    1    3    3  502    0  0.20855995294E+03  0.16273602563E+03 -0.44122439545E+03  0.51445042052E+03  0.50400001928E-02 0. -1.
       -1    1    3    3    0  502 -0.20855995294E+03 -0.16273602563E+03  0.67405187574E+03  0.72410372132E+03  0.50400001928E-02 0.  1.
</event>
<event>
 5   0  0.1069697E-03  0.1520588E+04  0.7818609E-02  0.8870876E-01
        1   -1    0    0  501    0  0.00000000000E+00  0.00000000000E+00  0.49322045879E+03  0.49322045882E+03  0.50400001928E-02 0. -1.
       -1   -1    0    0    0  501  0.00000000000E+00  0.00000000000E+00 -0.11719851789E+04  0.11719851789E+04  0.50400001928E-02 0.  1.
    10030    2    1    2    0    0  0.00000000000E+00  0.00000000000E+00 -0.67876472012E+03  0.16652056377E+04  0.15205881332E+04 0.  0.
        2    1    3    3  502    0 -0.37627779176E+03  0.58174364315E+03 -0.68226856122E+03  0.97236877395E+03  0.25500000920E-02 0.  1.
       -2    1    3    3    0  502  0.37627779176E+03 -0.58174364315E+03  0.35038410990E+01  0.69283686379E+03  0.25500000920E-02 0. -1.
</event>
<event>
 5   0  0.1961098E-03  0.1424831E+04  0.7818609E-02  0.8936038E-01
        2   -1    0    0  501    0  0.00000000000E+00  0.00000000000E+00  0.40080113780E+03  0.40080113780E+03  0.25500000920E-02 0. -1.
       -2   -1    0    0    0  501  0.00000000000E+00  0.00000000000E+00 -0.12663026713E+04  0.12663026713E+04  0.25500000920E-02 0.  1.
    10030    2    1    2    0    0  0.00000000000E+00  0.00000000000E+00 -0.86550153352E+03  0.16671038091E+04  0.14248305885E+04 0.  0.
        2    1    3    3  502    0 -0.46500225471E+03 -0.39677886733E+03 -0.86085461463E+03  0.10558083320E+04  0.25500000920E-02 0.  1.
       -2    1    3    3    0  502  0.46500225471E+03  0.39677886733E+03 -0.46469188878E+01  0.61129547709E+03  0.25500000920E-02 0. -1.
</event>
<event>
 5   0  0.2111533E-03  0.1489894E+04  0.7818609E-02  0.8891201E-01
        2   -1    0    0  501    0  0.00000000000E+00  0.00000000000E+00  0.17787630503E+04  0.17787630503E+04  0.25500000920E-02 0.  1.
       -2   -1    0    0    0  501  0.00000000000E+00  0.00000000000E+00 -0.31198418238E+03  0.31198418239E+03  0.25500000920E-02 0. -1.
    10030    2    1    2    0    0  0.00000000000E+00  0.00000000000E+00  0.14667788680E+04  0.20907472327E+04  0.14898938699E+04 0.  0.
        5    1    3    3  502    0 -0.71452319186E+03  0.20937872999E+03  0.70074978422E+03  0.10224750336E+04  0.46999998093E+01 0. -1.
       -5    1    3    3    0  502  0.71452319186E+03 -0.20937872999E+03  0.76602908375E+03  0.10682721991E+04  0.46999998093E+01 0.  1.
</event>
<event>
 5   0  0.1077140E-03  0.1546033E+04  0.7818609E-02  0.8854406E-01
       -1   -1    0    0    0  501  0.00000000000E+00  0.00000000000E+00  0.35342905608E+03  0.35342905612E+03  0.50400001928E-02 0.  1.
        1   -1    0    0  501    0  0.00000000000E+00  0.00000000000E+00 -0.16907337320E+04  0.16907337320E+04  0.50400001928E-02 0. -1.
    10030    2    1    2    0    0  0.00000000000E+00  0.00000000000E+00 -0.13373046759E+04  0.20441627881E+04  0.15460328936E+04 0.  0.
        1    1    3    3  502    0  0.69752826831E+03  0.30811878505E+03 -0.83627229086E+03  0.11317394644E+04  0.50400001928E-02 0. -1.
       -1    1    3    3    0  502 -0.69752826831E+03 -0.30811878505E+03 -0.50103238508E+03  0.91242332374E+03  0.50400001928E-02 0.  1.
</event>
<event>
 5   0  0.2094566E-03  0.1525803E+04  0.7818609E-02  0.8867473E-01
        2   -1    0    0  501    0  0.00000000000E+00  0.00000000000E+00  0.16799480288E+04  0.16799480288E+04  0.25500000920E-02 0. -1.
       -2   -1    0    0    0  501  0.00000000000E+00  0.00000000000E+00 -0.34645058234E+03  0.34645058235E+03  0.25500000920E-02 0.  1.
    10030    2    1    2    0    0  0.00000000000E+00  0.00000000000E+00  0.13334974464E+04  0.20263986111E+04  0.15258033594E+04 0.  0.
        1    1    3    3  502    0 -0.57043844205E+03 -0.20110334830E+03  0.12842394679E+04  0.14195469642E+04  0.50400001928E-02 0. -1.
       -1    1    3    3    0  502  0.57043844205E+03  0.20110334830E+03  0.49257978585E+02  0.60685164690E+03  0.50400001928E-02 0.  1.
</event>
<event>
 5   0  0.1077140E-03  0.1501811E+04  0.7818609E-02  0.8883250E-01
       -1   -1    0    0    0  501  0.00000000000E+00  0.00000000000E+00  0.37258775365E+03  0.37258775369E+03  0.50400001928E-02 0.  1.
        1   -1    0    0  501    0  0.00000000000E+00  0.00000000000E+00 -0.15133583291E+04  0.15133583291E+04  0.50400001928E-02 0. -1.
    10030    2    1    2    0    0  0.00000000000E+00  0.00000000000E+00 -0.11407705754E+04  0.18859460828E+04  0.15018106143E+04 0.  0.
        1    1    3    3  502    0  0.64268041681E+02 -0.43949983708E+03 -0.13306967735E+04  0.14028700549E+04  0.50400001928E-02 0. -1.
       -1    1    3    3    0  502 -0.64268041681E+02  0.43949983708E+03  0.18992619805E+03  0.48307602787E+03  0.50400001928E-02 0.  1.
</event>
<event>
 5   0  0.2111533E-03  0.1564404E+04  0.7818609E-02  0.8842719E-01
        2   -1    0    0  501    0  0.00000000000E+00  0.00000000000E+00  0.11068206174E+04  0.11068206174E+04  0.25500000920E-02 0. -1.
       -2   -1    0    0    0  501  0.00000000000E+00  0.00000000000E+00 -0.55279045147E+03  0.55279045147E+03  0.25500000920E-02 0.  1.
    10030    2    1    2    0    0  0.00000000000E+00  0.00000000000E+00  0.55403016593E+03  0.16596110689E+04  0.15644038721E+04 0.  0.
        5    1    3    3  502    0  0.26097138853E+03  0.66700641522E+03 -0.56462789080E+02  0.71848017379E+03  0.46999998093E+01 0.  1.
       -5    1    3    3    0  502 -0.26097138853E+03 -0.66700641522E+03  0.61049295501E+03  0.94113089509E+03  0.46999998093E+01 0. -1.
</event>
<event>
 5   0  0.1993623E-03  0.1530004E+04  0.7818609E-02  0.8864742E-01
        2   -1    0    0  501    0  0.00000000000E+00  0.00000000000E+00  0.95830801321E+03  0.95830801322E+03  0.25500000920E-02 0. -1.
       -2   -1    0    0    0  501  0.00000000000E+00  0.00000000000E+00 -0.61068923374E+03  0.61068923375E+03  0.25500000920E-02 0.  1.
    10030    2    1    2    0    0  0.00000000000E+00  0.00000000000E+00  0.34761877947E+03  0.15689972470E+04  0.15300044265E+04 0.  0.
        4    1    3    3  502    0 -0.52237747476E+03  0.25101867192E+01  0.74692845898E+03  0.91147587072E+03  0.12699999809E+01 0. -1.
       -4    1    3    3    0  502  0.52237747476E+03 -0.25101867192E+01 -0.39930967951E+03  0.65752137625E+03  0.12699999809E+01 0.  1.
</event>
<event>
 5   0  0.2111533E-03  0.1431550E+04  0.7818609E-02  0.8931292E-01
        2   -1    0    0  501    0  0.00000000000E+00  0.00000000000E+00  0.76544404185E+03  0.76544404185E+03  0.25500000920E-02 0.  1.
       -2   -1    0    0    0  501  0.00000000000E+00  0.00000000000E+00 -0.66932923823E+03  0.66932923823E+03  0.25500000920E-02 0. -1.
    10030    2    1    2    0    0  0.00000000000E+00  0.00000000000E+00  0.96114803620E+02  0.14347732801E+04  0.14315503169E+04 0.  0.
        5    1    3    3  502    0  0.23010925988E+03 -0.30205426379E+03  0.65615639175E+03  0.75812291232E+03  0.46999998093E+01 0.  1.
       -5    1    3    3    0  502 -0.23010925988E+03  0.30205426379E+03 -0.56004158813E+03  0.67665036776E+03  0.46999998093E+01 0. -1.
</event>
<event>
 5   0  0.2111533E-03  0.9632588E+03  0.7818609E-02  0.9349786E-01
       -2   -1    0    0    0  501  0.00000000000E+00  0.00000000000E+00  0.76215683432E+03  0.76215683432E+03  0.25500000920E-02 0.  1.
        2   -1    0    0  501    0  0.00000000000E+00  0.00000000000E+00 -0.30435585212E+03  0.30435585213E+03  0.25500000920E-02 0. -1.
    10030    2    1    2    0    0  0.00000000000E+00  0.00000000000E+00  0.45780098220E+03  0.10665126865E+04  0.96325882870E+03 0.  0.
        5    1    3    3  502    0  0.28392001061E+03 -0.13976824865E+03  0.63085712035E+03  0.70579638144E+03  0.46999998093E+01 0.  1.
       -5    1    3    3    0  502 -0.28392001061E+03  0.13976824865E+03 -0.17305613815E+03  0.36071630502E+03  0.46999998093E+01 0. -1.
</event>
<event>
 5   0  0.1069697E-03  0.1500518E+04  0.7818609E-02  0.8884108E-01
        1   -1    0    0  501    0  0.00000000000E+00  0.00000000000E+00  0.87987604667E+03  0.87987604668E+03  0.50400001928E-02 0.  1.
       -1   -1    0    0    0  501  0.00000000000E+00  0.00000000000E+00 -0.63973642018E+03  0.63973642020E+03  0.50400001928E-02 0. -1.
    10030    2    1    2    0    0  0.00000000000E+00  0.00000000000E+00  0.24013962649E+03  0.15196124669E+04  0.15005182469E+04 0.  0.
        2    1    3    3  502    0  0.61604163671E+03 -0.42699454883E+03  0.15299676596E+03  0.76500957725E+03  0.25500000920E-02 0.  1.
       -2    1    3    3    0  502 -0.61604163671E+03  0.42699454883E+03  0.87142860531E+02  0.75460288963E+03  0.25500000920E-02 0. -1.
</event>
<event>
 5   0  0.2150197E-03  0.1448243E+04  0.7818609E-02  0.8919620E-01
       -2   -1    0    0    0  501  0.00000000000E+00  0.00000000000E+00  0.45115283787E+03  0.45115283788E+03  0.25500000920E-02 0.  1.
        2   -1    0    0  501    0  0.00000000000E+00  0.00000000000E+00 -0.11622487331E+04  0.11622487331E+04  0.25500000920E-02 0. -1.
    10030    2    1    2    0    0  0.00000000000E+00  0.00000000000E+00 -0.71109589526E+03  0.16134015710E+04  0.14482428170E+04 0.  0.
        3    1    3    3  502    0  0.40229392231E+03  0.55401965160E+03 -0.61817259007E+03  0.92245083099E+03  0.10100000352E+00 0. -1.
       -3    1    3    3    0  502 -0.40229392231E+03 -0.55401965160E+03 -0.92923305194E+02  0.69095074002E+03  0.10100000352E+00 0.  1.
</event>
<event>
 5   0  0.1069697E-03  0.7560041E+03  0.7818609E-02  0.9625978E-01
        1   -1    0    0  501    0  0.00000000000E+00  0.00000000000E+00  0.43891607482E+03  0.43891607485E+03  0.50400001928E-02 0.  1.
       -1   -1    0    0    0  501  0.00000000000E+00  0.00000000000E+00 -0.32554181647E+03  0.32554181651E+03  0.50400001928E-02 0. -1.
    10030    2    1    2    0    0  0.00000000000E+00  0.00000000000E+00  0.11337425835E+03  0.76445789136E+03  0.75600406428E+03 0.  0.
        2    1    3    3  502    0 -0.26747027645E+02  0.10089513664E+02 -0.32444721281E+03  0.32570415361E+03  0.25500000920E-02 0. -1.
       -2    1    3    3    0  502  0.26747027645E+02 -0.10089513664E+02  0.43782147116E+03  0.43875373775E+03  0.25500000920E-02 0.  1.
</event>
<event>
 5   0  0.1993623E-03  0.1508326E+04  0.7818609E-02  0.8878935E-01
       -2   -1    0    0    0  501  0.00000000000E+00  0.00000000000E+00  0.91301674795E+03  0.91301674795E+03  0.25500000920E-02 0.  1.
        2   -1    0    0  501    0  0.00000000000E+00  0.00000000000E+00 -0.62294765417E+03  0.62294765417E+03  0.25500000920E-02 0. -1.
    10030    2    1    2    0    0  0.00000000000E+00  0.00000000000E+00  0.29006909378E+03  0.15359644021E+04  0.15083257491E+04 0.  0.
        4    1    3    3  502    0 -0.10363726282E+03  0.37861045824E+02  0.90475199465E+03  0.91145593737E+03  0.12699999809E+01 0.  1.
       -4    1    3    3    0  502  0.10363726282E+03 -0.37861045824E+02 -0.61468290087E+03  0.62450846476E+03  0.12699999809E+01 0. -1.
</event>
<event>
 5   0  0.1087761E-03  0.1553887E+04  0.7818609E-02  0.8849389E-01
        1   -1    0    0  501    0  0.00000000000E+00  0.00000000000E+00  0.10289364105E+04  0.10289364106E+04  0.50400001928E-02 0. -1.
       -1   -1    0    0    0  501  0.00000000000E+00  0.00000000000E+00 -0.58666491976E+03  0.58666491978E+03  0.50400001928E-02 0.  1.
    10030    2    1    2    0    0  0.00000000000E+00  0.00000000000E+00  0.44227149078E+03  0.16156013303E+04  0.15538866069E+04 0.  0.
        3    1    3    3  502    0  0.44097025859E+03 -0.44505704712E+03  0.69885157652E+03  0.93857555922E+03  0.10100000352E+00 0. -1.
       -3    1    3    3    0  502 -0.44097025859E+03  0.44505704712E+03 -0.25658008574E+03  0.67702577112E+03  0.10100000352E+00 0.  1.
</event>
<event>
 5   0  0.2150197E-03  0.1475861E+04  0.7818609E-02  0.8900666E-01
       -2   -1    0    0    0  501  0.00000000000E+00  0.00000000000E+00  0.24819058039E+03  0.24819058040E+03  0.25500000920E-02 0. -1.
        2   -1    0    0  501    0  0.00000000000E+00  0.00000000000E+00 -0.21940460922E+04  0.21940460922E+04  0.25500000920E-02 0.  1.
    10030    2    1    2    0    0  0.00000000000E+00  0.00000000000E+00 -0.19458555118E+04  0.24422366726E+04  0.14758612036E+04 0.  0.
        3    1    3    3  502    0  0.20533340989E+03 -0.18923822303E+03  0.15738859020E+03  0.32053719409E+03  0.10100000352E+00 0. -1.
       -3    1    3    3    0  502 -0.20533340989E+03  0.18923822303E+03 -0.21032441020E+04  0.21216994785E+04  0.10100000352E+00 0.  1.
</event>
<event>
 5   0  0.1078018E-03  0.1430574E+04  0.7818609E-02  0.8931980E-01
        1   -1    0    0  501    0  0.00000000000E+00  0.00000000000E+00  0.13184361887E+04  0.13184361888E+04  0.50400001928E-02 0.  1.
       -1   -1    0    0    0  501  0.00000000000E+00  0.00000000000E+00 -0.38806257322E+03  0.38806257325E+03  0.50400001928E-02 0. -1.
    10030    2    1    2    0    0  0.00000000000E+00  0.00000000000E+00  0.93037361553E+03  0.17064987620E+04  0.14305743463E+04 0.  0.
        4    1    3    3  502    0  0.48244266281E+03 -0.28323799887E+02 -0.16385741335E+03  0.51029797702E+03  0.12699999809E+01 0. -1.
       -4    1    3    3    0  502 -0.48244266281E+03  0.28323799887E+02  0.10942310289E+04  0.11962007850E+04  0.12699999809E+01 0.  1.
</event>
<event>
 5   0  0.2094566E-03  0.1306823E+04  0.7818609E-02  0.9024172E-01
        2   -1    0    0  501    0  0.00000000000E+00  0.00000000000E+00  0.10139100069E+04  0.10139100069E+04  0.25500000920E-02 0.  1.
       -2   -1    0    0    0  501  0.00000000000E+00  0.00000000000E+00 -0.42108935332E+03  0.42108935333E+03  0.25500000920E-02 0. -1.
    10030    2    1    2    0    0  0.00000000000E+00  0.00000000000E+00  0.59282065357E+03  0.14349993602E+04  0.13068231849E+04 0.  0.
        1    1    3    3  502    0  0.92547637745E+02  0.13506765046E+02 -0.41370106737E+03  0.42414156967E+03  0.50400001928E-02 0. -1.
       -1    1    3    3    0  502 -0.92547637745E+02 -0.13506765046E+02  0.10065217209E+04  0.10108577905E+04  0.50400001928E-02 0.  1.
</event>
<event>
 5   0  0.1078787E-03  0.1554778E+04  0.7818609E-02  0.8848822E-01
       -1   -1    0    0    0  501  0.00000000000E+00  0.00000000000E+00  0.55962960455E+03  0.55962960458E+03  0.50400001928E-02 0.  1.
        1   -1    0    0  501    0  0.00000000000E+00  0.00000000000E+00 -0.10798809997E+04  0.10798809997E+04  0.50400001928E-02 0. -1.
    10030    2    1    2    0    0  0.00000000000E+00  0.00000000000E+00 -0.52025139512E+03  0.16395106043E+04  0.15547776392E+04 0.  0.
        5    1    3    3  502    0  0.36607236696E+03 -0.19106539749E+02 -0.98300514819E+03  0.10491402428E+04  0.46999998093E+01 0. -1.
       -5    1    3    3    0  502 -0.36607236696E+03  0.19106539749E+02  0.46275375307E+03  0.59037036146E+03  0.46999998093E+01 0.  1.
</event>
<event>
 5   0  0.1078018E-03  0.1484301E+04  0.7818609E-02  0.8894960E-01
       -1   -1    0    0    0  501  0.00000000000E+00  0.00000000000E+00  0.12183990138E+04  0.12183990138E+04  0.50400001928E-02 0. -1.
        1   -1    0    0  501    0  0.00000000000E+00  0.00000000000E+00 -0.45205833136E+03  0.45205833139E+03  0.50400001928E-02 0.  1.
    10030    2    1    2    0    0  0.00000000000E+00  0.00000000000E+00  0.76634068245E+03  0.16704573452E+04  0.14843010815E+04 0.  0.
        4    1    3    3  502    0  0.27665906561E+03  0.68010933642E+03  0.50488646414E+03  0.89106728289E+03  0.12699999809E+01 0. -1.
       -4    1    3    3    0  502 -0.27665906561E+03 -0.68010933642E+03  0.26145421831E+03  0.77939006231E+03  0.12699999809E+01 0.  1.
</event>
<event>
 5   0  0.2150197E-03  0.1526511E+04  0.7818609E-02  0.8867012E-01
       -2   -1    0    0    0  501  0.00000000000E+00  0.00000000000E+00  0.41753918196E+03  0.41753918197E+03  0.25500000920E-02 0.  1.
        2   -1    0    0  501    0  0.00000000000E+00  0.00000000000E+00 -0.13952207571E+04  0.13952207571E+04  0.25500000920E-02 0. -1.
    10030    2    1    2    0    0  0.00000000000E+00  0.00000000000E+00 -0.97768157511E+03  0.18127599390E+04  0.15265114917E+04 0.  0.
        3    1    3    3  502    0  0.20883524432E+03 -0.51386111664E+03 -0.11114603783E+04  0.12421793708E+04  0.10100000352E+00 0. -1.
       -3    1    3    3    0  502 -0.20883524432E+03  0.51386111664E+03  0.13377880321E+03  0.57058056824E+03  0.10100000352E+00 0.  1.
</event>
<event>
 5   0  0.1078787E-03  0.1361257E+04  0.7818609E-02  0.8982350E-01
       -1   -1    0    0    0  501  0.00000000000E+00  0.00000000000E+00  0.44302372169E+03  0.44302372172E+03  0.50400001928E-02 0. -1.
        1   -1    0    0  501    0  0.00000000000E+00  0.00000000000E+00 -0.10456674698E+04  0.10456674698E+04  0.50400001928E-02 0.  1.
    10030    2    1    2    0    0  0.00000000000E+00  0.00000000000E+00 -0.60264374814E+03  0.14886911916E+04  0.13612574983E+04 0.  0.
        5    1    3    3  502    0 -0.50273999090E+03  0.48041631881E+02 -0.80030016704E+03  0.94633923316E+03  0.46999998093E+01 0.  1.
       -5    1    3    3    0  502  0.50273999090E+03 -0.48041631881E+02  0.19765641890E+03  0.54235195840E+03  0.46999998093E+01 0. -1.
</event>
<event>
 5   0  0.1087761E-03  0.1458272E+04  0.7818609E-02  0.8912686E-01
        1   -1    0    0  501    0  0.00000000000E+00  0.00000000000E+00  0.90406077155E+03  0.90406077156E+03  0.50400001928E-02 0. -1.
       -1   -1    0    0    0  501  0.00000000000E+00  0.00000000000E+00 -0.58805678158E+03  0.58805678160E+03  0.50400001928E-02 0.  1.
    10030    2    1    2    0    0  0.00000000000E+00  0.00000000000E+00  0.31600398996E+03  0.14921175532E+04  0.14582716725E+04 0.  0.
        3    1    3    3  502    0  0.86266563337E+02 -0.58440842947E+03 -0.27930960019E+03  0.65344394966E+03  0.10100000352E+00 0.  1.
       -3    1    3    3    0  502 -0.86266563337E+02  0.58440842947E+03  0.59531359015E+03  0.83867360350E+03  0.10100000352E+00 0. -1.
</event>
<event>
 5   0  0.1069697E-03  0.1509652E+04  0.7818609E-02  0.8878060E-01
        1   -1    0    0  501    0  0.00000000000E+00  0.00000000000E+00  0.89831447375E+03  0.89831447376E+03  0.50400001928E-02 0.  1.
       -1   -1    0    0    0  501  0.00000000000E+00  0.00000000000E+00 -0.63425718833E+03  0.63425718835E+03  0.50400001928E-02 0. -1.
    10030    2    1    2    0    0  0.00000000000E+00  0.00000000000E+00  0.26405728542E+03  0.15325716621E+04  0.15096521618E+04 0.  0.
        2    1    3    3  502    0 -0.56613947450E+03  0.43317379737E+03  0.38400852490E+03  0.80970117359E+03  0.25500000920E-02 0.  1.
       -2    1    3    3    0  502  0.56613947450E+03 -0.43317379737E+03 -0.11995123948E+03  0.72287048852E+03  0.25500000920E-02 0. -1.
</event>
<event>
 5   0  0.1961098E-03  0.1466138E+04  0.7818609E-02  0.8907289E-01
       -2   -1    0    0    0  501  0.00000000000E+00  0.00000000000E+00  0.34327709455E+03  0.34327709456E+03  0.25500000920E-02 0.  1.
        2   -1    0    0  501    0  0.00000000000E+00  0.00000000000E+00 -0.15654698732E+04  0.15654698732E+04  0.25500000920E-02 0. -1.
    10030    2    1    2    0    0  0.00000000000E+00  0.00000000000E+00 -0.12221927786E+04  0.19087469677E+04  0.14661377148E+04 0.  0.
        2    1    3    3  502    0 -0.58341139252E+03  0.38219137274E+02 -0.11868200082E+04  0.13230159815E+04  0.25500000920E-02 0. -1.
       -2    1    3    3    0  502  0.58341139252E+03 -0.38219137274E+02 -0.35372770422E+02  0.58573098626E+03  0.25500000920E-02 0.  1.
</event>
<event>
 5   0  0.1078018E-03  0.1498158E+04  0.7818609E-02  0.8885678E-01
       -1   -1    0    0    0  501  0.00000000000E+00  0.00000000000E+00  0.56560569694E+03  0.56560569696E+03  0.50400001928E-02 0.  1.
        1   -1    0    0  501    0  0.00000000000E+00  0.00000000000E+00 -0.99206869256E+03  0.99206869257E+03  0.50400001928E-02 0. -1.
    10030    2    1    2    0    0  0.00000000000E+00  0.00000000000E+00 -0.42646299562E+03  0.15576743895E+04  0.14981584753E+04 0.  0.
        4    1    3    3  502    0  0.43189551790E+03 -0.19448636942E+03  0.39013166393E+03  0.61364730454E+03  0.12699999809E+01 0.  1.
       -4    1    3    3    0  502 -0.43189551790E+03  0.19448636942E+03 -0.81659465955E+03  0.94402708498E+03  0.12699999809E+01 0. -1.
</event>
<event>
 5   0  0.1069697E-03  0.1497390E+04  0.7818609E-02  0.8886190E-01
        1   -1    0    0  501    0  0.00000000000E+00  0.00000000000E+00  0.80394084746E+03  0.80394084747E+03  0.50400001928E-02 0. -1.
       -1   -1    0    0    0  501  0.00000000000E+00  0.00000000000E+00 -0.69724571845E+03  0.69724571847E+03  0.50400001928E-02 0.  1.
    10030    2    1    2    0    0  0.00000000000E+00  0.00000000000E+00  0.10669512900E+03  0.15011865659E+04  0.14973901480E+04 0.  0.
        2    1    3    3  502    0 -0.49209198367E+03  0.49125966411E+03 -0.22494176070E+03  0.73081418547E+03  0.25500000920E-02 0.  1.
       -2    1    3    3    0  502  0.49209198367E+03 -0.49125966411E+03  0.33163688971E+03  0.77037238047E+03  0.25500000920E-02 0. -1.
</event>
<event>
 5   0  0.1087761E-03  0.1471422E+04  0.7818609E-02  0.8903682E-01
        1   -1    0    0  501    0  0.00000000000E+00  0.00000000000E+00  0.73564376397E+03  0.73564376398E+03  0.50400001928E-02 0. -1.
       -1   -1    0    0    0  501  0.00000000000E+00  0.00000000000E+00 -0.73577855608E+03  0.73577855609E+03  0.50400001928E-02 0.  1.
    10030    2    1    2    0    0  0.00000000000E+00  0.00000000000E+00 -0.13479210908E+00  0.14714223201E+04  0.14714223139E+04 0.  0.
        3    1    3    3  502    0 -0.62180518214E+03 -0.27640865418E+03  0.27962434188E+03  0.73568553841E+03  0.10100000352E+00 0. -1.
       -3    1    3    3    0  502  0.62180518214E+03  0.27640865418E+03 -0.27975913399E+03  0.73573678167E+03  0.10100000352E+00 0.  1.
</event>
<event>
 5   0  0.2094566E-03  0.1485196E+04  0.7818609E-02  0.8894358E-01
        2   -1    0    0  501    0  0.00000000000E+00  0.00000000000E+00  0.48943011282E+03  0.48943011283E+03  0.25500000920E-02 0.  1.
       -2   -1    0    0    0  501  0.00000000000E+00  0.00000000000E+00 -0.11267216733E+04  0.11267216733E+04  0.25500000920E-02 0. -1.
    10030    2    1    2    0    0  0.00000000000E+00  0.00000000000E+00 -0.63729156048E+03  0.16161517861E+04  0.14851956311E+04 0.  0.
        1    1    3    3  502    0  0.34442019216E+03  0.64682808184E+03 -0.18788507335E+03  0.75651347446E+03  0.50400001928E-02 0. -1.
       -1    1    3    3    0  502 -0.34442019216E+03 -0.64682808184E+03 -0.44940648713E+03  0.85963831169E+03  0.50400001928E-02 0.  1.
</event>
<event>
 5   0  0.1993623E-03  0.1020438E+04  0.7818609E-02  0.9286409E-01
       -2   -1    0    0    0  501  0.00000000000E+00  0.00000000000E+00  0.48816082315E+03  0.48816082316E+03  0.25500000920E-02 0.  1.
        2   -1    0    0  501    0  0.00000000000E+00  0.00000000000E+00 -0.53327391032E+03  0.53327391032E+03  0.25500000920E-02 0. -1.
    10030    2    1    2    0    0  0.00000000000E+00  0.00000000000E+00 -0.45113087169E+02  0.10214347335E+04  0.10204380060E+04 0.  0.
        4    1    3    3  502    0 -0.24597007194E+03 -0.15195558070E+03 -0.44335989334E+03  0.52930273257E+03  0.12699999809E+01 0. -1.
       -4    1    3    3    0  502  0.24597007194E+03  0.15195558070E+03  0.39824680617E+03  0.49213200090E+03  0.12699999809E+01 0.  1.
</event>
<event>
 5   0  0.1077140E-03  0.1421141E+04  0.7818609E-02  0.8938656E-01
        1   -1    0    0  501    0  0.00000000000E+00  0.00000000000E+00  0.12681273113E+04  0.12681273113E+04  0.50400001928E-02 0.  1.
       -1   -1    0    0    0  501  0.00000000000E+00  0.00000000000E+00 -0.39815434020E+03  0.39815434023E+03  0.50400001928E-02 0. -1.
    10030    2    1    2    0    0  0.00000000000E+00  0.00000000000E+00  0.86997297108E+03  0.16662816515E+04  0.14211409402E+04 0.  0.
        1    1    3    3  502    0 -0.19573395587E+02 -0.31174015015E+03  0.11833156046E+04  0.12238467466E+04  0.50400001928E-02 0.  1.
       -1    1    3    3    0  502  0.19573395587E+02  0.31174015015E+03 -0.31334263356E+03  0.44243490489E+03  0.50400001928E-02 0. -1.
</event>
<event>
 5   0  0.2094566E-03  0.1445533E+04  0.7818609E-02  0.8921503E-01
        2   -1    0    0  501    0  0.00000000000E+00  0.00000000000E+00  0.11167434830E+04  0.11167434830E+04  0.25500000920E-02 0.  1.
       -2   -1    0    0    0  501  0.00000000000E+00  0.00000000000E+00 -0.46778126053E+03  0.46778126054E+03  0.25500000920E-02 0. -1.
    10030    2    1    2    0    0  0.00000000000E+00  0.00000000000E+00  0.64896222251E+03  0.15845247436E+04  0.14455333607E+04 0.  0.
        1    1    3    3  502    0 -0.59925292098E+03 -0.92009309214E+02  0.75578870042E+03  0.96890986990E+03  0.50400001928E-02 0.  1.
       -1    1    3    3    0  502  0.59925292098E+03  0.92009309214E+02 -0.10682647791E+03  0.61561487368E+03  0.50400001928E-02 0. -1.
</event>
<event>
 5   0  0.1993623E-03  0.1519312E+04  0.7818609E-02  0.8871711E-01
        2   -1    0    0  501    0  0.00000000000E+00  0.00000000000E+00  0.90417932031E+03  0.90417932031E+03  0.25500000920E-02 0. -1.
       -2   -1    0    0    0  501  0.00000000000E+00  0.00000000000E+00 -0.63823332865E+03  0.63823332866E+03  0.25500000920E-02 0.  1.
    10030    2    1    2    0    0  0.00000000000E+00  0.00000000000E+00  0.26594599165E+03  0.15424126490E+04  0.15193121829E+04 0.  0.
        4    1    3    3  502    0  0.71690419810E+02  0.14196627133E+03  0.88708743047E+03  0.90123230117E+03  0.12699999809E+01 0. -1.
       -4    1    3    3    0  502 -0.71690419810E+02 -0.14196627133E+03 -0.62114143881E+03  0.64118034779E+03  0.12699999809E+01 0.  1.
</event>
<event>
 5   0  0.2111533E-03  0.1511257E+04  0.7818609E-02  0.8877001E-01
        2   -1    0    0  501    0  0.00000000000E+00  0.00000000000E+00  0.73688210478E+03  0.73688210478E+03  0.25500000920E-02 0. -1.
       -2   -1    0    0    0  501  0.00000000000E+00  0.00000000000E+00 -0.77485219157E+03  0.77485219157E+03  0.25500000920E-02 0.  1.
    10030    2    1    2    0    0  0.00000000000E+00  0.00000000000E+00 -0.37970086794E+02  0.15117342964E+04  0.15112573756E+04 0.  0.
        5    1    3    3  502    0  0.69291055503E+03  0.29601477191E+03  0.37626467545E+02  0.75444524223E+03  0.46999998093E+01 0.  1.
       -5    1    3    3    0  502 -0.69291055503E+03 -0.29601477191E+03 -0.75596554338E+02  0.75728905412E+03  0.46999998093E+01 0. -1.
</event>
<event>
 5   0  0.2094566E-03  0.1530813E+04  0.7818609E-02  0.8864217E-01
        2   -1    0    0  501    0  0.00000000000E+00  0.00000000000E+00  0.20916595539E+04  0.20916595539E+04  0.25500000920E-02 0. -1.
       -2   -1    0    0    0  501  0.00000000000E+00  0.00000000000E+00 -0.28008731901E+03  0.28008731903E+03  0.25500000920E-02 0.  1.
    10030    2    1    2    0    0  0.00000000000E+00  0.00000000000E+00  0.18115722349E+04  0.23717468729E+04  0.15308132698E+04 0.  0.
        1    1    3    3  502    0  0.69202891050E+03 -0.44440012913E+02  0.40381886611E+03  0.80246408291E+03  0.50400001928E-02 0.  1.
       -1    1    3    3    0  502 -0.69202891050E+03  0.44440012913E+02  0.14077533688E+04  0.15692827900E+04  0.50400001928E-02 0. -1.
</event>
<event>
 5   0  0.2111533E-03  0.1350504E+04  0.7818609E-02  0.8990447E-01
        2   -1    0    0  501    0  0.00000000000E+00  0.00000000000E+00  0.11441403656E+04  0.11441403656E+04  0.25500000920E-02 0. -1.
       -2   -1    0    0    0  501  0.00000000000E+00  0.00000000000E+00 -0.39852218716E+03  0.39852218717E+03  0.25500000920E-02 0.  1.
    10030    2    1    2    0    0  0.00000000000E+00  0.00000000000E+00  0.74561817846E+03  0.15426625528E+04  0.13505040851E+04 0.  0.
        5    1    3    3  502    0 -0.43572059461E+03  0.25998940317E+03  0.88173111614E+03  0.10173095780E+04  0.46999998093E+01 0. -1.
       -5    1    3    3    0  502  0.43572059461E+03 -0.25998940317E+03 -0.13611293768E+03  0.52535297480E+03  0.46999998093E+01 0.  1.
</event>
<event>
 5   0  0.2094566E-03  0.1494572E+04  0.7818609E-02  0.8888071E-01
       -2   -1    0    0    0  501  0.00000000000E+00  0.00000000000E+00  0.30158995055E+03  0.30158995056E+03  0.25500000920E-02 0. -1.
        2   -1    0    0  501    0  0.00000000000E+00  0.00000000000E+00 -0.18516402526E+04  0.18516402526E+04  0.25500000920E-02 0.  1.
    10030    2    1    2    0    0  0.00000000000E+00  0.00000000000E+00 -0.15500503020E+04  0.21532302031E+04  0.14945716339E+04 0.  0.
        1    1    3    3  502    0 -0.28014761965E+03 -0.67985499764E+02 -0.17683057859E+04  0.17916500969E+04  0.50400001928E-02 0.  1.
       -1    1    3    3    0  502  0.28014761965E+03  0.67985499764E+02  0.21825548390E+03  0.36158010628E+03  0.50400001928E-02 0. -1.
</event>
<event>
 5   0  0.1078018E-03  0.1737772E+04  0.7818609E-02  0.8740110E-01
        1   -1    0    0  501    0  0.00000000000E+00  0.00000000000E+00  0.10124538980E+04  0.10124538980E+04  0.50400001928E-02 0. -1.
       -1   -1    0    0    0  501  0.00000000000E+00  0.00000000000E+00 -0.74567630197E+03  0.74567630199E+03  0.50400001928E-02 0.  1.
    10030    2    1    2    0    0  0.00000000000E+00  0.00000000000E+00  0.26677759601E+03  0.17581302000E+04  0.17377719972E+04 0.  0.
        4    1    3    3  502    0 -0.12980213037E+03 -0.79794895366E+03  0.45553728850E+03  0.92794771395E+03  0.12699999809E+01 0. -1.
       -4    1    3    3    0  502  0.12980213037E+03  0.79794895366E+03 -0.18875969249E+03  0.83018248603E+03  0.12699999809E+01 0.  1.
</event>
<event>
 5   0  0.1087761E-03  0.1567029E+04  0.7818609E-02  0.8841064E-01
        1   -1    0    0  501    0  0.00000000000E+00  0.00000000000E+00  0.74415368539E+03  0.74415368541E+03  0.50400001928E-02 0.  1.
       -1   -1    0    0    0  501  0.00000000000E+00  0.00000000000E+00 -0.82495671743E+03  0.82495671744E+03  0.50400001928E-02 0. -1.
    10030    2    1    2    0    0  0.00000000000E+00  0.00000000000E+00 -0.80803032033E+02  0.15691104029E+04  0.15670285021E+04 0.  0.
        3    1    3    3  502    0  0.25882371165E+03 -0.35783548949E+03 -0.68845423153E+03  0.81792737475E+03  0.10100000352E+00 0. -1.
       -3    1    3    3    0  502 -0.25882371165E+03  0.35783548949E+03  0.60765119950E+03  0.75118302810E+03  0.10100000352E+00 0.  1.
</event>
<event>
 5   0  0.2094566E-03  0.1529337E+04  0.7818609E-02  0.8865175E-01
        2   -1    0    0  501    0  0.00000000000E+00  0.00000000000E+00  0.10631965081E+04  0.10631965081E+04  0.25500000920E-02 0.  1.
       -2   -1    0    0    0  501  0.00000000000E+00  0.00000000000E+00 -0.54996239460E+03  0.54996239461E+03  0.25500000920E-02 0. -1.
    10030    2    1    2    0    0  0.00000000000E+00  0.00000000000E+00  0.51323411354E+03  0.16131589028E+04  0.15293372389E+04 0.  0.
        1    1    3    3  502    0 -0.13778820724E+03  0.45332776779E+03 -0.37646744254E+03  0.60516063191E+03  0.50400001928E-02 0. -1.
       -1    1    3    3    0  502  0.13778820724E+03 -0.45332776779E+03  0.88970155608E+03  0.10079982708E+04  0.50400001928E-02 0.  1.
</event>
<event>
 5   0  0.1069697E-03  0.1499938E+04  0.7818609E-02  0.8884494E-01
        1   -1    0    0  501    0  0.00000000000E+00  0.00000000000E+00  0.79765321307E+03  0.79765321309E+03  0.50400001928E-02 0. -1.
       -1   -1    0    0    0  501  0.00000000000E+00  0.00000000000E+00 -0.70513506870E+03  0.70513506872E+03  0.50400001928E-02 0.  1.
    10030    2    1    2    0    0  0.00000000000E+00  0.00000000000E+00  0.92518144373E+02  0.15027882818E+04  0.14999376697E+04 0.  0.
        2    1    3    3  502    0  0.60077626139E+03 -0.17629933369E+03 -0.36736894225E+03  0.72592941189E+03  0.25500000920E-02 0.  1.
       -2    1    3    3    0  502 -0.60077626139E+03  0.17629933369E+03  0.45988708663E+03  0.77685886991E+03  0.25500000920E-02 0. -1.
</event>
<event>
 5   0  0.1961098E-03  0.1542970E+04  0.7818609E-02  0.8856371E-01
        2   -1    0    0  501    0  0.00000000000E+00  0.00000000000E+00  0.84321883067E+03  0.84321883067E+03  0.25500000920E-02 0.  1.
       -2   -1    0    0    0  501  0.00000000000E+00  0.00000000000E+00 -0.70585359681E+03  0.70585359682E+03  0.25500000920E-02 0. -1.
    10030    2    1    2    0    0  0.00000000000E+00  0.00000000000E+00  0.13736523386E+03  0.15490724275E+04  0.15429699213E+04 0.  0.
        2    1    3    3  502    0  0.54809377637E+03 -0.51748415883E+03 -0.96260817074E+02  0.75990972309E+03  0.25500000920E-02 0. -1.
       -2    1    3    3    0  502 -0.54809377637E+03  0.51748415883E+03  0.23362605093E+03  0.78916270440E+03  0.25500000920E-02 0.  1.
</event>
<event>
 5   0  0.1078018E-03  0.1517732E+04  0.7818609E-02  0.8872746E-01
        1   -1    0    0  501    0  0.00000000000E+00  0.00000000000E+00  0.13209100290E+04  0.13209100290E+04  0.50400001928E-02 0. -1.
       -1   -1    0    0    0  501  0.00000000000E+00  0.00000000000E+00 -0.43597045970E+03  0.43597045973E+03  0.50400001928E-02 0.  1.
    10030    2    1    2    0    0  0.00000000000E+00  0.00000000000E+00  0.88493956932E+03  0.17568804888E+04  0.15177321933E+04 0.  0.
        4    1    3    3  502    0  0.16003562617E+03 -0.85384466901E+02  0.12954455318E+04  0.13080835782E+04  0.12699999809E+01 0. -1.
       -4    1    3    3    0  502 -0.16003562617E+03  0.85384466901E+02 -0.41050596246E+03  0.44879691058E+03  0.12699999809E+01 0.  1.
</event>
<event>
 5   0  0.2111533E-03  0.1546589E+04  0.7818609E-02  0.8854049E-01
       -2   -1    0    0    0  501  0.00000000000E+00  0.00000000000E+00  0.39976356408E+03  0.39976356408E+03  0.25500000920E-02 0.  1.
        2   -1    0    0  501    0  0.00000000000E+00  0.00000000000E+00 -0.14958451405E+04  0.14958451405E+04  0.25500000920E-02 0. -1.
    10030    2    1    2    0    0  0.00000000000E+00  0.00000000000E+00 -0.10960815764E+04  0.18956087046E+04  0.15465890012E+04 0.  0.
        5    1    3    3  502    0  0.53365159729E+02  0.50618213606E+03  0.16547860356E+03  0.53523214905E+03  0.46999998093E+01 0.  1.
       -5    1    3    3    0  502 -0.53365159729E+02 -0.50618213606E+03 -0.12615601800E+04  0.13603765555E+04  0.46999998093E+01 0. -1.
</event>
<event>
 5   0  0.1077140E-03  0.1491783E+04  0.7818609E-02  0.8889936E-01
       -1   -1    0    0    0  501  0.00000000000E+00  0.00000000000E+00  0.46175409951E+03  0.46175409954E+03  0.50400001928E-02 0. -1.
        1   -1    0    0  501    0  0.00000000000E+00  0.00000000000E+00 -0.12048702461E+04  0.12048702462E+04  0.50400001928E-02 0.  1.
    10030    2    1    2    0    0  0.00000000000E+00  0.00000000000E+00 -0.74311614663E+03  0.16666243457E+04  0.14917825251E+04 0.  0.
        1    1    3    3  502    0 -0.43449451080E+03  0.30844883925E+03 -0.95467784298E+03  0.10933142047E+04  0.50400001928E-02 0.  1.
       -1    1    3    3    0  502  0.43449451080E+03 -0.30844883925E+03  0.21156169635E+03  0.57331014097E+03  0.50400001928E-02 0. -1.
</event>
<event>
 5   0  0.2094566E-03  0.1252163E+04  0.7818609E-02  0.9068385E-01
       -2   -1    0    0    0  501  0.00000000000E+00  0.00000000000E+00  0.34989251140E+03  0.34989251141E+03  0.25500000920E-02 0.  1.
        2   -1    0    0  501    0  0.00000000000E+00  0.00000000000E+00 -0.11202809327E+04  0.11202809327E+04  0.25500000920E-02 0. -1.
    10030    2    1    2    0    0  0.00000000000E+00  0.00000000000E+00 -0.77038842126E+03  0.14701734441E+04  0.12521627834E+04 0.  0.
        1    1    3    3  502    0 -0.47292155864E+03  0.33011175355E+03 -0.67122693566E+03  0.88497128182E+03  0.50400001928E-02 0.  1.
       -1    1    3    3    0  502  0.47292155864E+03 -0.33011175355E+03 -0.99161485602E+02  0.58520216226E+03  0.50400001928E-02 0. -1.
</event>
<event>
 5   0  0.1069697E-03  0.1511421E+04  0.7818609E-02  0.8876894E-01
        1   -1    0    0  501    0  0.00000000000E+00  0.00000000000E+00  0.14152447440E+04  0.14152447440E+04  0.50400001928E-02 0.  1.
       -1   -1    0    0    0  501  0.00000000000E+00  0.00000000000E+00 -0.40353304569E+03  0.40353304572E+03  0.50400001928E-02 0. -1.
    10030    2    1    2    0    0  0.00000000000E+00  0.00000000000E+00  0.10117116983E+04  0.18187777897E+04  0.15114205529E+04 0.  0.
        2    1    3    3  502    0  0.12231125960E+03 -0.51257892539E+03 -0.14596009909E+03  0.54681034145E+03  0.25500000920E-02 0. -1.
       -2    1    3    3    0  502 -0.12231125960E+03  0.51257892539E+03  0.11576717974E+04  0.12719674482E+04  0.25500000920E-02 0.  1.
</event>
<event>
 5   0  0.1069697E-03  0.1512031E+04  0.7818609E-02  0.8876492E-01
        1   -1    0    0  501    0  0.00000000000E+00  0.00000000000E+00  0.84803634245E+03  0.84803634246E+03  0.50400001928E-02 0.  1.
       -1   -1    0    0    0  501  0.00000000000E+00  0.00000000000E+00 -0.67398003993E+03  0.67398003995E+03  0.50400001928E-02 0. -1.
    10030    2    1    2    0    0  0.00000000000E+00  0.00000000000E+00  0.17405630252E+03  0.15220163824E+04  0.15120311742E+04 0.  0.
        2    1    3    3  502    0  0.13898274459E+03 -0.43666949399E+03  0.69230023376E+03  0.83022651363E+03  0.25500000920E-02 0.  1.
       -2    1    3    3    0  502 -0.13898274459E+03  0.43666949399E+03 -0.51824393124E+03  0.69178986878E+03  0.25500000920E-02 0. -1.
</event>
<event>
 5   0  0.1078787E-03  0.1511192E+04  0.7818609E-02  0.8877044E-01
       -1   -1    0    0    0  501  0.00000000000E+00  0.00000000000E+00  0.10524575858E+04  0.10524575858E+04  0.50400001928E-02 0. -1.
        1   -1    0    0  501    0  0.00000000000E+00  0.00000000000E+00 -0.54246882969E+03  0.54246882971E+03  0.50400001928E-02 0.  1.
    10030    2    1    2    0    0  0.00000000000E+00  0.00000000000E+00  0.50998875609E+03  0.15949264155E+04  0.15111921584E+04 0.  0.
        5    1    3    3  502    0  0.37500980753E+02 -0.73505958318E+03  0.74694027494E+02  0.73981092323E+03  0.46999998093E+01 0. -1.
       -5    1    3    3    0  502 -0.37500980753E+02  0.73505958318E+03  0.43529472860E+03  0.85511549227E+03  0.46999998093E+01 0.  1.
</event>
<event>
 5   0  0.1078787E-03  0.9583401E+03  0.7818609E-02  0.9355455E-01
       -1   -1    0    0    0  501  0.00000000000E+00  0.00000000000E+00  0.17373168621E+03  0.17373168628E+03  0.50400001928E-02 0.  1.
        1   -1    0    0  501    0  0.00000000000E+00  0.00000000000E+00 -0.13216007597E+04  0.13216007597E+04  0.50400001928E-02 0. -1.
    10030    2    1    2    0    0  0.00000000000E+00  0.00000000000E+00 -0.11478690735E+04  0.14953324460E+04  0.95834008273E+03 0.  0.
        5    1    3    3  502    0  0.35477275572E+03 -0.31993807931E+03 -0.51643968885E+03  0.70353118269E+03  0.46999998093E+01 0.  1.
       -5    1    3    3    0  502 -0.35477275572E+03  0.31993807931E+03 -0.63142938467E+03  0.79180126334E+03  0.46999998093E+01 0. -1.
</event>
<event>
 5   0  0.1078018E-03  0.1530204E+04  0.7818609E-02  0.8864612E-01
        1   -1    0    0  501    0  0.00000000000E+00  0.00000000000E+00  0.71728557249E+03  0.71728557250E+03  0.50400001928E-02 0.  1.
       -1   -1    0    0    0  501  0.00000000000E+00  0.00000000000E+00 -0.81610652883E+03  0.81610652885E+03  0.50400001928E-02 0. -1.
    10030    2    1    2    0    0  0.00000000000E+00  0.00000000000E+00 -0.98820956346E+02  0.15333921014E+04  0.15302044815E+04 0.  0.
        4    1    3    3  502    0 -0.48067162630E+03 -0.41487513520E+03  0.37834316045E+03  0.73912904833E+03  0.12699999809E+01 0.  1.
       -4    1    3    3    0  502  0.48067162630E+03  0.41487513520E+03 -0.47716411679E+03  0.79426305302E+03  0.12699999809E+01 0. -1.
</event>
<event>
 5   0  0.1993623E-03  0.1517501E+04  0.7818609E-02  0.8872898E-01
       -2   -1    0    0    0  501  0.00000000000E+00  0.00000000000E+00  0.10644634728E+04  0.10644634728E+04  0.25500000920E-02 0. -1.
        2   -1    0    0  501    0  0.00000000000E+00  0.00000000000E+00 -0.54083794370E+03  0.54083794370E+03  0.25500000920E-02 0.  1.
    10030    2    1    2    0    0  0.00000000000E+00  0.00000000000E+00  0.52362552909E+03  0.16053014165E+04  0.15175008873E+04 0.  0.
        4    1    3    3  502    0  0.16193982615E+03  0.29969765124E+03  0.97902019299E+03  0.10365931413E+04  0.12699999809E+01 0. -1.
       -4    1    3    3    0  502 -0.16193982615E+03 -0.29969765124E+03 -0.45539466389E+03  0.56870827518E+03  0.12699999809E+01 0.  1.
</event>
<event>
 5   0  0.2094566E-03  0.1449369E+04  0.7818609E-02  0.8918838E-01
        2   -1    0    0  501    0  0.00000000000E+00  0.00000000000E+00  0.12510613681E+04  0.12510613681E+04  0.25500000920E-02 0.  1.
       -2   -1    0    0    0  501  0.00000000000E+00  0.00000000000E+00 -0.41977755953E+03  0.41977755953E+03  0.25500000920E-02 0. -1.
    10030    2    1    2    0    0  0.00000000000E+00  0.00000000000E+00  0.83128380853E+03  0.16708389276E+04  0.14493688115E+04 0.  0.
        1    1    3    3  502    0 -0.67733583889E+03  0.13601582997E+03  0.66790162239E+03  0.96092493040E+03  0.50400001928E-02 0.  1.
       -1    1    3    3    0  502  0.67733583889E+03 -0.13601582997E+03  0.16338218614E+03  0.70991399720E+03  0.50400001928E-02 0. -1.
</event>
<event>
 5   0  0.2111533E-03  0.1472186E+04  0.7818609E-02  0.8903162E-01
        2   -1    0    0  501    0  0.00000000000E+00  0.00000000000E+00  0.10093770023E+04  0.10093770023E+04  0.25500000920E-02 0.  1.
       -2   -1    0    0    0  501  0.00000000000E+00  0.00000000000E+00 -0.53679935366E+03  0.53679935367E+03  0.25500000920E-02 0. -1.
    10030    2    1    2    0    0  0.00000000000E+00  0.00000000000E+00  0.47257764862E+03  0.15461763560E+04  0.14721860242E+04 0.  0.
        5    1    3    3  502    0 -0.41057570491E+03  0.44571853297E+03 -0.20253013967E+03  0.63896632741E+03  0.46999998093E+01 0. -1.
       -5    1    3    3    0  502  0.41057570491E+03 -0.44571853297E+03  0.67510778829E+03  0.90721002855E+03  0.46999998093E+01 0.  1.
</event>
<event>
 5   0  0.1961098E-03  0.1532911E+04  0.7818609E-02  0.8862858E-01
       -2   -1    0    0    0  501  0.00000000000E+00  0.00000000000E+00  0.95359865626E+03  0.95359865626E+03  0.25500000920E-02 0. -1.
        2   -1    0    0  501    0  0.00000000000E+00  0.00000000000E+00 -0.61603930638E+03  0.61603930638E+03  0.25500000920E-02 0.  1.
    10030    2    1    2    0    0  0.00000000000E+00  0.00000000000E+00  0.33755934988E+03  0.15696379626E+04  0.15329112887E+04 0.  0.
        2    1    3    3  502    0 -0.82958151574E+02  0.40497430638E+03 -0.49210461718E+03  0.64269214870E+03  0.25500000920E-02 0.  1.
       -2    1    3    3    0  502  0.82958151574E+02 -0.40497430638E+03  0.82966396707E+03  0.92694581395E+03  0.25500000920E-02 0. -1.
</event>
<event>
 5   0  0.1069697E-03  0.1473149E+04  0.7818609E-02  0.8902507E-01
        1   -1    0    0  501    0  0.00000000000E+00  0.00000000000E+00  0.96018863536E+03  0.96018863538E+03  0.50400001928E-02 0. -1.
       -1   -1    0    0    0  501  0.00000000000E+00  0.00000000000E+00 -0.56503691477E+03  0.56503691480E+03  0.50400001928E-02 0.  1.
    10030    2    1    2    0    0  0.00000000000E+00  0.00000000000E+00  0.39515172059E+03  0.15252255502E+04  0.14731490409E+04 0.  0.
        2    1    3    3  502    0  0.30901138795E+03  0.29577305466E+03 -0.42326528346E+03  0.60176676373E+03  0.25500000920E-02 0.  1.
       -2    1    3    3    0  502 -0.30901138795E+03 -0.29577305466E+03  0.81841700405E+03  0.92345878645E+03  0.25500000920E-02 0. -1.
</event>
<event>
 5   0  0.1077140E-03  0.1480625E+04  0.7818609E-02  0.8897440E-01
        1   -1    0    0  501    0  0.00000000000E+00  0.00000000000E+00  0.59774397354E+03  0.59774397356E+03  0.50400001928E-02 0. -1.
       -1   -1    0    0    0  501  0.00000000000E+00  0.00000000000E+00 -0.91688488385E+03  0.91688488386E+03  0.50400001928E-02 0.  1.
    10030    2    1    2    0    0  0.00000000000E+00  0.00000000000E+00 -0.31914091031E+03  0.15146288574E+04  0.14806247516E+04 0.  0.
        1    1    3    3  502    0 -0.18412019745E+03  0.34919126029E+03  0.48109353437E+03  0.62232288421E+03  0.50400001928E-02 0. -1.
       -1    1    3    3    0  502  0.18412019745E+03 -0.34919126029E+03 -0.80023444468E+03  0.89230597322E+03  0.50400001928E-02 0.  1.
</event>
<event>
 5   0  0.2111533E-03  0.1502600E+04  0.7818609E-02  0.8882726E-01
       -2   -1    0    0    0  501  0.00000000000E+00  0.00000000000E+00  0.56515848928E+03  0.56515848928E+03  0.25500000920E-02 0.  1.
        2   -1    0    0  501    0  0.00000000000E+00  0.00000000000E+00 -0.99874925768E+03  0.99874925769E+03  0.25500000920E-02 0. -1.
    10030    2    1    2    0    0  0.00000000000E+00  0.00000000000E+00 -0.43359076840E+03  0.15639077470E+04  0.15025999090E+04 0.  0.
        5    1    3    3  502    0  0.13031678859E+03  0.16542478487E+03 -0.96738674583E+03  0.99005405451E+03  0.46999998093E+01 0. -1.
       -5    1    3    3    0  502 -0.13031678859E+03 -0.16542478487E+03  0.53379597743E+03  0.57385369246E+03  0.46999998093E+01 0.  1.
</event>
<event>
 5   0  0.2094566E-03  0.1496466E+04  0.7818609E-02  0.8886807E-01
        2   -1    0    0  501    0  0.00000000000E+00  0.00000000000E+00  0.99660366574E+03  0.99660366575E+03  0.25500000920E-02 0.  1.
       -2   -1    0    0    0  501  0.00000000000E+00  0.00000000000E+00 -0.56176035625E+03  0.56176035626E+03  0.25500000920E-02 0. -1.
    10030    2    1    2    0    0  0.00000000000E+00  0.00000000000E+00  0.43484330949E+03  0.15583640220E+04  0.14964657434E+04 0.  0.
        1    1    3    3  502    0  0.15859432709E+03  0.61975010394E+03 -0.18671584541E+03  0.66641215391E+03  0.50400001928E-02 0. -1.
       -1    1    3    3    0  502 -0.15859432709E+03 -0.61975010394E+03  0.62155915491E+03  0.89195186809E+03  0.50400001928E-02 0.  1.
</event>
<event>
 5   0  0.1078787E-03  0.1388771E+04  0.7818609E-02  0.8961987E-01
        1   -1    0    0  501    0  0.00000000000E+00  0.00000000000E+00  0.13502445658E+04  0.13502445658E+04  0.50400001928E-02 0.  1.
       -1   -1    0    0    0  501  0.00000000000E+00  0.00000000000E+00 -0.35709918257E+03  0.35709918261E+03  0.50400001928E-02 0. -1.
    10030    2    1    2    0    0  0.00000000000E+00  0.00000000000E+00  0.99314538318E+03  0.17073437484E+04  0.13887710117E+04 0.  0.
        5    1    3    3  502    0  0.67241575530E+03 -0.17295278568E+03  0.48468334126E+03  0.84675595383E+03  0.46999998093E+01 0.  1.
       -5    1    3    3    0  502 -0.67241575530E+03  0.17295278568E+03  0.50846204193E+03  0.86058779455E+03  0.46999998093E+01 0. -1.
</event>
<event>
 5   0  0.1087761E-03  0.1441393E+04  0.7818609E-02  0.8924390E-01
        1   -1    0    0  501    0  0.00000000000E+00  0.00000000000E+00  0.31008569741E+03  0.31008569745E+03  0.50400001928E-02 0. -1.
       -1   -1    0    0    0  501  0.00000000000E+00  0.00000000000E+00 -0.16750309293E+04  0.16750309293E+04  0.50400001928E-02 0.  1.
    10030    2    1    2    0    0  0.00000000000E+00  0.00000000000E+00 -0.13649452319E+04  0.19851166267E+04  0.14413925682E+04 0.  0.
        3    1    3    3  502    0 -0.58105775289E+03 -0.35086870821E+02 -0.12676603115E+04  0.13949271939E+04  0.10100000352E+00 0.  1.
       -3    1    3    3    0  502  0.58105775289E+03  0.35086870821E+02 -0.97284920361E+02  0.59018943284E+03  0.10100000352E+00 0. -1.
</event>
<event>
 5   0  0.2111533E-03  0.1499307E+04  0.7818609E-02  0.8884914E-01
       -2   -1    0    0    0  501  0.00000000000E+00  0.00000000000E+00  0.52194599877E+03  0.52194599878E+03  0.25500000920E-02 0.  1.
        2   -1    0    0  501    0  0.00000000000E+00  0.00000000000E+00 -0.10767026484E+04  0.10767026484E+04  0.25500000920E-02 0. -1.
    10030    2    1    2    0    0  0.00000000000E+00  0.00000000000E+00 -0.55475664960E+03  0.15986486472E+04  0.14993073590E+04 0.  0.
        5    1    3    3  502    0  0.41599163288E+03 -0.33332099896E+03  0.28461822437E+03  0.60430253236E+03  0.46999998093E+01 0.  1.
       -5    1    3    3    0  502 -0.41599163288E+03  0.33332099896E+03 -0.83937487397E+03  0.99434611480E+03  0.46999998093E+01 0. -1.
</event>
<event>
 5   0  0.1087761E-03  0.1477612E+04  0.7818609E-02  0.8899479E-01
        1   -1    0    0  501    0  0.00000000000E+00  0.00000000000E+00  0.89158216394E+03  0.89158216396E+03  0.50400001928E-02 0. -1.
       -1   -1    0    0    0  501  0.00000000000E+00  0.00000000000E+00 -0.61220864626E+03  0.61220864628E+03  0.50400001928E-02 0.  1.
    10030    2    1    2    0    0  0.00000000000E+00  0.00000000000E+00  0.27937351768E+03  0.15037908102E+04  0.14776120054E+04 0.  0.
        3    1    3    3  502    0 -0.24127630721E+03 -0.59117667515E+03  0.51793011390E+03  0.82216526973E+03  0.10100000352E+00 0.  1.
       -3    1    3    3    0  502  0.24127630721E+03  0.59117667515E+03 -0.23855659622E+03  0.68162554050E+03  0.10100000352E+00 0. -1.
</event>
<event>
 5   0  0.2111533E-03  0.1526797E+04  0.7818609E-02  0.8866826E-01
        2   -1    0    0  501    0  0.00000000000E+00  0.00000000000E+00  0.29487090641E+03  0.29487090642E+03  0.25500000920E-02 0.  1.
       -2   -1    0    0    0  501  0.00000000000E+00  0.00000000000E+00 -0.19763807368E+04  0.19763807368E+04  0.25500000920E-02 0. -1.
    10030    2    1    2    0    0  0.00000000000E+00  0.00000000000E+00 -0.16815098304E+04  0.22712516432E+04  0.15267968814E+04 0.  0.
        5    1    3    3  502    0  0.66493204346E+03  0.31486386797E+03 -0.53777788351E+03  0.91131828675E+03  0.46999998093E+01 0.  1.
       -5    1    3    3    0  502 -0.66493204346E+03 -0.31486386797E+03 -0.11437319469E+04  0.13599333565E+04  0.46999998093E+01 0. -1.
</event>
<event>
 5   0  0.1069697E-03  0.1492666E+04  0.7818609E-02  0.8889345E-01
        1   -1    0    0  501    0  0.00000000000E+00  0.00000000000E+00  0.12746648485E+04  0.12746648486E+04  0.50400001928E-02 0.  1.
       -1   -1    0    0    0  501  0.00000000000E+00  0.00000000000E+00 -0.43698787574E+03  0.43698787577E+03  0.50400001928E-02 0. -1.
    10030    2    1    2    0    0  0.00000000000E+00  0.00000000000E+00  0.83767697281E+03  0.17116527243E+04  0.14926661844E+04 0.  0.
        2    1    3    3  502    0  0.52199413011E+03  0.44034980277E+03  0.73629259269E+02  0.68688215037E+03  0.25500000920E-02 0. -1.
       -2    1    3    3    0  502 -0.52199413011E+03 -0.44034980277E+03  0.76404771354E+03  0.10247705740E+04  0.25500000920E-02 0.  1.
</event>
<event>
 5   0  0.2094566E-03  0.1595182E+04  0.7818609E-02  0.8823514E-01
        2   -1    0    0  501    0  0.00000000000E+00  0.00000000000E+00  0.58872345529E+03  0.58872345530E+03  0.25500000920E-02 0.  1.
       -2   -1    0    0    0  501  0.00000000000E+00  0.00000000000E+00 -0.10805601415E+04  0.10805601415E+04  0.25500000920E-02 0. -1.
    10030    2    1    2    0    0  0.00000000000E+00  0.00000000000E+00 -0.49183668618E+03  0.16692835968E+04  0.15951816199E+04 0.  0.
        1    1    3    3  502    0  0.18794311586E+03  0.76634322839E+03 -0.36771467434E+03  0.87052779407E+03  0.50400001928E-02 0. -1.
       -1    1    3    3    0  502 -0.18794311586E+03 -0.76634322839E+03 -0.12412201184E+03  0.79875580270E+03  0.50400001928E-02 0.  1.
</event>
<event>
 5   0  0.1069697E-03  0.1485358E+04  0.7818609E-02  0.8894249E-01
       -1   -1    0    0    0  501  0.00000000000E+00  0.00000000000E+00  0.33713005480E+03  0.33713005483E+03  0.50400001928E-02 0.  1.
        1   -1    0    0  501    0  0.00000000000E+00  0.00000000000E+00 -0.16360803139E+04  0.16360803139E+04  0.50400001928E-02 0. -1.
    10030    2    1    2    0    0  0.00000000000E+00  0.00000000000E+00 -0.12989502591E+04  0.19732103687E+04  0.14853576619E+04 0.  0.
        2    1    3    3  502    0  0.63544828296E+03  0.30451831073E+03 -0.96115225603E+03  0.11917800054E+04  0.25500000920E-02 0. -1.
       -2    1    3    3    0  502 -0.63544828296E+03 -0.30451831073E+03 -0.33779800304E+03  0.78143036334E+03  0.25500000920E-02 0.  1.
</event>
<event>
 5   0  0.1993623E-03  0.1159379E+04  0.7818609E-02  0.9149174E-01
        2   -1    0    0  501    0  0.00000000000E+00  0.00000000000E+00  0.97722346853E+03  0.97722346853E+03  0.25500000920E-02 0.  1.
       -2   -1    0    0    0  501  0.00000000000E+00  0.00000000000E+00 -0.34387240125E+03  0.34387240126E+03  0.25500000920E-02 0. -1.
    10030    2    1    2    0    0  0.00000000000E+00  0.00000000000E+00  0.63335106728E+03  0.13210958698E+04  0.11593794559E+04 0.  0.
        4    1    3    3  502    0 -0.28988063839E+03 -0.38714235420E+03  0.68082726818E+03  0.83512715734E+03  0.12699999809E+01 0.  1.
       -4    1    3    3    0  502  0.28988063839E+03  0.38714235420E+03 -0.47476200898E+02  0.48596871245E+03  0.12699999809E+01 0. -1.
</event>
<event>
 5   0  0.1078018E-03  0.1493032E+04  0.7818609E-02  0.8889100E-01
        1   -1    0    0  501    0  0.00000000000E+00  0.00000000000E+00  0.99588534751E+03  0.99588534752E+03  0.50400001928E-02 0.  1.
       -1   -1    0    0    0  501  0.00000000000E+00  0.00000000000E+00 -0.55958834269E+03  0.55958834271E+03  0.50400001928E-02 0. -1.
    10030    2    1    2    0    0  0.00000000000E+00  0.00000000000E+00  0.43629700482E+03  0.15554736902E+04  0.14930315886E+04 0.  0.
        4    1    3    3  502    0  0.22083135831E+03 -0.57442896929E+02  0.95866220553E+03  0.98544457603E+03  0.12699999809E+01 0.  1.
       -4    1    3    3    0  502 -0.22083135831E+03  0.57442896929E+02 -0.52236520071E+03  0.57002911420E+03  0.12699999809E+01 0. -1.
</event>
<event>
 5   0  0.1069697E-03  0.1119343E+04  0.7818609E-02  0.9186541E-01
        1   -1    0    0  501    0  0.00000000000E+00  0.00000000000E+00  0.87320113876E+03  0.87320113877E+03  0.50400001928E-02 0.  1.
       -1   -1    0    0    0  501  0.00000000000E+00  0.00000000000E+00 -0.35871706488E+03  0.35871706492E+03  0.50400001928E-02 0. -1.
    10030    2    1    2    0    0  0.00000000000E+00  0.00000000000E+00  0.51448407388E+03  0.12319182037E+04  0.11193429315E+04 0.  0.
        2    1    3    3  502    0 -0.42116719547E+03  0.35183220254E+03  0.37812702520E+03  0.66644411054E+03  0.25500000920E-02 0.  1.
       -2    1    3    3    0  502  0.42116719547E+03 -0.35183220254E+03  0.13635704868E+03  0.56547409314E+03  0.25500000920E-02 0. -1.
</event>
<event>
 5   0  0.1078787E-03  0.1488894E+04  0.7818609E-02  0.8891872E-01
       -1   -1    0    0    0  501  0.00000000000E+00  0.00000000000E+00  0.35009290577E+03  0.35009290581E+03  0.50400001928E-02 0. -1.
        1   -1    0    0  501    0  0.00000000000E+00  0.00000000000E+00 -0.15830113451E+04  0.15830113451E+04  0.50400001928E-02 0.  1.
    10030    2    1    2    0    0  0.00000000000E+00  0.00000000000E+00 -0.12329184393E+04  0.19331042509E+04  0.14888936050E+04 0.  0.
        5    1    3    3  502    0  0.93636065364E+02 -0.51969386337E+03 -0.12977272445E+04  0.14010594261E+04  0.46999998093E+01 0.  1.
       -5    1    3    3    0  502 -0.93636065364E+02  0.51969386337E+03  0.64808805201E+02  0.53204482479E+03  0.46999998093E+01 0. -1.
</event>
<event>
 5   0  0.1069697E-03  0.1454065E+04  0.7818609E-02  0.8915587E-01
       -1   -1    0    0    0  501  0.00000000000E+00  0.00000000000E+00  0.87387527667E+03  0.87387527668E+03  0.50400001928E-02 0.  1.
        1   -1    0    0  501    0  0.00000000000E+00  0.00000000000E+00 -0.60486474696E+03  0.60486474698E+03  0.50400001928E-02 0. -1.
    10030    2    1    2    0    0  0.00000000000E+00  0.00000000000E+00  0.26901052971E+03  0.14787400237E+04  0.14540651266E+04 0.  0.
        2    1    3    3  502    0  0.25081297549E+03 -0.67325672375E+03  0.21285060210E+02  0.71877313426E+03  0.25500000920E-02 0. -1.
       -2    1    3    3    0  502 -0.25081297549E+03  0.67325672375E+03  0.24772546950E+03  0.75996688940E+03  0.25500000920E-02 0.  1.
</event>
<event>
 5   0  0.1087761E-03  0.1519985E+04  0.7818609E-02  0.8871271E-01
        1   -1    0    0  501    0  0.00000000000E+00  0.00000000000E+00  0.87523221230E+03  0.87523221231E+03  0.50400001928E-02 0.  1.
       -1   -1    0    0    0  501  0.00000000000E+00  0.00000000000E+00 -0.65992593983E+03  0.65992593985E+03  0.50400001928E-02 0. -1.
    10030    2    1    2    0    0  0.00000000000E+00  0.00000000000E+00  0.21530627247E+03  0.15351581522E+04  0.15199847898E+04 0.  0.
        3    1    3    3  502    0 -0.55822312571E+03  0.48628776255E+03 -0.65815844637E+02  0.74325001291E+03  0.10100000352E+00 0.  1.
       -3    1    3    3    0  502  0.55822312571E+03 -0.48628776255E+03  0.28112211711E+03  0.79190813925E+03  0.10100000352E+00 0. -1.
</event>
<event>
 5   0  0.1078787E-03  0.1581584E+04  0.7818609E-02  0.8831942E-01
       -1   -1    0    0    0  501  0.00000000000E+00  0.00000000000E+00  0.53350161461E+03  0.53350161463E+03  0.50400001928E-02 0. -1.
        1   -1    0    0  501    0  0.00000000000E+00  0.00000000000E+00 -0.11721648503E+04  0.11721648504E+04  0.50400001928E-02 0.  1.
    10030    2    1    2    0    0  0.00000000000E+00  0.00000000000E+00 -0.63866323573E+03  0.17056664650E+04  0.15815838141E+04 0.  0.
        5    1    3    3  502    0  0.34831791902E+03 -0.33924044901E+03 -0.99189342689E+03  0.11046647072E+04  0.46999998093E+01 0.  1.
       -5    1    3    3    0  502 -0.34831791902E+03  0.33924044901E+03  0.35323019115E+03  0.60100175782E+03  0.46999998093E+01 0. -1.
</event>
<event>
 5   0  0.1078787E-03  0.9358054E+03  0.7818609E-02  0.9381898E-01
        1   -1    0    0  501    0  0.00000000000E+00  0.00000000000E+00  0.46077846854E+03  0.46077846856E+03  0.50400001928E-02 0. -1.
       -1   -1    0    0    0  501  0.00000000000E+00  0.00000000000E+00 -0.47513707419E+03  0.47513707422E+03  0.50400001928E-02 0.  1.
    10030    2    1    2    0    0  0.00000000000E+00  0.00000000000E+00 -0.14358605656E+02  0.93591554278E+03  0.93580539305E+03 0.  0.
        5    1    3    3  502    0  0.21469994823E+03 -0.23732370142E+03  0.33417046154E+03  0.46272086012E+03  0.46999998093E+01 0. -1.
       -5    1    3    3    0  502 -0.21469994823E+03  0.23732370142E+03 -0.34852906720E+03  0.47319468267E+03  0.46999998093E+01 0.  1.
</event>
<event>
 5   0  0.1078787E-03  0.1453366E+04  0.7818609E-02  0.8916070E-01
       -1   -1    0    0    0  501  0.00000000000E+00  0.00000000000E+00  0.44995658879E+03  0.44995658882E+03  0.50400001928E-02 0.  1.
        1   -1    0    0  501    0  0.00000000000E+00  0.00000000000E+00 -0.11735981975E+04  0.11735981975E+04  0.50400001928E-02 0. -1.
    10030    2    1    2    0    0  0.00000000000E+00  0.00000000000E+00 -0.72364160870E+03  0.16235547863E+04  0.14533660813E+04 0.  0.
        5    1    3    3  502    0  0.10403358294E+03  0.62353292641E+03 -0.76215706089E+03  0.99021299333E+03  0.46999998093E+01 0. -1.
       -5    1    3    3    0  502 -0.10403358294E+03 -0.62353292641E+03  0.38515452190E+02  0.63334179299E+03  0.46999998093E+01 0.  1.
</event>
<event>
 5   0  0.1993623E-03  0.1549676E+04  0.7818609E-02  0.8852075E-01
       -2   -1    0    0    0  501  0.00000000000E+00  0.00000000000E+00  0.67333315822E+03  0.67333315823E+03  0.25500000920E-02 0. -1.
        2   -1    0    0  501    0  0.00000000000E+00  0.00000000000E+00 -0.89164439934E+03  0.89164439935E+03  0.25500000920E-02 0.  1.
    10030    2    1    2    0    0  0.00000000000E+00  0.00000000000E+00 -0.21831124112E+03  0.15649775576E+04  0.15496757589E+04 0.  0.
        4    1    3    3  502    0 -0.41768857777E+03  0.10334713003E+02  0.54982236253E+03  0.69056266735E+03  0.12699999809E+01 0. -1.
       -4    1    3    3    0  502  0.41768857777E+03 -0.10334713003E+02 -0.76813360365E+03  0.87441489023E+03  0.12699999809E+01 0.  1.
</event>
<event>
 5   0  0.1078018E-03  0.1487687E+04  0.7818609E-02  0.8892683E-01
       -1   -1    0    0    0  501  0.00000000000E+00  0.00000000000E+00  0.11761844287E+04  0.11761844287E+04  0.50400001928E-02 0. -1.
        1   -1    0    0  501    0  0.00000000000E+00  0.00000000000E+00 -0.47042202216E+03  0.47042202218E+03  0.50400001928E-02 0.  1.
    10030    2    1    2    0    0  0.00000000000E+00  0.00000000000E+00  0.70576240650E+03  0.16466064509E+04  0.14876868721E+04 0.  0.
        4    1    3    3  502    0 -0.46844286771E+03  0.43071864521E+03 -0.73417024826E+02  0.64058484534E+03  0.12699999809E+01 0.  1.
       -4    1    3    3    0  502  0.46844286771E+03 -0.43071864521E+03  0.77917943133E+03  0.10060216055E+04  0.12699999809E+01 0. -1.
</event>
<event>
 5   0  0.2150197E-03  0.1537065E+04  0.7818609E-02  0.8860173E-01
        2   -1    0    0  501    0  0.00000000000E+00  0.00000000000E+00  0.47338085297E+03  0.47338085297E+03  0.25500000920E-02 0.  1.
       -2   -1    0    0    0  501  0.00000000000E+00  0.00000000000E+00 -0.12477101537E+04  0.12477101537E+04  0.25500000920E-02 0. -1.
    10030    2    1    2    0    0  0.00000000000E+00  0.00000000000E+00 -0.77432930069E+03  0.17210910066E+04  0.15370648611E+04 0.  0.
        3    1    3    3  502    0 -0.21028898904E+03  0.33639620214E+03  0.34986514991E+03  0.52895131822E+03  0.10100000352E+00 0.  1.
       -3    1    3    3    0  502  0.21028898904E+03 -0.33639620214E+03 -0.11241944506E+04  0.11921396884E+04  0.10100000352E+00 0. -1.
</event>
<event>
 5   0  0.2094566E-03  0.1446344E+04  0.7818609E-02  0.8920939E-01
        2   -1    0    0  501    0  0.00000000000E+00  0.00000000000E+00  0.10069904717E+04  0.10069904717E+04  0.25500000920E-02 0. -1.
       -2   -1    0    0    0  501  0.00000000000E+00  0.00000000000E+00 -0.51934717873E+03  0.51934717874E+03  0.25500000920E-02 0.  1.
    10030    2    1    2    0    0  0.00000000000E+00  0.00000000000E+00  0.48764329298E+03  0.15263376505E+04  0.14463438879E+04 0.  0.
        1    1    3    3  502    0  0.39777339868E+02 -0.19679949690E+03  0.97698732799E+03  0.99740489162E+03  0.50400001928E-02 0. -1.
       -1    1    3    3    0  502 -0.39777339868E+02  0.19679949690E+03 -0.48934403501E+03  0.52893275884E+03  0.50400001928E-02 0.  1.
</event>
<event>
 5   0  0.1078018E-03  0.1501207E+04  0.7818609E-02  0.8883651E-01
       -1   -1    0    0    0  501  0.00000000000E+00  0.00000000000E+00  0.82702503900E+03  0.82702503902E+03  0.50400001928E-02 0. -1.
        1   -1    0    0  501    0  0.00000000000E+00  0.00000000000E+00 -0.68124361144E+03  0.68124361146E+03  0.50400001928E-02 0.  1.
    10030    2    1    2    0    0  0.00000000000E+00  0.00000000000E+00  0.14578142756E+03  0.15082686505E+04  0.15012068803E+04 0.  0.
        4    1    3    3  502    0 -0.50541617019E+02 -0.42012909965E+03 -0.54997799512E+03  0.69393106534E+03  0.12699999809E+01 0.  1.
       -4    1    3    3    0  502  0.50541617019E+02  0.42012909965E+03  0.69575942268E+03  0.81433758514E+03  0.12699999809E+01 0. -1.
</event>
<event>
 5   0  0.2094566E-03  0.1478428E+04  0.7818609E-02  0.8898926E-01
        2   -1    0    0  501    0  0.00000000000E+00  0.00000000000E+00  0.18672183850E+04  0.18672183850E+04  0.25500000920E-02 0.  1.
       -2   -1    0    0    0  501  0.00000000000E+00  0.00000000000E+00 -0.29264792592E+03  0.29264792593E+03  0.25500000920E-02 0. -1.
    10030    2    1    2    0    0  0.00000000000E+00  0.00000000000E+00  0.15745704591E+04  0.21598663110E+04  0.14784283380E+04 0.  0.
        1    1    3    3  502    0  0.26358101698E+03  0.56317636853E+03  0.13712789844E+04  0.15056721515E+04  0.50400001928E-02 0.  1.
       -1    1    3    3    0  502 -0.26358101698E+03 -0.56317636853E+03  0.20329147466E+03  0.65419415947E+03  0.50400001928E-02 0. -1.
</event>
<event>
 5   0  0.2150197E-03  0.1519660E+04  0.7818609E-02  0.8871484E-01
        2   -1    0    0  501    0  0.00000000000E+00  0.00000000000E+00  0.19827044749E+04  0.19827044749E+04  0.25500000920E-02 0.  1.
       -2   -1    0    0    0  501  0.00000000000E+00  0.00000000000E+00 -0.29118877432E+03  0.29118877433E+03  0.25500000920E-02 0. -1.
    10030    2    1    2    0    0  0.00000000000E+00  0.00000000000E+00  0.16915157006E+04  0.22738932492E+04  0.15196595486E+04 0.  0.
        3    1    3    3  502    0  0.30379215693E+03  0.27466708610E+03  0.18034122949E+04  0.18493316626E+04  0.10100000352E+00 0.  1.
       -3    1    3    3    0  502 -0.30379215693E+03 -0.27466708610E+03 -0.11189659431E+03  0.42456158660E+03  0.10100000352E+00 0. -1.
</event>
<event>
 5   0  0.1069697E-03  0.1534547E+04  0.7818609E-02  0.8861799E-01
       -1   -1    0    0    0  501  0.00000000000E+00  0.00000000000E+00  0.67206064144E+03  0.67206064146E+03  0.50400001928E-02 0.  1.
        1   -1    0    0  501    0  0.00000000000E+00  0.00000000000E+00 -0.87597530431E+03  0.87597530433E+03  0.50400001928E-02 0. -1.
    10030    2    1    2    0    0  0.00000000000E+00  0.00000000000E+00 -0.20391466287E+03  0.15480359458E+04  0.15345468711E+04 0.  0.
        2    1    3    3  502    0 -0.18607312787E+03  0.42337048288E+03  0.51566848455E+03  0.69266136073E+03  0.25500000920E-02 0.  1.
       -2    1    3    3    0  502  0.18607312787E+03 -0.42337048288E+03 -0.71958314743E+03  0.85537458505E+03  0.25500000920E-02 0. -1.
</event>
<event>
 5   0  0.2150197E-03  0.1471394E+04  0.7818609E-02  0.8903702E-01
       -2   -1    0    0    0  501  0.00000000000E+00  0.00000000000E+00  0.53656591052E+03  0.53656591053E+03  0.25500000920E-02 0.  1.
        2   -1    0    0  501    0  0.00000000000E+00  0.00000000000E+00 -0.10087299068E+04  0.10087299068E+04  0.25500000920E-02 0. -1.
    10030    2    1    2    0    0  0.00000000000E+00  0.00000000000E+00 -0.47216399627E+03  0.15452958173E+04  0.14713940069E+04 0.  0.
        3    1    3    3  502    0  0.22249366113E+03 -0.43693423250E+03  0.33995040262E+03  0.59664163383E+03  0.10100000352E+00 0.  1.
       -3    1    3    3    0  502 -0.22249366113E+03  0.43693423250E+03 -0.81211439889E+03  0.94865418349E+03  0.10100000352E+00 0. -1.
</event>
<event>
 5   0  0.1077140E-03  0.1462790E+04  0.7818609E-02  0.8909581E-01
        1   -1    0    0  501    0  0.00000000000E+00  0.00000000000E+00  0.16913100377E+04  0.16913100377E+04  0.50400001928E-02 0. -1.
       -1   -1    0    0    0  501  0.00000000000E+00  0.00000000000E+00 -0.31628653203E+03  0.31628653207E+03  0.50400001928E-02 0.  1.
    10030    2    1    2    0    0  0.00000000000E+00  0.00000000000E+00  0.13750235056E+04  0.20075965697E+04  0.14627899186E+04 0.  0.
        1    1    3    3  502    0 -0.22873353898E+03 -0.49736428803E+03  0.21843643544E+02  0.54787536142E+03  0.50400001928E-02 0.  1.
       -1    1    3    3    0  502  0.22873353898E+03  0.49736428803E+03  0.13531798621E+04  0.14597212083E+04  0.50400001928E-02 0. -1.
</event>
<event>
 5   0  0.1069697E-03  0.1416257E+04  0.7818609E-02  0.8942134E-01
        1   -1    0    0  501    0  0.00000000000E+00  0.00000000000E+00  0.11713315848E+04  0.11713315848E+04  0.50400001928E-02 0.  1.
       -1   -1    0    0    0  501  0.00000000000E+00  0.00000000000E+00 -0.42809892981E+03  0.42809892984E+03  0.50400001928E-02 0. -1.
    10030    2    1    2    0    0  0.00000000000E+00  0.00000000000E+00  0.74323265498E+03  0.15994305146E+04  0.14162567535E+04 0.  0.
        2    1    3    3  502    0 -0.31808488316E+03  0.53178348613E+03 -0.15458117968E+02  0.61984725734E+03  0.25500000920E-02 0.  1.
       -2    1    3    3    0  502  0.31808488316E+03 -0.53178348613E+03  0.75869077295E+03  0.97958325730E+03  0.25500000920E-02 0. -1.
</event>
<event>
 5   0  0.1077140E-03  0.1508400E+04  0.7818609E-02  0.8878886E-01
       -1   -1    0    0    0  501  0.00000000000E+00  0.00000000000E+00  0.65703463590E+03  0.65703463592E+03  0.50400001928E-02 0. -1.
        1   -1    0    0  501    0  0.00000000000E+00  0.00000000000E+00 -0.86573495051E+03  0.86573495052E+03  0.50400001928E-02 0.  1.
    10030    2    1    2    0    0  0.00000000000E+00  0.00000000000E+00 -0.20870031460E+03  0.15227695864E+04  0.15084002758E+04 0.  0.
        1    1    3    3  502    0  0.24528234267E+03 -0.43779729312E+03  0.46403007880E+03  0.68348651160E+03  0.50400001928E-02 0. -1.
       -1    1    3    3    0  502 -0.24528234267E+03  0.43779729312E+03 -0.67273039340E+03  0.83928307484E+03  0.50400001928E-02 0.  1.
</event>
<event>
 5   0  0.2094566E-03  0.1535705E+04  0.7818609E-02  0.8861051E-01
       -2   -1    0    0    0  501  0.00000000000E+00  0.00000000000E+00  0.51290867516E+03  0.51290867517E+03  0.25500000920E-02 0. -1.
        2   -1    0    0  501    0  0.00000000000E+00  0.00000000000E+00 -0.11495168448E+04  0.11495168448E+04  0.25500000920E-02 0.  1.
    10030    2    1    2    0    0  0.00000000000E+00  0.00000000000E+00 -0.63660816960E+03  0.16624255199E+04  0.15357046095E+04 0.  0.
        1    1    3    3  502    0  0.72325416425E+03 -0.21794408305E+03 -0.16908574796E+03  0.77407118511E+03  0.50400001928E-02 0.  1.
       -1    1    3    3    0  502 -0.72325416425E+03  0.21794408305E+03 -0.46752242164E+03  0.88835433482E+03  0.50400001928E-02 0. -1.
</event>
<event>
 5   0  0.1077140E-03  0.1544509E+04  0.7818609E-02  0.8855383E-01
       -1   -1    0    0    0  501  0.00000000000E+00  0.00000000000E+00  0.90773244830E+03  0.90773244831E+03  0.50400001928E-02 0. -1.
        1   -1    0    0  501    0  0.00000000000E+00  0.00000000000E+00 -0.65699628648E+03  0.65699628649E+03  0.50400001928E-02 0.  1.
    10030    2    1    2    0    0  0.00000000000E+00  0.00000000000E+00  0.25073616182E+03  0.15647287348E+04  0.15445087862E+04 0.  0.
        1    1    3    3  502    0  0.68242113836E+03 -0.33753294598E+03  0.25648321179E+03  0.80337459361E+03  0.50400001928E-02 0. -1.
       -1    1    3    3    0  502 -0.68242113836E+03  0.33753294598E+03 -0.57470499678E+01  0.76135414120E+03  0.50400001928E-02 0.  1.
</event>
<event>
 5   0  0.1078018E-03  0.1499439E+04  0.7818609E-02  0.8884826E-01
        1   -1    0    0  501    0  0.00000000000E+00  0.00000000000E+00  0.72987010006E+03  0.72987010008E+03  0.50400001928E-02 0.  1.
       -1   -1    0    0    0  501  0.00000000000E+00  0.00000000000E+00 -0.77010827508E+03  0.77010827510E+03  0.50400001928E-02 0. -1.
    10030    2    1    2    0    0  0.00000000000E+00  0.00000000000E+00 -0.40238175026E+02  0.14999783752E+04  0.14994385667E+04 0.  0.
        4    1    3    3  502    0 -0.10486684448E+03 -0.36607210020E+03  0.62592418098E+03  0.73265853633E+03  0.12699999809E+01 0.  1.
       -4    1    3    3    0  502  0.10486684448E+03  0.36607210020E+03 -0.66616235601E+03  0.76731983884E+03  0.12699999809E+01 0. -1.
</event>
<event>
 5   0  0.1961098E-03  0.1528197E+04  0.7818609E-02  0.8865916E-01
        2   -1    0    0  501    0  0.00000000000E+00  0.00000000000E+00  0.87051132842E+03  0.87051132842E+03  0.25500000920E-02 0. -1.
       -2   -1    0    0    0  501  0.00000000000E+00  0.00000000000E+00 -0.67069396941E+03  0.67069396941E+03  0.25500000920E-02 0.  1.
    10030    2    1    2    0    0  0.00000000000E+00  0.00000000000E+00  0.19981735901E+03  0.15412052978E+04  0.15281972363E+04 0.  0.
        2    1    3    3  502    0  0.17923304259E+03 -0.15717680133E+03  0.83204789692E+03  0.86552454223E+03  0.25500000920E-02 0. -1.
       -2    1    3    3    0  502 -0.17923304259E+03  0.15717680133E+03 -0.63223053790E+03  0.67568075561E+03  0.25500000920E-02 0.  1.
</event>
<event>
 5   0  0.1961098E-03  0.1483495E+04  0.7818609E-02  0.8895503E-01
        2   -1    0    0  501    0  0.00000000000E+00  0.00000000000E+00  0.15615641935E+04  0.15615641935E+04  0.25500000920E-02 0.  1.
       -2   -1    0    0    0  501  0.00000000000E+00  0.00000000000E+00 -0.35233216624E+03  0.35233216625E+03  0.25500000920E-02 0. -1.
    10030    2    1    2    0    0  0.00000000000E+00  0.00000000000E+00  0.12092320273E+04  0.19138963598E+04  0.14834949208E+04 0.  0.
        2    1    3    3  502    0 -0.61998687206E+03 -0.27687105627E+03  0.21941436725E+03  0.71357127737E+03  0.25500000920E-02 0. -1.
       -2    1    3    3    0  502  0.61998687206E+03  0.27687105627E+03  0.98981766002E+03  0.12003250824E+04  0.25500000920E-02 0.  1.
</event>
<event>
 5   0  0.7468375E-04  0.1165059E+04  0.7818609E-02  0.9144002E-01
        4   -1    0    0  501    0  0.00000000000E+00  0.00000000000E+00  0.26944786091E+03  0.26945085386E+03  0.12699999809E+01 0.  1.
       -4   -1    0    0    0  501  0.00000000000E+00  0.00000000000E+00 -0.12593830520E+04  0.12593836923E+04  0.12699999809E+01 0. -1.
    10030    2    1    2    0    0  0.00000000000E+00  0.00000000000E+00 -0.98993519105E+03  0.15288345462E+04  0.11650593921E+04 0.  0.
        5    1    3    3  502    0  0.47753436814E+03 -0.33265578522E+03 -0.46229808579E+03  0.74326344880E+03  0.46999998093E+01 0.  1.
       -5    1    3    3    0  502 -0.47753436814E+03  0.33265578522E+03 -0.52763710526E+03  0.78557109738E+03  0.46999998093E+01 0. -1.
</event>
<event>
 5   0  0.2094566E-03  0.1317204E+04  0.7818609E-02  0.9016032E-01
       -2   -1    0    0    0  501  0.00000000000E+00  0.00000000000E+00  0.25414603795E+03  0.25414603797E+03  0.25500000920E-02 0.  1.
        2   -1    0    0  501    0  0.00000000000E+00  0.00000000000E+00 -0.17067223222E+04  0.17067223222E+04  0.25500000920E-02 0. -1.
    10030    2    1    2    0    0  0.00000000000E+00  0.00000000000E+00 -0.14525762843E+04  0.19608683602E+04  0.13172041848E+04 0.  0.
        1    1    3    3  502    0 -0.14286131633E+03 -0.15165007378E+03 -0.16563722315E+04  0.16694238737E+04  0.50400001928E-02 0. -1.
       -1    1    3    3    0  502  0.14286131633E+03  0.15165007378E+03  0.20379594725E+03  0.29144448652E+03  0.50400001928E-02 0.  1.
</event>
<event>
 5   0  0.1087761E-03  0.1521497E+04  0.7818609E-02  0.8870282E-01
        1   -1    0    0  501    0  0.00000000000E+00  0.00000000000E+00  0.79996168327E+03  0.79996168329E+03  0.50400001928E-02 0. -1.
       -1   -1    0    0    0  501  0.00000000000E+00  0.00000000000E+00 -0.72345791637E+03  0.72345791638E+03  0.50400001928E-02 0.  1.
    10030    2    1    2    0    0  0.00000000000E+00  0.00000000000E+00  0.76503766905E+02  0.15234195997E+04  0.15214974368E+04 0.  0.
        3    1    3    3  502    0 -0.37773809270E+03 -0.65571654860E+03 -0.39874530505E+02  0.75778641263E+03  0.10100000352E+00 0.  1.
       -3    1    3    3    0  502  0.37773809270E+03  0.65571654860E+03  0.11637829741E+03  0.76563318704E+03  0.10100000352E+00 0. -1.
</event>
<event>
 5   0  0.1993623E-03  0.1039950E+04  0.7818609E-02  0.9265781E-01
       -2   -1    0    0    0  501  0.00000000000E+00  0.00000000000E+00  0.41482801301E+03  0.41482801302E+03  0.25500000920E-02 0.  1.
        2   -1    0    0  501    0  0.00000000000E+00  0.00000000000E+00 -0.65177427496E+03  0.65177427496E+03  0.25500000920E-02 0. -1.
    10030    2    1    2    0    0  0.00000000000E+00  0.00000000000E+00 -0.23694626195E+03  0.10666022880E+04  0.10399504362E+04 0.  0.
        4    1    3    3  502    0 -0.43781343568E+03  0.27583197623E+03 -0.17085783744E+03  0.54493843422E+03  0.12699999809E+01 0.  1.
       -4    1    3    3    0  502  0.43781343568E+03 -0.27583197623E+03 -0.66088424510E+02  0.52166385377E+03  0.12699999809E+01 0. -1.
</event>
<event>
 5   0  0.7468375E-04  0.1528565E+04  0.7818609E-02  0.8865676E-01
        4   -1    0    0  501    0  0.00000000000E+00  0.00000000000E+00  0.57899044811E+03  0.57899184096E+03  0.12699999809E+01 0.  1.
       -4   -1    0    0    0  501  0.00000000000E+00  0.00000000000E+00 -0.10088704902E+04  0.10088712896E+04  0.12699999809E+01 0. -1.
    10030    2    1    2    0    0  0.00000000000E+00  0.00000000000E+00 -0.42988004212E+03  0.15878631305E+04  0.15285654944E+04 0.  0.
        4    1    3    3  502    0 -0.22276180004E+02 -0.11940799722E+03 -0.99877938311E+03  0.10061393378E+04  0.12699999809E+01 0. -1.
       -4    1    3    3    0  502  0.22276180004E+02  0.11940799722E+03  0.56889934099E+03  0.58172379277E+03  0.12699999809E+01 0.  1.
</event>
<event>
 5   0  0.2150197E-03  0.1590612E+04  0.7818609E-02  0.8826336E-01
       -2   -1    0    0    0  501  0.00000000000E+00  0.00000000000E+00  0.58870725476E+03  0.58870725477E+03  0.25500000920E-02 0. -1.
        2   -1    0    0  501    0  0.00000000000E+00  0.00000000000E+00 -0.10744073370E+04  0.10744073370E+04  0.25500000920E-02 0.  1.
    10030    2    1    2    0    0  0.00000000000E+00  0.00000000000E+00 -0.48570008219E+03  0.16631145917E+04  0.15906116985E+04 0.  0.
        3    1    3    3  502    0 -0.71203313277E+03  0.15628729188E+03  0.89596433148E+02  0.73446880860E+03  0.10100000352E+00 0. -1.
       -3    1    3    3    0  502  0.71203313277E+03 -0.15628729188E+03 -0.57529651534E+03  0.92864578313E+03  0.10100000352E+00 0.  1.
</event>
<event>
 5   0  0.1077140E-03  0.1531931E+04  0.7818609E-02  0.8863492E-01
       -1   -1    0    0    0  501  0.00000000000E+00  0.00000000000E+00  0.54776761147E+03  0.54776761149E+03  0.50400001928E-02 0. -1.
        1   -1    0    0  501    0  0.00000000000E+00  0.00000000000E+00 -0.10710810507E+04  0.10710810508E+04  0.50400001928E-02 0.  1.
    10030    2    1    2    0    0  0.00000000000E+00  0.00000000000E+00 -0.52331343928E+03  0.16188486623E+04  0.15319314722E+04 0.  0.
        1    1    3    3  502    0  0.59877693868E+03 -0.34482545585E+03 -0.61096399344E+03  0.92234235433E+03  0.50400001928E-02 0. -1.
       -1    1    3    3    0  502 -0.59877693868E+03  0.34482545585E+03  0.87650554155E+02  0.69650630792E+03  0.50400001928E-02 0.  1.
</event>
<event>
 5   0  0.1069697E-03  0.1494318E+04  0.7818609E-02  0.8888240E-01
        1   -1    0    0  501    0  0.00000000000E+00  0.00000000000E+00  0.42044311546E+03  0.42044311549E+03  0.50400001928E-02 0.  1.
       -1   -1    0    0    0  501  0.00000000000E+00  0.00000000000E+00 -0.13277580031E+04  0.13277580031E+04  0.50400001928E-02 0. -1.
    10030    2    1    2    0    0  0.00000000000E+00  0.00000000000E+00 -0.90731488760E+03  0.17482011186E+04  0.14943181876E+04 0.  0.
        2    1    3    3  502    0 -0.18029204758E+03 -0.65106435026E+03 -0.80284267847E+02  0.68032019981E+03  0.25500000920E-02 0. -1.
       -2    1    3    3    0  502  0.18029204758E+03  0.65106435026E+03 -0.82703061976E+03  0.10678809187E+04  0.25500000920E-02 0.  1.
</event>
<event>
 5   0  0.1069697E-03  0.1634591E+04  0.7818609E-02  0.8799575E-01
       -1   -1    0    0    0  501  0.00000000000E+00  0.00000000000E+00  0.63440412882E+03  0.63440412884E+03  0.50400001928E-02 0.  1.
        1   -1    0    0  501    0  0.00000000000E+00  0.00000000000E+00 -0.10529121762E+04  0.10529121762E+04  0.50400001928E-02 0. -1.
    10030    2    1    2    0    0  0.00000000000E+00  0.00000000000E+00 -0.41850804742E+03  0.16873163051E+04  0.16345908747E+04 0.  0.
        2    1    3    3  502    0  0.18108549112E+03  0.45596618496E+02  0.61208767666E+03  0.63993931793E+03  0.25500000920E-02 0.  1.
       -2    1    3    3    0  502 -0.18108549112E+03 -0.45596618496E+02 -0.10305957241E+04  0.10473769871E+04  0.25500000920E-02 0. -1.
</event>
<event>
 5   0  0.1961098E-03  0.1467674E+04  0.7818609E-02  0.8906238E-01
       -2   -1    0    0    0  501  0.00000000000E+00  0.00000000000E+00  0.74621780236E+03  0.74621780237E+03  0.25500000920E-02 0.  1.
        2   -1    0    0  501    0  0.00000000000E+00  0.00000000000E+00 -0.72166186061E+03  0.72166186061E+03  0.25500000920E-02 0. -1.
    10030    2    1    2    0    0  0.00000000000E+00  0.00000000000E+00  0.24555941753E+02  0.14678796630E+04  0.14676742522E+04 0.  0.
        2    1    3    3  502    0  0.32306084637E+03 -0.64716693788E+03  0.13608371105E+03  0.73601095940E+03  0.25500000920E-02 0.  1.
       -2    1    3    3    0  502 -0.32306084637E+03  0.64716693788E+03 -0.11152776930E+03  0.73186870358E+03  0.25500000920E-02 0. -1.
</event>
<event>
 5   0  0.1993623E-03  0.1495925E+04  0.7818609E-02  0.8887167E-01
        2   -1    0    0  501    0  0.00000000000E+00  0.00000000000E+00  0.10492336877E+04  0.10492336877E+04  0.25500000920E-02 0.  1.
       -2   -1    0    0    0  501  0.00000000000E+00  0.00000000000E+00 -0.53319671119E+03  0.53319671119E+03  0.25500000920E-02 0. -1.
    10030    2    1    2    0    0  0.00000000000E+00  0.00000000000E+00  0.51603697647E+03  0.15824303989E+04  0.14959250670E+04 0.  0.
        4    1    3    3  502    0 -0.54839373524E+03  0.25986402682E+03  0.72054595200E+03  0.94204728285E+03  0.12699999809E+01 0.  1.
       -4    1    3    3    0  502  0.54839373524E+03 -0.25986402682E+03 -0.20450897553E+03  0.64038311600E+03  0.12699999809E+01 0. -1.
</event>
<event>
 5   0  0.2111533E-03  0.1421456E+04  0.7818609E-02  0.8938432E-01
       -2   -1    0    0    0  501  0.00000000000E+00  0.00000000000E+00  0.60778415600E+03  0.60778415600E+03  0.25500000920E-02 0.  1.
        2   -1    0    0  501    0  0.00000000000E+00  0.00000000000E+00 -0.83110822968E+03  0.83110822969E+03  0.25500000920E-02 0. -1.
    10030    2    1    2    0    0  0.00000000000E+00  0.00000000000E+00 -0.22332407369E+03  0.14388923857E+04  0.14214561744E+04 0.  0.
        5    1    3    3  502    0 -0.68044459857E+03 -0.20078321636E+03 -0.15453211502E+03  0.72609986659E+03  0.46999998093E+01 0.  1.
       -5    1    3    3    0  502  0.68044459857E+03  0.20078321636E+03 -0.68791958672E+02  0.71279251909E+03  0.46999998093E+01 0. -1.
</event>
<event>
 5   0  0.1077140E-03  0.1467213E+04  0.7818609E-02  0.8906554E-01
        1   -1    0    0  501    0  0.00000000000E+00  0.00000000000E+00  0.85347042899E+03  0.85347042900E+03  0.50400001928E-02 0.  1.
       -1   -1    0    0    0  501  0.00000000000E+00  0.00000000000E+00 -0.63057648040E+03  0.63057648042E+03  0.50400001928E-02 0. -1.
    10030    2    1    2    0    0  0.00000000000E+00  0.00000000000E+00  0.22289394859E+03  0.14840469094E+04  0.14672128397E+04 0.  0.
        1    1    3    3  502    0  0.12160524762E+02  0.72149400447E+03 -0.22270061357E+02  0.72194004772E+03  0.50400001928E-02 0. -1.
       -1    1    3    3    0  502 -0.12160524762E+02 -0.72149400447E+03  0.24516400995E+03  0.76210686170E+03  0.50400001928E-02 0.  1.
</event>
<event>
 5   0  0.1078018E-03  0.1505992E+04  0.7818609E-02  0.8880478E-01
        1   -1    0    0  501    0  0.00000000000E+00  0.00000000000E+00  0.84266177452E+03  0.84266177453E+03  0.50400001928E-02 0.  1.
       -1   -1    0    0    0  501  0.00000000000E+00  0.00000000000E+00 -0.67287139792E+03  0.67287139794E+03  0.50400001928E-02 0. -1.
    10030    2    1    2    0    0  0.00000000000E+00  0.00000000000E+00  0.16979037660E+03  0.15155331725E+04  0.15059920401E+04 0.  0.
        4    1    3    3  502    0 -0.15034374465E+03  0.15083873479E+03 -0.64193112130E+03  0.67633774319E+03  0.12699999809E+01 0. -1.
       -4    1    3    3    0  502  0.15034374465E+03 -0.15083873479E+03  0.81172149790E+03  0.83919542928E+03  0.12699999809E+01 0.  1.
</event>
<event>
 5   0  0.1961098E-03  0.1515834E+04  0.7818609E-02  0.8873991E-01
        2   -1    0    0  501    0  0.00000000000E+00  0.00000000000E+00  0.13931903439E+04  0.13931903439E+04  0.25500000920E-02 0.  1.
       -2   -1    0    0    0  501  0.00000000000E+00  0.00000000000E+00 -0.41231837758E+03  0.41231837759E+03  0.25500000920E-02 0. -1.
    10030    2    1    2    0    0  0.00000000000E+00  0.00000000000E+00  0.98087196633E+03  0.18055087215E+04  0.15158337406E+04 0.  0.
        2    1    3    3  502    0 -0.23284953744E+03  0.40815409287E+03 -0.21787201976E+03  0.51795452272E+03  0.25500000920E-02 0. -1.
       -2    1    3    3    0  502  0.23284953744E+03 -0.40815409287E+03  0.11987439861E+04  0.12875541988E+04  0.25500000920E-02 0.  1.
</event>
<event>
 5   0  0.2094566E-03  0.1481292E+04  0.7818609E-02  0.8896989E-01
       -2   -1    0    0    0  501  0.00000000000E+00  0.00000000000E+00  0.37290419926E+03  0.37290419927E+03  0.25500000920E-02 0.  1.
        2   -1    0    0  501    0  0.00000000000E+00  0.00000000000E+00 -0.14710395576E+04  0.14710395576E+04  0.25500000920E-02 0. -1.
    10030    2    1    2    0    0  0.00000000000E+00  0.00000000000E+00 -0.10981353583E+04  0.18439437568E+04  0.14812924469E+04 0.  0.
        1    1    3    3  502    0 -0.32120268555E+03 -0.47693902362E+03 -0.11301668504E+04  0.12680375023E+04  0.50400001928E-02 0. -1.
       -1    1    3    3    0  502  0.32120268555E+03  0.47693902362E+03  0.32031492150E+02  0.57590625450E+03  0.50400001928E-02 0.  1.
</event>
<event>
 5   0  0.2094566E-03  0.1456869E+04  0.7818609E-02  0.8913652E-01
        2   -1    0    0  501    0  0.00000000000E+00  0.00000000000E+00  0.12315599680E+04  0.12315599680E+04  0.25500000920E-02 0. -1.
       -2   -1    0    0    0  501  0.00000000000E+00  0.00000000000E+00 -0.43084931478E+03  0.43084931479E+03  0.25500000920E-02 0.  1.
    10030    2    1    2    0    0  0.00000000000E+00  0.00000000000E+00  0.80071065322E+03  0.16624092828E+04  0.14568689280E+04 0.  0.
        1    1    3    3  502    0  0.11099916868E+03 -0.18906759284E+03  0.11930179197E+04  0.12129959302E+04  0.50400001928E-02 0. -1.
       -1    1    3    3    0  502 -0.11099916868E+03  0.18906759284E+03 -0.39230726645E+03  0.44941335254E+03  0.50400001928E-02 0.  1.
</event>
<event>
 5   0  0.1069697E-03  0.1492180E+04  0.7818609E-02  0.8889670E-01
       -1   -1    0    0    0  501  0.00000000000E+00  0.00000000000E+00  0.76236971766E+03  0.76236971767E+03  0.50400001928E-02 0.  1.
        1   -1    0    0  501    0  0.00000000000E+00  0.00000000000E+00 -0.73015819649E+03  0.73015819651E+03  0.50400001928E-02 0. -1.
    10030    2    1    2    0    0  0.00000000000E+00  0.00000000000E+00  0.32211521166E+02  0.14925279142E+04  0.14921802815E+04 0.  0.
        2    1    3    3  502    0  0.26714358270E+01 -0.42376193522E+03  0.63030841086E+03  0.75951958969E+03  0.25500000920E-02 0.  1.
       -2    1    3    3    0  502 -0.26714358270E+01  0.42376193522E+03 -0.59809688969E+03  0.73300832450E+03  0.25500000920E-02 0. -1.
</event>
<event>
 5   0  0.2111533E-03  0.1524546E+04  0.7818609E-02  0.8868292E-01
        2   -1    0    0  501    0  0.00000000000E+00  0.00000000000E+00  0.58325424805E+03  0.58325424805E+03  0.25500000920E-02 0. -1.
       -2   -1    0    0    0  501  0.00000000000E+00  0.00000000000E+00 -0.99623824809E+03  0.99623824810E+03  0.25500000920E-02 0.  1.
    10030    2    1    2    0    0  0.00000000000E+00  0.00000000000E+00 -0.41298400005E+03  0.15794924961E+04  0.15245460836E+04 0.  0.
        5    1    3    3  502    0  0.66230895950E+03 -0.11480698933E+03  0.16591298869E+03  0.69237490744E+03  0.46999998093E+01 0. -1.
       -5    1    3    3    0  502 -0.66230895950E+03  0.11480698933E+03 -0.57889698874E+03  0.88711758871E+03  0.46999998093E+01 0.  1.
</event>
<event>
 5   0  0.1078018E-03  0.1499313E+04  0.7818609E-02  0.8884910E-01
       -1   -1    0    0    0  501  0.00000000000E+00  0.00000000000E+00  0.44725642787E+03  0.44725642789E+03  0.50400001928E-02 0.  1.
        1   -1    0    0  501    0  0.00000000000E+00  0.00000000000E+00 -0.12565159008E+04  0.12565159008E+04  0.50400001928E-02 0. -1.
    10030    2    1    2    0    0  0.00000000000E+00  0.00000000000E+00 -0.80925947294E+03  0.17037723287E+04  0.14993129272E+04 0.  0.
        4    1    3    3  502    0  0.72412814219E+01 -0.78653906208E+02 -0.12517728684E+04  0.12542630506E+04  0.12699999809E+01 0. -1.
       -4    1    3    3    0  502 -0.72412814219E+01  0.78653906208E+02  0.44251339542E+03  0.44950927815E+03  0.12699999809E+01 0.  1.
</event>
<event>
 5   0  0.1077140E-03  0.1614565E+04  0.7818609E-02  0.8811650E-01
        1   -1    0    0  501    0  0.00000000000E+00  0.00000000000E+00  0.46719814469E+03  0.46719814472E+03  0.50400001928E-02 0. -1.
       -1   -1    0    0    0  501  0.00000000000E+00  0.00000000000E+00 -0.13949216324E+04  0.13949216324E+04  0.50400001928E-02 0.  1.
    10030    2    1    2    0    0  0.00000000000E+00  0.00000000000E+00 -0.92772348768E+03  0.18621197771E+04  0.16145647075E+04 0.  0.
        1    1    3    3  502    0 -0.63208673254E+03 -0.25377697876E+03  0.35900470945E+02  0.68207421608E+03  0.50400001928E-02 0. -1.
       -1    1    3    3    0  502  0.63208673254E+03  0.25377697876E+03 -0.96362395863E+03  0.11800455610E+04  0.50400001928E-02 0.  1.
</event>
<event>
 5   0  0.1077140E-03  0.1466278E+04  0.7818609E-02  0.8907192E-01
        1   -1    0    0  501    0  0.00000000000E+00  0.00000000000E+00  0.20250477289E+04  0.20250477289E+04  0.50400001928E-02 0.  1.
       -1   -1    0    0    0  501  0.00000000000E+00  0.00000000000E+00 -0.26542242061E+03  0.26542242066E+03  0.50400001928E-02 0. -1.
    10030    2    1    2    0    0  0.00000000000E+00  0.00000000000E+00  0.17596253083E+04  0.22904701496E+04  0.14662783776E+04 0.  0.
        1    1    3    3  502    0  0.89343286955E+02 -0.28793068408E+03  0.19237413991E+04  0.19472203965E+04  0.50400001928E-02 0.  1.
       -1    1    3    3    0  502 -0.89343286955E+02  0.28793068408E+03 -0.16411609077E+03  0.34324975314E+03  0.50400001928E-02 0. -1.
</event>
<event>
 5   0  0.1069697E-03  0.1499828E+04  0.7818609E-02  0.8884567E-01
        1   -1    0    0  501    0  0.00000000000E+00  0.00000000000E+00  0.12649587942E+04  0.12649587943E+04  0.50400001928E-02 0. -1.
       -1   -1    0    0    0  501  0.00000000000E+00  0.00000000000E+00 -0.44457656052E+03  0.44457656055E+03  0.50400001928E-02 0.  1.
    10030    2    1    2    0    0  0.00000000000E+00  0.00000000000E+00  0.82038223372E+03  0.17095353548E+04  0.14998280301E+04 0.  0.
        2    1    3    3  502    0 -0.61481366142E+03 -0.38140276063E+03  0.18536270326E+03  0.74687564953E+03  0.25500000920E-02 0.  1.
       -2    1    3    3    0  502  0.61481366142E+03  0.38140276063E+03  0.63501953046E+03  0.96265970528E+03  0.25500000920E-02 0. -1.
</event>
<event>
 5   0  0.1087761E-03  0.1504935E+04  0.7818609E-02  0.8881178E-01
       -1   -1    0    0    0  501  0.00000000000E+00  0.00000000000E+00  0.85819320022E+03  0.85819320023E+03  0.50400001928E-02 0. -1.
        1   -1    0    0  501    0  0.00000000000E+00  0.00000000000E+00 -0.65976700697E+03  0.65976700699E+03  0.50400001928E-02 0.  1.
    10030    2    1    2    0    0  0.00000000000E+00  0.00000000000E+00  0.19842619325E+03  0.15179602072E+04  0.15049352931E+04 0.  0.
        3    1    3    3  502    0  0.49715421296E+03  0.54773478695E+03 -0.39936821724E+02  0.74079056975E+03  0.10100000352E+00 0.  1.
       -3    1    3    3    0  502 -0.49715421296E+03 -0.54773478695E+03  0.23836301497E+03  0.77716963747E+03  0.10100000352E+00 0. -1.
</event>
<event>
 5   0  0.2150197E-03  0.1457904E+04  0.7818609E-02  0.8912939E-01
        2   -1    0    0  501    0  0.00000000000E+00  0.00000000000E+00  0.11760299447E+04  0.11760299447E+04  0.25500000920E-02 0. -1.
       -2   -1    0    0    0  501  0.00000000000E+00  0.00000000000E+00 -0.45183456528E+03  0.45183456528E+03  0.25500000920E-02 0.  1.
    10030    2    1    2    0    0  0.00000000000E+00  0.00000000000E+00  0.72419537944E+03  0.16278645100E+04  0.14579039459E+04 0.  0.
        3    1    3    3  502    0  0.29619175677E+03 -0.15238700843E+03 -0.36188940838E+03  0.49184887030E+03  0.10100000352E+00 0.  1.
       -3    1    3    3    0  502 -0.29619175677E+03  0.15238700843E+03  0.10860847878E+04  0.11360156397E+04  0.10100000352E+00 0. -1.
</event>
<event>
 5   0  0.1087761E-03  0.1506224E+04  0.7818609E-02  0.8880325E-01
        1   -1    0    0  501    0  0.00000000000E+00  0.00000000000E+00  0.17942984501E+04  0.17942984501E+04  0.50400001928E-02 0. -1.
       -1   -1    0    0    0  501  0.00000000000E+00  0.00000000000E+00 -0.31609988839E+03  0.31609988843E+03  0.50400001928E-02 0.  1.
    10030    2    1    2    0    0  0.00000000000E+00  0.00000000000E+00  0.14781985617E+04  0.21103983385E+04  0.15062238079E+04 0.  0.
        3    1    3    3  502    0 -0.27708164483E+02 -0.24820335346E+03  0.17345888225E+04  0.17524756889E+04  0.10100000352E+00 0. -1.
       -3    1    3    3    0  502  0.27708164483E+02  0.24820335346E+03 -0.25639026079E+03  0.35792264957E+03  0.10100000352E+00 0.  1.
</event>
<event>
 5   0  0.1993623E-03  0.1468717E+04  0.7818609E-02  0.8905526E-01
       -2   -1    0    0    0  501  0.00000000000E+00  0.00000000000E+00  0.35988234576E+03  0.35988234577E+03  0.25500000920E-02 0.  1.
        2   -1    0    0  501    0  0.00000000000E+00  0.00000000000E+00 -0.14984964872E+04  0.14984964872E+04  0.25500000920E-02 0. -1.
    10030    2    1    2    0    0  0.00000000000E+00  0.00000000000E+00 -0.11386141414E+04  0.18583788329E+04  0.14687170332E+04 0.  0.
        4    1    3    3  502    0 -0.39799098190E+03 -0.10354679722E+03 -0.13391321735E+04  0.14008552216E+04  0.12699999809E+01 0. -1.
       -4    1    3    3    0  502  0.39799098190E+03  0.10354679722E+03  0.20051803205E+03  0.45752361138E+03  0.12699999809E+01 0.  1.
</event>
<event>
 5   0  0.2150197E-03  0.1479269E+04  0.7818609E-02  0.8898357E-01
        2   -1    0    0  501    0  0.00000000000E+00  0.00000000000E+00  0.33849724614E+03  0.33849724614E+03  0.25500000920E-02 0. -1.
       -2   -1    0    0    0  501  0.00000000000E+00  0.00000000000E+00 -0.16161409960E+04  0.16161409960E+04  0.25500000920E-02 0.  1.
    10030    2    1    2    0    0  0.00000000000E+00  0.00000000000E+00 -0.12776437498E+04  0.19546382421E+04  0.14792691121E+04 0.  0.
        3    1    3    3  502    0  0.67613442251E+03 -0.19589640440E+03 -0.33888292197E+03  0.78126487414E+03  0.10100000352E+00 0. -1.
       -3    1    3    3    0  502 -0.67613442251E+03  0.19589640440E+03 -0.93876082788E+03  0.11733733680E+04  0.10100000352E+00 0.  1.
</event>
<event>
 5   0  0.1961098E-03  0.1417074E+04  0.7818609E-02  0.8941551E-01
       -2   -1    0    0    0  501  0.00000000000E+00  0.00000000000E+00  0.40314023153E+03  0.40314023154E+03  0.25500000920E-02 0. -1.
        2   -1    0    0  501    0  0.00000000000E+00  0.00000000000E+00 -0.12452856085E+04  0.12452856085E+04  0.25500000920E-02 0.  1.
    10030    2    1    2    0    0  0.00000000000E+00  0.00000000000E+00 -0.84214537696E+03  0.16484258400E+04  0.14170740680E+04 0.  0.
        2    1    3    3  502    0  0.15666154186E+03 -0.58124495056E+03 -0.85575890528E+03  0.10462847773E+04  0.25500000920E-02 0.  1.
       -2    1    3    3    0  502 -0.15666154186E+03  0.58124495056E+03  0.13613528319E+02  0.60214106272E+03  0.25500000920E-02 0. -1.
</event>
<event>
 5   0  0.1078787E-03  0.1489404E+04  0.7818609E-02  0.8891530E-01
       -1   -1    0    0    0  501  0.00000000000E+00  0.00000000000E+00  0.97249333447E+03  0.97249333448E+03  0.50400001928E-02 0.  1.
        1   -1    0    0  501    0  0.00000000000E+00  0.00000000000E+00 -0.57026733970E+03  0.57026733973E+03  0.50400001928E-02 0. -1.
    10030    2    1    2    0    0  0.00000000000E+00  0.00000000000E+00  0.40222599476E+03  0.15427606742E+04  0.14894041584E+04 0.  0.
        5    1    3    3  502    0  0.44387075609E+03  0.43141650000E+03  0.62997124744E+03  0.88319154614E+03  0.46999998093E+01 0.  1.
       -5    1    3    3    0  502 -0.44387075609E+03 -0.43141650000E+03 -0.22774525267E+03  0.65956912806E+03  0.46999998093E+01 0. -1.
</event>
<event>
 5   0  0.1077140E-03  0.1496889E+04  0.7818609E-02  0.8886525E-01
       -1   -1    0    0    0  501  0.00000000000E+00  0.00000000000E+00  0.65442808713E+03  0.65442808715E+03  0.50400001928E-02 0.  1.
        1   -1    0    0  501    0  0.00000000000E+00  0.00000000000E+00 -0.85596696061E+03  0.85596696063E+03  0.50400001928E-02 0. -1.
    10030    2    1    2    0    0  0.00000000000E+00  0.00000000000E+00 -0.20153887348E+03  0.15103950478E+04  0.14968885339E+04 0.  0.
        1    1    3    3  502    0  0.49627584544E+03  0.38026879551E+03 -0.51591192176E+03  0.81059187180E+03  0.50400001928E-02 0. -1.
       -1    1    3    3    0  502 -0.49627584544E+03 -0.38026879551E+03  0.31437304827E+03  0.69980317598E+03  0.50400001928E-02 0.  1.
</event>
<event>
 5   0  0.1993623E-03  0.1507343E+04  0.7818609E-02  0.8879585E-01
        2   -1    0    0  501    0  0.00000000000E+00  0.00000000000E+00  0.12683820860E+04  0.12683820860E+04  0.25500000920E-02 0.  1.
       -2   -1    0    0    0  501  0.00000000000E+00  0.00000000000E+00 -0.44783088001E+03  0.44783088002E+03  0.25500000920E-02 0. -1.
    10030    2    1    2    0    0  0.00000000000E+00  0.00000000000E+00  0.82055120599E+03  0.17162129660E+04  0.15073429149E+04 0.  0.
        4    1    3    3  502    0  0.61987517266E+03 -0.20307211600E+03  0.84012932925E+03  0.10636270102E+04  0.12699999809E+01 0.  1.
       -4    1    3    3    0  502 -0.61987517266E+03  0.20307211600E+03 -0.19578123265E+02  0.65258595586E+03  0.12699999809E+01 0. -1.
</event>
<event>
 5   0  0.1993623E-03  0.1474819E+04  0.7818609E-02  0.8901373E-01
        2   -1    0    0  501    0  0.00000000000E+00  0.00000000000E+00  0.12833795615E+04  0.12833795615E+04  0.25500000920E-02 0.  1.
       -2   -1    0    0    0  501  0.00000000000E+00  0.00000000000E+00 -0.42370371481E+03  0.42370371482E+03  0.25500000920E-02 0. -1.
    10030    2    1    2    0    0  0.00000000000E+00  0.00000000000E+00  0.85967584674E+03  0.17070832764E+04  0.14748188875E+04 0.  0.
        4    1    3    3  502    0 -0.45441099546E+03  0.13556599980E+03  0.10834886005E+04  0.11827157957E+04  0.12699999809E+01 0.  1.
       -4    1    3    3    0  502  0.45441099546E+03 -0.13556599980E+03 -0.22381275379E+03  0.52436748064E+03  0.12699999809E+01 0. -1.
</event>
<event>
 5   0  0.7468375E-04  0.1648722E+04  0.7818609E-02  0.8791163E-01
        4   -1    0    0  501    0  0.00000000000E+00  0.00000000000E+00  0.47796864609E+03  0.47797033333E+03  0.12699999809E+01 0. -1.
       -4   -1    0    0    0  501  0.00000000000E+00  0.00000000000E+00 -0.14217854457E+04  0.14217860129E+04  0.12699999809E+01 0.  1.
    10030    2    1    2    0    0  0.00000000000E+00  0.00000000000E+00 -0.94381679958E+03  0.18997563462E+04  0.16487219365E+04 0.  0.
        3    1    3    3  502    0  0.31417221205E+03 -0.53592250647E+03 -0.10963162613E+04  0.12600898645E+04  0.10100000352E+00 0.  1.
       -3    1    3    3    0  502 -0.31417221205E+03  0.53592250647E+03  0.15249946169E+03  0.63966648168E+03  0.10100000352E+00 0. -1.
</event>
<event>
 5   0  0.2150197E-03  0.1486922E+04  0.7818609E-02  0.8893196E-01
        2   -1    0    0  501    0  0.00000000000E+00  0.00000000000E+00  0.77212756639E+03  0.77212756639E+03  0.25500000920E-02 0.  1.
       -2   -1    0    0    0  501  0.00000000000E+00  0.00000000000E+00 -0.71585887706E+03  0.71585887706E+03  0.25500000920E-02 0. -1.
    10030    2    1    2    0    0  0.00000000000E+00  0.00000000000E+00  0.56268689334E+02  0.14879864435E+04  0.14869221535E+04 0.  0.
        3    1    3    3  502    0 -0.80236227332E+02 -0.41535959359E+03  0.63994164969E+03  0.76712891314E+03  0.10100000352E+00 0.  1.
       -3    1    3    3    0  502  0.80236227332E+02  0.41535959359E+03 -0.58367296036E+03  0.72085753032E+03  0.10100000352E+00 0. -1.
</event>
<event>
 5   0  0.1993623E-03  0.1083787E+04  0.7818609E-02  0.9221140E-01
       -2   -1    0    0    0  501  0.00000000000E+00  0.00000000000E+00  0.13261794648E+03  0.13261794650E+03  0.25500000920E-02 0. -1.
        2   -1    0    0  501    0  0.00000000000E+00  0.00000000000E+00 -0.22142451463E+04  0.22142451463E+04  0.25500000920E-02 0.  1.
    10030    2    1    2    0    0  0.00000000000E+00  0.00000000000E+00 -0.20816271998E+04  0.23468630928E+04  0.10837871458E+04 0.  0.
        4    1    3    3  502    0  0.30038021512E+03 -0.37940886112E+03 -0.51275242812E+03  0.70505036910E+03  0.12699999809E+01 0. -1.
       -4    1    3    3    0  502 -0.30038021512E+03  0.37940886112E+03 -0.15688747717E+04  0.16418127237E+04  0.12699999809E+01 0.  1.
</event>
<event>
 5   0  0.1078787E-03  0.1501650E+04  0.7818609E-02  0.8883357E-01
       -1   -1    0    0    0  501  0.00000000000E+00  0.00000000000E+00  0.41867400869E+03  0.41867400872E+03  0.50400001928E-02 0. -1.
        1   -1    0    0  501    0  0.00000000000E+00  0.00000000000E+00 -0.13464842981E+04  0.13464842981E+04  0.50400001928E-02 0.  1.
    10030    2    1    2    0    0  0.00000000000E+00  0.00000000000E+00 -0.92781028936E+03  0.17651583068E+04  0.15016497311E+04 0.  0.
        5    1    3    3  502    0 -0.40565419670E+03 -0.17088456661E+03  0.25107146150E+03  0.50676999831E+03  0.46999998093E+01 0. -1.
       -5    1    3    3    0  502  0.40565419670E+03  0.17088456661E+03 -0.11788817509E+04  0.12583883085E+04  0.46999998093E+01 0.  1.
</event>
<event>
 5   0  0.1069697E-03  0.1076878E+04  0.7818609E-02  0.9228026E-01
        1   -1    0    0  501    0  0.00000000000E+00  0.00000000000E+00  0.30428891099E+03  0.30428891103E+03  0.50400001928E-02 0. -1.
       -1   -1    0    0    0  501  0.00000000000E+00  0.00000000000E+00 -0.95276738758E+03  0.95276738760E+03  0.50400001928E-02 0.  1.
    10030    2    1    2    0    0  0.00000000000E+00  0.00000000000E+00 -0.64847847659E+03  0.12570562986E+04  0.10768779891E+04 0.  0.
        2    1    3    3  502    0 -0.19193996617E+03 -0.38518490920E+03  0.53488211000E+02  0.43366963649E+03  0.25500000920E-02 0. -1.
       -2    1    3    3    0  502  0.19193996617E+03  0.38518490920E+03 -0.70196668759E+03  0.82338666214E+03  0.25500000920E-02 0.  1.
</event>
<event>
 5   0  0.1993623E-03  0.1484483E+04  0.7818609E-02  0.8894837E-01
       -2   -1    0    0    0  501  0.00000000000E+00  0.00000000000E+00  0.55695204024E+03  0.55695204025E+03  0.25500000920E-02 0. -1.
        2   -1    0    0  501    0  0.00000000000E+00  0.00000000000E+00 -0.98917424629E+03  0.98917424629E+03  0.25500000920E-02 0.  1.
    10030    2    1    2    0    0  0.00000000000E+00  0.00000000000E+00 -0.43222220605E+03  0.15461262865E+04  0.14844832295E+04 0.  0.
        4    1    3    3  502    0  0.29710423787E+03 -0.47267465078E+03 -0.72553152593E+03  0.91547248002E+03  0.12699999809E+01 0.  1.
       -4    1    3    3    0  502 -0.29710423787E+03  0.47267465078E+03  0.29330931989E+03  0.63065380652E+03  0.12699999809E+01 0. -1.
</event>
<event>
 5   0  0.2150197E-03  0.1452535E+04  0.7818609E-02  0.8916645E-01
        2   -1    0    0  501    0  0.00000000000E+00  0.00000000000E+00  0.12034813936E+04  0.12034813936E+04  0.25500000920E-02 0.  1.
       -2   -1    0    0    0  501  0.00000000000E+00  0.00000000000E+00 -0.43828190834E+03  0.43828190834E+03  0.25500000920E-02 0. -1.
    10030    2    1    2    0    0  0.00000000000E+00  0.00000000000E+00  0.76519948522E+03  0.16417633019E+04  0.14525345047E+04 0.  0.
        3    1    3    3  502    0 -0.15796865770E+03 -0.56176173613E+03  0.87128356748E+03  0.10486493266E+04  0.10100000352E+00 0.  1.
       -3    1    3    3    0  502  0.15796865770E+03  0.56176173613E+03 -0.10608408226E+03  0.59311397531E+03  0.10100000352E+00 0. -1.
</event>
<event>
 5   0  0.7468375E-04  0.1583080E+04  0.7818609E-02  0.8831010E-01
        3   -1    0    0  501    0  0.00000000000E+00  0.00000000000E+00  0.31578676359E+03  0.31578677974E+03  0.10100000352E+00 0. -1.
       -3   -1    0    0    0  501  0.00000000000E+00  0.00000000000E+00 -0.19840472591E+04  0.19840472617E+04  0.10100000352E+00 0.  1.
    10030    2    1    2    0    0  0.00000000000E+00  0.00000000000E+00 -0.16682604955E+04  0.22998340414E+04  0.15830803951E+04 0.  0.
        3    1    3    3  502    0  0.10990265613E+03  0.77081268409E+03 -0.62711804459E+03  0.99975388963E+03  0.10100000352E+00 0. -1.
       -3    1    3    3    0  502 -0.10990265613E+03 -0.77081268409E+03 -0.10411424509E+04  0.13000801518E+04  0.10100000352E+00 0.  1.
</event>
<event>
 5   0  0.1961098E-03  0.1537551E+04  0.7818609E-02  0.8859859E-01
        2   -1    0    0  501    0  0.00000000000E+00  0.00000000000E+00  0.14448517819E+04  0.14448517819E+04  0.25500000920E-02 0.  1.
       -2   -1    0    0    0  501  0.00000000000E+00  0.00000000000E+00 -0.40904935024E+03  0.40904935024E+03  0.25500000920E-02 0. -1.
    10030    2    1    2    0    0  0.00000000000E+00  0.00000000000E+00  0.10358024316E+04  0.18539011321E+04  0.15375508871E+04 0.  0.
        2    1    3    3  502    0 -0.31931473452E+03  0.94907939577E+02  0.13533091958E+04  0.13937055629E+04  0.25500000920E-02 0.  1.
       -2    1    3    3    0  502  0.31931473452E+03 -0.94907939577E+02 -0.31750676412E+03  0.46019556924E+03  0.25500000920E-02 0. -1.
</event>
<event>
 5   0  0.1993623E-03  0.1448605E+04  0.7818609E-02  0.8919368E-01
        2   -1    0    0  501    0  0.00000000000E+00  0.00000000000E+00  0.14553416073E+04  0.14553416073E+04  0.25500000920E-02 0. -1.
       -2   -1    0    0    0  501  0.00000000000E+00  0.00000000000E+00 -0.36047492021E+03  0.36047492022E+03  0.25500000920E-02 0.  1.
    10030    2    1    2    0    0  0.00000000000E+00  0.00000000000E+00  0.10948666871E+04  0.18158165275E+04  0.14486050528E+04 0.  0.
        4    1    3    3  502    0  0.13808771338E+03  0.25462281478E+03  0.13795786760E+04  0.14096595087E+04  0.12699999809E+01 0. -1.
       -4    1    3    3    0  502 -0.13808771338E+03 -0.25462281478E+03 -0.28471198890E+03  0.40615701879E+03  0.12699999809E+01 0.  1.
</event>
<event>
 5   0  0.1077140E-03  0.8108961E+03  0.7818609E-02  0.9544378E-01
       -1   -1    0    0    0  501  0.00000000000E+00  0.00000000000E+00  0.19494598028E+03  0.19494598034E+03  0.50400001928E-02 0.  1.
        1   -1    0    0  501    0  0.00000000000E+00  0.00000000000E+00 -0.84324966913E+03  0.84324966915E+03  0.50400001928E-02 0. -1.
    10030    2    1    2    0    0  0.00000000000E+00  0.00000000000E+00 -0.64830368885E+03  0.10381956495E+04  0.81089612999E+03 0.  0.
        1    1    3    3  502    0 -0.50155172577E+02 -0.28309513859E+03  0.41867485067E+02  0.29053620284E+03  0.50400001928E-02 0.  1.
       -1    1    3    3    0  502  0.50155172577E+02  0.28309513859E+03 -0.69017117392E+03  0.74765944665E+03  0.50400001928E-02 0. -1.
</event>
<event>
 5   0  0.1961098E-03  0.1468737E+04  0.7818609E-02  0.8905513E-01
       -2   -1    0    0    0  501  0.00000000000E+00  0.00000000000E+00  0.13315127528E+04  0.13315127528E+04  0.25500000920E-02 0. -1.
        2   -1    0    0  501    0  0.00000000000E+00  0.00000000000E+00 -0.40502565906E+03  0.40502565907E+03  0.25500000920E-02 0.  1.
    10030    2    1    2    0    0  0.00000000000E+00  0.00000000000E+00  0.92648709378E+03  0.17365384119E+04  0.14687366412E+04 0.  0.
        2    1    3    3  502    0 -0.28466813099E+03  0.11326022940E+03  0.12523428539E+04  0.12892736125E+04  0.25500000920E-02 0. -1.
       -2    1    3    3    0  502  0.28466813099E+03 -0.11326022940E+03 -0.32585576009E+03  0.44726479937E+03  0.25500000920E-02 0.  1.
</event>
<event>
 5   0  0.1078787E-03  0.1459389E+04  0.7818609E-02  0.8911917E-01
       -1   -1    0    0    0  501  0.00000000000E+00  0.00000000000E+00  0.13160843017E+04  0.13160843017E+04  0.50400001928E-02 0. -1.
        1   -1    0    0  501    0  0.00000000000E+00  0.00000000000E+00 -0.40457458932E+03  0.40457458935E+03  0.50400001928E-02 0.  1.
    10030    2    1    2    0    0  0.00000000000E+00  0.00000000000E+00  0.91150971236E+03  0.17206588910E+04  0.14593892776E+04 0.  0.
        5    1    3    3  502    0 -0.60222176576E+03  0.22375582303E+03  0.86366137220E+03  0.10764157093E+04  0.46999998093E+01 0. -1.
       -5    1    3    3    0  502  0.60222176576E+03 -0.22375582303E+03  0.47848340158E+02  0.64424318169E+03  0.46999998093E+01 0.  1.
</event>
<event>
 5   0  0.1087761E-03  0.1396826E+04  0.7818609E-02  0.8956120E-01
       -1   -1    0    0    0  501  0.00000000000E+00  0.00000000000E+00  0.30527044007E+03  0.30527044011E+03  0.50400001928E-02 0.  1.
        1   -1    0    0  501    0  0.00000000000E+00  0.00000000000E+00 -0.15978632966E+04  0.15978632966E+04  0.50400001928E-02 0. -1.
    10030    2    1    2    0    0  0.00000000000E+00  0.00000000000E+00 -0.12925928566E+04  0.19031337368E+04  0.13968255894E+04 0.  0.
        3    1    3    3  502    0  0.53800154637E+03 -0.10225787675E+03 -0.12368580047E+04  0.13526714572E+04  0.10100000352E+00 0. -1.
       -3    1    3    3    0  502 -0.53800154637E+03  0.10225787675E+03 -0.55734851873E+02  0.55046227951E+03  0.10100000352E+00 0.  1.
</event>
<event>
 5   0  0.7468375E-04  0.1504126E+04  0.7818609E-02  0.8881714E-01
       -4   -1    0    0    0  501  0.00000000000E+00  0.00000000000E+00  0.86853204976E+03  0.86853297828E+03  0.12699999809E+01 0.  1.
        4   -1    0    0  501    0  0.00000000000E+00  0.00000000000E+00 -0.65121023236E+03  0.65121147075E+03  0.12699999809E+01 0. -1.
    10030    2    1    2    0    0  0.00000000000E+00  0.00000000000E+00  0.21732181740E+03  0.15197444490E+04  0.15041257986E+04 0.  0.
        4    1    3    3  502    0 -0.62301156231E+03  0.34928087163E+03 -0.12927635760E+03  0.72584745201E+03  0.12699999809E+01 0. -1.
       -4    1    3    3    0  502  0.62301156231E+03 -0.34928087163E+03  0.34659817499E+03  0.79389699701E+03  0.12699999809E+01 0.  1.
</event>
<event>
 5   0  0.1078787E-03  0.1170305E+04  0.7818609E-02  0.9139253E-01
        1   -1    0    0  501    0  0.00000000000E+00  0.00000000000E+00  0.55221170947E+03  0.55221170949E+03  0.50400001928E-02 0.  1.
       -1   -1    0    0    0  501  0.00000000000E+00  0.00000000000E+00 -0.62005878869E+03  0.62005878871E+03  0.50400001928E-02 0. -1.
    10030    2    1    2    0    0  0.00000000000E+00  0.00000000000E+00 -0.67847079222E+02  0.11722704982E+04  0.11703054707E+04 0.  0.
        5    1    3    3  502    0 -0.15149737379E+03  0.28643217644E+03 -0.52196517323E+03  0.61438145971E+03  0.46999998093E+01 0. -1.
       -5    1    3    3    0  502  0.15149737379E+03 -0.28643217644E+03  0.45411809401E+03  0.55788903849E+03  0.46999998093E+01 0.  1.
</event>
<event>
 5   0  0.2150197E-03  0.1516173E+04  0.7818609E-02  0.8873768E-01
        2   -1    0    0  501    0  0.00000000000E+00  0.00000000000E+00  0.14263957001E+04  0.14263957001E+04  0.25500000920E-02 0. -1.
       -2   -1    0    0    0  501  0.00000000000E+00  0.00000000000E+00 -0.40290043089E+03  0.40290043090E+03  0.25500000920E-02 0.  1.
    10030    2    1    2    0    0  0.00000000000E+00  0.00000000000E+00  0.10234952692E+04  0.18292961310E+04  0.15161733967E+04 0.  0.
        3    1    3    3  502    0  0.40635949758E+02 -0.53095994796E+03 -0.13924399675E+03  0.55041679442E+03  0.10100000352E+00 0.  1.
       -3    1    3    3    0  502 -0.40635949758E+02  0.53095994796E+03  0.11627392660E+04  0.12788793366E+04  0.10100000352E+00 0. -1.
</event>
<event>
 5   0  0.1077140E-03  0.1308534E+04  0.7818609E-02  0.9022825E-01
        1   -1    0    0  501    0  0.00000000000E+00  0.00000000000E+00  0.80353934895E+03  0.80353934897E+03  0.50400001928E-02 0.  1.
       -1   -1    0    0    0  501  0.00000000000E+00  0.00000000000E+00 -0.53272473728E+03  0.53272473730E+03  0.50400001928E-02 0. -1.
    10030    2    1    2    0    0  0.00000000000E+00  0.00000000000E+00  0.27081461168E+03  0.13362640863E+04  0.13085339714E+04 0.  0.
        1    1    3    3  502    0  0.56781442641E+03  0.11431569138E+03  0.44613161939E+03  0.73110513743E+03  0.50400001928E-02 0.  1.
       -1    1    3    3    0  502 -0.56781442641E+03 -0.11431569138E+03 -0.17531700771E+03  0.60515894884E+03  0.50400001928E-02 0. -1.
</event>
<event>
 5   0  0.1078787E-03  0.1583408E+04  0.7818609E-02  0.8830807E-01
       -1   -1    0    0    0  501  0.00000000000E+00  0.00000000000E+00  0.99444731951E+03  0.99444731952E+03  0.50400001928E-02 0.  1.
        1   -1    0    0  501    0  0.00000000000E+00  0.00000000000E+00 -0.63029470339E+03  0.63029470341E+03  0.50400001928E-02 0. -1.
    10030    2    1    2    0    0  0.00000000000E+00  0.00000000000E+00  0.36415261612E+03  0.16247420229E+04  0.15834075638E+04 0.  0.
        5    1    3    3  502    0 -0.52186952013E+03 -0.18523000366E+03 -0.39848033747E+03  0.68225114118E+03  0.46999998093E+01 0. -1.
       -5    1    3    3    0  502  0.52186952013E+03  0.18523000366E+03  0.76263295358E+03  0.94249088175E+03  0.46999998093E+01 0.  1.
</event>
<event>
 5   0  0.2150197E-03  0.1511036E+04  0.7818609E-02  0.8877147E-01
       -2   -1    0    0    0  501  0.00000000000E+00  0.00000000000E+00  0.47737908514E+03  0.47737908515E+03  0.25500000920E-02 0. -1.
        2   -1    0    0  501    0  0.00000000000E+00  0.00000000000E+00 -0.11957117937E+04  0.11957117937E+04  0.25500000920E-02 0.  1.
    10030    2    1    2    0    0  0.00000000000E+00  0.00000000000E+00 -0.71833270854E+03  0.16730908788E+04  0.15110364683E+04 0.  0.
        3    1    3    3  502    0  0.16642311164E+03  0.72012623451E+03 -0.18575099008E+03  0.76209047117E+03  0.10100000352E+00 0. -1.
       -3    1    3    3    0  502 -0.16642311164E+03 -0.72012623451E+03 -0.53258171846E+03  0.91100040766E+03  0.10100000352E+00 0.  1.
</event>
<event>
 5   0  0.2111533E-03  0.1207329E+04  0.7818609E-02  0.9106465E-01
       -2   -1    0    0    0  501  0.00000000000E+00  0.00000000000E+00  0.28689076236E+03  0.28689076237E+03  0.25500000920E-02 0.  1.
        2   -1    0    0  501    0  0.00000000000E+00  0.00000000000E+00 -0.12702077959E+04  0.12702077959E+04  0.25500000920E-02 0. -1.
    10030    2    1    2    0    0  0.00000000000E+00  0.00000000000E+00 -0.98331703359E+03  0.15570985583E+04  0.12073290901E+04 0.  0.
        5    1    3    3  502    0  0.64280821781E+02 -0.32736992639E+03 -0.11404785359E+04  0.11882829939E+04  0.46999998093E+01 0. -1.
       -5    1    3    3    0  502 -0.64280821781E+02  0.32736992639E+03  0.15716150230E+03  0.36881556442E+03  0.46999998093E+01 0.  1.
</event>
<event>
 5   0  0.2111533E-03  0.1352149E+04  0.7818609E-02  0.8989203E-01
        2   -1    0    0  501    0  0.00000000000E+00  0.00000000000E+00  0.91019093179E+03  0.91019093179E+03  0.25500000920E-02 0.  1.
       -2   -1    0    0    0  501  0.00000000000E+00  0.00000000000E+00 -0.50217657742E+03  0.50217657742E+03  0.25500000920E-02 0. -1.
    10030    2    1    2    0    0  0.00000000000E+00  0.00000000000E+00  0.40801435437E+03  0.14123675092E+04  0.13521487595E+04 0.  0.
        5    1    3    3  502    0  0.29096288851E+03 -0.56736981638E+03  0.43870613427E+03  0.77398518931E+03  0.46999998093E+01 0. -1.
       -5    1    3    3    0  502 -0.29096288851E+03  0.56736981638E+03 -0.30691779900E+02  0.63838231991E+03  0.46999998093E+01 0.  1.
</event>
<event>
 5   0  0.1078018E-03  0.1462353E+04  0.7818609E-02  0.8909881E-01
        1   -1    0    0  501    0  0.00000000000E+00  0.00000000000E+00  0.15221970090E+04  0.15221970090E+04  0.50400001928E-02 0.  1.
       -1   -1    0    0    0  501  0.00000000000E+00  0.00000000000E+00 -0.35121541824E+03  0.35121541828E+03  0.50400001928E-02 0. -1.
    10030    2    1    2    0    0  0.00000000000E+00  0.00000000000E+00  0.11709815907E+04  0.18734124273E+04  0.14623529795E+04 0.  0.
        4    1    3    3  502    0 -0.47496605417E+03 -0.46342773033E+03  0.97880858760E+03  0.11825505815E+04  0.12699999809E+01 0.  1.
       -4    1    3    3    0  502  0.47496605417E+03  0.46342773033E+03  0.19217300315E+03  0.69086184573E+03  0.12699999809E+01 0. -1.
</event>
<event>
 5   0  0.7468375E-04  0.1357492E+04  0.7818609E-02  0.8985176E-01
       -3   -1    0    0    0  501  0.00000000000E+00  0.00000000000E+00  0.25161089509E+04  0.25161089529E+04  0.10100000352E+00 0.  1.
        3   -1    0    0  501    0  0.00000000000E+00  0.00000000000E+00 -0.18309874466E+03  0.18309877252E+03  0.10100000352E+00 0. -1.
    10030    2    1    2    0    0  0.00000000000E+00  0.00000000000E+00  0.23330102062E+04  0.26992077254E+04  0.13574924393E+04 0.  0.
        4    1    3    3  502    0  0.21699220413E+03 -0.51753319956E+03  0.40734939294E+03  0.69344168473E+03  0.12699999809E+01 0. -1.
       -4    1    3    3    0  502 -0.21699220413E+03  0.51753319956E+03  0.19256608133E+04  0.20057660407E+04  0.12699999809E+01 0.  1.
</event>
<event>
 5   0  0.1078018E-03  0.1382930E+04  0.7818609E-02  0.8966268E-01
        1   -1    0    0  501    0  0.00000000000E+00  0.00000000000E+00  0.11171213599E+04  0.11171213599E+04  0.50400001928E-02 0.  1.
       -1   -1    0    0    0  501  0.00000000000E+00  0.00000000000E+00 -0.42799630259E+03  0.42799630262E+03  0.50400001928E-02 0. -1.
    10030    2    1    2    0    0  0.00000000000E+00  0.00000000000E+00  0.68912505734E+03  0.15451176626E+04  0.13829299500E+04 0.  0.
        4    1    3    3  502    0  0.89481280520E+02  0.18028608197E+03 -0.39454240139E+03  0.44291679841E+03  0.12699999809E+01 0. -1.
       -4    1    3    3    0  502 -0.89481280520E+02 -0.18028608197E+03  0.10836674587E+04  0.11022008642E+04  0.12699999809E+01 0.  1.
</event>
<event>
 5   0  0.1087761E-03  0.1492842E+04  0.7818609E-02  0.8889227E-01
        1   -1    0    0  501    0  0.00000000000E+00  0.00000000000E+00  0.95255592004E+03  0.95255592006E+03  0.50400001928E-02 0.  1.
       -1   -1    0    0    0  501  0.00000000000E+00  0.00000000000E+00 -0.58489408186E+03  0.58489408188E+03  0.50400001928E-02 0. -1.
    10030    2    1    2    0    0  0.00000000000E+00  0.00000000000E+00  0.36766183819E+03  0.15374500019E+04  0.14928420148E+04 0.  0.
        3    1    3    3  502    0  0.43318700269E+03  0.43234521491E+02  0.80826865902E+03  0.91805143565E+03  0.10100000352E+00 0.  1.
       -3    1    3    3    0  502 -0.43318700269E+03 -0.43234521491E+02 -0.44060682083E+03  0.61939856628E+03  0.10100000352E+00 0. -1.
</event>
<event>
 5   0  0.1077140E-03  0.1479773E+04  0.7818609E-02  0.8898016E-01
        1   -1    0    0  501    0  0.00000000000E+00  0.00000000000E+00  0.11393438949E+04  0.11393438950E+04  0.50400001928E-02 0. -1.
       -1   -1    0    0    0  501  0.00000000000E+00  0.00000000000E+00 -0.48048028090E+03  0.48048028093E+03  0.50400001928E-02 0.  1.
    10030    2    1    2    0    0  0.00000000000E+00  0.00000000000E+00  0.65886361404E+03  0.16198241759E+04  0.14797733269E+04 0.  0.
        1    1    3    3  502    0  0.66162700710E+03 -0.33101412674E+03  0.34099706977E+03  0.81461625950E+03  0.50400001928E-02 0.  1.
       -1    1    3    3    0  502 -0.66162700710E+03  0.33101412674E+03  0.31786654427E+03  0.80520791639E+03  0.50400001928E-02 0. -1.
</event>
<event>
 5   0  0.2111533E-03  0.1480376E+04  0.7818609E-02  0.8897608E-01
       -2   -1    0    0    0  501  0.00000000000E+00  0.00000000000E+00  0.36443117862E+03  0.36443117863E+03  0.25500000920E-02 0.  1.
        2   -1    0    0  501    0  0.00000000000E+00  0.00000000000E+00 -0.15033802326E+04  0.15033802326E+04  0.25500000920E-02 0. -1.
    10030    2    1    2    0    0  0.00000000000E+00  0.00000000000E+00 -0.11389490540E+04  0.18678114112E+04  0.14803764793E+04 0.  0.
        5    1    3    3  502    0  0.61299674784E+03  0.15949367570E+03 -0.86296962760E+02  0.63927498092E+03  0.46999998093E+01 0.  1.
       -5    1    3    3    0  502 -0.61299674784E+03 -0.15949367570E+03 -0.10526520912E+04  0.12285364303E+04  0.46999998093E+01 0. -1.
</event>
<event>
 5   0  0.2111533E-03  0.1500356E+04  0.7818609E-02  0.8884216E-01
       -2   -1    0    0    0  501  0.00000000000E+00  0.00000000000E+00  0.19183005919E+03  0.19183005921E+03  0.25500000920E-02 0.  1.
        2   -1    0    0  501    0  0.00000000000E+00  0.00000000000E+00 -0.29336744107E+04  0.29336744107E+04  0.25500000920E-02 0. -1.
    10030    2    1    2    0    0  0.00000000000E+00  0.00000000000E+00 -0.27418443515E+04  0.31255044699E+04  0.15003558723E+04 0.  0.
        5    1    3    3  502    0 -0.56767429619E+03  0.31830167694E+02 -0.23903541995E+04  0.24570475281E+04  0.46999998093E+01 0. -1.
       -5    1    3    3    0  502  0.56767429619E+03 -0.31830167694E+02 -0.35149015198E+03  0.66845694182E+03  0.46999998093E+01 0.  1.
</event>
<event>
 5   0  0.7468375E-04  0.1246889E+04  0.7818609E-02  0.9072776E-01
       -4   -1    0    0    0  501  0.00000000000E+00  0.00000000000E+00  0.87366874159E+03  0.87366966465E+03  0.12699999809E+01 0. -1.
        4   -1    0    0  501    0  0.00000000000E+00  0.00000000000E+00 -0.44488403668E+03  0.44488584939E+03  0.12699999809E+01 0.  1.
    10030    2    1    2    0    0  0.00000000000E+00  0.00000000000E+00  0.42878470491E+03  0.13185555140E+04  0.12468890570E+04 0.  0.
        4    1    3    3  502    0  0.13072645035E+03  0.77945574414E+01 -0.43017501340E+03  0.44966911725E+03  0.12699999809E+01 0.  1.
       -4    1    3    3    0  502 -0.13072645035E+03 -0.77945574414E+01  0.85895971832E+03  0.86888639680E+03  0.12699999809E+01 0. -1.
</event>
<event>
 5   0  0.1077140E-03  0.1338289E+04  0.7818609E-02  0.8999741E-01
       -1   -1    0    0    0  501  0.00000000000E+00  0.00000000000E+00  0.51199690954E+03  0.51199690957E+03  0.50400001928E-02 0.  1.
        1   -1    0    0  501    0  0.00000000000E+00  0.00000000000E+00 -0.87452576494E+03  0.87452576495E+03  0.50400001928E-02 0. -1.
    10030    2    1    2    0    0  0.00000000000E+00  0.00000000000E+00 -0.36252885539E+03  0.13865226745E+04  0.13382891900E+04 0.  0.
        1    1    3    3  502    0 -0.60808223508E+03  0.43816924780E+02  0.10448496566E+03  0.61854752088E+03  0.50400001928E-02 0.  1.
       -1    1    3    3    0  502  0.60808223508E+03 -0.43816924780E+02 -0.46701382106E+03  0.76797515363E+03  0.50400001928E-02 0. -1.
</event>
<event>
 5   0  0.2094566E-03  0.1501789E+04  0.7818609E-02  0.8883264E-01
       -2   -1    0    0    0  501  0.00000000000E+00  0.00000000000E+00  0.28839478157E+03  0.28839478158E+03  0.25500000920E-02 0. -1.
        2   -1    0    0  501    0  0.00000000000E+00  0.00000000000E+00 -0.19551063961E+04  0.19551063961E+04  0.25500000920E-02 0.  1.
    10030    2    1    2    0    0  0.00000000000E+00  0.00000000000E+00 -0.16667116145E+04  0.22435011777E+04  0.15017889094E+04 0.  0.
        1    1    3    3  502    0  0.13825583873E+03  0.99045902470E+02  0.25924344556E+03  0.31005149868E+03  0.50400001928E-02 0. -1.
       -1    1    3    3    0  502 -0.13825583873E+03 -0.99045902470E+02 -0.19259550601E+04  0.19334496790E+04  0.50400001928E-02 0.  1.
</event>
<event>
 5   0  0.2094566E-03  0.1507108E+04  0.7818609E-02  0.8879740E-01
        2   -1    0    0  501    0  0.00000000000E+00  0.00000000000E+00  0.15812449541E+04  0.15812449541E+04  0.25500000920E-02 0. -1.
       -2   -1    0    0    0  501  0.00000000000E+00  0.00000000000E+00 -0.35911156121E+03  0.35911156122E+03  0.25500000920E-02 0.  1.
    10030    2    1    2    0    0  0.00000000000E+00  0.00000000000E+00  0.12221333928E+04  0.19403565153E+04  0.15071076194E+04 0.  0.
        1    1    3    3  502    0 -0.56588277148E+01 -0.25790599870E+03  0.15226246995E+04  0.15443229915E+04  0.50400001928E-02 0. -1.
       -1    1    3    3    0  502  0.56588277148E+01  0.25790599870E+03 -0.30049130670E+03  0.39603352374E+03  0.50400001928E-02 0.  1.
</event>
<event>
 5   0  0.1087761E-03  0.1482021E+04  0.7818609E-02  0.8896497E-01
       -1   -1    0    0    0  501  0.00000000000E+00  0.00000000000E+00  0.60246169842E+03  0.60246169844E+03  0.50400001928E-02 0.  1.
        1   -1    0    0  501    0  0.00000000000E+00  0.00000000000E+00 -0.91142164420E+03  0.91142164421E+03  0.50400001928E-02 0. -1.
    10030    2    1    2    0    0  0.00000000000E+00  0.00000000000E+00 -0.30895994578E+03  0.15138833426E+04  0.14820210953E+04 0.  0.
        3    1    3    3  502    0  0.66925435820E+03  0.23126269828E+03  0.68648725039E+02  0.71140458899E+03  0.10100000352E+00 0.  1.
       -3    1    3    3    0  502 -0.66925435820E+03 -0.23126269828E+03 -0.37760867082E+03  0.80247875365E+03  0.10100000352E+00 0. -1.
</event>
<event>
 5   0  0.1993623E-03  0.1471145E+04  0.7818609E-02  0.8903871E-01
        2   -1    0    0  501    0  0.00000000000E+00  0.00000000000E+00  0.14273925194E+04  0.14273925194E+04  0.25500000920E-02 0.  1.
       -2   -1    0    0    0  501  0.00000000000E+00  0.00000000000E+00 -0.37905939308E+03  0.37905939309E+03  0.25500000920E-02 0. -1.
    10030    2    1    2    0    0  0.00000000000E+00  0.00000000000E+00  0.10483331264E+04  0.18064519125E+04  0.14711445097E+04 0.  0.
        4    1    3    3  502    0  0.28448291737E+03 -0.67698484627E+03  0.57663662407E+03  0.93367575822E+03  0.12699999809E+01 0. -1.
       -4    1    3    3    0  502 -0.28448291737E+03  0.67698484627E+03  0.47169650229E+03  0.87277615431E+03  0.12699999809E+01 0.  1.
</event>
<event>
 5   0  0.1069697E-03  0.1549099E+04  0.7818609E-02  0.8852444E-01
        1   -1    0    0  501    0  0.00000000000E+00  0.00000000000E+00  0.20451865971E+04  0.20451865971E+04  0.50400001928E-02 0.  1.
       -1   -1    0    0    0  501  0.00000000000E+00  0.00000000000E+00 -0.29333587007E+03  0.29333587011E+03  0.50400001928E-02 0. -1.
    10030    2    1    2    0    0  0.00000000000E+00  0.00000000000E+00  0.17518507270E+04  0.23385224672E+04  0.15490985636E+04 0.  0.
        2    1    3    3  502    0 -0.23271839499E+03 -0.38977022500E+03  0.18233109394E+04  0.18789735127E+04  0.25500000920E-02 0.  1.
       -2    1    3    3    0  502  0.23271839499E+03  0.38977022500E+03 -0.71460212354E+02  0.45954895454E+03  0.25500000920E-02 0. -1.
</event>
<event>
 5   0  0.1961098E-03  0.1499762E+04  0.7818609E-02  0.8884611E-01
        2   -1    0    0  501    0  0.00000000000E+00  0.00000000000E+00  0.20236248782E+04  0.20236248782E+04  0.25500000920E-02 0.  1.
       -2   -1    0    0    0  501  0.00000000000E+00  0.00000000000E+00 -0.27787822013E+03  0.27787822014E+03  0.25500000920E-02 0. -1.
    10030    2    1    2    0    0  0.00000000000E+00  0.00000000000E+00  0.17457466581E+04  0.23015030984E+04  0.14997616869E+04 0.  0.
        2    1    3    3  502    0 -0.15352729769E+03  0.40475490686E+03  0.18125122462E+04  0.18634907589E+04  0.25500000920E-02 0.  1.
       -2    1    3    3    0  502  0.15352729769E+03 -0.40475490686E+03 -0.66765588135E+02  0.43801233947E+03  0.25500000920E-02 0. -1.
</event>
<event>
 5   0  0.1077140E-03  0.1459960E+04  0.7818609E-02  0.8911525E-01
        1   -1    0    0  501    0  0.00000000000E+00  0.00000000000E+00  0.78180132780E+03  0.78180132782E+03  0.50400001928E-02 0.  1.
       -1   -1    0    0    0  501  0.00000000000E+00  0.00000000000E+00 -0.68159341803E+03  0.68159341805E+03  0.50400001928E-02 0. -1.
    10030    2    1    2    0    0  0.00000000000E+00  0.00000000000E+00  0.10020790977E+03  0.14633947459E+04  0.14599597793E+04 0.  0.
        1    1    3    3  502    0  0.18226328288E+03 -0.35186006327E+03 -0.56440062189E+03  0.68961835129E+03  0.50400001928E-02 0. -1.
       -1    1    3    3    0  502 -0.18226328288E+03  0.35186006327E+03  0.66460853166E+03  0.77377639457E+03  0.50400001928E-02 0.  1.
</event>
<event>
 5   0  0.1961098E-03  0.1518992E+04  0.7818609E-02  0.8871920E-01
        2   -1    0    0  501    0  0.00000000000E+00  0.00000000000E+00  0.10762868066E+04  0.10762868066E+04  0.25500000920E-02 0. -1.
       -2   -1    0    0    0  501  0.00000000000E+00  0.00000000000E+00 -0.53594869015E+03  0.53594869016E+03  0.25500000920E-02 0.  1.
    10030    2    1    2    0    0  0.00000000000E+00  0.00000000000E+00  0.54033811649E+03  0.16122354968E+04  0.15189924348E+04 0.  0.
        2    1    3    3  502    0  0.51830353601E+03 -0.22544980623E+03 -0.26828719300E+03  0.62565500758E+03  0.25500000920E-02 0.  1.
       -2    1    3    3    0  502 -0.51830353601E+03  0.22544980623E+03  0.80862530949E+03  0.98658048923E+03  0.25500000920E-02 0. -1.
</event>
<event>
 5   0  0.2111533E-03  0.1512026E+04  0.7818609E-02  0.8876495E-01
       -2   -1    0    0    0  501  0.00000000000E+00  0.00000000000E+00  0.54539267513E+03  0.54539267513E+03  0.25500000920E-02 0. -1.
        2   -1    0    0  501    0  0.00000000000E+00  0.00000000000E+00 -0.10479703087E+04  0.10479703087E+04  0.25500000920E-02 0.  1.
    10030    2    1    2    0    0  0.00000000000E+00  0.00000000000E+00 -0.50257763356E+03  0.15933629838E+04  0.15120255687E+04 0.  0.
        5    1    3    3  502    0  0.14943011492E+03 -0.14963738242E+03  0.51357415802E+03  0.55542885345E+03  0.46999998093E+01 0. -1.
       -5    1    3    3    0  502 -0.14943011492E+03  0.14963738242E+03 -0.10161517916E+04  0.10379341304E+04  0.46999998093E+01 0.  1.
</event>
<event>
 5   0  0.2111533E-03  0.1498532E+04  0.7818609E-02  0.8885430E-01
        2   -1    0    0  501    0  0.00000000000E+00  0.00000000000E+00  0.16150230008E+04  0.16150230008E+04  0.25500000920E-02 0. -1.
       -2   -1    0    0    0  501  0.00000000000E+00  0.00000000000E+00 -0.34761071700E+03  0.34761071700E+03  0.25500000920E-02 0.  1.
    10030    2    1    2    0    0  0.00000000000E+00  0.00000000000E+00  0.12674122838E+04  0.19626337178E+04  0.14985316857E+04 0.  0.
        5    1    3    3  502    0  0.65733046739E+02  0.72932602484E+03  0.84136733828E+03  0.11154184739E+04  0.46999998093E+01 0. -1.
       -5    1    3    3    0  502 -0.65733046739E+02 -0.72932602484E+03  0.42604494552E+03  0.84721524393E+03  0.46999998093E+01 0.  1.
</event>
<event>
 5   0  0.7468375E-04  0.1487654E+04  0.7818609E-02  0.8892705E-01
       -4   -1    0    0    0  501  0.00000000000E+00  0.00000000000E+00  0.56213022848E+03  0.56213166311E+03  0.12699999809E+01 0. -1.
        4   -1    0    0  501    0  0.00000000000E+00  0.00000000000E+00 -0.98424991314E+03  0.98425073250E+03  0.12699999809E+01 0.  1.
    10030    2    1    2    0    0  0.00000000000E+00  0.00000000000E+00 -0.42211968466E+03  0.15463823956E+04  0.14876536846E+04 0.  0.
        5    1    3    3  502    0  0.21193862804E+03 -0.49223215162E+03 -0.74721842813E+03  0.91954768363E+03  0.46999998093E+01 0.  1.
       -5    1    3    3    0  502 -0.21193862804E+03  0.49223215162E+03  0.32509874347E+03  0.62683471198E+03  0.46999998093E+01 0. -1.
</event>
<event>
 5   0  0.1087761E-03  0.1514919E+04  0.7818609E-02  0.8874592E-01
       -1   -1    0    0    0  501  0.00000000000E+00  0.00000000000E+00  0.47304034679E+03  0.47304034681E+03  0.50400001928E-02 0. -1.
        1   -1    0    0  501    0  0.00000000000E+00  0.00000000000E+00 -0.12128883226E+04  0.12128883227E+04  0.50400001928E-02 0.  1.
    10030    2    1    2    0    0  0.00000000000E+00  0.00000000000E+00 -0.73984797586E+03  0.16859286695E+04  0.15149192887E+04 0.  0.
        3    1    3    3  502    0 -0.66372268695E+03 -0.35472390981E+03 -0.27426619602E+03  0.80098615084E+03  0.10100000352E+00 0.  1.
       -3    1    3    3    0  502  0.66372268695E+03  0.35472390981E+03 -0.46558177985E+03  0.88494251863E+03  0.10100000352E+00 0. -1.
</event>
<event>
 5   0  0.1087761E-03  0.1498892E+04  0.7818609E-02  0.8885190E-01
       -1   -1    0    0    0  501  0.00000000000E+00  0.00000000000E+00  0.44222444717E+03  0.44222444720E+03  0.50400001928E-02 0.  1.
        1   -1    0    0  501    0  0.00000000000E+00  0.00000000000E+00 -0.12700998980E+04  0.12700998980E+04  0.50400001928E-02 0. -1.
    10030    2    1    2    0    0  0.00000000000E+00  0.00000000000E+00 -0.82787545081E+03  0.17123243452E+04  0.14988918911E+04 0.  0.
        3    1    3    3  502    0  0.12443549457E+03 -0.20058528250E+03 -0.12265245285E+04  0.12490320560E+04  0.10100000352E+00 0. -1.
       -3    1    3    3    0  502 -0.12443549457E+03  0.20058528250E+03  0.39864907766E+03  0.46329228915E+03  0.10100000352E+00 0.  1.
</event>
<event>
 5   0  0.1078787E-03  0.1505739E+04  0.7818609E-02  0.8880646E-01
       -1   -1    0    0    0  501  0.00000000000E+00  0.00000000000E+00  0.79738680606E+03  0.79738680608E+03  0.50400001928E-02 0.  1.
        1   -1    0    0  501    0  0.00000000000E+00  0.00000000000E+00 -0.71083724755E+03  0.71083724756E+03  0.50400001928E-02 0. -1.
    10030    2    1    2    0    0  0.00000000000E+00  0.00000000000E+00  0.86549558514E+02  0.15082240536E+04  0.15057386792E+04 0.  0.
        5    1    3    3  502    0  0.37844530549E+03  0.28740884780E+03  0.62816107809E+03  0.78767577408E+03  0.46999998093E+01 0.  1.
       -5    1    3    3    0  502 -0.37844530549E+03 -0.28740884780E+03 -0.54161151958E+03  0.72054827956E+03  0.46999998093E+01 0. -1.
</event>
<event>
 5   0  0.2094566E-03  0.1473835E+04  0.7818609E-02  0.8902041E-01
       -2   -1    0    0    0  501  0.00000000000E+00  0.00000000000E+00  0.86569652413E+03  0.86569652413E+03  0.25500000920E-02 0. -1.
        2   -1    0    0  501    0  0.00000000000E+00  0.00000000000E+00 -0.62729498236E+03  0.62729498237E+03  0.25500000920E-02 0.  1.
    10030    2    1    2    0    0  0.00000000000E+00  0.00000000000E+00  0.23840154177E+03  0.14929915065E+04  0.14738345712E+04 0.  0.
        1    1    3    3  502    0 -0.68809739964E+03 -0.17621463046E+03  0.31801039717E+03  0.77824176200E+03  0.50400001928E-02 0. -1.
       -1    1    3    3    0  502  0.68809739964E+03  0.17621463046E+03 -0.79608855402E+02  0.71474974450E+03  0.50400001928E-02 0.  1.
</event>
<event>
 5   0  0.1078787E-03  0.1604687E+04  0.7818609E-02  0.8817674E-01
       -1   -1    0    0    0  501  0.00000000000E+00  0.00000000000E+00  0.10102383522E+04  0.10102383522E+04  0.50400001928E-02 0.  1.
        1   -1    0    0  501    0  0.00000000000E+00  0.00000000000E+00 -0.63723092923E+03  0.63723092925E+03  0.50400001928E-02 0. -1.
    10030    2    1    2    0    0  0.00000000000E+00  0.00000000000E+00  0.37300742301E+03  0.16474692815E+04  0.16046870398E+04 0.  0.
        5    1    3    3  502    0 -0.47185640107E+03  0.24760985404E+03 -0.42929932510E+03  0.68430921634E+03  0.46999998093E+01 0. -1.
       -5    1    3    3    0  502  0.47185640107E+03 -0.24760985404E+03  0.80230674811E+03  0.96316006515E+03  0.46999998093E+01 0.  1.
</event>
<event>
 5   0  0.2094566E-03  0.1528845E+04  0.7818609E-02  0.8865495E-01
        2   -1    0    0  501    0  0.00000000000E+00  0.00000000000E+00  0.18234817137E+04  0.18234817137E+04  0.25500000920E-02 0. -1.
       -2   -1    0    0    0  501  0.00000000000E+00  0.00000000000E+00 -0.32045371600E+03  0.32045371601E+03  0.25500000920E-02 0.  1.
    10030    2    1    2    0    0  0.00000000000E+00  0.00000000000E+00  0.15030279977E+04  0.21439354297E+04  0.15288446503E+04 0.  0.
        1    1    3    3  502    0  0.17582578504E+03  0.45334457826E+03  0.15786539098E+04  0.16518426621E+04  0.50400001928E-02 0. -1.
       -1    1    3    3    0  502 -0.17582578504E+03 -0.45334457826E+03 -0.75625912114E+02  0.49209276761E+03  0.50400001928E-02 0.  1.
</event>
<event>
 5   0  0.2150197E-03  0.1563709E+04  0.7818609E-02  0.8843159E-01
        2   -1    0    0  501    0  0.00000000000E+00  0.00000000000E+00  0.10122850521E+04  0.10122850521E+04  0.25500000920E-02 0. -1.
       -2   -1    0    0    0  501  0.00000000000E+00  0.00000000000E+00 -0.60387741332E+03  0.60387741333E+03  0.25500000920E-02 0.  1.
    10030    2    1    2    0    0  0.00000000000E+00  0.00000000000E+00  0.40840763875E+03  0.16161624654E+04  0.15637085135E+04 0.  0.
        3    1    3    3  502    0 -0.33407324633E+03 -0.27224113597E+03  0.87844880924E+03  0.97846435330E+03  0.10100000352E+00 0. -1.
       -3    1    3    3    0  502  0.33407324633E+03  0.27224113597E+03 -0.47004117049E+03  0.63769811210E+03  0.10100000352E+00 0.  1.
</event>
<event>
 5   0  0.1961098E-03  0.1582215E+04  0.7818609E-02  0.8831549E-01
       -2   -1    0    0    0  501  0.00000000000E+00  0.00000000000E+00  0.50916561152E+03  0.50916561152E+03  0.25500000920E-02 0.  1.
        2   -1    0    0  501    0  0.00000000000E+00  0.00000000000E+00 -0.12291697609E+04  0.12291697609E+04  0.25500000920E-02 0. -1.
    10030    2    1    2    0    0  0.00000000000E+00  0.00000000000E+00 -0.72000414936E+03  0.17383353724E+04  0.15822148690E+04 0.  0.
        2    1    3    3  502    0 -0.44241420901E+03 -0.11597726490E+03 -0.10691946460E+04  0.11629093900E+04  0.25500000920E-02 0. -1.
       -2    1    3    3    0  502  0.44241420901E+03  0.11597726490E+03  0.34919049662E+03  0.57542598242E+03  0.25500000920E-02 0.  1.
</event>
<event>
 5   0  0.1069697E-03  0.1484948E+04  0.7818609E-02  0.8894524E-01
       -1   -1    0    0    0  501  0.00000000000E+00  0.00000000000E+00  0.52807862370E+03  0.52807862372E+03  0.50400001928E-02 0. -1.
        1   -1    0    0  501    0  0.00000000000E+00  0.00000000000E+00 -0.10439123832E+04  0.10439123832E+04  0.50400001928E-02 0.  1.
    10030    2    1    2    0    0  0.00000000000E+00  0.00000000000E+00 -0.51583375950E+03  0.15719910069E+04  0.14849482343E+04 0.  0.
        2    1    3    3  502    0 -0.69139238730E+03  0.93126042169E+02  0.11088272744E+02  0.69772404484E+03  0.25500000920E-02 0. -1.
       -2    1    3    3    0  502  0.69139238730E+03 -0.93126042169E+02 -0.52692203224E+03  0.87426696210E+03  0.25500000920E-02 0.  1.
</event>
<event>
 5   0  0.2111533E-03  0.1517635E+04  0.7818609E-02  0.8872810E-01
       -2   -1    0    0    0  501  0.00000000000E+00  0.00000000000E+00  0.25708668173E+03  0.25708668174E+03  0.25500000920E-02 0.  1.
        2   -1    0    0  501    0  0.00000000000E+00  0.00000000000E+00 -0.22397278213E+04  0.22397278213E+04  0.25500000920E-02 0. -1.
    10030    2    1    2    0    0  0.00000000000E+00  0.00000000000E+00 -0.19826411396E+04  0.24968145030E+04  0.15176352573E+04 0.  0.
        5    1    3    3  502    0  0.45216869276E+03  0.42213472732E+03 -0.26831553355E+03  0.67429190287E+03  0.46999998093E+01 0.  1.
       -5    1    3    3    0  502 -0.45216869276E+03 -0.42213472732E+03 -0.17143256060E+04  0.18225226002E+04  0.46999998093E+01 0. -1.
</event>
<event>
 5   0  0.7468375E-04  0.1514951E+04  0.7818609E-02  0.8874571E-01
       -3   -1    0    0    0  501  0.00000000000E+00  0.00000000000E+00  0.10615052526E+04  0.10615052574E+04  0.10100000352E+00 0.  1.
        3   -1    0    0  501    0  0.00000000000E+00  0.00000000000E+00 -0.54052410085E+03  0.54052411028E+03  0.10100000352E+00 0. -1.
    10030    2    1    2    0    0  0.00000000000E+00  0.00000000000E+00  0.52098115179E+03  0.16020293677E+04  0.15149510667E+04 0.  0.
        5    1    3    3  502    0 -0.61667203736E+03  0.35414889378E+03  0.53633106817E+03  0.89071821881E+03  0.46999998093E+01 0.  1.
       -5    1    3    3    0  502  0.61667203736E+03 -0.35414889378E+03 -0.15349916386E+02  0.71131114891E+03  0.46999998093E+01 0. -1.
</event>
<event>
 5   0  0.2111533E-03  0.1475284E+04  0.7818609E-02  0.8901057E-01
       -2   -1    0    0    0  501  0.00000000000E+00  0.00000000000E+00  0.32126040969E+03  0.32126040970E+03  0.25500000920E-02 0. -1.
        2   -1    0    0  501    0  0.00000000000E+00  0.00000000000E+00 -0.16936908892E+04  0.16936908892E+04  0.25500000920E-02 0.  1.
    10030    2    1    2    0    0  0.00000000000E+00  0.00000000000E+00 -0.13724304796E+04  0.20149512989E+04  0.14752841475E+04 0.  0.
        5    1    3    3  502    0 -0.27051777233E+03  0.61904332800E+03 -0.10906856661E+04  0.12829699215E+04  0.46999998093E+01 0.  1.
       -5    1    3    3    0  502  0.27051777233E+03 -0.61904332800E+03 -0.28174481344E+03  0.73198137749E+03  0.46999998093E+01 0. -1.
</event>
<event>
 5   0  0.2094566E-03  0.1503706E+04  0.7818609E-02  0.8881992E-01
        2   -1    0    0  501    0  0.00000000000E+00  0.00000000000E+00  0.11847543500E+04  0.11847543500E+04  0.25500000920E-02 0. -1.
       -2   -1    0    0    0  501  0.00000000000E+00  0.00000000000E+00 -0.47713098413E+03  0.47713098414E+03  0.25500000920E-02 0.  1.
    10030    2    1    2    0    0  0.00000000000E+00  0.00000000000E+00  0.70762336585E+03  0.16618853341E+04  0.15037061002E+04 0.  0.
        1    1    3    3  502    0 -0.18760030664E+03 -0.62675278541E+03  0.76328540566E+03  0.10052947526E+04  0.50400001928E-02 0.  1.
       -1    1    3    3    0  502  0.18760030664E+03  0.62675278541E+03 -0.55662039808E+02  0.65659058154E+03  0.50400001928E-02 0. -1.
</event>
<event>
 5   0  0.1993623E-03  0.1504106E+04  0.7818609E-02  0.8881727E-01
        2   -1    0    0  501    0  0.00000000000E+00  0.00000000000E+00  0.16695105849E+04  0.16695105849E+04  0.25500000920E-02 0. -1.
       -2   -1    0    0    0  501  0.00000000000E+00  0.00000000000E+00 -0.33877205412E+03  0.33877205413E+03  0.25500000920E-02 0.  1.
    10030    2    1    2    0    0  0.00000000000E+00  0.00000000000E+00  0.13307385308E+04  0.20082826391E+04  0.15041057546E+04 0.  0.
        4    1    3    3  502    0  0.67669310774E+03  0.31785413844E+03  0.77414592187E+03  0.10762194649E+04  0.12699999809E+01 0.  1.
       -4    1    3    3    0  502 -0.67669310774E+03 -0.31785413844E+03  0.55659260894E+03  0.93206317415E+03  0.12699999809E+01 0. -1.
</event>
<event>
 5   0  0.1069697E-03  0.1525831E+04  0.7818609E-02  0.8867455E-01
        1   -1    0    0  501    0  0.00000000000E+00  0.00000000000E+00  0.89569768940E+03  0.89569768941E+03  0.50400001928E-02 0.  1.
       -1   -1    0    0    0  501  0.00000000000E+00  0.00000000000E+00 -0.64981737430E+03  0.64981737432E+03  0.50400001928E-02 0. -1.
    10030    2    1    2    0    0  0.00000000000E+00  0.00000000000E+00  0.24588031510E+03  0.15455150637E+04  0.15258308172E+04 0.  0.
        2    1    3    3  502    0  0.13149871629E+03 -0.15140657375E+03 -0.62264285162E+03  0.65414064515E+03  0.25500000920E-02 0. -1.
       -2    1    3    3    0  502 -0.13149871629E+03  0.15140657375E+03  0.86852316672E+03  0.89137441858E+03  0.25500000920E-02 0.  1.
</event>
<event>
 5   0  0.1069697E-03  0.1497588E+04  0.7818609E-02  0.8886059E-01
        1   -1    0    0  501    0  0.00000000000E+00  0.00000000000E+00  0.12022486507E+04  0.12022486507E+04  0.50400001928E-02 0.  1.
       -1   -1    0    0    0  501  0.00000000000E+00  0.00000000000E+00 -0.46636974466E+03  0.46636974469E+03  0.50400001928E-02 0. -1.
    10030    2    1    2    0    0  0.00000000000E+00  0.00000000000E+00  0.73587890600E+03  0.16686183954E+04  0.14975879223E+04 0.  0.
        2    1    3    3  502    0 -0.40796640483E+03 -0.21582568273E+03  0.10249184442E+04  0.11240440961E+04  0.25500000920E-02 0.  1.
       -2    1    3    3    0  502  0.40796640483E+03  0.21582568273E+03 -0.28903953816E+03  0.54457429927E+03  0.25500000920E-02 0. -1.
</event>
<event>
 5   0  0.2111533E-03  0.1450683E+04  0.7818609E-02  0.8917927E-01
        2   -1    0    0  501    0  0.00000000000E+00  0.00000000000E+00  0.20989122131E+04  0.20989122131E+04  0.25500000920E-02 0.  1.
       -2   -1    0    0    0  501  0.00000000000E+00  0.00000000000E+00 -0.25066340747E+03  0.25066340748E+03  0.25500000920E-02 0. -1.
    10030    2    1    2    0    0  0.00000000000E+00  0.00000000000E+00  0.18482488056E+04  0.23495756206E+04  0.14506832698E+04 0.  0.
        5    1    3    3  502    0  0.12228328235E+03 -0.47793637232E+03  0.62939034535E+02  0.49735278143E+03  0.46999998093E+01 0. -1.
       -5    1    3    3    0  502 -0.12228328235E+03  0.47793637232E+03  0.17853097711E+04  0.18522228391E+04  0.46999998093E+01 0.  1.
</event>
<event>
 5   0  0.2150197E-03  0.1475997E+04  0.7818609E-02  0.8900573E-01
       -2   -1    0    0    0  501  0.00000000000E+00  0.00000000000E+00  0.60192109527E+03  0.60192109527E+03  0.25500000920E-02 0.  1.
        2   -1    0    0  501    0  0.00000000000E+00  0.00000000000E+00 -0.90483915366E+03  0.90483915367E+03  0.25500000920E-02 0. -1.
    10030    2    1    2    0    0  0.00000000000E+00  0.00000000000E+00 -0.30291805840E+03  0.15067602489E+04  0.14759969843E+04 0.  0.
        3    1    3    3  502    0  0.49652637508E+03 -0.55581155099E+02 -0.70593156561E+03  0.86485090709E+03  0.10100000352E+00 0. -1.
       -3    1    3    3    0  502 -0.49652637508E+03  0.55581155099E+02  0.40301350722E+03  0.64190934185E+03  0.10100000352E+00 0.  1.
</event>
<event>
 5   0  0.1069697E-03  0.1566821E+04  0.7818609E-02  0.8841194E-01
        1   -1    0    0  501    0  0.00000000000E+00  0.00000000000E+00  0.17363266147E+04  0.17363266147E+04  0.50400001928E-02 0.  1.
       -1   -1    0    0    0  501  0.00000000000E+00  0.00000000000E+00 -0.35346583922E+03  0.35346583926E+03  0.50400001928E-02 0. -1.
    10030    2    1    2    0    0  0.00000000000E+00  0.00000000000E+00  0.13828607755E+04  0.20897924540E+04  0.15668211692E+04 0.  0.
        2    1    3    3  502    0  0.35871179304E+03  0.68459435538E+03  0.52068296681E+03  0.93190897292E+03  0.25500000920E-02 0. -1.
       -2    1    3    3    0  502 -0.35871179304E+03 -0.68459435538E+03  0.86217780868E+03  0.11578834810E+04  0.25500000920E-02 0.  1.
</event>
<event>
 5   0  0.1993623E-03  0.1501431E+04  0.7818609E-02  0.8883502E-01
        2   -1    0    0  501    0  0.00000000000E+00  0.00000000000E+00  0.14247202102E+04  0.14247202102E+04  0.25500000920E-02 0. -1.
       -2   -1    0    0    0  501  0.00000000000E+00  0.00000000000E+00 -0.39556799888E+03  0.39556799889E+03  0.25500000920E-02 0.  1.
    10030    2    1    2    0    0  0.00000000000E+00  0.00000000000E+00  0.10291522113E+04  0.18202882091E+04  0.15014309475E+04 0.  0.
        4    1    3    3  502    0  0.26893357658E+03  0.38952581513E+03 -0.19184753190E+03  0.51074721503E+03  0.12699999809E+01 0.  1.
       -4    1    3    3    0  502 -0.26893357658E+03 -0.38952581513E+03  0.12209997432E+04  0.13095409941E+04  0.12699999809E+01 0. -1.
</event>
<event>
 5   0  0.1078018E-03  0.1446414E+04  0.7818609E-02  0.8920890E-01
        1   -1    0    0  501    0  0.00000000000E+00  0.00000000000E+00  0.14616348391E+04  0.14616348391E+04  0.50400001928E-02 0. -1.
       -1   -1    0    0    0  501  0.00000000000E+00  0.00000000000E+00 -0.35783802883E+03  0.35783802886E+03  0.50400001928E-02 0.  1.
    10030    2    1    2    0    0  0.00000000000E+00  0.00000000000E+00  0.11037968103E+04  0.18194728680E+04  0.14464142280E+04 0.  0.
        4    1    3    3  502    0 -0.10834998545E+03  0.29782463680E+03 -0.26583420275E+03  0.41365283739E+03  0.12699999809E+01 0.  1.
       -4    1    3    3    0  502  0.10834998545E+03 -0.29782463680E+03  0.13696310131E+04  0.14058200306E+04  0.12699999809E+01 0. -1.
</event>
<event>
 5   0  0.1087761E-03  0.1515735E+04  0.7818609E-02  0.8874056E-01
       -1   -1    0    0    0  501  0.00000000000E+00  0.00000000000E+00  0.76601280426E+03  0.76601280428E+03  0.50400001928E-02 0.  1.
        1   -1    0    0  501    0  0.00000000000E+00  0.00000000000E+00 -0.74980871161E+03  0.74980871163E+03  0.50400001928E-02 0. -1.
    10030    2    1    2    0    0  0.00000000000E+00  0.00000000000E+00  0.16204092651E+02  0.15158215159E+04  0.15157349028E+04 0.  0.
        3    1    3    3  502    0  0.20504384295E+03  0.15326918621E+03  0.72146506472E+03  0.76553659010E+03  0.10100000352E+00 0.  1.
       -3    1    3    3    0  502 -0.20504384295E+03 -0.15326918621E+03 -0.70526097206E+03  0.75028492581E+03  0.10100000352E+00 0. -1.
</event>
<event>
 5   0  0.2094566E-03  0.1442840E+04  0.7818609E-02  0.8923380E-01
       -2   -1    0    0    0  501  0.00000000000E+00  0.00000000000E+00  0.37642750487E+03  0.37642750487E+03  0.25500000920E-02 0. -1.
        2   -1    0    0  501    0  0.00000000000E+00  0.00000000000E+00 -0.13825945044E+04  0.13825945044E+04  0.25500000920E-02 0.  1.
    10030    2    1    2    0    0  0.00000000000E+00  0.00000000000E+00 -0.10061669995E+04  0.17590220093E+04  0.14428396994E+04 0.  0.
        1    1    3    3  502    0  0.90078860276E+02 -0.44313184552E+03 -0.11883724910E+04  0.12714988050E+04  0.50400001928E-02 0.  1.
       -1    1    3    3    0  502 -0.90078860276E+02  0.44313184552E+03  0.18220549149E+03  0.48752320431E+03  0.50400001928E-02 0. -1.
</event>
<event>
 5   0  0.1069697E-03  0.1443380E+04  0.7818609E-02  0.8923003E-01
       -1   -1    0    0    0  501  0.00000000000E+00  0.00000000000E+00  0.58553652212E+03  0.58553652214E+03  0.50400001928E-02 0. -1.
        1   -1    0    0  501    0  0.00000000000E+00  0.00000000000E+00 -0.88950241857E+03  0.88950241858E+03  0.50400001928E-02 0.  1.
    10030    2    1    2    0    0  0.00000000000E+00  0.00000000000E+00 -0.30396589645E+03  0.14750389407E+04  0.14433795795E+04 0.  0.
        2    1    3    3  502    0 -0.74208660214E+02 -0.71723663654E+03 -0.12131071147E+03  0.73119874642E+03  0.25500000920E-02 0.  1.
       -2    1    3    3    0  502  0.74208660214E+02  0.71723663654E+03 -0.18265518498E+03  0.74384019430E+03  0.25500000920E-02 0. -1.
</event>
<event>
 5   0  0.2094566E-03  0.1461480E+04  0.7818609E-02  0.8910480E-01
        2   -1    0    0  501    0  0.00000000000E+00  0.00000000000E+00  0.75993315044E+03  0.75993315044E+03  0.25500000920E-02 0.  1.
       -2   -1    0    0    0  501  0.00000000000E+00  0.00000000000E+00 -0.70266831826E+03  0.70266831826E+03  0.25500000920E-02 0. -1.
    10030    2    1    2    0    0  0.00000000000E+00  0.00000000000E+00  0.57264832184E+02  0.14626014687E+04  0.14614800017E+04 0.  0.
        1    1    3    3  502    0  0.20577112998E+03 -0.46996467981E+03 -0.49212482538E+03  0.71091166961E+03  0.50400001928E-02 0. -1.
       -1    1    3    3    0  502 -0.20577112998E+03  0.46996467981E+03  0.54938965757E+03  0.75168979910E+03  0.50400001928E-02 0.  1.
</event>
<event>
 5   0  0.2150197E-03  0.1359008E+04  0.7818609E-02  0.8984037E-01
        2   -1    0    0  501    0  0.00000000000E+00  0.00000000000E+00  0.91620189785E+03  0.91620189786E+03  0.25500000920E-02 0. -1.
       -2   -1    0    0    0  501  0.00000000000E+00  0.00000000000E+00 -0.50395649923E+03  0.50395649924E+03  0.25500000920E-02 0.  1.
    10030    2    1    2    0    0  0.00000000000E+00  0.00000000000E+00  0.41224539862E+03  0.14201583971E+04  0.13590083164E+04 0.  0.
        3    1    3    3  502    0  0.58500174914E+03 -0.18555421394E+03  0.51091149863E+03  0.79855368163E+03  0.10100000352E+00 0. -1.
       -3    1    3    3    0  502 -0.58500174914E+03  0.18555421394E+03 -0.98666100015E+02  0.62160471547E+03  0.10100000352E+00 0.  1.
</event>
<event>
 5   0  0.1077140E-03  0.1437865E+04  0.7818609E-02  0.8926857E-01
       -1   -1    0    0    0  501  0.00000000000E+00  0.00000000000E+00  0.21150765612E+03  0.21150765618E+03  0.50400001928E-02 0.  1.
        1   -1    0    0  501    0  0.00000000000E+00  0.00000000000E+00 -0.24437137979E+04  0.24437137979E+04  0.50400001928E-02 0. -1.
    10030    2    1    2    0    0  0.00000000000E+00  0.00000000000E+00 -0.22322061418E+04  0.26552214541E+04  0.14378653312E+04 0.  0.
        1    1    3    3  502    0  0.30560099214E+03  0.34119136931E+03 -0.92822740529E+02  0.46735380395E+03  0.50400001928E-02 0.  1.
       -1    1    3    3    0  502 -0.30560099214E+03 -0.34119136931E+03 -0.21393834013E+04  0.21878676501E+04  0.50400001928E-02 0. -1.
</event>
<event>
 5   0  0.1077140E-03  0.1434756E+04  0.7818609E-02  0.8929037E-01
        1   -1    0    0  501    0  0.00000000000E+00  0.00000000000E+00  0.14360866332E+04  0.14360866332E+04  0.50400001928E-02 0.  1.
       -1   -1    0    0    0  501  0.00000000000E+00  0.00000000000E+00 -0.35835680834E+03  0.35835680837E+03  0.50400001928E-02 0. -1.
    10030    2    1    2    0    0  0.00000000000E+00  0.00000000000E+00  0.10777298249E+04  0.17944434416E+04  0.14347563172E+04 0.  0.
        1    1    3    3  502    0 -0.13019336182E+03 -0.47959664438E+03 -0.10820319284E+03  0.50859727067E+03  0.50400001928E-02 0. -1.
       -1    1    3    3    0  502  0.13019336182E+03  0.47959664438E+03  0.11859330177E+04  0.12858461709E+04  0.50400001928E-02 0.  1.
</event>
<event>
 5   0  0.2094566E-03  0.1486332E+04  0.7818609E-02  0.8893593E-01
        2   -1    0    0  501    0  0.00000000000E+00  0.00000000000E+00  0.51347368423E+03  0.51347368423E+03  0.25500000920E-02 0.  1.
       -2   -1    0    0    0  501  0.00000000000E+00  0.00000000000E+00 -0.10756066717E+04  0.10756066717E+04  0.25500000920E-02 0. -1.
    10030    2    1    2    0    0  0.00000000000E+00  0.00000000000E+00 -0.56213298748E+03  0.15890803559E+04  0.14863320228E+04 0.  0.
        1    1    3    3  502    0 -0.17399363714E+03  0.49299765342E+02 -0.10517233202E+04  0.10671579991E+04  0.50400001928E-02 0. -1.
       -1    1    3    3    0  502  0.17399363714E+03 -0.49299765342E+02  0.48959033277E+03  0.52192235686E+03  0.50400001928E-02 0.  1.
</event>
<event>
 5   0  0.1069697E-03  0.1767132E+04  0.7818609E-02  0.8723976E-01
       -1   -1    0    0    0  501  0.00000000000E+00  0.00000000000E+00  0.63529409658E+03  0.63529409660E+03  0.50400001928E-02 0. -1.
        1   -1    0    0  501    0  0.00000000000E+00  0.00000000000E+00 -0.12288623740E+04  0.12288623740E+04  0.50400001928E-02 0.  1.
    10030    2    1    2    0    0  0.00000000000E+00  0.00000000000E+00 -0.59356827739E+03  0.18641564706E+04  0.17671321532E+04 0.  0.
        2    1    3    3  502    0 -0.40414373436E+03 -0.55436966397E+03  0.29059157378E+03  0.74505123657E+03  0.25500000920E-02 0. -1.
       -2    1    3    3    0  502  0.40414373436E+03  0.55436966397E+03 -0.88415985117E+03  0.11191052340E+04  0.25500000920E-02 0.  1.
</event>
<event>
 5   0  0.1077140E-03  0.1423801E+04  0.7818609E-02  0.8936768E-01
       -1   -1    0    0    0  501  0.00000000000E+00  0.00000000000E+00  0.44559127941E+03  0.44559127944E+03  0.50400001928E-02 0.  1.
        1   -1    0    0  501    0  0.00000000000E+00  0.00000000000E+00 -0.11373705593E+04  0.11373705593E+04  0.50400001928E-02 0. -1.
    10030    2    1    2    0    0  0.00000000000E+00  0.00000000000E+00 -0.69177927984E+03  0.15829618387E+04  0.14238011135E+04 0.  0.
        1    1    3    3  502    0  0.28637528666E+03 -0.53121519462E+02 -0.10680967365E+04  0.11070968066E+04  0.50400001928E-02 0. -1.
       -1    1    3    3    0  502 -0.28637528666E+03  0.53121519462E+02  0.37631745662E+03  0.47586503215E+03  0.50400001928E-02 0.  1.
</event>
<event>
 5   0  0.2150197E-03  0.1469378E+04  0.7818609E-02  0.8905075E-01
        2   -1    0    0  501    0  0.00000000000E+00  0.00000000000E+00  0.81656146695E+03  0.81656146695E+03  0.25500000920E-02 0. -1.
       -2   -1    0    0    0  501  0.00000000000E+00  0.00000000000E+00 -0.66102551965E+03  0.66102551965E+03  0.25500000920E-02 0.  1.
    10030    2    1    2    0    0  0.00000000000E+00  0.00000000000E+00  0.15553594730E+03  0.14775869866E+04  0.14693780562E+04 0.  0.
        3    1    3    3  502    0  0.46071412504E+03 -0.57258788980E+02  0.65036273137E+03  0.79906680977E+03  0.10100000352E+00 0. -1.
       -3    1    3    3    0  502 -0.46071412504E+03  0.57258788980E+02 -0.49482678407E+03  0.67852017683E+03  0.10100000352E+00 0.  1.
</event>
<event>
 5   0  0.1078018E-03  0.1303541E+04  0.7818609E-02  0.9026762E-01
        1   -1    0    0  501    0  0.00000000000E+00  0.00000000000E+00  0.87466824039E+03  0.87466824040E+03  0.50400001928E-02 0.  1.
       -1   -1    0    0    0  501  0.00000000000E+00  0.00000000000E+00 -0.48567524109E+03  0.48567524111E+03  0.50400001928E-02 0. -1.
    10030    2    1    2    0    0  0.00000000000E+00  0.00000000000E+00  0.38899299930E+03  0.13603434815E+04  0.13035408832E+04 0.  0.
        4    1    3    3  502    0 -0.17915028382E+03  0.62631819965E+03  0.17276144146E+03  0.67395655644E+03  0.12699999809E+01 0.  1.
       -4    1    3    3    0  502  0.17915028382E+03 -0.62631819965E+03  0.21623155784E+03  0.68638692508E+03  0.12699999809E+01 0. -1.
</event>
<event>
 5   0  0.1077140E-03  0.1499418E+04  0.7818609E-02  0.8884840E-01
       -1   -1    0    0    0  501  0.00000000000E+00  0.00000000000E+00  0.93431704086E+03  0.93431704087E+03  0.50400001928E-02 0. -1.
        1   -1    0    0  501    0  0.00000000000E+00  0.00000000000E+00 -0.60157700405E+03  0.60157700407E+03  0.50400001928E-02 0.  1.
    10030    2    1    2    0    0  0.00000000000E+00  0.00000000000E+00  0.33274003681E+03  0.15358940449E+04  0.14994180822E+04 0.  0.
        1    1    3    3  502    0 -0.72734607774E+03 -0.13565502148E+03  0.29026294013E+03  0.79478750373E+03  0.50400001928E-02 0. -1.
       -1    1    3    3    0  502  0.72734607774E+03  0.13565502148E+03  0.42477096680E+02  0.74110654121E+03  0.50400001928E-02 0.  1.
</event>
<event>
 5   0  0.1077140E-03  0.1162637E+04  0.7818609E-02  0.9146204E-01
       -1   -1    0    0    0  501  0.00000000000E+00  0.00000000000E+00  0.39358124115E+03  0.39358124119E+03  0.50400001928E-02 0. -1.
        1   -1    0    0  501    0  0.00000000000E+00  0.00000000000E+00 -0.85860638328E+03  0.85860638330E+03  0.50400001928E-02 0.  1.
    10030    2    1    2    0    0  0.00000000000E+00  0.00000000000E+00 -0.46502514213E+03  0.12521876245E+04  0.11626372883E+04 0.  0.
        1    1    3    3  502    0 -0.40623409136E+03 -0.37600840314E+03 -0.41290371610E+02  0.55507958982E+03  0.50400001928E-02 0.  1.
       -1    1    3    3    0  502  0.40623409136E+03  0.37600840314E+03 -0.42373477052E+03  0.69710803466E+03  0.50400001928E-02 0. -1.
</event>
<event>
 5   0  0.1961098E-03  0.1467247E+04  0.7818609E-02  0.8906530E-01
       -2   -1    0    0    0  501  0.00000000000E+00  0.00000000000E+00  0.81152072410E+03  0.81152072410E+03  0.25500000920E-02 0. -1.
        2   -1    0    0  501    0  0.00000000000E+00  0.00000000000E+00 -0.66320385150E+03  0.66320385151E+03  0.25500000920E-02 0.  1.
    10030    2    1    2    0    0  0.00000000000E+00  0.00000000000E+00  0.14831687260E+03  0.14747245756E+04  0.14672473136E+04 0.  0.
        2    1    3    3  502    0 -0.59056561870E+03  0.33200654086E+03 -0.20871421284E+03  0.70891305236E+03  0.25500000920E-02 0.  1.
       -2    1    3    3    0  502  0.59056561870E+03 -0.33200654086E+03  0.35703108543E+03  0.76581152325E+03  0.25500000920E-02 0. -1.
</event>
<event>
 5   0  0.1993623E-03  0.1487845E+04  0.7818609E-02  0.8892577E-01
       -2   -1    0    0    0  501  0.00000000000E+00  0.00000000000E+00  0.28714929941E+03  0.28714929942E+03  0.25500000920E-02 0.  1.
        2   -1    0    0  501    0  0.00000000000E+00  0.00000000000E+00 -0.19272912020E+04  0.19272912020E+04  0.25500000920E-02 0. -1.
    10030    2    1    2    0    0  0.00000000000E+00  0.00000000000E+00 -0.16401419026E+04  0.22144405014E+04  0.14878445059E+04 0.  0.
        4    1    3    3  502    0  0.46405595884E+03  0.38912116216E+03 -0.17704743089E+03  0.63096007597E+03  0.12699999809E+01 0.  1.
       -4    1    3    3    0  502 -0.46405595884E+03 -0.38912116216E+03 -0.14630944717E+04  0.15834804255E+04  0.12699999809E+01 0. -1.
</event>
<event>
 5   0  0.2150197E-03  0.1418303E+04  0.7818609E-02  0.8940675E-01
        2   -1    0    0  501    0  0.00000000000E+00  0.00000000000E+00  0.13014056386E+04  0.13014056386E+04  0.25500000920E-02 0.  1.
       -2   -1    0    0    0  501  0.00000000000E+00  0.00000000000E+00 -0.38642511265E+03  0.38642511266E+03  0.25500000920E-02 0. -1.
    10030    2    1    2    0    0  0.00000000000E+00  0.00000000000E+00  0.91498052594E+03  0.16878307513E+04  0.14183029585E+04 0.  0.
        3    1    3    3  502    0  0.11729323788E+03 -0.15351806006E+03 -0.35450318666E+03  0.40373013013E+03  0.10100000352E+00 0. -1.
       -3    1    3    3    0  502 -0.11729323788E+03  0.15351806006E+03  0.12694837126E+04  0.12841006211E+04  0.10100000352E+00 0.  1.
</event>
<event>
 5   0  0.1087761E-03  0.1444512E+04  0.7818609E-02  0.8922214E-01
        1   -1    0    0  501    0  0.00000000000E+00  0.00000000000E+00  0.14448500948E+04  0.14448500948E+04  0.50400001928E-02 0. -1.
       -1   -1    0    0    0  501  0.00000000000E+00  0.00000000000E+00 -0.36104357821E+03  0.36104357824E+03  0.50400001928E-02 0.  1.
    10030    2    1    2    0    0  0.00000000000E+00  0.00000000000E+00  0.10838065166E+04  0.18058936730E+04  0.14445121643E+04 0.  0.
        3    1    3    3  502    0  0.32716352272E+02 -0.70532743240E+03  0.35190664523E+03  0.78892042930E+03  0.10100000352E+00 0.  1.
       -3    1    3    3    0  502 -0.32716352272E+02  0.70532743240E+03  0.73189987134E+03  0.10169732437E+04  0.10100000352E+00 0. -1.
</event>
<event>
 5   0  0.2111533E-03  0.1480563E+04  0.7818609E-02  0.8897482E-01
       -2   -1    0    0    0  501  0.00000000000E+00  0.00000000000E+00  0.58954380539E+03  0.58954380540E+03  0.25500000920E-02 0.  1.
        2   -1    0    0  501    0  0.00000000000E+00  0.00000000000E+00 -0.92956095548E+03  0.92956095548E+03  0.25500000920E-02 0. -1.
    10030    2    1    2    0    0  0.00000000000E+00  0.00000000000E+00 -0.34001715009E+03  0.15191047609E+04  0.14805632753E+04 0.  0.
        5    1    3    3  502    0 -0.63983578966E+03 -0.22238002245E+03  0.13634753270E+03  0.69098151334E+03  0.46999998093E+01 0.  1.
       -5    1    3    3    0  502  0.63983578966E+03  0.22238002245E+03 -0.47636468278E+03  0.82812324754E+03  0.46999998093E+01 0. -1.
</event>
<event>
 5   0  0.1961098E-03  0.1495461E+04  0.7818609E-02  0.8887477E-01
        2   -1    0    0  501    0  0.00000000000E+00  0.00000000000E+00  0.10495281762E+04  0.10495281762E+04  0.25500000920E-02 0. -1.
       -2   -1    0    0    0  501  0.00000000000E+00  0.00000000000E+00 -0.53271665463E+03  0.53271665464E+03  0.25500000920E-02 0.  1.
    10030    2    1    2    0    0  0.00000000000E+00  0.00000000000E+00  0.51681152154E+03  0.15822448308E+04  0.14954613187E+04 0.  0.
        2    1    3    3  502    0  0.56166187257E+03  0.32799349591E+03 -0.13185914522E+03  0.66364947573E+03  0.25500000920E-02 0.  1.
       -2    1    3    3    0  502 -0.56166187257E+03 -0.32799349591E+03  0.64867066676E+03  0.91859535508E+03  0.25500000920E-02 0. -1.
</event>
<event>
 5   0  0.1087761E-03  0.1510748E+04  0.7818609E-02  0.8877337E-01
       -1   -1    0    0    0  501  0.00000000000E+00  0.00000000000E+00  0.10202286982E+04  0.10202286982E+04  0.50400001928E-02 0.  1.
        1   -1    0    0  501    0  0.00000000000E+00  0.00000000000E+00 -0.55927644979E+03  0.55927644981E+03  0.50400001928E-02 0. -1.
    10030    2    1    2    0    0  0.00000000000E+00  0.00000000000E+00  0.46095224840E+03  0.15795051480E+04  0.15107480059E+04 0.  0.
        3    1    3    3  502    0  0.21241290523E+03 -0.51806659566E+03  0.76058022443E+03  0.94445461926E+03  0.10100000352E+00 0.  1.
       -3    1    3    3    0  502 -0.21241290523E+03  0.51806659566E+03 -0.29962797604E+03  0.63505052875E+03  0.10100000352E+00 0. -1.
</event>
<event>
 5   0  0.2111533E-03  0.1518890E+04  0.7818609E-02  0.8871988E-01
       -2   -1    0    0    0  501  0.00000000000E+00  0.00000000000E+00  0.87148452570E+03  0.87148452571E+03  0.25500000920E-02 0. -1.
        2   -1    0    0  501    0  0.00000000000E+00  0.00000000000E+00 -0.66180946835E+03  0.66180946836E+03  0.25500000920E-02 0.  1.
    10030    2    1    2    0    0  0.00000000000E+00  0.00000000000E+00  0.20967505735E+03  0.15332939941E+04  0.15188900034E+04 0.  0.
        5    1    3    3  502    0 -0.56350517285E+03  0.50901168053E+03  0.11511493562E+03  0.76805241302E+03  0.46999998093E+01 0.  1.
       -5    1    3    3    0  502  0.56350517285E+03 -0.50901168053E+03  0.94560121735E+02  0.76524158105E+03  0.46999998093E+01 0. -1.
</event>
<event>
 5   0  0.7468375E-04  0.1440611E+04  0.7818609E-02  0.8924935E-01
       -3   -1    0    0    0  501  0.00000000000E+00  0.00000000000E+00  0.38115668716E+03  0.38115670054E+03  0.10100000352E+00 0. -1.
        3   -1    0    0  501    0  0.00000000000E+00  0.00000000000E+00 -0.13612256463E+04  0.13612256500E+04  0.10100000352E+00 0.  1.
    10030    2    1    2    0    0  0.00000000000E+00  0.00000000000E+00 -0.98006895912E+03  0.17423823506E+04  0.14406113601E+04 0.  0.
        1    1    3    3  502    0 -0.60047549084E+03  0.12415556184E+03 -0.32899842427E+02  0.61405848116E+03  0.50400001928E-02 0. -1.
       -1    1    3    3    0  502  0.60047549084E+03 -0.12415556184E+03 -0.94716911670E+03  0.11283238694E+04  0.50400001928E-02 0.  1.
</event>
<event>
 5   0  0.2111533E-03  0.1488627E+04  0.7818609E-02  0.8892051E-01
        2   -1    0    0  501    0  0.00000000000E+00  0.00000000000E+00  0.69080119375E+03  0.69080119376E+03  0.25500000920E-02 0. -1.
       -2   -1    0    0    0  501  0.00000000000E+00  0.00000000000E+00 -0.80197072543E+03  0.80197072544E+03  0.25500000920E-02 0.  1.
    10030    2    1    2    0    0  0.00000000000E+00  0.00000000000E+00 -0.11116953168E+03  0.14927719192E+04  0.14886266617E+04 0.  0.
        5    1    3    3  502    0 -0.45542092534E+03  0.57854310526E+03  0.53621658785E+02  0.73825315181E+03  0.46999998093E+01 0. -1.
       -5    1    3    3    0  502  0.45542092534E+03 -0.57854310526E+03 -0.16479119047E+03  0.75451876738E+03  0.46999998093E+01 0.  1.
</event>
<event>
 5   0  0.2094566E-03  0.1509830E+04  0.7818609E-02  0.8877942E-01
        2   -1    0    0  501    0  0.00000000000E+00  0.00000000000E+00  0.98511750457E+03  0.98511750457E+03  0.25500000920E-02 0. -1.
       -2   -1    0    0    0  501  0.00000000000E+00  0.00000000000E+00 -0.57850625192E+03  0.57850625192E+03  0.25500000920E-02 0.  1.
    10030    2    1    2    0    0  0.00000000000E+00  0.00000000000E+00  0.40661125265E+03  0.15636237565E+04  0.15098299709E+04 0.  0.
        1    1    3    3  502    0 -0.69872694905E+03  0.18383909335E+03  0.42991790465E+03  0.84074108163E+03  0.50400001928E-02 0. -1.
       -1    1    3    3    0  502  0.69872694905E+03 -0.18383909335E+03 -0.23306651996E+02  0.72288267487E+03  0.50400001928E-02 0.  1.
</event>
<event>
 5   0  0.1993623E-03  0.1493756E+04  0.7818609E-02  0.8888616E-01
        2   -1    0    0  501    0  0.00000000000E+00  0.00000000000E+00  0.24943850388E+04  0.24943850388E+04  0.25500000920E-02 0. -1.
       -2   -1    0    0    0  501  0.00000000000E+00  0.00000000000E+00 -0.22363285634E+03  0.22363285636E+03  0.25500000920E-02 0.  1.
    10030    2    1    2    0    0  0.00000000000E+00  0.00000000000E+00  0.22707521824E+04  0.27180178951E+04  0.14937556039E+04 0.  0.
        4    1    3    3  502    0 -0.19373039126E+03 -0.33992920587E+03  0.22929844052E+04  0.23261260553E+04  0.12699999809E+01 0. -1.
       -4    1    3    3    0  502  0.19373039126E+03  0.33992920587E+03 -0.22232222823E+02  0.39189183984E+03  0.12699999809E+01 0.  1.
</event>
<event>
 5   0  0.1087761E-03  0.1494387E+04  0.7818609E-02  0.8888194E-01
        1   -1    0    0  501    0  0.00000000000E+00  0.00000000000E+00  0.17245134885E+04  0.17245134885E+04  0.50400001928E-02 0.  1.
       -1   -1    0    0    0  501  0.00000000000E+00  0.00000000000E+00 -0.32374242657E+03  0.32374242661E+03  0.50400001928E-02 0. -1.
    10030    2    1    2    0    0  0.00000000000E+00  0.00000000000E+00  0.14007710619E+04  0.20482559151E+04  0.14943870736E+04 0.  0.
        3    1    3    3  502    0 -0.74525202124E+02  0.43179484278E+03  0.15299268467E+04  0.15914386442E+04  0.10100000352E+00 0.  1.
       -3    1    3    3    0  502  0.74525202124E+02 -0.43179484278E+03 -0.12915578477E+03  0.45681727085E+03  0.10100000352E+00 0. -1.
</event>
<event>
 5   0  0.1078018E-03  0.1518330E+04  0.7818609E-02  0.8872354E-01
       -1   -1    0    0    0  501  0.00000000000E+00  0.00000000000E+00  0.26854740038E+03  0.26854740043E+03  0.50400001928E-02 0.  1.
        1   -1    0    0  501    0  0.00000000000E+00  0.00000000000E+00 -0.21461068507E+04  0.21461068507E+04  0.50400001928E-02 0. -1.
    10030    2    1    2    0    0  0.00000000000E+00  0.00000000000E+00 -0.18775594503E+04  0.24146542511E+04  0.15183298927E+04 0.  0.
        4    1    3    3  502    0 -0.94876107774E+02  0.29338910712E+03 -0.20420316799E+04  0.20651812605E+04  0.12699999809E+01 0. -1.
       -4    1    3    3    0  502  0.94876107774E+02 -0.29338910712E+03  0.16447222958E+03  0.34947299066E+03  0.12699999809E+01 0.  1.
</event>
<event>
 5   0  0.2094566E-03  0.1579793E+04  0.7818609E-02  0.8833059E-01
        2   -1    0    0  501    0  0.00000000000E+00  0.00000000000E+00  0.52780568409E+03  0.52780568410E+03  0.25500000920E-02 0. -1.
       -2   -1    0    0    0  501  0.00000000000E+00  0.00000000000E+00 -0.11821331573E+04  0.11821331573E+04  0.25500000920E-02 0.  1.
    10030    2    1    2    0    0  0.00000000000E+00  0.00000000000E+00 -0.65432747325E+03  0.17099388414E+04  0.15797931508E+04 0.  0.
        1    1    3    3  502    0  0.67813399957E+03  0.19718642668E+03  0.55804169779E+02  0.70842241187E+03  0.50400001928E-02 0. -1.
       -1    1    3    3    0  502 -0.67813399957E+03 -0.19718642668E+03 -0.71013164303E+03  0.10015164296E+04  0.50400001928E-02 0.  1.
</event>
<event>
 5   0  0.1077140E-03  0.1494049E+04  0.7818609E-02  0.8888420E-01
        1   -1    0    0  501    0  0.00000000000E+00  0.00000000000E+00  0.17019927925E+04  0.17019927925E+04  0.50400001928E-02 0. -1.
       -1   -1    0    0    0  501  0.00000000000E+00  0.00000000000E+00 -0.32787766488E+03  0.32787766492E+03  0.50400001928E-02 0.  1.
    10030    2    1    2    0    0  0.00000000000E+00  0.00000000000E+00  0.13741151276E+04  0.20298704574E+04  0.14940487576E+04 0.  0.
        1    1    3    3  502    0  0.45738248281E+03 -0.58788071790E+03  0.76442773769E+03  0.10673107515E+04  0.50400001928E-02 0. -1.
       -1    1    3    3    0  502 -0.45738248281E+03  0.58788071790E+03  0.60968738994E+03  0.96255970596E+03  0.50400001928E-02 0.  1.
</event>
<event>
 5   0  0.1993623E-03  0.1508293E+04  0.7818609E-02  0.8878957E-01
        2   -1    0    0  501    0  0.00000000000E+00  0.00000000000E+00  0.80446448292E+03  0.80446448292E+03  0.25500000920E-02 0. -1.
       -2   -1    0    0    0  501  0.00000000000E+00  0.00000000000E+00 -0.70697581612E+03  0.70697581613E+03  0.25500000920E-02 0.  1.
    10030    2    1    2    0    0  0.00000000000E+00  0.00000000000E+00  0.97488666793E+02  0.15114402990E+04  0.15082929879E+04 0.  0.
        4    1    3    3  502    0  0.51797670448E+03  0.24659018300E+02  0.59745188354E+03  0.79111206514E+03  0.12699999809E+01 0. -1.
       -4    1    3    3    0  502 -0.51797670448E+03 -0.24659018300E+02 -0.49996321675E+03  0.72032823391E+03  0.12699999809E+01 0.  1.
</event>
<event>
 5   0  0.2111533E-03  0.1449750E+04  0.7818609E-02  0.8918574E-01
       -2   -1    0    0    0  501  0.00000000000E+00  0.00000000000E+00  0.53155731581E+03  0.53155731581E+03  0.25500000920E-02 0. -1.
        2   -1    0    0  501    0  0.00000000000E+00  0.00000000000E+00 -0.98849927565E+03  0.98849927565E+03  0.25500000920E-02 0.  1.
    10030    2    1    2    0    0  0.00000000000E+00  0.00000000000E+00 -0.45694195984E+03  0.15200565915E+04  0.14497503532E+04 0.  0.
        5    1    3    3  502    0 -0.10291395484E+03  0.20824744287E+03 -0.94840159401E+03  0.97644557098E+03  0.46999998093E+01 0.  1.
       -5    1    3    3    0  502  0.10291395484E+03 -0.20824744287E+03  0.49145963418E+03  0.54361102048E+03  0.46999998093E+01 0. -1.
</event>
<event>
 5   0  0.7468375E-04  0.1501040E+04  0.7818609E-02  0.8883762E-01
       -4   -1    0    0    0  501  0.00000000000E+00  0.00000000000E+00  0.87408818659E+03  0.87408910921E+03  0.12699999809E+01 0. -1.
        4   -1    0    0  501    0  0.00000000000E+00  0.00000000000E+00 -0.64441824926E+03  0.64441950070E+03  0.12699999809E+01 0.  1.
    10030    2    1    2    0    0  0.00000000000E+00  0.00000000000E+00  0.22966993732E+03  0.15185086099E+04  0.15010396791E+04 0.  0.
        4    1    3    3  502    0  0.84297517762E+02 -0.44296832382E+03 -0.49210679888E+03  0.66745615722E+03  0.12699999809E+01 0.  1.
       -4    1    3    3    0  502 -0.84297517762E+02  0.44296832382E+03  0.72177673620E+03  0.85105245269E+03  0.12699999809E+01 0. -1.
</event>
<event>
 5   0  0.1078018E-03  0.1535987E+04  0.7818609E-02  0.8860868E-01
        1   -1    0    0  501    0  0.00000000000E+00  0.00000000000E+00  0.20118283215E+04  0.20118283215E+04  0.50400001928E-02 0. -1.
       -1   -1    0    0    0  501  0.00000000000E+00  0.00000000000E+00 -0.29317320646E+03  0.29317320651E+03  0.50400001928E-02 0.  1.
    10030    2    1    2    0    0  0.00000000000E+00  0.00000000000E+00  0.17186551150E+04  0.23050015280E+04  0.15359871874E+04 0.  0.
        4    1    3    3  502    0 -0.28164320764E+03 -0.70705195497E+03  0.70506403252E+03  0.10374788028E+04  0.12699999809E+01 0.  1.
       -4    1    3    3    0  502  0.28164320764E+03  0.70705195497E+03  0.10135910825E+04  0.12675227252E+04  0.12699999809E+01 0. -1.
</event>
<event>
 5   0  0.1078018E-03  0.1529190E+04  0.7818609E-02  0.8865271E-01
        1   -1    0    0  501    0  0.00000000000E+00  0.00000000000E+00  0.69208724831E+03  0.69208724833E+03  0.50400001928E-02 0.  1.
       -1   -1    0    0    0  501  0.00000000000E+00  0.00000000000E+00 -0.84469861017E+03  0.84469861019E+03  0.50400001928E-02 0. -1.
    10030    2    1    2    0    0  0.00000000000E+00  0.00000000000E+00 -0.15261136186E+03  0.15367858585E+04  0.15291895066E+04 0.  0.
        4    1    3    3  502    0  0.44964841017E+03 -0.53508082779E+03 -0.38785914310E+03  0.79933191656E+03  0.12699999809E+01 0.  1.
       -4    1    3    3    0  502 -0.44964841017E+03  0.53508082779E+03  0.23524778124E+03  0.73745394196E+03  0.12699999809E+01 0. -1.
</event>
<event>
 5   0  0.1077140E-03  0.1512726E+04  0.7818609E-02  0.8876034E-01
        1   -1    0    0  501    0  0.00000000000E+00  0.00000000000E+00  0.13836746720E+04  0.13836746720E+04  0.50400001928E-02 0.  1.
       -1   -1    0    0    0  501  0.00000000000E+00  0.00000000000E+00 -0.41345341122E+03  0.41345341125E+03  0.50400001928E-02 0. -1.
    10030    2    1    2    0    0  0.00000000000E+00  0.00000000000E+00  0.97022126081E+03  0.17971280833E+04  0.15127260336E+04 0.  0.
        1    1    3    3  502    0 -0.14391898507E+03  0.32154714742E+03  0.12802585948E+04  0.13278431051E+04  0.50400001928E-02 0.  1.
       -1    1    3    3    0  502  0.14391898507E+03 -0.32154714742E+03 -0.31003733395E+03  0.46928497818E+03  0.50400001928E-02 0. -1.
</event>
<event>
 5   0  0.7468375E-04  0.1482896E+04  0.7818609E-02  0.8895907E-01
       -4   -1    0    0    0  501  0.00000000000E+00  0.00000000000E+00  0.38027666983E+03  0.38027879052E+03  0.12699999809E+01 0.  1.
        4   -1    0    0  501    0  0.00000000000E+00  0.00000000000E+00 -0.14456395339E+04  0.14456400918E+04  0.12699999809E+01 0. -1.
    10030    2    1    2    0    0  0.00000000000E+00  0.00000000000E+00 -0.10653628641E+04  0.18259188823E+04  0.14828963998E+04 0.  0.
        4    1    3    3  502    0 -0.47228882056E+03 -0.48544103646E+02 -0.12339180801E+04  0.13221076739E+04  0.12699999809E+01 0. -1.
       -4    1    3    3    0  502  0.47228882056E+03  0.48544103646E+02  0.16855521598E+03  0.50381120845E+03  0.12699999809E+01 0.  1.
</event>
<event>
 5   0  0.1993623E-03  0.1488100E+04  0.7818609E-02  0.8892405E-01
       -2   -1    0    0    0  501  0.00000000000E+00  0.00000000000E+00  0.35649515076E+03  0.35649515077E+03  0.25500000920E-02 0. -1.
        2   -1    0    0  501    0  0.00000000000E+00  0.00000000000E+00 -0.15529254639E+04  0.15529254639E+04  0.25500000920E-02 0.  1.
    10030    2    1    2    0    0  0.00000000000E+00  0.00000000000E+00 -0.11964303132E+04  0.19094206147E+04  0.14880999932E+04 0.  0.
        4    1    3    3  502    0 -0.28573825889E+03 -0.51785930964E+03 -0.11774500445E+04  0.13176550525E+04  0.12699999809E+01 0.  1.
       -4    1    3    3    0  502  0.28573825889E+03  0.51785930964E+03 -0.18980268720E+02  0.59176556226E+03  0.12699999809E+01 0. -1.
</event>
<event>
 5   0  0.2094566E-03  0.1673636E+04  0.7818609E-02  0.8776545E-01
       -2   -1    0    0    0  501  0.00000000000E+00  0.00000000000E+00  0.54338370648E+03  0.54338370649E+03  0.25500000920E-02 0. -1.
        2   -1    0    0  501    0  0.00000000000E+00  0.00000000000E+00 -0.12887104024E+04  0.12887104024E+04  0.25500000920E-02 0.  1.
    10030    2    1    2    0    0  0.00000000000E+00  0.00000000000E+00 -0.74532669593E+03  0.18320941089E+04  0.16736358446E+04 0.  0.
        1    1    3    3  502    0 -0.55648479864E+02  0.80096974853E+03 -0.11450714756E+03  0.81102477042E+03  0.50400001928E-02 0. -1.
       -1    1    3    3    0  502  0.55648479864E+02 -0.80096974853E+03 -0.63081954837E+03  0.10210693385E+04  0.50400001928E-02 0.  1.
</event>
<event>
 5   0  0.2094566E-03  0.1419631E+04  0.7818609E-02  0.8939730E-01
        2   -1    0    0  501    0  0.00000000000E+00  0.00000000000E+00  0.68720946321E+03  0.68720946321E+03  0.25500000920E-02 0.  1.
       -2   -1    0    0    0  501  0.00000000000E+00  0.00000000000E+00 -0.73316530984E+03  0.73316530984E+03  0.25500000920E-02 0. -1.
    10030    2    1    2    0    0  0.00000000000E+00  0.00000000000E+00 -0.45955846631E+02  0.14203747731E+04  0.14196311338E+04 0.  0.
        1    1    3    3  502    0 -0.71929027961E+02  0.12020894284E+03  0.67324157116E+03  0.68766139063E+03  0.50400001928E-02 0.  1.
       -1    1    3    3    0  502  0.71929027961E+02 -0.12020894284E+03 -0.71919741779E+03  0.73271338242E+03  0.50400001928E-02 0. -1.
</event>
<event>
 5   0  0.1069697E-03  0.1474539E+04  0.7818609E-02  0.8901563E-01
       -1   -1    0    0    0  501  0.00000000000E+00  0.00000000000E+00  0.11669242148E+04  0.11669242148E+04  0.50400001928E-02 0.  1.
        1   -1    0    0  501    0  0.00000000000E+00  0.00000000000E+00 -0.46581111625E+03  0.46581111628E+03  0.50400001928E-02 0. -1.
    10030    2    1    2    0    0  0.00000000000E+00  0.00000000000E+00  0.70111309851E+03  0.16327353310E+04  0.14745389396E+04 0.  0.
        2    1    3    3  502    0  0.32337805614E+03  0.63824645424E+03  0.54749890241E+03  0.90093670793E+03  0.25500000920E-02 0.  1.
       -2    1    3    3    0  502 -0.32337805614E+03 -0.63824645424E+03  0.15361419609E+03  0.73179862311E+03  0.25500000920E-02 0. -1.
</event>
<event>
 5   0  0.1078787E-03  0.1508573E+04  0.7818609E-02  0.8878772E-01
       -1   -1    0    0    0  501  0.00000000000E+00  0.00000000000E+00  0.54612362771E+03  0.54612362774E+03  0.50400001928E-02 0. -1.
        1   -1    0    0  501    0  0.00000000000E+00  0.00000000000E+00 -0.10417943321E+04  0.10417943321E+04  0.50400001928E-02 0.  1.
    10030    2    1    2    0    0  0.00000000000E+00  0.00000000000E+00 -0.49567070436E+03  0.15879179598E+04  0.15085734984E+04 0.  0.
        5    1    3    3  502    0 -0.12031896544E+03  0.39039641071E+03 -0.91525107645E+03  0.10022936864E+04  0.46999998093E+01 0.  1.
       -5    1    3    3    0  502  0.12031896544E+03 -0.39039641071E+03  0.41958037209E+03  0.58562427339E+03  0.46999998093E+01 0. -1.
</event>
<event>
 5   0  0.2111533E-03  0.1456548E+04  0.7818609E-02  0.8913874E-01
       -2   -1    0    0    0  501  0.00000000000E+00  0.00000000000E+00  0.67966127376E+03  0.67966127376E+03  0.25500000920E-02 0.  1.
        2   -1    0    0  501    0  0.00000000000E+00  0.00000000000E+00 -0.78036345612E+03  0.78036345612E+03  0.25500000920E-02 0. -1.
    10030    2    1    2    0    0  0.00000000000E+00  0.00000000000E+00 -0.10070218236E+03  0.14600247299E+04  0.14565477275E+04 0.  0.
        5    1    3    3  502    0  0.66657012076E+03 -0.21799081111E+03 -0.24709752876E+03  0.74358254306E+03  0.46999998093E+01 0.  1.
       -5    1    3    3    0  502 -0.66657012076E+03  0.21799081111E+03  0.14639534639E+03  0.71644218683E+03  0.46999998093E+01 0. -1.
</event>
<event>
 5   0  0.1078018E-03  0.1518868E+04  0.7818609E-02  0.8872002E-01
       -1   -1    0    0    0  501  0.00000000000E+00  0.00000000000E+00  0.44334525207E+03  0.44334525210E+03  0.50400001928E-02 0. -1.
        1   -1    0    0  501    0  0.00000000000E+00  0.00000000000E+00 -0.13008828590E+04  0.13008828590E+04  0.50400001928E-02 0.  1.
    10030    2    1    2    0    0  0.00000000000E+00  0.00000000000E+00 -0.85753760694E+03  0.17442281111E+04  0.15188683143E+04 0.  0.
        4    1    3    3  502    0 -0.73090873033E+03  0.52216009653E+02 -0.65782410240E+03  0.98472749852E+03  0.12699999809E+01 0.  1.
       -4    1    3    3    0  502  0.73090873033E+03 -0.52216009653E+02 -0.19971350453E+03  0.75950061259E+03  0.12699999809E+01 0. -1.
</event>
<event>
 5   0  0.1961098E-03  0.1495802E+04  0.7818609E-02  0.8887249E-01
       -2   -1    0    0    0  501  0.00000000000E+00  0.00000000000E+00  0.91260778031E+03  0.91260778032E+03  0.25500000920E-02 0. -1.
        2   -1    0    0  501    0  0.00000000000E+00  0.00000000000E+00 -0.61292035640E+03  0.61292035640E+03  0.25500000920E-02 0.  1.
    10030    2    1    2    0    0  0.00000000000E+00  0.00000000000E+00  0.29968742392E+03  0.15255281367E+04  0.14958019735E+04 0.  0.
        2    1    3    3  502    0  0.38610612337E+03  0.90498299593E+02 -0.49686197369E+03  0.63571982951E+03  0.25500000920E-02 0.  1.
       -2    1    3    3    0  502 -0.38610612337E+03 -0.90498299593E+02  0.79654939761E+03  0.88980830721E+03  0.25500000920E-02 0. -1.
</event>
<event>
 5   0  0.1077140E-03  0.1531592E+04  0.7818609E-02  0.8863712E-01
        1   -1    0    0  501    0  0.00000000000E+00  0.00000000000E+00  0.50882787069E+03  0.50882787072E+03  0.50400001928E-02 0.  1.
       -1   -1    0    0    0  501  0.00000000000E+00  0.00000000000E+00 -0.11525377288E+04  0.11525377288E+04  0.50400001928E-02 0. -1.
    10030    2    1    2    0    0  0.00000000000E+00  0.00000000000E+00 -0.64370985812E+03  0.16613655995E+04  0.15315917452E+04 0.  0.
        1    1    3    3  502    0  0.52380785447E+03  0.34986810358E+03  0.15054646342E+03  0.64764696864E+03  0.50400001928E-02 0.  1.
       -1    1    3    3    0  502 -0.52380785447E+03 -0.34986810358E+03 -0.79425632154E+03  0.10137186309E+04  0.50400001928E-02 0. -1.
</event>
<event>
 5   0  0.2150197E-03  0.1531824E+04  0.7818609E-02  0.8863562E-01
        2   -1    0    0  501    0  0.00000000000E+00  0.00000000000E+00  0.60214095988E+03  0.60214095988E+03  0.25500000920E-02 0. -1.
       -2   -1    0    0    0  501  0.00000000000E+00  0.00000000000E+00 -0.97422605049E+03  0.97422605049E+03  0.25500000920E-02 0.  1.
    10030    2    1    2    0    0  0.00000000000E+00  0.00000000000E+00 -0.37208509061E+03  0.15763670104E+04  0.15318242839E+04 0.  0.
        3    1    3    3  502    0  0.78910456569E+02 -0.14921599461E+03  0.58276162554E+03  0.60671525085E+03  0.10100000352E+00 0. -1.
       -3    1    3    3    0  502 -0.78910456569E+02  0.14921599461E+03 -0.95484671615E+03  0.96965175953E+03  0.10100000352E+00 0.  1.
</event>
<event>
 5   0  0.7468375E-04  0.1517591E+04  0.7818609E-02  0.8872839E-01
        4   -1    0    0  501    0  0.00000000000E+00  0.00000000000E+00  0.43096209278E+03  0.43096396406E+03  0.12699999809E+01 0.  1.
       -4   -1    0    0    0  501  0.00000000000E+00  0.00000000000E+00 -0.13360073622E+04  0.13360079659E+04  0.12699999809E+01 0. -1.
    10030    2    1    2    0    0  0.00000000000E+00  0.00000000000E+00 -0.90504526947E+03  0.17669719299E+04  0.15175911378E+04 0.  0.
        1    1    3    3  502    0 -0.58373823798E+03  0.18976517292E+03  0.66889202366E+02  0.61744256150E+03  0.50400001928E-02 0.  1.
       -1    1    3    3    0  502  0.58373823798E+03 -0.18976517292E+03 -0.97193447183E+03  0.11495293684E+04  0.50400001928E-02 0. -1.
</event>
<event>
 5   0  0.1077140E-03  0.1693032E+04  0.7818609E-02  0.8765348E-01
        1   -1    0    0  501    0  0.00000000000E+00  0.00000000000E+00  0.73301580434E+03  0.73301580436E+03  0.50400001928E-02 0.  1.
       -1   -1    0    0    0  501  0.00000000000E+00  0.00000000000E+00 -0.97759091066E+03  0.97759091067E+03  0.50400001928E-02 0. -1.
    10030    2    1    2    0    0  0.00000000000E+00  0.00000000000E+00 -0.24457510632E+03  0.17106067150E+04  0.16930322947E+04 0.  0.
        1    1    3    3  502    0 -0.42137762309E+03 -0.17306577831E+03 -0.84319149977E+03  0.95837506759E+03  0.50400001928E-02 0. -1.
       -1    1    3    3    0  502  0.42137762309E+03  0.17306577831E+03  0.59861639346E+03  0.75223164744E+03  0.50400001928E-02 0.  1.
</event>
<event>
 5   0  0.1078018E-03  0.1509187E+04  0.7818609E-02  0.8878367E-01
       -1   -1    0    0    0  501  0.00000000000E+00  0.00000000000E+00  0.47054128819E+03  0.47054128822E+03  0.50400001928E-02 0. -1.
        1   -1    0    0  501    0  0.00000000000E+00  0.00000000000E+00 -0.12101196400E+04  0.12101196400E+04  0.50400001928E-02 0.  1.
    10030    2    1    2    0    0  0.00000000000E+00  0.00000000000E+00 -0.73957835180E+03  0.16806609282E+04  0.15091868729E+04 0.  0.
        4    1    3    3  502    0 -0.57219193715E+03  0.47973403441E+03 -0.49107301896E+03  0.89370167257E+03  0.12699999809E+01 0.  1.
       -4    1    3    3    0  502  0.57219193715E+03 -0.47973403441E+03 -0.24850533284E+03  0.78695925565E+03  0.12699999809E+01 0. -1.
</event>
<event>
 5   0  0.7468375E-04  0.1446791E+04  0.7818609E-02  0.8920628E-01
        3   -1    0    0  501    0  0.00000000000E+00  0.00000000000E+00  0.69653403981E+03  0.69653404713E+03  0.10100000352E+00 0. -1.
       -3   -1    0    0    0  501  0.00000000000E+00  0.00000000000E+00 -0.75129251981E+03  0.75129252660E+03  0.10100000352E+00 0.  1.
    10030    2    1    2    0    0  0.00000000000E+00  0.00000000000E+00 -0.54758480006E+02  0.14478265737E+04  0.14467906885E+04 0.  0.
        4    1    3    3  502    0 -0.37991404536E+03 -0.57129509035E+03  0.20210230308E+03  0.71523402879E+03  0.12699999809E+01 0. -1.
       -4    1    3    3    0  502  0.37991404536E+03  0.57129509035E+03 -0.25686078309E+03  0.73259254495E+03  0.12699999809E+01 0.  1.
</event>
<event>
 5   0  0.1078787E-03  0.1511219E+04  0.7818609E-02  0.8877026E-01
       -1   -1    0    0    0  501  0.00000000000E+00  0.00000000000E+00  0.76847483887E+03  0.76847483889E+03  0.50400001928E-02 0. -1.
        1   -1    0    0  501    0  0.00000000000E+00  0.00000000000E+00 -0.74295965753E+03  0.74295965755E+03  0.50400001928E-02 0.  1.
    10030    2    1    2    0    0  0.00000000000E+00  0.00000000000E+00  0.25515181342E+02  0.15114344964E+04  0.15112191147E+04 0.  0.
        5    1    3    3  502    0  0.10533243503E+03  0.15083446323E+03 -0.72020274763E+03  0.74334382681E+03  0.46999998093E+01 0.  1.
       -5    1    3    3    0  502 -0.10533243503E+03 -0.15083446323E+03  0.74571792897E+03  0.76809066962E+03  0.46999998093E+01 0. -1.
</event>
<event>
 5   0  0.7468375E-04  0.1509102E+04  0.7818609E-02  0.8878422E-01
        4   -1    0    0  501    0  0.00000000000E+00  0.00000000000E+00  0.90689418985E+03  0.90689507910E+03  0.12699999809E+01 0. -1.
       -4   -1    0    0    0  501  0.00000000000E+00  0.00000000000E+00 -0.62779735801E+03  0.62779864258E+03  0.12699999809E+01 0.  1.
    10030    2    1    2    0    0  0.00000000000E+00  0.00000000000E+00  0.27909683184E+03  0.15346937217E+04  0.15091023086E+04 0.  0.
        4    1    3    3  502    0  0.49020981539E+03  0.33620419942E+03 -0.33309852333E+03  0.68139207946E+03  0.12699999809E+01 0.  1.
       -4    1    3    3    0  502 -0.49020981539E+03 -0.33620419942E+03  0.61219535517E+03  0.85330164221E+03  0.12699999809E+01 0. -1.
</event>
<event>
 5   0  0.2111533E-03  0.1441030E+04  0.7818609E-02  0.8924643E-01
       -2   -1    0    0    0  501  0.00000000000E+00  0.00000000000E+00  0.31375574010E+03  0.31375574012E+03  0.25500000920E-02 0. -1.
        2   -1    0    0  501    0  0.00000000000E+00  0.00000000000E+00 -0.16546058187E+04  0.16546058187E+04  0.25500000920E-02 0.  1.
    10030    2    1    2    0    0  0.00000000000E+00  0.00000000000E+00 -0.13408500786E+04  0.19683615588E+04  0.14410302887E+04 0.  0.
        5    1    3    3  502    0 -0.63290444909E+03 -0.20306555492E+03 -0.29061419667E+03  0.72545321185E+03  0.46999998093E+01 0. -1.
       -5    1    3    3    0  502  0.63290444909E+03  0.20306555492E+03 -0.10502358819E+04  0.12429083470E+04  0.46999998093E+01 0.  1.
</event>
<event>
 5   0  0.2111533E-03  0.1540623E+04  0.7818609E-02  0.8857879E-01
        2   -1    0    0  501    0  0.00000000000E+00  0.00000000000E+00  0.16628405087E+04  0.16628405087E+04  0.25500000920E-02 0. -1.
       -2   -1    0    0    0  501  0.00000000000E+00  0.00000000000E+00 -0.35684729403E+03  0.35684729403E+03  0.25500000920E-02 0.  1.
    10030    2    1    2    0    0  0.00000000000E+00  0.00000000000E+00  0.13059932146E+04  0.20196878027E+04  0.15406234270E+04 0.  0.
        5    1    3    3  502    0  0.17938652364E+03 -0.50810909947E+03  0.13746217981E+04  0.14764692884E+04  0.46999998093E+01 0. -1.
       -5    1    3    3    0  502 -0.17938652364E+03  0.50810909947E+03 -0.68628583427E+02  0.54321851431E+03  0.46999998093E+01 0.  1.
</event>
<event>
 5   0  0.2111533E-03  0.1489381E+04  0.7818609E-02  0.8891545E-01
       -2   -1    0    0    0  501  0.00000000000E+00  0.00000000000E+00  0.90152914484E+03  0.90152914484E+03  0.25500000920E-02 0.  1.
        2   -1    0    0  501    0  0.00000000000E+00  0.00000000000E+00 -0.61513717770E+03  0.61513717771E+03  0.25500000920E-02 0. -1.
    10030    2    1    2    0    0  0.00000000000E+00  0.00000000000E+00  0.28639196714E+03  0.15166663225E+04  0.14893812054E+04 0.  0.
        5    1    3    3  502    0 -0.65602589179E+02  0.58816523768E+03 -0.31707999724E+03  0.67141928865E+03  0.46999998093E+01 0. -1.
       -5    1    3    3    0  502  0.65602589179E+02 -0.58816523768E+03  0.60347196437E+03  0.84524703390E+03  0.46999998093E+01 0.  1.
</event>
<event>
 5   0  0.1069697E-03  0.1569632E+04  0.7818609E-02  0.8839424E-01
        1   -1    0    0  501    0  0.00000000000E+00  0.00000000000E+00  0.82460427246E+03  0.82460427247E+03  0.50400001928E-02 0.  1.
       -1   -1    0    0    0  501  0.00000000000E+00  0.00000000000E+00 -0.74694795335E+03  0.74694795337E+03  0.50400001928E-02 0. -1.
    10030    2    1    2    0    0  0.00000000000E+00  0.00000000000E+00  0.77656319104E+02  0.15715522258E+04  0.15696324075E+04 0.  0.
        2    1    3    3  502    0  0.72791401703E+03 -0.26617746640E+03  0.16237768589E+03  0.79188116071E+03  0.25500000920E-02 0.  1.
       -2    1    3    3    0  502 -0.72791401703E+03  0.26617746640E+03 -0.84721366790E+02  0.77967106513E+03  0.25500000920E-02 0. -1.
</event>
<event>
 5   0  0.2150197E-03  0.1482745E+04  0.7818609E-02  0.8896009E-01
       -2   -1    0    0    0  501  0.00000000000E+00  0.00000000000E+00  0.34482946106E+03  0.34482946106E+03  0.25500000920E-02 0. -1.
        2   -1    0    0  501    0  0.00000000000E+00  0.00000000000E+00 -0.15939276983E+04  0.15939276983E+04  0.25500000920E-02 0.  1.
    10030    2    1    2    0    0  0.00000000000E+00  0.00000000000E+00 -0.12490982372E+04  0.19387571593E+04  0.14827450612E+04 0.  0.
        3    1    3    3  502    0 -0.23198443339E+03 -0.52057806770E+03 -0.45808089663E+01  0.56994674832E+03  0.10100000352E+00 0.  1.
       -3    1    3    3    0  502  0.23198443339E+03  0.52057806770E+03 -0.12445174282E+04  0.13688104110E+04  0.10100000352E+00 0. -1.
</event>
<event>
 5   0  0.1961098E-03  0.1515471E+04  0.7818609E-02  0.8874230E-01
        2   -1    0    0  501    0  0.00000000000E+00  0.00000000000E+00  0.14845597674E+04  0.14845597674E+04  0.25500000920E-02 0. -1.
       -2   -1    0    0    0  501  0.00000000000E+00  0.00000000000E+00 -0.38675629046E+03  0.38675629046E+03  0.25500000920E-02 0.  1.
    10030    2    1    2    0    0  0.00000000000E+00  0.00000000000E+00  0.10978034770E+04  0.18713160579E+04  0.15154706577E+04 0.  0.
        2    1    3    3  502    0 -0.12139712881E+03 -0.65867014786E+03  0.98648275398E+03  0.11923639757E+04  0.25500000920E-02 0. -1.
       -2    1    3    3    0  502  0.12139712881E+03  0.65867014786E+03  0.11132072298E+03  0.67895208221E+03  0.25500000920E-02 0.  1.
</event>
<event>
 5   0  0.2150197E-03  0.1543538E+04  0.7818609E-02  0.8856006E-01
       -2   -1    0    0    0  501  0.00000000000E+00  0.00000000000E+00  0.33181286161E+03  0.33181286162E+03  0.25500000920E-02 0. -1.
        2   -1    0    0  501    0  0.00000000000E+00  0.00000000000E+00 -0.17950696788E+04  0.17950696788E+04  0.25500000920E-02 0.  1.
    10030    2    1    2    0    0  0.00000000000E+00  0.00000000000E+00 -0.14632568172E+04  0.21268825404E+04  0.15435377636E+04 0.  0.
        3    1    3    3  502    0  0.61017048753E+03  0.96375677765E+02 -0.94151456702E+02  0.62486862789E+03  0.10100000352E+00 0. -1.
       -3    1    3    3    0  502 -0.61017048753E+03 -0.96375677765E+02 -0.13691053605E+04  0.15020139125E+04  0.10100000352E+00 0.  1.
</event>
<event>
 5   0  0.1069697E-03  0.1566429E+04  0.7818609E-02  0.8841441E-01
       -1   -1    0    0    0  501  0.00000000000E+00  0.00000000000E+00  0.57172002332E+03  0.57172002334E+03  0.50400001928E-02 0.  1.
        1   -1    0    0  501    0  0.00000000000E+00  0.00000000000E+00 -0.10729467030E+04  0.10729467030E+04  0.50400001928E-02 0. -1.
    10030    2    1    2    0    0  0.00000000000E+00  0.00000000000E+00 -0.50122667970E+03  0.16446667264E+04  0.15664292057E+04 0.  0.
        2    1    3    3  502    0  0.22810726001E+03 -0.55894952379E+03 -0.77450148350E+03  0.98199289212E+03  0.25500000920E-02 0. -1.
       -2    1    3    3    0  502 -0.22810726001E+03  0.55894952379E+03  0.27327480380E+03  0.66267383426E+03  0.25500000920E-02 0.  1.
</event>
<event>
 5   0  0.1961098E-03  0.1508629E+04  0.7818609E-02  0.8878735E-01
        2   -1    0    0  501    0  0.00000000000E+00  0.00000000000E+00  0.28166778101E+04  0.28166778101E+04  0.25500000920E-02 0.  1.
       -2   -1    0    0    0  501  0.00000000000E+00  0.00000000000E+00 -0.20200773107E+03  0.20200773108E+03  0.25500000920E-02 0. -1.
    10030    2    1    2    0    0  0.00000000000E+00  0.00000000000E+00  0.26146700790E+04  0.30186855412E+04  0.15086294357E+04 0.  0.
        2    1    3    3  502    0  0.10612873354E+02 -0.45018094359E+03  0.25182216240E+04  0.25581664649E+04  0.25500000920E-02 0.  1.
       -2    1    3    3    0  502 -0.10612873354E+02  0.45018094359E+03  0.96448455049E+02  0.46051907620E+03  0.25500000920E-02 0. -1.
</event>
<event>
 5   0  0.1078018E-03  0.1540552E+04  0.7818609E-02  0.8857925E-01
        1   -1    0    0  501    0  0.00000000000E+00  0.00000000000E+00  0.58398814229E+03  0.58398814231E+03  0.50400001928E-02 0.  1.
       -1   -1    0    0    0  501  0.00000000000E+00  0.00000000000E+00 -0.10159882941E+04  0.10159882941E+04  0.50400001928E-02 0. -1.
    10030    2    1    2    0    0  0.00000000000E+00  0.00000000000E+00 -0.43200015182E+03  0.15999764364E+04  0.15405520004E+04 0.  0.
        4    1    3    3  502    0 -0.62794271497E+03  0.19188993649E+03  0.20226236069E+03  0.68705565747E+03  0.12699999809E+01 0.  1.
       -4    1    3    3    0  502  0.62794271497E+03 -0.19188993649E+03 -0.63426251251E+03  0.91292077897E+03  0.12699999809E+01 0. -1.
</event>
<event>
 5   0  0.1078018E-03  0.1495679E+04  0.7818609E-02  0.8887331E-01
        1   -1    0    0  501    0  0.00000000000E+00  0.00000000000E+00  0.18080765515E+04  0.18080765515E+04  0.50400001928E-02 0.  1.
       -1   -1    0    0    0  501  0.00000000000E+00  0.00000000000E+00 -0.30931430732E+03  0.30931430736E+03  0.50400001928E-02 0. -1.
    10030    2    1    2    0    0  0.00000000000E+00  0.00000000000E+00  0.14987622441E+04  0.21173908588E+04  0.14956790380E+04 0.  0.
        4    1    3    3  502    0 -0.69988192083E+03  0.86293818011E+02  0.11018265987E+04  0.13081684879E+04  0.12699999809E+01 0.  1.
       -4    1    3    3    0  502  0.69988192083E+03 -0.86293818011E+02  0.39693564541E+03  0.80922237094E+03  0.12699999809E+01 0. -1.
</event>
<event>
 5   0  0.1993623E-03  0.1479698E+04  0.7818609E-02  0.8898067E-01
        2   -1    0    0  501    0  0.00000000000E+00  0.00000000000E+00  0.16681671057E+04  0.16681671057E+04  0.25500000920E-02 0. -1.
       -2   -1    0    0    0  501  0.00000000000E+00  0.00000000000E+00 -0.32813032055E+03  0.32813032056E+03  0.25500000920E-02 0.  1.
    10030    2    1    2    0    0  0.00000000000E+00  0.00000000000E+00  0.13400367851E+04  0.19962974263E+04  0.14796975463E+04 0.  0.
        4    1    3    3  502    0  0.49939253381E+03 -0.51040233139E+03  0.40886190858E+03  0.82284452718E+03  0.12699999809E+01 0.  1.
       -4    1    3    3    0  502 -0.49939253381E+03  0.51040233139E+03  0.93117487656E+03  0.11734528991E+04  0.12699999809E+01 0. -1.
</event>
<event>
 5   0  0.1087761E-03  0.1476532E+04  0.7818609E-02  0.8900211E-01
        1   -1    0    0  501    0  0.00000000000E+00  0.00000000000E+00  0.40284160957E+03  0.40284160960E+03  0.50400001928E-02 0.  1.
       -1   -1    0    0    0  501  0.00000000000E+00  0.00000000000E+00 -0.13529799141E+04  0.13529799141E+04  0.50400001928E-02 0. -1.
    10030    2    1    2    0    0  0.00000000000E+00  0.00000000000E+00 -0.95013830450E+03  0.17558215237E+04  0.14765318911E+04 0.  0.
        3    1    3    3  502    0  0.22114897735E+03  0.18730019337E+03  0.33237181288E+03  0.44097535625E+03  0.10100000352E+00 0.  1.
       -3    1    3    3    0  502 -0.22114897735E+03 -0.18730019337E+03 -0.12825101174E+04  0.13148461674E+04  0.10100000352E+00 0. -1.
</event>
<event>
 5   0  0.1069697E-03  0.1409070E+04  0.7818609E-02  0.8947280E-01
       -1   -1    0    0    0  501  0.00000000000E+00  0.00000000000E+00  0.44811193818E+03  0.44811193821E+03  0.50400001928E-02 0.  1.
        1   -1    0    0  501    0  0.00000000000E+00  0.00000000000E+00 -0.11076902573E+04  0.11076902573E+04  0.50400001928E-02 0. -1.
    10030    2    1    2    0    0  0.00000000000E+00  0.00000000000E+00 -0.65957831914E+03  0.15558021955E+04  0.14090695201E+04 0.  0.
        2    1    3    3  502    0 -0.42276775388E+03 -0.98504617482E+02  0.28291443010E+03  0.51814699474E+03  0.25500000920E-02 0.  1.
       -2    1    3    3    0  502  0.42276775388E+03  0.98504617482E+02 -0.94249274924E+03  0.10376552008E+04  0.25500000920E-02 0. -1.
</event>
<event>
 5   0  0.2150197E-03  0.1496310E+04  0.7818609E-02  0.8886910E-01
       -2   -1    0    0    0  501  0.00000000000E+00  0.00000000000E+00  0.61726166536E+03  0.61726166537E+03  0.25500000920E-02 0. -1.
        2   -1    0    0  501    0  0.00000000000E+00  0.00000000000E+00 -0.90680499721E+03  0.90680499721E+03  0.25500000920E-02 0.  1.
    10030    2    1    2    0    0  0.00000000000E+00  0.00000000000E+00 -0.28954333185E+03  0.15240666626E+04  0.14963100785E+04 0.  0.
        3    1    3    3  502    0 -0.28916372285E+03  0.67034018392E+03  0.21861161904E+02  0.73037630122E+03  0.10100000352E+00 0. -1.
       -3    1    3    3    0  502  0.28916372285E+03 -0.67034018392E+03 -0.31140449375E+03  0.79369036136E+03  0.10100000352E+00 0.  1.
</event>
<event>
 5   0  0.2150197E-03  0.1450524E+04  0.7818609E-02  0.8918037E-01
       -2   -1    0    0    0  501  0.00000000000E+00  0.00000000000E+00  0.58197726792E+03  0.58197726793E+03  0.25500000920E-02 0.  1.
        2   -1    0    0  501    0  0.00000000000E+00  0.00000000000E+00 -0.90382421746E+03  0.90382421746E+03  0.25500000920E-02 0. -1.
    10030    2    1    2    0    0  0.00000000000E+00  0.00000000000E+00 -0.32184694954E+03  0.14858014854E+04  0.14505242484E+04 0.  0.
        3    1    3    3  502    0 -0.47000662321E+02 -0.69992802216E+03 -0.34951205989E+03  0.78375186678E+03  0.10100000352E+00 0. -1.
       -3    1    3    3    0  502  0.47000662321E+02  0.69992802216E+03  0.27665110348E+02  0.70204961862E+03  0.10100000352E+00 0.  1.
</event>
<event>
 5   0  0.1961098E-03  0.1529969E+04  0.7818609E-02  0.8864765E-01
       -2   -1    0    0    0  501  0.00000000000E+00  0.00000000000E+00  0.24280501443E+03  0.24280501444E+03  0.25500000920E-02 0. -1.
        2   -1    0    0  501    0  0.00000000000E+00  0.00000000000E+00 -0.24101687586E+04  0.24101687586E+04  0.25500000920E-02 0.  1.
    10030    2    1    2    0    0  0.00000000000E+00  0.00000000000E+00 -0.21673637442E+04  0.26529737730E+04  0.15299687059E+04 0.  0.
        2    1    3    3  502    0  0.17523094413E+03 -0.68389331263E+03 -0.15945079104E+04  0.17438094572E+04  0.25500000920E-02 0.  1.
       -2    1    3    3    0  502 -0.17523094413E+03  0.68389331263E+03 -0.57285583380E+03  0.90916431583E+03  0.25500000920E-02 0. -1.
</event>
<event>
 5   0  0.1077140E-03  0.1483879E+04  0.7818609E-02  0.8895245E-01
       -1   -1    0    0    0  501  0.00000000000E+00  0.00000000000E+00  0.19660843871E+03  0.19660843877E+03  0.50400001928E-02 0.  1.
        1   -1    0    0  501    0  0.00000000000E+00  0.00000000000E+00 -0.27998499757E+04  0.27998499757E+04  0.50400001928E-02 0. -1.
    10030    2    1    2    0    0  0.00000000000E+00  0.00000000000E+00 -0.26032415370E+04  0.29964584144E+04  0.14838788797E+04 0.  0.
        1    1    3    3  502    0 -0.94390516324E+02  0.62786943140E+03 -0.20767548362E+04  0.21716445939E+04  0.50400001928E-02 0. -1.
       -1    1    3    3    0  502  0.94390516324E+02 -0.62786943140E+03 -0.52648670074E+03  0.82481382053E+03  0.50400001928E-02 0.  1.
</event>
<event>
 5   0  0.1993623E-03  0.1467300E+04  0.7818609E-02  0.8906494E-01
        2   -1    0    0  501    0  0.00000000000E+00  0.00000000000E+00  0.68992235570E+03  0.68992235570E+03  0.25500000920E-02 0.  1.
       -2   -1    0    0    0  501  0.00000000000E+00  0.00000000000E+00 -0.78014962947E+03  0.78014962948E+03  0.25500000920E-02 0. -1.
    10030    2    1    2    0    0  0.00000000000E+00  0.00000000000E+00 -0.90227273771E+02  0.14700719852E+04  0.14673004739E+04 0.  0.
        4    1    3    3  502    0  0.27138912868E+03 -0.60466700420E+03  0.27007048749E+03  0.71569122270E+03  0.12699999809E+01 0.  1.
       -4    1    3    3    0  502 -0.27138912868E+03  0.60466700420E+03 -0.36029776126E+03  0.75438076248E+03  0.12699999809E+01 0. -1.
</event>
<event>
 5   0  0.1087761E-03  0.1512409E+04  0.7818609E-02  0.8876243E-01
       -1   -1    0    0    0  501  0.00000000000E+00  0.00000000000E+00  0.70079730666E+03  0.70079730668E+03  0.50400001928E-02 0.  1.
        1   -1    0    0  501    0  0.00000000000E+00  0.00000000000E+00 -0.81599228147E+03  0.81599228149E+03  0.50400001928E-02 0. -1.
    10030    2    1    2    0    0  0.00000000000E+00  0.00000000000E+00 -0.11519497481E+03  0.15167895882E+04  0.15124089303E+04 0.  0.
        3    1    3    3  502    0 -0.37340118401E+03  0.45106609426E+03 -0.53747702487E+03  0.79484000156E+03  0.10100000352E+00 0. -1.
       -3    1    3    3    0  502  0.37340118401E+03 -0.45106609426E+03  0.42228205006E+03  0.72194958661E+03  0.10100000352E+00 0.  1.
</event>
<event>
 5   0  0.2150197E-03  0.1496144E+04  0.7818609E-02  0.8887021E-01
        2   -1    0    0  501    0  0.00000000000E+00  0.00000000000E+00  0.68324068333E+03  0.68324068334E+03  0.25500000920E-02 0.  1.
       -2   -1    0    0    0  501  0.00000000000E+00  0.00000000000E+00 -0.81905523952E+03  0.81905523952E+03  0.25500000920E-02 0. -1.
    10030    2    1    2    0    0  0.00000000000E+00  0.00000000000E+00 -0.13581455619E+03  0.15022959229E+04  0.14961441930E+04 0.  0.
        3    1    3    3  502    0  0.52499986796E+03  0.50624867553E+03  0.99208012091E+02  0.73603995999E+03  0.10100000352E+00 0. -1.
       -3    1    3    3    0  502 -0.52499986796E+03 -0.50624867553E+03 -0.23502256828E+03  0.76625596287E+03  0.10100000352E+00 0.  1.
</event>
<event>
 5   0  0.2111533E-03  0.1490841E+04  0.7818609E-02  0.8890566E-01
        2   -1    0    0  501    0  0.00000000000E+00  0.00000000000E+00  0.58410430010E+03  0.58410430010E+03  0.25500000920E-02 0.  1.
       -2   -1    0    0    0  501  0.00000000000E+00  0.00000000000E+00 -0.95128908965E+03  0.95128908966E+03  0.25500000920E-02 0. -1.
    10030    2    1    2    0    0  0.00000000000E+00  0.00000000000E+00 -0.36718478955E+03  0.15353933898E+04  0.14908414375E+04 0.  0.
        5    1    3    3  502    0 -0.21167519635E+03  0.30753194249E+03 -0.84804517169E+03  0.92659861193E+03  0.46999998093E+01 0. -1.
       -5    1    3    3    0  502  0.21167519635E+03 -0.30753194249E+03  0.48086038214E+03  0.60879477783E+03  0.46999998093E+01 0.  1.
</event>
<event>
 5   0  0.1077140E-03  0.1462710E+04  0.7818609E-02  0.8909636E-01
       -1   -1    0    0    0  501  0.00000000000E+00  0.00000000000E+00  0.52161759120E+03  0.52161759122E+03  0.50400001928E-02 0.  1.
        1   -1    0    0  501    0  0.00000000000E+00  0.00000000000E+00 -0.10254255557E+04  0.10254255557E+04  0.50400001928E-02 0. -1.
    10030    2    1    2    0    0  0.00000000000E+00  0.00000000000E+00 -0.50380796446E+03  0.15470431469E+04  0.14627098254E+04 0.  0.
        1    1    3    3  502    0 -0.55296659046E+03  0.25838367683E+03  0.17424830282E+03  0.63474140063E+03  0.50400001928E-02 0.  1.
       -1    1    3    3    0  502  0.55296659046E+03 -0.25838367683E+03 -0.67805626729E+03  0.91230174627E+03  0.50400001928E-02 0. -1.
</event>
<event>
 5   0  0.1077140E-03  0.1533389E+04  0.7818609E-02  0.8862548E-01
       -1   -1    0    0    0  501  0.00000000000E+00  0.00000000000E+00  0.43700435167E+03  0.43700435170E+03  0.50400001928E-02 0.  1.
        1   -1    0    0  501    0  0.00000000000E+00  0.00000000000E+00 -0.13451142017E+04  0.13451142017E+04  0.50400001928E-02 0. -1.
    10030    2    1    2    0    0  0.00000000000E+00  0.00000000000E+00 -0.90810985006E+03  0.17821185534E+04  0.15333893957E+04 0.  0.
        1    1    3    3  502    0  0.67958423639E+03 -0.29602943298E+03 -0.68165979083E+03  0.10070393389E+04  0.50400001928E-02 0. -1.
       -1    1    3    3    0  502 -0.67958423639E+03  0.29602943298E+03 -0.22645005924E+03  0.77507921460E+03  0.50400001928E-02 0.  1.
</event>
<event>
 5   0  0.2094566E-03  0.1469555E+04  0.7818609E-02  0.8904955E-01
       -2   -1    0    0    0  501  0.00000000000E+00  0.00000000000E+00  0.40691312424E+03  0.40691312425E+03  0.25500000920E-02 0. -1.
        2   -1    0    0  501    0  0.00000000000E+00  0.00000000000E+00 -0.13268136672E+04  0.13268136672E+04  0.25500000920E-02 0.  1.
    10030    2    1    2    0    0  0.00000000000E+00  0.00000000000E+00 -0.91990054295E+03  0.17337267914E+04  0.14695548913E+04 0.  0.
        1    1    3    3  502    0  0.94776600784E+02  0.72699262200E+03 -0.51771071287E+03  0.89751058977E+03  0.50400001928E-02 0. -1.
       -1    1    3    3    0  502 -0.94776600784E+02 -0.72699262200E+03 -0.40218983008E+03  0.83621620167E+03  0.50400001928E-02 0.  1.
</event>
<event>
 5   0  0.1078018E-03  0.1474343E+04  0.7818609E-02  0.8901696E-01
       -1   -1    0    0    0  501  0.00000000000E+00  0.00000000000E+00  0.84785528742E+03  0.84785528744E+03  0.50400001928E-02 0. -1.
        1   -1    0    0  501    0  0.00000000000E+00  0.00000000000E+00 -0.64093659139E+03  0.64093659141E+03  0.50400001928E-02 0.  1.
    10030    2    1    2    0    0  0.00000000000E+00  0.00000000000E+00  0.20691869603E+03  0.14887918789E+04  0.14743425354E+04 0.  0.
        4    1    3    3  502    0  0.24481002580E+03  0.44786500035E+03 -0.43364145070E+03  0.66974736128E+03  0.12699999809E+01 0.  1.
       -4    1    3    3    0  502 -0.24481002580E+03 -0.44786500035E+03  0.64056014673E+03  0.81904451757E+03  0.12699999809E+01 0. -1.
</event>
<event>
 5   0  0.2111533E-03  0.1500547E+04  0.7818609E-02  0.8884089E-01
        2   -1    0    0  501    0  0.00000000000E+00  0.00000000000E+00  0.64460435917E+03  0.64460435917E+03  0.25500000920E-02 0.  1.
       -2   -1    0    0    0  501  0.00000000000E+00  0.00000000000E+00 -0.87326486865E+03  0.87326486865E+03  0.25500000920E-02 0. -1.
    10030    2    1    2    0    0  0.00000000000E+00  0.00000000000E+00 -0.22866050948E+03  0.15178692278E+04  0.15005470216E+04 0.  0.
        5    1    3    3  502    0  0.14177990555E+02 -0.48457534135E+03  0.46488263726E+03  0.67167866817E+03  0.46999998093E+01 0.  1.
       -5    1    3    3    0  502 -0.14177990555E+02  0.48457534135E+03 -0.69354314674E+03  0.84619055965E+03  0.46999998093E+01 0. -1.
</event>
<event>
 5   0  0.1069697E-03  0.1553642E+04  0.7818609E-02  0.8849545E-01
       -1   -1    0    0    0  501  0.00000000000E+00  0.00000000000E+00  0.77937942987E+03  0.77937942989E+03  0.50400001928E-02 0.  1.
        1   -1    0    0  501    0  0.00000000000E+00  0.00000000000E+00 -0.77427080564E+03  0.77427080565E+03  0.50400001928E-02 0. -1.
    10030    2    1    2    0    0  0.00000000000E+00  0.00000000000E+00  0.51086242386E+01  0.15536502355E+04  0.15536418366E+04 0.  0.
        2    1    3    3  502    0 -0.24848605000E+02 -0.63650751102E+03  0.44718180989E+03  0.77828711659E+03  0.25500000920E-02 0.  1.
       -2    1    3    3    0  502  0.24848605000E+02  0.63650751102E+03 -0.44207318565E+03  0.77536311895E+03  0.25500000920E-02 0. -1.
</event>
<event>
 5   0  0.1078787E-03  0.1460975E+04  0.7818609E-02  0.8910827E-01
        1   -1    0    0  501    0  0.00000000000E+00  0.00000000000E+00  0.10942002243E+04  0.10942002243E+04  0.50400001928E-02 0. -1.
       -1   -1    0    0    0  501  0.00000000000E+00  0.00000000000E+00 -0.48767294905E+03  0.48767294908E+03  0.50400001928E-02 0.  1.
    10030    2    1    2    0    0  0.00000000000E+00  0.00000000000E+00  0.60652727527E+03  0.15818731734E+04  0.14609748119E+04 0.  0.
        5    1    3    3  502    0  0.32038394917E+03 -0.23480295708E+03  0.96702801370E+03  0.10454394161E+04  0.46999998093E+01 0. -1.
       -5    1    3    3    0  502 -0.32038394917E+03  0.23480295708E+03 -0.36050073843E+03  0.53643375728E+03  0.46999998093E+01 0.  1.
</event>
<event>
 5   0  0.1087761E-03  0.1554186E+04  0.7818609E-02  0.8849198E-01
       -1   -1    0    0    0  501  0.00000000000E+00  0.00000000000E+00  0.11104536603E+04  0.11104536603E+04  0.50400001928E-02 0.  1.
        1   -1    0    0  501    0  0.00000000000E+00  0.00000000000E+00 -0.54380819283E+03  0.54380819285E+03  0.50400001928E-02 0. -1.
    10030    2    1    2    0    0  0.00000000000E+00  0.00000000000E+00  0.56664546749E+03  0.16542618532E+04  0.15541863444E+04 0.  0.
        3    1    3    3  502    0  0.39507925987E+02 -0.77118529930E+03  0.37602957088E+03  0.85888642465E+03  0.10100000352E+00 0.  1.
       -3    1    3    3    0  502 -0.39507925987E+02  0.77118529930E+03  0.19061589661E+03  0.79537542853E+03  0.10100000352E+00 0. -1.
</event>
<event>
 5   0  0.2111533E-03  0.1562876E+04  0.7818609E-02  0.8843685E-01
        2   -1    0    0  501    0  0.00000000000E+00  0.00000000000E+00  0.97931523868E+03  0.97931523869E+03  0.25500000920E-02 0. -1.
       -2   -1    0    0    0  501  0.00000000000E+00  0.00000000000E+00 -0.62354282827E+03  0.62354282827E+03  0.25500000920E-02 0.  1.
    10030    2    1    2    0    0  0.00000000000E+00  0.00000000000E+00  0.35577241042E+03  0.16028580670E+04  0.15628755468E+04 0.  0.
        5    1    3    3  502    0  0.29955856369E+03  0.72147979768E+03  0.15857711818E+03  0.79714316402E+03  0.46999998093E+01 0.  1.
       -5    1    3    3    0  502 -0.29955856369E+03 -0.72147979768E+03  0.19719529224E+03  0.80571490294E+03  0.46999998093E+01 0. -1.
</event>
<event>
 5   0  0.1069697E-03  0.1530125E+04  0.7818609E-02  0.8864664E-01
       -1   -1    0    0    0  501  0.00000000000E+00  0.00000000000E+00  0.62184209265E+03  0.62184209267E+03  0.50400001928E-02 0.  1.
        1   -1    0    0  501    0  0.00000000000E+00  0.00000000000E+00 -0.94126875551E+03  0.94126875553E+03  0.50400001928E-02 0. -1.
    10030    2    1    2    0    0  0.00000000000E+00  0.00000000000E+00 -0.31942666286E+03  0.15631108482E+04  0.15301248743E+04 0.  0.
        2    1    3    3  502    0 -0.79806762034E+02 -0.75755800305E+03 -0.23236099228E+03  0.79640120416E+03  0.25500000920E-02 0. -1.
       -2    1    3    3    0  502  0.79806762034E+02  0.75755800305E+03 -0.87065670578E+02  0.76670964403E+03  0.25500000920E-02 0.  1.
</event>
<event>
 5   0  0.1087761E-03  0.1469205E+04  0.7818609E-02  0.8905193E-01
       -1   -1    0    0    0  501  0.00000000000E+00  0.00000000000E+00  0.10894867192E+04  0.10894867192E+04  0.50400001928E-02 0. -1.
        1   -1    0    0  501    0  0.00000000000E+00  0.00000000000E+00 -0.49531689714E+03  0.49531689716E+03  0.50400001928E-02 0.  1.
    10030    2    1    2    0    0  0.00000000000E+00  0.00000000000E+00  0.59416982206E+03  0.15848036164E+04  0.14692054741E+04 0.  0.
        3    1    3    3  502    0 -0.28078175022E+03  0.59718751346E+03 -0.51063119388E+02  0.66187519205E+03  0.10100000352E+00 0.  1.
       -3    1    3    3    0  502  0.28078175022E+03 -0.59718751346E+03  0.64523294144E+03  0.92292842432E+03  0.10100000352E+00 0. -1.
</event>
<event>
 5   0  0.2111533E-03  0.1516590E+04  0.7818609E-02  0.8873495E-01
       -2   -1    0    0    0  501  0.00000000000E+00  0.00000000000E+00  0.37359231179E+03  0.37359231180E+03  0.25500000920E-02 0.  1.
        2   -1    0    0  501    0  0.00000000000E+00  0.00000000000E+00 -0.15391406860E+04  0.15391406860E+04  0.25500000920E-02 0. -1.
    10030    2    1    2    0    0  0.00000000000E+00  0.00000000000E+00 -0.11655483742E+04  0.19127329978E+04  0.15165897627E+04 0.  0.
        5    1    3    3  502    0  0.50589079784E+03 -0.29060473274E+02  0.12868386938E+03  0.52283041101E+03  0.46999998093E+01 0.  1.
       -5    1    3    3    0  502 -0.50589079784E+03  0.29060473274E+02 -0.12942322436E+04  0.13899025868E+04  0.46999998093E+01 0. -1.
</event>
<event>
 5   0  0.7468375E-04  0.1470616E+04  0.7818609E-02  0.8904231E-01
        4   -1    0    0  501    0  0.00000000000E+00  0.00000000000E+00  0.78466451850E+03  0.78466554627E+03  0.12699999809E+01 0.  1.
       -4   -1    0    0    0  501  0.00000000000E+00  0.00000000000E+00 -0.68905426678E+03  0.68905543715E+03  0.12699999809E+01 0. -1.
    10030    2    1    2    0    0  0.00000000000E+00  0.00000000000E+00  0.95610251725E+02  0.14737209834E+04  0.14706162711E+04 0.  0.
        4    1    3    3  502    0 -0.16028964951E+03 -0.61313938052E+03  0.42147808148E+03  0.76110318470E+03  0.12699999809E+01 0.  1.
       -4    1    3    3    0  502  0.16028964951E+03  0.61313938052E+03 -0.32586782976E+03  0.71261779872E+03  0.12699999809E+01 0. -1.
</event>
<event>
 5   0  0.2094566E-03  0.1508787E+04  0.7818609E-02  0.8878630E-01
       -2   -1    0    0    0  501  0.00000000000E+00  0.00000000000E+00  0.29083055047E+03  0.29083055048E+03  0.25500000920E-02 0. -1.
        2   -1    0    0  501    0  0.00000000000E+00  0.00000000000E+00 -0.19568429750E+04  0.19568429750E+04  0.25500000920E-02 0.  1.
    10030    2    1    2    0    0  0.00000000000E+00  0.00000000000E+00 -0.16660124245E+04  0.22476735255E+04  0.15087872211E+04 0.  0.
        1    1    3    3  502    0 -0.46613081352E+03  0.53492952363E+03 -0.12148001623E+04  0.14068286907E+04  0.50400001928E-02 0.  1.
       -1    1    3    3    0  502  0.46613081352E+03 -0.53492952363E+03 -0.45121226217E+03  0.84084483475E+03  0.50400001928E-02 0. -1.
</event>
<event>
 5   0  0.1078018E-03  0.1475580E+04  0.7818609E-02  0.8900856E-01
        1   -1    0    0  501    0  0.00000000000E+00  0.00000000000E+00  0.11524579671E+04  0.11524579671E+04  0.50400001928E-02 0.  1.
       -1   -1    0    0    0  501  0.00000000000E+00  0.00000000000E+00 -0.47232455327E+03  0.47232455330E+03  0.50400001928E-02 0. -1.
    10030    2    1    2    0    0  0.00000000000E+00  0.00000000000E+00  0.68013341381E+03  0.16247825204E+04  0.14755801496E+04 0.  0.
        4    1    3    3  502    0 -0.27579844401E+03 -0.68219702629E+03  0.28102584920E+03  0.78767677712E+03  0.12699999809E+01 0.  1.
       -4    1    3    3    0  502  0.27579844401E+03  0.68219702629E+03  0.39910756461E+03  0.83710574327E+03  0.12699999809E+01 0. -1.
</event>
<event>
 5   0  0.1078787E-03  0.1509338E+04  0.7818609E-02  0.8878267E-01
        1   -1    0    0  501    0  0.00000000000E+00  0.00000000000E+00  0.21870999713E+04  0.21870999713E+04  0.50400001928E-02 0.  1.
       -1   -1    0    0    0  501  0.00000000000E+00  0.00000000000E+00 -0.26040200081E+03  0.26040200086E+03  0.50400001928E-02 0. -1.
    10030    2    1    2    0    0  0.00000000000E+00  0.00000000000E+00  0.19266979705E+04  0.24475019722E+04  0.15093378794E+04 0.  0.
        5    1    3    3  502    0 -0.32770223813E+03 -0.63236199310E+03  0.55882358078E+03  0.90530455186E+03  0.46999998093E+01 0. -1.
       -5    1    3    3    0  502  0.32770223813E+03  0.63236199310E+03  0.13678743897E+04  0.15421974203E+04  0.46999998093E+01 0.  1.
</event>
<event>
 5   0  0.1087761E-03  0.1520649E+04  0.7818609E-02  0.8870836E-01
        1   -1    0    0  501    0  0.00000000000E+00  0.00000000000E+00  0.13989527764E+04  0.13989527764E+04  0.50400001928E-02 0.  1.
       -1   -1    0    0    0  501  0.00000000000E+00  0.00000000000E+00 -0.41323294780E+03  0.41323294783E+03  0.50400001928E-02 0. -1.
    10030    2    1    2    0    0  0.00000000000E+00  0.00000000000E+00  0.98571982856E+03  0.18121857242E+04  0.15206490452E+04 0.  0.
        3    1    3    3  502    0  0.12349060872E+03 -0.74951116220E+03  0.53195948602E+03  0.92736067292E+03  0.10100000352E+00 0.  1.
       -3    1    3    3    0  502 -0.12349060872E+03  0.74951116220E+03  0.45376034254E+03  0.88482505128E+03  0.10100000352E+00 0. -1.
</event>
<event>
 5   0  0.1961098E-03  0.1518729E+04  0.7818609E-02  0.8872093E-01
        2   -1    0    0  501    0  0.00000000000E+00  0.00000000000E+00  0.16079347033E+04  0.16079347033E+04  0.25500000920E-02 0. -1.
       -2   -1    0    0    0  501  0.00000000000E+00  0.00000000000E+00 -0.35861785665E+03  0.35861785666E+03  0.25500000920E-02 0.  1.
    10030    2    1    2    0    0  0.00000000000E+00  0.00000000000E+00  0.12493168466E+04  0.19665525599E+04  0.15187285431E+04 0.  0.
        2    1    3    3  502    0 -0.25369574894E+03  0.32354619499E+03  0.14513383435E+04  0.15084517429E+04  0.25500000920E-02 0. -1.
       -2    1    3    3    0  502  0.25369574894E+03 -0.32354619499E+03 -0.20202149691E+03  0.45810081701E+03  0.25500000920E-02 0.  1.
</event>
<event>
 5   0  0.1087761E-03  0.1346921E+04  0.7818609E-02  0.8993162E-01
        1   -1    0    0  501    0  0.00000000000E+00  0.00000000000E+00  0.14978413284E+04  0.14978413284E+04  0.50400001928E-02 0. -1.
       -1   -1    0    0    0  501  0.00000000000E+00  0.00000000000E+00 -0.30280168805E+03  0.30280168809E+03  0.50400001928E-02 0.  1.
    10030    2    1    2    0    0  0.00000000000E+00  0.00000000000E+00  0.11950396404E+04  0.18006430165E+04  0.13469207590E+04 0.  0.
        3    1    3    3  502    0 -0.13523829861E+02 -0.52569437710E+03  0.11599727633E+04  0.12736068051E+04  0.10100000352E+00 0. -1.
       -3    1    3    3    0  502  0.13523829861E+02  0.52569437710E+03  0.35066877030E+02  0.52703621143E+03  0.10100000352E+00 0.  1.
</event>
<event>
 5   0  0.1069697E-03  0.1463352E+04  0.7818609E-02  0.8909196E-01
        1   -1    0    0  501    0  0.00000000000E+00  0.00000000000E+00  0.26303917328E+04  0.26303917328E+04  0.50400001928E-02 0.  1.
       -1   -1    0    0    0  501  0.00000000000E+00  0.00000000000E+00 -0.20352466082E+03  0.20352466089E+03  0.50400001928E-02 0. -1.
    10030    2    1    2    0    0  0.00000000000E+00  0.00000000000E+00  0.24268670720E+04  0.28339163937E+04  0.14633517490E+04 0.  0.
        2    1    3    3  502    0 -0.54841285233E+02  0.22578673032E+03 -0.13018000324E+03  0.26633446529E+03  0.25500000920E-02 0. -1.
       -2    1    3    3    0  502  0.54841285233E+02 -0.22578673032E+03  0.25570470752E+04  0.25675819284E+04  0.25500000920E-02 0.  1.
</event>
<event>
 5   0  0.1078018E-03  0.1616867E+04  0.7818609E-02  0.8810253E-01
       -1   -1    0    0    0  501  0.00000000000E+00  0.00000000000E+00  0.31746198596E+03  0.31746198600E+03  0.50400001928E-02 0.  1.
        1   -1    0    0  501    0  0.00000000000E+00  0.00000000000E+00 -0.20587178261E+04  0.20587178262E+04  0.50400001928E-02 0. -1.
    10030    2    1    2    0    0  0.00000000000E+00  0.00000000000E+00 -0.17412558402E+04  0.23761798122E+04  0.16168669082E+04 0.  0.
        4    1    3    3  502    0  0.37244934120E+03 -0.63491030249E+03 -0.37938466530E+03  0.82810865298E+03  0.12699999809E+01 0.  1.
       -4    1    3    3    0  502 -0.37244934120E+03  0.63491030249E+03 -0.13618711749E+04  0.15480711592E+04  0.12699999809E+01 0. -1.
</event>
<event>
 5   0  0.2150197E-03  0.1489371E+04  0.7818609E-02  0.8891552E-01
       -2   -1    0    0    0  501  0.00000000000E+00  0.00000000000E+00  0.52446167848E+03  0.52446167849E+03  0.25500000920E-02 0.  1.
        2   -1    0    0  501    0  0.00000000000E+00  0.00000000000E+00 -0.10573829861E+04  0.10573829861E+04  0.25500000920E-02 0. -1.
    10030    2    1    2    0    0  0.00000000000E+00  0.00000000000E+00 -0.53292130766E+03  0.15818446646E+04  0.14893714859E+04 0.  0.
        3    1    3    3  502    0 -0.56470886267E+03 -0.45207913167E+03 -0.78602392263E+02  0.72763314050E+03  0.10100000352E+00 0.  1.
       -3    1    3    3    0  502  0.56470886267E+03  0.45207913167E+03 -0.45431891540E+03  0.85421152414E+03  0.10100000352E+00 0. -1.
</event>
<event>
 5   0  0.2150197E-03  0.1376657E+04  0.7818609E-02  0.8970891E-01
       -2   -1    0    0    0  501  0.00000000000E+00  0.00000000000E+00  0.81482893976E+03  0.81482893976E+03  0.25500000920E-02 0. -1.
        2   -1    0    0  501    0  0.00000000000E+00  0.00000000000E+00 -0.58146685391E+03  0.58146685391E+03  0.25500000920E-02 0.  1.
    10030    2    1    2    0    0  0.00000000000E+00  0.00000000000E+00  0.23336208585E+03  0.13962957937E+04  0.13766568492E+04 0.  0.
        3    1    3    3  502    0  0.30435671725E+03 -0.13110524328E+03  0.72859048902E+03  0.80041595876E+03  0.10100000352E+00 0. -1.
       -3    1    3    3    0  502 -0.30435671725E+03  0.13110524328E+03 -0.49522840317E+03  0.59587983491E+03  0.10100000352E+00 0.  1.
</event>
<event>
 5   0  0.1069697E-03  0.1504838E+04  0.7818609E-02  0.8881242E-01
        1   -1    0    0  501    0  0.00000000000E+00  0.00000000000E+00  0.10721288429E+04  0.10721288429E+04  0.50400001928E-02 0.  1.
       -1   -1    0    0    0  501  0.00000000000E+00  0.00000000000E+00 -0.52804704594E+03  0.52804704597E+03  0.50400001928E-02 0. -1.
    10030    2    1    2    0    0  0.00000000000E+00  0.00000000000E+00  0.54408179695E+03  0.16001758889E+04  0.15048381553E+04 0.  0.
        2    1    3    3  502    0  0.17391251330E+03  0.39540008969E+03  0.92714617253E+03  0.10228327422E+04  0.25500000920E-02 0.  1.
       -2    1    3    3    0  502 -0.17391251330E+03 -0.39540008969E+03 -0.38306437557E+03  0.57734314671E+03  0.25500000920E-02 0. -1.
</event>
<event>
 5   0  0.1078787E-03  0.1508687E+04  0.7818609E-02  0.8878697E-01
        1   -1    0    0  501    0  0.00000000000E+00  0.00000000000E+00  0.27756899578E+04  0.27756899578E+04  0.50400001928E-02 0.  1.
       -1   -1    0    0    0  501  0.00000000000E+00  0.00000000000E+00 -0.20500633729E+03  0.20500633736E+03  0.50400001928E-02 0. -1.
    10030    2    1    2    0    0  0.00000000000E+00  0.00000000000E+00  0.25706836205E+04  0.29806962952E+04  0.15086868884E+04 0.  0.
        5    1    3    3  502    0 -0.24398248222E+03  0.40693767759E+03  0.24439217280E+04  0.24895584403E+04  0.46999998093E+01 0.  1.
       -5    1    3    3    0  502  0.24398248222E+03 -0.40693767759E+03  0.12676189248E+03  0.49113785483E+03  0.46999998093E+01 0. -1.
</event>
<event>
 5   0  0.2111533E-03  0.1496991E+04  0.7818609E-02  0.8886457E-01
       -2   -1    0    0    0  501  0.00000000000E+00  0.00000000000E+00  0.26197725393E+03  0.26197725394E+03  0.25500000920E-02 0.  1.
        2   -1    0    0  501    0  0.00000000000E+00  0.00000000000E+00 -0.21385265667E+04  0.21385265667E+04  0.25500000920E-02 0. -1.
    10030    2    1    2    0    0  0.00000000000E+00  0.00000000000E+00 -0.18765493127E+04  0.24005038206E+04  0.14969907380E+04 0.  0.
        5    1    3    3  502    0  0.37473995244E+03 -0.49871630427E+03 -0.16015240649E+04  0.17187348267E+04  0.46999998093E+01 0. -1.
       -5    1    3    3    0  502 -0.37473995244E+03  0.49871630427E+03 -0.27502524785E+03  0.68176899391E+03  0.46999998093E+01 0.  1.
</event>
<event>
 5   0  0.2094566E-03  0.1503239E+04  0.7818609E-02  0.8882302E-01
        2   -1    0    0  501    0  0.00000000000E+00  0.00000000000E+00  0.15267726264E+04  0.15267726264E+04  0.25500000920E-02 0. -1.
       -2   -1    0    0    0  501  0.00000000000E+00  0.00000000000E+00 -0.37001720674E+03  0.37001720675E+03  0.25500000920E-02 0.  1.
    10030    2    1    2    0    0  0.00000000000E+00  0.00000000000E+00  0.11567554197E+04  0.18967898332E+04  0.15032393589E+04 0.  0.
        1    1    3    3  502    0 -0.43132096954E+03 -0.33180930192E+03  0.12325667198E+04  0.13473514428E+04  0.50400001928E-02 0. -1.
       -1    1    3    3    0  502  0.43132096954E+03  0.33180930192E+03 -0.75811300090E+02  0.54943839041E+03  0.50400001928E-02 0.  1.
</event>
<event>
 5   0  0.7468375E-04  0.1455774E+04  0.7818609E-02  0.8914407E-01
        3   -1    0    0  501    0  0.00000000000E+00  0.00000000000E+00  0.72116135011E+03  0.72116135718E+03  0.10100000352E+00 0. -1.
       -3   -1    0    0    0  501  0.00000000000E+00  0.00000000000E+00 -0.73467548102E+03  0.73467548797E+03  0.10100000352E+00 0.  1.
    10030    2    1    2    0    0  0.00000000000E+00  0.00000000000E+00 -0.13514130916E+02  0.14558368451E+04  0.14557741198E+04 0.  0.
        1    1    3    3  502    0  0.14078175639E+03 -0.68865029188E+03 -0.19587059290E+03  0.72967391116E+03  0.50400001928E-02 0.  1.
       -1    1    3    3    0  502 -0.14078175639E+03  0.68865029188E+03  0.18235646198E+03  0.72616293398E+03  0.50400001928E-02 0. -1.
</event>
<event>
 5   0  0.1078018E-03  0.1466710E+04  0.7818609E-02  0.8906897E-01
        1   -1    0    0  501    0  0.00000000000E+00  0.00000000000E+00  0.46415278833E+03  0.46415278836E+03  0.50400001928E-02 0.  1.
       -1   -1    0    0    0  501  0.00000000000E+00  0.00000000000E+00 -0.11586903940E+04  0.11586903940E+04  0.50400001928E-02 0. -1.
    10030    2    1    2    0    0  0.00000000000E+00  0.00000000000E+00 -0.69453760563E+03  0.16228431823E+04  0.14667097562E+04 0.  0.
        4    1    3    3  502    0 -0.33399349020E+03  0.31410899023E+03  0.28601559671E+03  0.54039119506E+03  0.12699999809E+01 0.  1.
       -4    1    3    3    0  502  0.33399349020E+03 -0.31410899023E+03 -0.98055320233E+03  0.10824519873E+04  0.12699999809E+01 0. -1.
</event>
<event>
 5   0  0.1993623E-03  0.1489934E+04  0.7818609E-02  0.8891174E-01
        2   -1    0    0  501    0  0.00000000000E+00  0.00000000000E+00  0.77035409410E+03  0.77035409410E+03  0.25500000920E-02 0. -1.
       -2   -1    0    0    0  501  0.00000000000E+00  0.00000000000E+00 -0.72041652107E+03  0.72041652108E+03  0.25500000920E-02 0.  1.
    10030    2    1    2    0    0  0.00000000000E+00  0.00000000000E+00  0.49937573025E+02  0.14907706152E+04  0.14899339804E+04 0.  0.
        4    1    3    3  502    0  0.48113293833E+03  0.28071984864E+03 -0.46996204964E+03  0.72880620111E+03  0.12699999809E+01 0.  1.
       -4    1    3    3    0  502 -0.48113293833E+03 -0.28071984864E+03  0.51989962267E+03  0.76196441407E+03  0.12699999809E+01 0. -1.
</event>
<event>
 5   0  0.2150197E-03  0.1327868E+04  0.7818609E-02  0.9007753E-01
        2   -1    0    0  501    0  0.00000000000E+00  0.00000000000E+00  0.18041059946E+04  0.18041059946E+04  0.25500000920E-02 0.  1.
       -2   -1    0    0    0  501  0.00000000000E+00  0.00000000000E+00 -0.24433634642E+03  0.24433634643E+03  0.25500000920E-02 0. -1.
    10030    2    1    2    0    0  0.00000000000E+00  0.00000000000E+00  0.15597696482E+04  0.20484423410E+04  0.13278684683E+04 0.  0.
        3    1    3    3  502    0  0.24391360308E+03 -0.57677305300E+02  0.17283202610E+04  0.17463995683E+04  0.10100000352E+00 0.  1.
       -3    1    3    3    0  502 -0.24391360308E+03  0.57677305300E+02 -0.16855061279E+03  0.30204277278E+03  0.10100000352E+00 0. -1.
</event>
<event>
 5   0  0.2111533E-03  0.1482998E+04  0.7818609E-02  0.8895839E-01
       -2   -1    0    0    0  501  0.00000000000E+00  0.00000000000E+00  0.16972719386E+04  0.16972719386E+04  0.25500000920E-02 0.  1.
        2   -1    0    0  501    0  0.00000000000E+00  0.00000000000E+00 -0.32394376600E+03  0.32394376601E+03  0.25500000920E-02 0. -1.
    10030    2    1    2    0    0  0.00000000000E+00  0.00000000000E+00  0.13733281726E+04  0.20212157046E+04  0.14829978607E+04 0.  0.
        5    1    3    3  502    0  0.78394062635E+02 -0.65508601947E+03  0.22544868035E+03  0.69723204131E+03  0.46999998093E+01 0. -1.
       -5    1    3    3    0  502 -0.78394062635E+02  0.65508601947E+03  0.11478794923E+04  0.13239836633E+04  0.46999998093E+01 0.  1.
</event>
<event>
 5   0  0.2111533E-03  0.1515342E+04  0.7818609E-02  0.8874314E-01
        2   -1    0    0  501    0  0.00000000000E+00  0.00000000000E+00  0.23208467313E+04  0.23208467313E+04  0.25500000920E-02 0.  1.
       -2   -1    0    0    0  501  0.00000000000E+00  0.00000000000E+00 -0.24735171364E+03  0.24735171365E+03  0.25500000920E-02 0. -1.
    10030    2    1    2    0    0  0.00000000000E+00  0.00000000000E+00  0.20734950177E+04  0.25681984450E+04  0.15153420948E+04 0.  0.
        5    1    3    3  502    0 -0.63013011141E+03  0.60932143988E+02  0.33128267299E+03  0.71452570485E+03  0.46999998093E+01 0.  1.
       -5    1    3    3    0  502  0.63013011141E+03 -0.60932143988E+02  0.17422123447E+04  0.18536727401E+04  0.46999998093E+01 0. -1.
</event>
<event>
 5   0  0.2111533E-03  0.1410863E+04  0.7818609E-02  0.8945993E-01
        2   -1    0    0  501    0  0.00000000000E+00  0.00000000000E+00  0.11842201871E+04  0.11842201871E+04  0.25500000920E-02 0.  1.
       -2   -1    0    0    0  501  0.00000000000E+00  0.00000000000E+00 -0.42022061654E+03  0.42022061655E+03  0.25500000920E-02 0. -1.
    10030    2    1    2    0    0  0.00000000000E+00  0.00000000000E+00  0.76399957057E+03  0.16044408037E+04  0.14108631927E+04 0.  0.
        5    1    3    3  502    0 -0.48754183802E+03  0.84640434192E+01  0.96168773820E+03  0.10782551088E+04  0.46999998093E+01 0.  1.
       -5    1    3    3    0  502  0.48754183802E+03 -0.84640434192E+01 -0.19768816764E+03  0.52618569486E+03  0.46999998093E+01 0. -1.
</event>
<event>
 5   0  0.1078787E-03  0.1529727E+04  0.7818609E-02  0.8864922E-01
        1   -1    0    0  501    0  0.00000000000E+00  0.00000000000E+00  0.91157153040E+03  0.91157153041E+03  0.50400001928E-02 0.  1.
       -1   -1    0    0    0  501  0.00000000000E+00  0.00000000000E+00 -0.64176643510E+03  0.64176643512E+03  0.50400001928E-02 0. -1.
    10030    2    1    2    0    0  0.00000000000E+00  0.00000000000E+00  0.26980509529E+03  0.15533379655E+04  0.15297267879E+04 0.  0.
        5    1    3    3  502    0 -0.33431935217E+03 -0.91416468205E+01  0.83337187833E+03  0.89798873964E+03  0.46999998093E+01 0.  1.
       -5    1    3    3    0  502  0.33431935217E+03  0.91416468205E+01 -0.56356678303E+03  0.65534922589E+03  0.46999998093E+01 0. -1.
</event>
<event>
 5   0  0.2094566E-03  0.1476955E+04  0.7818609E-02  0.8899924E-01
        2   -1    0    0  501    0  0.00000000000E+00  0.00000000000E+00  0.72881061786E+03  0.72881061786E+03  0.25500000920E-02 0.  1.
       -2   -1    0    0    0  501  0.00000000000E+00  0.00000000000E+00 -0.74827225756E+03  0.74827225756E+03  0.25500000920E-02 0. -1.
    10030    2    1    2    0    0  0.00000000000E+00  0.00000000000E+00 -0.19461639700E+02  0.14770828754E+04  0.14769546592E+04 0.  0.
        1    1    3    3  502    0  0.53582718657E+03  0.12114863372E+03 -0.50329266044E+03  0.74504447344E+03  0.50400001928E-02 0. -1.
       -1    1    3    3    0  502 -0.53582718657E+03 -0.12114863372E+03  0.48383102074E+03  0.73203840198E+03  0.50400001928E-02 0.  1.
</event>
<event>
 5   0  0.1069697E-03  0.1422139E+04  0.7818609E-02  0.8937947E-01
        1   -1    0    0  501    0  0.00000000000E+00  0.00000000000E+00  0.13072339117E+04  0.13072339117E+04  0.50400001928E-02 0. -1.
       -1   -1    0    0    0  501  0.00000000000E+00  0.00000000000E+00 -0.38678601965E+03  0.38678601969E+03  0.50400001928E-02 0.  1.
    10030    2    1    2    0    0  0.00000000000E+00  0.00000000000E+00  0.92044789202E+03  0.16940199314E+04  0.14221389545E+04 0.  0.
        2    1    3    3  502    0  0.20587505460E+03  0.63166995580E+03  0.76210773994E+03  0.10110389104E+04  0.25500000920E-02 0. -1.
       -2    1    3    3    0  502 -0.20587505460E+03 -0.63166995580E+03  0.15834015208E+03  0.68298102092E+03  0.25500000920E-02 0.  1.
</event>
<event>
 5   0  0.1078018E-03  0.1510404E+04  0.7818609E-02  0.8877564E-01
       -1   -1    0    0    0  501  0.00000000000E+00  0.00000000000E+00  0.79278452916E+03  0.79278452918E+03  0.50400001928E-02 0.  1.
        1   -1    0    0  501    0  0.00000000000E+00  0.00000000000E+00 -0.71940082499E+03  0.71940082501E+03  0.50400001928E-02 0. -1.
    10030    2    1    2    0    0  0.00000000000E+00  0.00000000000E+00  0.73383704167E+02  0.15121853542E+04  0.15104037134E+04 0.  0.
        4    1    3    3  502    0  0.14034461474E+02  0.44016043907E+03  0.65092189099E+03  0.78590018405E+03  0.12699999809E+01 0.  1.
       -4    1    3    3    0  502 -0.14034461474E+02 -0.44016043907E+03 -0.57753818682E+03  0.72628517014E+03  0.12699999809E+01 0. -1.
</event>
<event>
 5   0  0.1087761E-03  0.1513766E+04  0.7818609E-02  0.8875350E-01
        1   -1    0    0  501    0  0.00000000000E+00  0.00000000000E+00  0.13992295119E+04  0.13992295119E+04  0.50400001928E-02 0.  1.
       -1   -1    0    0    0  501  0.00000000000E+00  0.00000000000E+00 -0.40941927103E+03  0.40941927106E+03  0.50400001928E-02 0. -1.
    10030    2    1    2    0    0  0.00000000000E+00  0.00000000000E+00  0.98981024088E+03  0.18086487830E+04  0.15137655391E+04 0.  0.
        3    1    3    3  502    0  0.15708573108E+03 -0.65845676187E+03  0.89943006540E+03  0.11257067500E+04  0.10100000352E+00 0.  1.
       -3    1    3    3    0  502 -0.15708573108E+03  0.65845676187E+03  0.90380175484E+02  0.68294203303E+03  0.10100000352E+00 0. -1.
</event>
<event>
 5   0  0.2094566E-03  0.1445558E+04  0.7818609E-02  0.8921486E-01
       -2   -1    0    0    0  501  0.00000000000E+00  0.00000000000E+00  0.45695246725E+03  0.45695246726E+03  0.25500000920E-02 0.  1.
        2   -1    0    0  501    0  0.00000000000E+00  0.00000000000E+00 -0.11432471154E+04  0.11432471154E+04  0.25500000920E-02 0. -1.
    10030    2    1    2    0    0  0.00000000000E+00  0.00000000000E+00 -0.68629464818E+03  0.16001995827E+04  0.14455581484E+04 0.  0.
        1    1    3    3  502    0 -0.18439490924E+03  0.69665660303E+03 -0.28173568798E+03  0.77376152851E+03  0.50400001928E-02 0. -1.
       -1    1    3    3    0  502  0.18439490924E+03 -0.69665660303E+03 -0.40455896020E+03  0.82643805418E+03  0.50400001928E-02 0.  1.
</event>
<event>
 5   0  0.1078018E-03  0.1480414E+04  0.7818609E-02  0.8897583E-01
        1   -1    0    0  501    0  0.00000000000E+00  0.00000000000E+00  0.15805878200E+04  0.15805878200E+04  0.50400001928E-02 0.  1.
       -1   -1    0    0    0  501  0.00000000000E+00  0.00000000000E+00 -0.34664723641E+03  0.34664723645E+03  0.50400001928E-02 0. -1.
    10030    2    1    2    0    0  0.00000000000E+00  0.00000000000E+00  0.12339405836E+04  0.19272350565E+04  0.14804139958E+04 0.  0.
        4    1    3    3  502    0  0.20504741745E+03 -0.25915720052E+03 -0.24528184019E+03  0.41154792189E+03  0.12699999809E+01 0. -1.
       -4    1    3    3    0  502 -0.20504741745E+03  0.25915720052E+03  0.14792224238E+04  0.15156871346E+04  0.12699999809E+01 0.  1.
</event>
<event>
 5   0  0.1078018E-03  0.1352880E+04  0.7818609E-02  0.8988651E-01
        1   -1    0    0  501    0  0.00000000000E+00  0.00000000000E+00  0.14936887153E+04  0.14936887153E+04  0.50400001928E-02 0. -1.
       -1   -1    0    0    0  501  0.00000000000E+00  0.00000000000E+00 -0.30633626931E+03  0.30633626935E+03  0.50400001928E-02 0.  1.
    10030    2    1    2    0    0  0.00000000000E+00  0.00000000000E+00  0.11873524459E+04  0.18000249846E+04  0.13528799334E+04 0.  0.
        4    1    3    3  502    0 -0.18821286717E+02  0.67041944571E+03  0.47652345991E+03  0.82273488729E+03  0.12699999809E+01 0.  1.
       -4    1    3    3    0  502  0.18821286717E+02 -0.67041944571E+03  0.71082898604E+03  0.97729009732E+03  0.12699999809E+01 0. -1.
</event>
<event>
 5   0  0.1078787E-03  0.1457706E+04  0.7818609E-02  0.8913076E-01
       -1   -1    0    0    0  501  0.00000000000E+00  0.00000000000E+00  0.34710960535E+03  0.34710960539E+03  0.50400001928E-02 0.  1.
        1   -1    0    0  501    0  0.00000000000E+00  0.00000000000E+00 -0.15304287333E+04  0.15304287333E+04  0.50400001928E-02 0. -1.
    10030    2    1    2    0    0  0.00000000000E+00  0.00000000000E+00 -0.11833191279E+04  0.18775383387E+04  0.14577057504E+04 0.  0.
        5    1    3    3  502    0  0.26418950922E+03  0.38025842186E+03 -0.13166289409E+04  0.13956813470E+04  0.46999998093E+01 0. -1.
       -5    1    3    3    0  502 -0.26418950922E+03 -0.38025842186E+03  0.13330981303E+03  0.48185699168E+03  0.46999998093E+01 0.  1.
</event>
<event>
 5   0  0.1961098E-03  0.1411464E+04  0.7818609E-02  0.8945562E-01
        2   -1    0    0  501    0  0.00000000000E+00  0.00000000000E+00  0.48486237210E+03  0.48486237210E+03  0.25500000920E-02 0.  1.
       -2   -1    0    0    0  501  0.00000000000E+00  0.00000000000E+00 -0.10272144945E+04  0.10272144946E+04  0.25500000920E-02 0. -1.
    10030    2    1    2    0    0  0.00000000000E+00  0.00000000000E+00 -0.54235212245E+03  0.15120768667E+04  0.14114640009E+04 0.  0.
        2    1    3    3  502    0 -0.62383123645E+03  0.17044600557E+03  0.31526033484E+02  0.64746516754E+03  0.25500000920E-02 0. -1.
       -2    1    3    3    0  502  0.62383123645E+03 -0.17044600557E+03 -0.57387815593E+03  0.86461169912E+03  0.25500000920E-02 0.  1.
</event>
<event>
 5   0  0.1993623E-03  0.1277384E+04  0.7818609E-02  0.9047695E-01
       -2   -1    0    0    0  501  0.00000000000E+00  0.00000000000E+00  0.67768365008E+03  0.67768365008E+03  0.25500000920E-02 0. -1.
        2   -1    0    0  501    0  0.00000000000E+00  0.00000000000E+00 -0.60194374683E+03  0.60194374684E+03  0.25500000920E-02 0.  1.
    10030    2    1    2    0    0  0.00000000000E+00  0.00000000000E+00  0.75739903245E+02  0.12796273969E+04  0.12773839446E+04 0.  0.
        4    1    3    3  502    0 -0.14408188265E+03  0.49602319063E+03  0.41419877470E+03  0.66208823613E+03  0.12699999809E+01 0. -1.
       -4    1    3    3    0  502  0.14408188265E+03 -0.49602319063E+03 -0.33845887145E+03  0.61753916080E+03  0.12699999809E+01 0.  1.
</event>
<event>
 5   0  0.2111533E-03  0.1308454E+04  0.7818609E-02  0.9022888E-01
        2   -1    0    0  501    0  0.00000000000E+00  0.00000000000E+00  0.29280222601E+04  0.29280222601E+04  0.25500000920E-02 0.  1.
       -2   -1    0    0    0  501  0.00000000000E+00  0.00000000000E+00 -0.14617821153E+03  0.14617821156E+03  0.25500000920E-02 0. -1.
    10030    2    1    2    0    0  0.00000000000E+00  0.00000000000E+00  0.27818440485E+04  0.30742004716E+04  0.13084541373E+04 0.  0.
        5    1    3    3  502    0 -0.59456376307E+03  0.25784839435E+03  0.11807889734E+04  0.13469508353E+04  0.46999998093E+01 0.  1.
       -5    1    3    3    0  502  0.59456376307E+03 -0.25784839435E+03  0.16010550751E+04  0.17272496364E+04  0.46999998093E+01 0. -1.
</event>
<event>
 5   0  0.2150197E-03  0.1515239E+04  0.7818609E-02  0.8874382E-01
        2   -1    0    0  501    0  0.00000000000E+00  0.00000000000E+00  0.10417129568E+04  0.10417129568E+04  0.25500000920E-02 0. -1.
       -2   -1    0    0    0  501  0.00000000000E+00  0.00000000000E+00 -0.55100344030E+03  0.55100344031E+03  0.25500000920E-02 0.  1.
    10030    2    1    2    0    0  0.00000000000E+00  0.00000000000E+00  0.49070951650E+03  0.15927163971E+04  0.15152391534E+04 0.  0.
        3    1    3    3  502    0 -0.60231686632E+03 -0.37990269569E+03 -0.26471615091E+02  0.71260958614E+03  0.10100000352E+00 0. -1.
       -3    1    3    3    0  502  0.60231686632E+03  0.37990269569E+03  0.51718113159E+03  0.88010681098E+03  0.10100000352E+00 0.  1.
</event>
<event>
 5   0  0.2111533E-03  0.1428592E+04  0.7818609E-02  0.8933378E-01
        2   -1    0    0  501    0  0.00000000000E+00  0.00000000000E+00  0.11973445950E+04  0.11973445950E+04  0.25500000920E-02 0. -1.
       -2   -1    0    0    0  501  0.00000000000E+00  0.00000000000E+00 -0.42612516526E+03  0.42612516527E+03  0.25500000920E-02 0.  1.
    10030    2    1    2    0    0  0.00000000000E+00  0.00000000000E+00  0.77121942976E+03  0.16234697603E+04  0.14285918430E+04 0.  0.
        5    1    3    3  502    0  0.33766128449E+03  0.59840051635E+03  0.16379591332E+03  0.70636358360E+03  0.46999998093E+01 0.  1.
       -5    1    3    3    0  502 -0.33766128449E+03 -0.59840051635E+03  0.60742351644E+03  0.91710617670E+03  0.46999998093E+01 0. -1.
</event>
<event>
 5   0  0.1961098E-03  0.1493345E+04  0.7818609E-02  0.8888890E-01
        2   -1    0    0  501    0  0.00000000000E+00  0.00000000000E+00  0.54002567708E+03  0.54002567708E+03  0.25500000920E-02 0.  1.
       -2   -1    0    0    0  501  0.00000000000E+00  0.00000000000E+00 -0.10323951576E+04  0.10323951576E+04  0.25500000920E-02 0. -1.
    10030    2    1    2    0    0  0.00000000000E+00  0.00000000000E+00 -0.49236948049E+03  0.15724208347E+04  0.14933450961E+04 0.  0.
        2    1    3    3  502    0 -0.22365691204E+02 -0.20419522352E+03  0.50968817859E+03  0.54952520675E+03  0.25500000920E-02 0.  1.
       -2    1    3    3    0  502  0.22365691204E+02  0.20419522352E+03 -0.10020576591E+04  0.10228956279E+04  0.25500000920E-02 0. -1.
</event>
<event>
 5   0  0.1077140E-03  0.1509379E+04  0.7818609E-02  0.8878240E-01
        1   -1    0    0  501    0  0.00000000000E+00  0.00000000000E+00  0.41722907235E+03  0.41722907238E+03  0.50400001928E-02 0. -1.
       -1   -1    0    0    0  501  0.00000000000E+00  0.00000000000E+00 -0.13650921871E+04  0.13650921871E+04  0.50400001928E-02 0.  1.
    10030    2    1    2    0    0  0.00000000000E+00  0.00000000000E+00 -0.94786311473E+03  0.17823212595E+04  0.15093788748E+04 0.  0.
        1    1    3    3  502    0 -0.22064883106E+03 -0.30383623004E+03  0.29908783308E+03  0.48005821861E+03  0.50400001928E-02 0. -1.
       -1    1    3    3    0  502  0.22064883106E+03  0.30383623004E+03 -0.12469509478E+04  0.13022630409E+04  0.50400001928E-02 0.  1.
</event>
<event>
 5   0  0.1078018E-03  0.1481602E+04  0.7818609E-02  0.8896780E-01
       -1   -1    0    0    0  501  0.00000000000E+00  0.00000000000E+00  0.42312734740E+03  0.42312734743E+03  0.50400001928E-02 0. -1.
        1   -1    0    0  501    0  0.00000000000E+00  0.00000000000E+00 -0.12969769044E+04  0.12969769045E+04  0.50400001928E-02 0.  1.
    10030    2    1    2    0    0  0.00000000000E+00  0.00000000000E+00 -0.87384955704E+03  0.17201042519E+04  0.14816023721E+04 0.  0.
        4    1    3    3  502    0  0.27111243782E+03 -0.47151295710E+03 -0.10208370798E+04  0.11566919984E+04  0.12699999809E+01 0.  1.
       -4    1    3    3    0  502 -0.27111243782E+03  0.47151295710E+03  0.14698752278E+03  0.56341225351E+03  0.12699999809E+01 0. -1.
</event>
<event>
 5   0  0.1993623E-03  0.1583906E+04  0.7818609E-02  0.8830497E-01
       -2   -1    0    0    0  501  0.00000000000E+00  0.00000000000E+00  0.38438443115E+03  0.38438443116E+03  0.25500000920E-02 0.  1.
        2   -1    0    0  501    0  0.00000000000E+00  0.00000000000E+00 -0.16316717304E+04  0.16316717304E+04  0.25500000920E-02 0. -1.
    10030    2    1    2    0    0  0.00000000000E+00  0.00000000000E+00 -0.12472872992E+04  0.20160561615E+04  0.15839055652E+04 0.  0.
        4    1    3    3  502    0 -0.65329121630E+03  0.43878932338E+03 -0.73650441548E+03  0.10778524252E+04  0.12699999809E+01 0. -1.
       -4    1    3    3    0  502  0.65329121630E+03 -0.43878932338E+03 -0.51078288374E+03  0.93820373631E+03  0.12699999809E+01 0.  1.
</event>
<event>
 5   0  0.1993623E-03  0.1544344E+04  0.7818609E-02  0.8855489E-01
       -2   -1    0    0    0  501  0.00000000000E+00  0.00000000000E+00  0.31553016820E+03  0.31553016821E+03  0.25500000920E-02 0. -1.
        2   -1    0    0  501    0  0.00000000000E+00  0.00000000000E+00 -0.18896743386E+04  0.18896743386E+04  0.25500000920E-02 0.  1.
    10030    2    1    2    0    0  0.00000000000E+00  0.00000000000E+00 -0.15741441704E+04  0.22052045068E+04  0.15443435653E+04 0.  0.
        4    1    3    3  502    0 -0.63576524181E+03  0.21961862994E+03 -0.24555599534E+03  0.71605107713E+03  0.12699999809E+01 0. -1.
       -4    1    3    3    0  502  0.63576524181E+03 -0.21961862994E+03 -0.13285881751E+04  0.14891534297E+04  0.12699999809E+01 0.  1.
</event>
<event>
 5   0  0.1069697E-03  0.1309247E+04  0.7818609E-02  0.9022264E-01
        1   -1    0    0  501    0  0.00000000000E+00  0.00000000000E+00  0.77426079664E+03  0.77426079666E+03  0.50400001928E-02 0.  1.
       -1   -1    0    0    0  501  0.00000000000E+00  0.00000000000E+00 -0.55347261838E+03  0.55347261840E+03  0.50400001928E-02 0. -1.
    10030    2    1    2    0    0  0.00000000000E+00  0.00000000000E+00  0.22078817826E+03  0.13277334151E+04  0.13092473417E+04 0.  0.
        2    1    3    3  502    0 -0.40283719591E+02  0.34753976327E+03  0.67149235674E+03  0.75717148011E+03  0.25500000920E-02 0.  1.
       -2    1    3    3    0  502  0.40283719591E+02 -0.34753976327E+03 -0.45070417848E+03  0.57056193496E+03  0.25500000920E-02 0. -1.
</event>
<event>
 5   0  0.1069697E-03  0.1517367E+04  0.7818609E-02  0.8872986E-01
        1   -1    0    0  501    0  0.00000000000E+00  0.00000000000E+00  0.10065938099E+04  0.10065938099E+04  0.50400001928E-02 0.  1.
       -1   -1    0    0    0  501  0.00000000000E+00  0.00000000000E+00 -0.57182998809E+03  0.57182998811E+03  0.50400001928E-02 0. -1.
    10030    2    1    2    0    0  0.00000000000E+00  0.00000000000E+00  0.43476382179E+03  0.15784237980E+04  0.15173668328E+04 0.  0.
        2    1    3    3  502    0  0.65099680283E+03 -0.24236928429E+03  0.53471581049E+03  0.87661890538E+03  0.25500000920E-02 0.  1.
       -2    1    3    3    0  502 -0.65099680283E+03  0.24236928429E+03 -0.99951988704E+02  0.70180489263E+03  0.25500000920E-02 0. -1.
</event>
<event>
 5   0  0.1961098E-03  0.1399218E+04  0.7818609E-02  0.8954385E-01
        2   -1    0    0  501    0  0.00000000000E+00  0.00000000000E+00  0.11725387859E+04  0.11725387859E+04  0.25500000920E-02 0.  1.
       -2   -1    0    0    0  501  0.00000000000E+00  0.00000000000E+00 -0.41742994612E+03  0.41742994613E+03  0.25500000920E-02 0. -1.
    10030    2    1    2    0    0  0.00000000000E+00  0.00000000000E+00  0.75510883978E+03  0.15899687320E+04  0.13992180705E+04 0.  0.
        2    1    3    3  502    0 -0.49346550754E+03  0.16848714395E+03 -0.15246207674E+03  0.54326863490E+03  0.25500000920E-02 0. -1.
       -2    1    3    3    0  502  0.49346550754E+03 -0.16848714395E+03  0.90757091652E+03  0.10467000971E+04  0.25500000920E-02 0.  1.
</event>
<event>
 5   0  0.2150197E-03  0.1213079E+04  0.7818609E-02  0.9101485E-01
        2   -1    0    0  501    0  0.00000000000E+00  0.00000000000E+00  0.18657312989E+04  0.18657312989E+04  0.25500000920E-02 0.  1.
       -2   -1    0    0    0  501  0.00000000000E+00  0.00000000000E+00 -0.19718294377E+03  0.19718294378E+03  0.25500000920E-02 0. -1.
    10030    2    1    2    0    0  0.00000000000E+00  0.00000000000E+00  0.16685483552E+04  0.20629142427E+04  0.12130793706E+04 0.  0.
        3    1    3    3  502    0 -0.43054761272E+03  0.77153993444E+01  0.15606733199E+04  0.16189910425E+04  0.10100000352E+00 0.  1.
       -3    1    3    3    0  502  0.43054761272E+03 -0.77153993444E+01  0.10787503526E+03  0.44392320016E+03  0.10100000352E+00 0. -1.
</event>
<event>
 5   0  0.1961098E-03  0.1464812E+04  0.7818609E-02  0.8908195E-01
       -2   -1    0    0    0  501  0.00000000000E+00  0.00000000000E+00  0.48171122415E+03  0.48171122416E+03  0.25500000920E-02 0.  1.
        2   -1    0    0  501    0  0.00000000000E+00  0.00000000000E+00 -0.11135694330E+04  0.11135694330E+04  0.25500000920E-02 0. -1.
    10030    2    1    2    0    0  0.00000000000E+00  0.00000000000E+00 -0.63185820883E+03  0.15952806571E+04  0.14648124723E+04 0.  0.
        2    1    3    3  502    0  0.32156761679E+03 -0.93127954659E+02  0.39350527980E+03  0.51664780397E+03  0.25500000920E-02 0.  1.
       -2    1    3    3    0  502 -0.32156761679E+03  0.93127954659E+02 -0.10253634886E+04  0.10786328532E+04  0.25500000920E-02 0. -1.
</event>
<event>
 5   0  0.2094566E-03  0.1514333E+04  0.7818609E-02  0.8874977E-01
        2   -1    0    0  501    0  0.00000000000E+00  0.00000000000E+00  0.16266448269E+04  0.16266448269E+04  0.25500000920E-02 0. -1.
       -2   -1    0    0    0  501  0.00000000000E+00  0.00000000000E+00 -0.35244400528E+03  0.35244400529E+03  0.25500000920E-02 0.  1.
    10030    2    1    2    0    0  0.00000000000E+00  0.00000000000E+00  0.12742008216E+04  0.19790888322E+04  0.15143331443E+04 0.  0.
        1    1    3    3  502    0  0.48889795692E+03  0.44972558473E+03  0.16223003221E+03  0.68380764636E+03  0.50400001928E-02 0.  1.
       -1    1    3    3    0  502 -0.48889795692E+03 -0.44972558473E+03  0.11119707894E+04  0.12952811858E+04  0.50400001928E-02 0. -1.
</event>
<event>
 5   0  0.1078787E-03  0.1512153E+04  0.7818609E-02  0.8876411E-01
        1   -1    0    0  501    0  0.00000000000E+00  0.00000000000E+00  0.56975744407E+03  0.56975744410E+03  0.50400001928E-02 0. -1.
       -1   -1    0    0    0  501  0.00000000000E+00  0.00000000000E+00 -0.10033244537E+04  0.10033244537E+04  0.50400001928E-02 0.  1.
    10030    2    1    2    0    0  0.00000000000E+00  0.00000000000E+00 -0.43356700963E+03  0.15730818978E+04  0.15121528710E+04 0.  0.
        5    1    3    3  502    0  0.29665865216E+03  0.62138031594E+03  0.10806389655E+03  0.69700771062E+03  0.46999998093E+01 0.  1.
       -5    1    3    3    0  502 -0.29665865216E+03 -0.62138031594E+03 -0.54163090618E+03  0.87607418719E+03  0.46999998093E+01 0. -1.
</event>
<event>
 5   0  0.2111533E-03  0.1510167E+04  0.7818609E-02  0.8877720E-01
       -2   -1    0    0    0  501  0.00000000000E+00  0.00000000000E+00  0.37663631077E+03  0.37663631078E+03  0.25500000920E-02 0. -1.
        2   -1    0    0  501    0  0.00000000000E+00  0.00000000000E+00 -0.15137970617E+04  0.15137970617E+04  0.25500000920E-02 0.  1.
    10030    2    1    2    0    0  0.00000000000E+00  0.00000000000E+00 -0.11371607509E+04  0.18904333725E+04  0.15101667995E+04 0.  0.
        5    1    3    3  502    0 -0.58996564020E+03  0.30872819240E+03 -0.10142584090E+04  0.12133073657E+04  0.46999998093E+01 0.  1.
       -5    1    3    3    0  502  0.58996564020E+03 -0.30872819240E+03 -0.12290234188E+03  0.67712600676E+03  0.46999998093E+01 0. -1.
</event>
<event>
 5   0  0.1993623E-03  0.1520607E+04  0.7818609E-02  0.8870864E-01
       -2   -1    0    0    0  501  0.00000000000E+00  0.00000000000E+00  0.54919040978E+03  0.54919040978E+03  0.25500000920E-02 0.  1.
        2   -1    0    0  501    0  0.00000000000E+00  0.00000000000E+00 -0.10525697717E+04  0.10525697717E+04  0.25500000920E-02 0. -1.
    10030    2    1    2    0    0  0.00000000000E+00  0.00000000000E+00 -0.50337936193E+03  0.16017601815E+04  0.15206067529E+04 0.  0.
        4    1    3    3  502    0 -0.13568192214E+02  0.32259757665E+03 -0.97676146110E+03  0.10287457689E+04  0.12699999809E+01 0. -1.
       -4    1    3    3    0  502  0.13568192214E+02 -0.32259757665E+03  0.47338209917E+03  0.57301441257E+03  0.12699999809E+01 0.  1.
</event>
<event>
 5   0  0.1961098E-03  0.1509545E+04  0.7818609E-02  0.8878130E-01
       -2   -1    0    0    0  501  0.00000000000E+00  0.00000000000E+00  0.50908459382E+03  0.50908459383E+03  0.25500000920E-02 0.  1.
        2   -1    0    0  501    0  0.00000000000E+00  0.00000000000E+00 -0.11190318006E+04  0.11190318006E+04  0.25500000920E-02 0. -1.
    10030    2    1    2    0    0  0.00000000000E+00  0.00000000000E+00 -0.60994720676E+03  0.16281163944E+04  0.15095454278E+04 0.  0.
        2    1    3    3  502    0 -0.59653178367E+03 -0.46211393997E+03 -0.28684928047E+03  0.80726821575E+03  0.25500000920E-02 0. -1.
       -2    1    3    3    0  502  0.59653178367E+03  0.46211393997E+03 -0.32309792629E+03  0.82084817867E+03  0.25500000920E-02 0.  1.
</event>
<event>
 5   0  0.1078787E-03  0.1482459E+04  0.7818609E-02  0.8896202E-01
       -1   -1    0    0    0  501  0.00000000000E+00  0.00000000000E+00  0.69386069706E+03  0.69386069708E+03  0.50400001928E-02 0.  1.
        1   -1    0    0  501    0  0.00000000000E+00  0.00000000000E+00 -0.79183183012E+03  0.79183183014E+03  0.50400001928E-02 0. -1.
    10030    2    1    2    0    0  0.00000000000E+00  0.00000000000E+00 -0.97971133060E+02  0.14856925272E+04  0.14824587490E+04 0.  0.
        5    1    3    3  502    0 -0.73702238672E+03  0.78537242701E+02 -0.43607426892E+02  0.74249161255E+03  0.46999998093E+01 0. -1.
       -5    1    3    3    0  502  0.73702238672E+03 -0.78537242701E+02 -0.54363706168E+02  0.74320091467E+03  0.46999998093E+01 0.  1.
</event>
<event>
 5   0  0.1078787E-03  0.8473580E+03  0.7818609E-02  0.9493890E-01
       -1   -1    0    0    0  501  0.00000000000E+00  0.00000000000E+00  0.78255171336E+03  0.78255171337E+03  0.50400001928E-02 0.  1.
        1   -1    0    0  501    0  0.00000000000E+00  0.00000000000E+00 -0.22938279531E+03  0.22938279536E+03  0.50400001928E-02 0. -1.
    10030    2    1    2    0    0  0.00000000000E+00  0.00000000000E+00  0.55316891805E+03  0.10119345087E+04  0.84735801057E+03 0.  0.
        5    1    3    3  502    0  0.48208852124E+02 -0.30092150804E+03  0.62802701397E+03  0.69808156236E+03  0.46999998093E+01 0.  1.
       -5    1    3    3    0  502 -0.48208852124E+02  0.30092150804E+03 -0.74858095924E+02  0.31385294638E+03  0.46999998093E+01 0. -1.
</event>
<event>
 5   0  0.2094566E-03  0.1483226E+04  0.7818609E-02  0.8895684E-01
        2   -1    0    0  501    0  0.00000000000E+00  0.00000000000E+00  0.16366807679E+04  0.16366807679E+04  0.25500000920E-02 0.  1.
       -2   -1    0    0    0  501  0.00000000000E+00  0.00000000000E+00 -0.33603999806E+03  0.33603999807E+03  0.25500000920E-02 0. -1.
    10030    2    1    2    0    0  0.00000000000E+00  0.00000000000E+00  0.13006407698E+04  0.19727207659E+04  0.14832264858E+04 0.  0.
        1    1    3    3  502    0 -0.71312602700E+03  0.64425662921E+02  0.39348253411E+03  0.81702380694E+03  0.50400001928E-02 0. -1.
       -1    1    3    3    0  502  0.71312602700E+03 -0.64425662921E+02  0.90715823570E+03  0.11556969590E+04  0.50400001928E-02 0.  1.
</event>
<event>
 5   0  0.2111533E-03  0.1506868E+04  0.7818609E-02  0.8879899E-01
        2   -1    0    0  501    0  0.00000000000E+00  0.00000000000E+00  0.16748598310E+04  0.16748598310E+04  0.25500000920E-02 0.  1.
       -2   -1    0    0    0  501  0.00000000000E+00  0.00000000000E+00 -0.33893140345E+03  0.33893140346E+03  0.25500000920E-02 0. -1.
    10030    2    1    2    0    0  0.00000000000E+00  0.00000000000E+00  0.13359284275E+04  0.20137912344E+04  0.15068677355E+04 0.  0.
        5    1    3    3  502    0  0.12979306020E+03 -0.71962352984E+03  0.42542815220E+03  0.84599968431E+03  0.46999998093E+01 0. -1.
       -5    1    3    3    0  502 -0.12979306020E+03  0.71962352984E+03  0.91050027530E+03  0.11677915501E+04  0.46999998093E+01 0.  1.
</event>
<event>
 5   0  0.2111533E-03  0.1478337E+04  0.7818609E-02  0.8898988E-01
       -2   -1    0    0    0  501  0.00000000000E+00  0.00000000000E+00  0.66786491572E+03  0.66786491573E+03  0.25500000920E-02 0.  1.
        2   -1    0    0  501    0  0.00000000000E+00  0.00000000000E+00 -0.81808415370E+03  0.81808415370E+03  0.25500000920E-02 0. -1.
    10030    2    1    2    0    0  0.00000000000E+00  0.00000000000E+00 -0.15021923798E+03  0.14859490694E+04  0.14783365035E+04 0.  0.
        5    1    3    3  502    0  0.58370424008E+03  0.45125925602E+03 -0.30134845180E+02  0.73842789419E+03  0.46999998093E+01 0.  1.
       -5    1    3    3    0  502 -0.58370424008E+03 -0.45125925602E+03 -0.12008439280E+03  0.74752117523E+03  0.46999998093E+01 0. -1.
</event>
<event>
 5   0  0.1078018E-03  0.1516398E+04  0.7818609E-02  0.8873621E-01
        1   -1    0    0  501    0  0.00000000000E+00  0.00000000000E+00  0.41401772743E+03  0.41401772746E+03  0.50400001928E-02 0.  1.
       -1   -1    0    0    0  501  0.00000000000E+00  0.00000000000E+00 -0.13885046261E+04  0.13885046262E+04  0.50400001928E-02 0. -1.
    10030    2    1    2    0    0  0.00000000000E+00  0.00000000000E+00 -0.97448689872E+03  0.18025223536E+04  0.15163977445E+04 0.  0.
        4    1    3    3  502    0 -0.53922819545E+03  0.30051378463E+03 -0.10105200871E+04  0.11841571014E+04  0.12699999809E+01 0. -1.
       -4    1    3    3    0  502  0.53922819545E+03 -0.30051378463E+03  0.36033188407E+02  0.61836525217E+03  0.12699999809E+01 0.  1.
</event>
<event>
 5   0  0.1078018E-03  0.1478648E+04  0.7818609E-02  0.8898777E-01
       -1   -1    0    0    0  501  0.00000000000E+00  0.00000000000E+00  0.80364109388E+03  0.80364109389E+03  0.50400001928E-02 0.  1.
        1   -1    0    0  501    0  0.00000000000E+00  0.00000000000E+00 -0.68015460121E+03  0.68015460123E+03  0.50400001928E-02 0. -1.
    10030    2    1    2    0    0  0.00000000000E+00  0.00000000000E+00  0.12348649267E+03  0.14837956951E+04  0.14786482851E+04 0.  0.
        4    1    3    3  502    0  0.29339420822E+03 -0.63479599768E+03  0.30247930661E+03  0.76193271613E+03  0.12699999809E+01 0.  1.
       -4    1    3    3    0  502 -0.29339420822E+03  0.63479599768E+03 -0.17899281394E+03  0.72186297899E+03  0.12699999809E+01 0. -1.
</event>
<event>
 5   0  0.1069697E-03  0.1491024E+04  0.7818609E-02  0.8890444E-01
       -1   -1    0    0    0  501  0.00000000000E+00  0.00000000000E+00  0.41031230952E+03  0.41031230955E+03  0.50400001928E-02 0.  1.
        1   -1    0    0  501    0  0.00000000000E+00  0.00000000000E+00 -0.13545492595E+04  0.13545492595E+04  0.50400001928E-02 0. -1.
    10030    2    1    2    0    0  0.00000000000E+00  0.00000000000E+00 -0.94423695000E+03  0.17648615691E+04  0.14910241247E+04 0.  0.
        2    1    3    3  502    0 -0.52532807485E+02  0.61534884684E+03  0.22154947980E+02  0.61798441801E+03  0.25500000920E-02 0.  1.
       -2    1    3    3    0  502  0.52532807485E+02 -0.61534884684E+03 -0.96639189798E+03  0.11468771511E+04  0.25500000920E-02 0. -1.
</event>
<event>
 5   0  0.2094566E-03  0.1495320E+04  0.7818609E-02  0.8887571E-01
       -2   -1    0    0    0  501  0.00000000000E+00  0.00000000000E+00  0.51699481830E+03  0.51699481831E+03  0.25500000920E-02 0. -1.
        2   -1    0    0  501    0  0.00000000000E+00  0.00000000000E+00 -0.10812396443E+04  0.10812396443E+04  0.25500000920E-02 0.  1.
    10030    2    1    2    0    0  0.00000000000E+00  0.00000000000E+00 -0.56424482597E+03  0.15982344626E+04  0.14953197564E+04 0.  0.
        1    1    3    3  502    0  0.60621214871E+03 -0.31217031933E+03  0.45663293976E+02  0.68339491801E+03  0.50400001928E-02 0.  1.
       -1    1    3    3    0  502 -0.60621214871E+03  0.31217031933E+03 -0.60990811995E+03  0.91483954458E+03  0.50400001928E-02 0. -1.
</event>
<event>
 5   0  0.2111533E-03  0.1463709E+04  0.7818609E-02  0.8908951E-01
        2   -1    0    0  501    0  0.00000000000E+00  0.00000000000E+00  0.31925021212E+03  0.31925021213E+03  0.25500000920E-02 0. -1.
       -2   -1    0    0    0  501  0.00000000000E+00  0.00000000000E+00 -0.16777162064E+04  0.16777162064E+04  0.25500000920E-02 0.  1.
    10030    2    1    2    0    0  0.00000000000E+00  0.00000000000E+00 -0.13584659943E+04  0.19969664185E+04  0.14637093356E+04 0.  0.
        5    1    3    3  502    0 -0.30004075554E+03  0.55139993420E+02 -0.15868120765E+04  0.16158773251E+04  0.46999998093E+01 0.  1.
       -5    1    3    3    0  502  0.30004075554E+03 -0.55139993420E+02  0.22834608219E+03  0.38108909340E+03  0.46999998093E+01 0. -1.
</event>
<event>
 5   0  0.2150197E-03  0.1491056E+04  0.7818609E-02  0.8890423E-01
       -2   -1    0    0    0  501  0.00000000000E+00  0.00000000000E+00  0.47409522816E+03  0.47409522817E+03  0.25500000920E-02 0. -1.
        2   -1    0    0  501    0  0.00000000000E+00  0.00000000000E+00 -0.11723629807E+04  0.11723629807E+04  0.25500000920E-02 0.  1.
    10030    2    1    2    0    0  0.00000000000E+00  0.00000000000E+00 -0.69826775257E+03  0.16464582089E+04  0.14910555923E+04 0.  0.
        3    1    3    3  502    0 -0.72903781235E+02  0.58102193131E+03  0.16037898280E+03  0.60714320741E+03  0.10100000352E+00 0. -1.
       -3    1    3    3    0  502  0.72903781235E+02 -0.58102193131E+03 -0.85864673537E+03  0.10393150015E+04  0.10100000352E+00 0.  1.
</event>
<event>
 5   0  0.1077140E-03  0.1456053E+04  0.7818609E-02  0.8914215E-01
        1   -1    0    0  501    0  0.00000000000E+00  0.00000000000E+00  0.81152394726E+03  0.81152394728E+03  0.50400001928E-02 0. -1.
       -1   -1    0    0    0  501  0.00000000000E+00  0.00000000000E+00 -0.65311968075E+03  0.65311968077E+03  0.50400001928E-02 0.  1.
    10030    2    1    2    0    0  0.00000000000E+00  0.00000000000E+00  0.15840426651E+03  0.14646436280E+04  0.14560525559E+04 0.  0.
        1    1    3    3  502    0 -0.43234652409E+03  0.16176611792E+03 -0.48708528314E+03  0.67107664754E+03  0.50400001928E-02 0.  1.
       -1    1    3    3    0  502  0.43234652409E+03 -0.16176611792E+03  0.64548954965E+03  0.79356698050E+03  0.50400001928E-02 0. -1.
</event>
<event>
 5   0  0.2094566E-03  0.1638649E+04  0.7818609E-02  0.8797150E-01
        2   -1    0    0  501    0  0.00000000000E+00  0.00000000000E+00  0.15028708456E+04  0.15028708456E+04  0.25500000920E-02 0. -1.
       -2   -1    0    0    0  501  0.00000000000E+00  0.00000000000E+00 -0.44667331789E+03  0.44667331790E+03  0.25500000920E-02 0.  1.
    10030    2    1    2    0    0  0.00000000000E+00  0.00000000000E+00  0.10561975277E+04  0.19495441635E+04  0.16386485981E+04 0.  0.
        1    1    3    3  502    0  0.56687366879E+03  0.50701179420E+03  0.16550408895E+03  0.77833046921E+03  0.50400001928E-02 0.  1.
       -1    1    3    3    0  502 -0.56687366879E+03 -0.50701179420E+03  0.89069343878E+03  0.11712136943E+04  0.50400001928E-02 0. -1.
</event>
<event>
 5   0  0.1078018E-03  0.1428126E+04  0.7818609E-02  0.8933707E-01
       -1   -1    0    0    0  501  0.00000000000E+00  0.00000000000E+00  0.46948443281E+03  0.46948443284E+03  0.50400001928E-02 0.  1.
        1   -1    0    0  501    0  0.00000000000E+00  0.00000000000E+00 -0.10860550351E+04  0.10860550351E+04  0.50400001928E-02 0. -1.
    10030    2    1    2    0    0  0.00000000000E+00  0.00000000000E+00 -0.61657060231E+03  0.15555394680E+04  0.14281259499E+04 0.  0.
        4    1    3    3  502    0 -0.53468088775E+03  0.24373334803E+03 -0.75018375023E+03  0.95292542661E+03  0.12699999809E+01 0. -1.
       -4    1    3    3    0  502  0.53468088775E+03 -0.24373334803E+03  0.13361314792E+03  0.60261404137E+03  0.12699999809E+01 0.  1.
</event>
<event>
 5   0  0.2150197E-03  0.1539493E+04  0.7818609E-02  0.8858607E-01
        2   -1    0    0  501    0  0.00000000000E+00  0.00000000000E+00  0.49653000051E+03  0.49653000052E+03  0.25500000920E-02 0.  1.
       -2   -1    0    0    0  501  0.00000000000E+00  0.00000000000E+00 -0.11933001481E+04  0.11933001481E+04  0.25500000920E-02 0. -1.
    10030    2    1    2    0    0  0.00000000000E+00  0.00000000000E+00 -0.69677014764E+03  0.16898301487E+04  0.15394925439E+04 0.  0.
        3    1    3    3  502    0 -0.81918570251E+02 -0.71350819500E+03 -0.44383033154E+02  0.71956546631E+03  0.10100000352E+00 0. -1.
       -3    1    3    3    0  502  0.81918570251E+02  0.71350819500E+03 -0.65238711448E+03  0.97026468235E+03  0.10100000352E+00 0.  1.
</event>
<event>
 5   0  0.1993623E-03  0.1492188E+04  0.7818609E-02  0.8889665E-01
       -2   -1    0    0    0  501  0.00000000000E+00  0.00000000000E+00  0.46331271874E+03  0.46331271874E+03  0.25500000920E-02 0. -1.
        2   -1    0    0  501    0  0.00000000000E+00  0.00000000000E+00 -0.12014696515E+04  0.12014696515E+04  0.25500000920E-02 0.  1.
    10030    2    1    2    0    0  0.00000000000E+00  0.00000000000E+00 -0.73815693274E+03  0.16647823702E+04  0.14921878846E+04 0.  0.
        4    1    3    3  502    0 -0.57544317358E+03 -0.43061973841E+03 -0.14570466755E+03  0.73334825846E+03  0.12699999809E+01 0. -1.
       -4    1    3    3    0  502  0.57544317358E+03  0.43061973841E+03 -0.59245226519E+03  0.93143411176E+03  0.12699999809E+01 0.  1.
</event>
<event>
 5   0  0.1077140E-03  0.1440308E+04  0.7818609E-02  0.8925147E-01
       -1   -1    0    0    0  501  0.00000000000E+00  0.00000000000E+00  0.40142510707E+03  0.40142510711E+03  0.50400001928E-02 0. -1.
        1   -1    0    0  501    0  0.00000000000E+00  0.00000000000E+00 -0.12919515023E+04  0.12919515023E+04  0.50400001928E-02 0.  1.
    10030    2    1    2    0    0  0.00000000000E+00  0.00000000000E+00 -0.89052639524E+03  0.16933766094E+04  0.14403079812E+04 0.  0.
        1    1    3    3  502    0  0.21156068561E+03 -0.42992216341E+03  0.18681416500E+03  0.51428642074E+03  0.50400001928E-02 0. -1.
       -1    1    3    3    0  502 -0.21156068561E+03  0.42992216341E+03 -0.10773405602E+04  0.11790901887E+04  0.50400001928E-02 0.  1.
</event>
<event>
 5   0  0.2094566E-03  0.1393125E+04  0.7818609E-02  0.8958810E-01
        2   -1    0    0  501    0  0.00000000000E+00  0.00000000000E+00  0.86293275213E+03  0.86293275213E+03  0.25500000920E-02 0. -1.
       -2   -1    0    0    0  501  0.00000000000E+00  0.00000000000E+00 -0.56226799991E+03  0.56226799991E+03  0.25500000920E-02 0.  1.
    10030    2    1    2    0    0  0.00000000000E+00  0.00000000000E+00  0.30066475222E+03  0.14252007520E+04  0.13931252242E+04 0.  0.
        1    1    3    3  502    0 -0.35818923578E+03 -0.57449274279E+03 -0.17325123165E+02  0.67723083218E+03  0.50400001928E-02 0. -1.
       -1    1    3    3    0  502  0.35818923578E+03  0.57449274279E+03  0.31798987538E+03  0.74796991986E+03  0.50400001928E-02 0.  1.
</event>
<event>
 5   0  0.1078787E-03  0.1499380E+04  0.7818609E-02  0.8884866E-01
        1   -1    0    0  501    0  0.00000000000E+00  0.00000000000E+00  0.80364500743E+03  0.80364500745E+03  0.50400001928E-02 0. -1.
       -1   -1    0    0    0  501  0.00000000000E+00  0.00000000000E+00 -0.69935712076E+03  0.69935712078E+03  0.50400001928E-02 0.  1.
    10030    2    1    2    0    0  0.00000000000E+00  0.00000000000E+00  0.10428788667E+03  0.15030021282E+04  0.14993796831E+04 0.  0.
        5    1    3    3  502    0  0.34305809615E+03 -0.54908935111E+03 -0.32669078059E+03  0.72521509151E+03  0.46999998093E+01 0.  1.
       -5    1    3    3    0  502 -0.34305809615E+03  0.54908935111E+03  0.43097866727E+03  0.77778703671E+03  0.46999998093E+01 0. -1.
</event>
<event>
 5   0  0.1078787E-03  0.1490623E+04  0.7818609E-02  0.8890712E-01
        1   -1    0    0  501    0  0.00000000000E+00  0.00000000000E+00  0.25150557112E+03  0.25150557117E+03  0.50400001928E-02 0.  1.
       -1   -1    0    0    0  501  0.00000000000E+00  0.00000000000E+00 -0.22086570110E+04  0.22086570110E+04  0.50400001928E-02 0. -1.
    10030    2    1    2    0    0  0.00000000000E+00  0.00000000000E+00 -0.19571514399E+04  0.24601625822E+04  0.14906234173E+04 0.  0.
        5    1    3    3  502    0  0.31543209097E+03  0.34133966657E+03 -0.19401623880E+04  0.19950594862E+04  0.46999998093E+01 0. -1.
       -5    1    3    3    0  502 -0.31543209097E+03 -0.34133966657E+03 -0.16989051963E+02  0.46510309597E+03  0.46999998093E+01 0.  1.
</event>
<event>
 5   0  0.1077140E-03  0.1518972E+04  0.7818609E-02  0.8871934E-01
        1   -1    0    0  501    0  0.00000000000E+00  0.00000000000E+00  0.86400186389E+03  0.86400186391E+03  0.50400001928E-02 0. -1.
       -1   -1    0    0    0  501  0.00000000000E+00  0.00000000000E+00 -0.66761282483E+03  0.66761282485E+03  0.50400001928E-02 0.  1.
    10030    2    1    2    0    0  0.00000000000E+00  0.00000000000E+00  0.19638903907E+03  0.15316146888E+04  0.15189716588E+04 0.  0.
        1    1    3    3  502    0  0.75862519580E+03  0.36145754725E+02  0.98045893295E+02  0.76578828700E+03  0.50400001928E-02 0. -1.
       -1    1    3    3    0  502 -0.75862519580E+03 -0.36145754725E+02  0.98343145771E+02  0.76582640176E+03  0.50400001928E-02 0.  1.
</event>
<event>
 5   0  0.1087761E-03  0.1493249E+04  0.7818609E-02  0.8888955E-01
        1   -1    0    0  501    0  0.00000000000E+00  0.00000000000E+00  0.68479472194E+03  0.68479472196E+03  0.50400001928E-02 0.  1.
       -1   -1    0    0    0  501  0.00000000000E+00  0.00000000000E+00 -0.81403691650E+03  0.81403691651E+03  0.50400001928E-02 0. -1.
    10030    2    1    2    0    0  0.00000000000E+00  0.00000000000E+00 -0.12924219456E+03  0.14988316385E+04  0.14932490535E+04 0.  0.
        3    1    3    3  502    0  0.69377420555E+03  0.96654374928E+02  0.19476999187E+03  0.72704888172E+03  0.10100000352E+00 0.  1.
       -3    1    3    3    0  502 -0.69377420555E+03 -0.96654374928E+02 -0.32401218643E+03  0.77178275676E+03  0.10100000352E+00 0. -1.
</event>
<event>
 5   0  0.1087761E-03  0.1560137E+04  0.7818609E-02  0.8845419E-01
       -1   -1    0    0    0  501  0.00000000000E+00  0.00000000000E+00  0.46668601246E+03  0.46668601249E+03  0.50400001928E-02 0. -1.
        1   -1    0    0  501    0  0.00000000000E+00  0.00000000000E+00 -0.13038888639E+04  0.13038888639E+04  0.50400001928E-02 0.  1.
    10030    2    1    2    0    0  0.00000000000E+00  0.00000000000E+00 -0.83720285143E+03  0.17705748764E+04  0.15601367820E+04 0.  0.
        3    1    3    3  502    0  0.48543980019E+03  0.55892973239E+03 -0.69763633207E+03  0.10172269695E+04  0.10100000352E+00 0.  1.
       -3    1    3    3    0  502 -0.48543980019E+03 -0.55892973239E+03 -0.13956651936E+03  0.75334790694E+03  0.10100000352E+00 0. -1.
</event>
<event>
 5   0  0.1078018E-03  0.1501586E+04  0.7818609E-02  0.8883399E-01
       -1   -1    0    0    0  501  0.00000000000E+00  0.00000000000E+00  0.39633861051E+03  0.39633861055E+03  0.50400001928E-02 0.  1.
        1   -1    0    0  501    0  0.00000000000E+00  0.00000000000E+00 -0.14222441455E+04  0.14222441455E+04  0.50400001928E-02 0. -1.
    10030    2    1    2    0    0  0.00000000000E+00  0.00000000000E+00 -0.10259055349E+04  0.18185827560E+04  0.15015861859E+04 0.  0.
        4    1    3    3  502    0  0.37213257640E+03 -0.59083206455E+03 -0.84710325602E+03  0.10977935699E+04  0.12699999809E+01 0. -1.
       -4    1    3    3    0  502 -0.37213257640E+03  0.59083206455E+03 -0.17880227892E+03  0.72078918608E+03  0.12699999809E+01 0.  1.
</event>
<event>
 5   0  0.1087761E-03  0.1499106E+04  0.7818609E-02  0.8885048E-01
        1   -1    0    0  501    0  0.00000000000E+00  0.00000000000E+00  0.82643781663E+03  0.82643781664E+03  0.50400001928E-02 0.  1.
       -1   -1    0    0    0  501  0.00000000000E+00  0.00000000000E+00 -0.67982064900E+03  0.67982064902E+03  0.50400001928E-02 0. -1.
    10030    2    1    2    0    0  0.00000000000E+00  0.00000000000E+00  0.14661716763E+03  0.15062584657E+04  0.14991057239E+04 0.  0.
        3    1    3    3  502    0 -0.21922634202E+03  0.48214692279E+03  0.60621986409E+03  0.80500209814E+03  0.10100000352E+00 0.  1.
       -3    1    3    3    0  502  0.21922634202E+03 -0.48214692279E+03 -0.45960269646E+03  0.70125636752E+03  0.10100000352E+00 0. -1.
</event>
<event>
 5   0  0.1077140E-03  0.1489334E+04  0.7818609E-02  0.8891577E-01
       -1   -1    0    0    0  501  0.00000000000E+00  0.00000000000E+00  0.86461682479E+03  0.86461682480E+03  0.50400001928E-02 0. -1.
        1   -1    0    0  501    0  0.00000000000E+00  0.00000000000E+00 -0.64135804839E+03  0.64135804841E+03  0.50400001928E-02 0.  1.
    10030    2    1    2    0    0  0.00000000000E+00  0.00000000000E+00  0.22325877640E+03  0.15059748732E+04  0.14893340248E+04 0.  0.
        1    1    3    3  502    0 -0.37067310788E+03  0.64579368402E+03  0.12072568474E+03  0.75433595050E+03  0.50400001928E-02 0. -1.
       -1    1    3    3    0  502  0.37067310788E+03 -0.64579368402E+03  0.10253309166E+03  0.75163892271E+03  0.50400001928E-02 0.  1.
</event>
<event>
 5   0  0.1078787E-03  0.1298550E+04  0.7818609E-02  0.9030716E-01
       -1   -1    0    0    0  501  0.00000000000E+00  0.00000000000E+00  0.49680588597E+03  0.49680588600E+03  0.50400001928E-02 0.  1.
        1   -1    0    0  501    0  0.00000000000E+00  0.00000000000E+00 -0.84853653730E+03  0.84853653731E+03  0.50400001928E-02 0. -1.
    10030    2    1    2    0    0  0.00000000000E+00  0.00000000000E+00 -0.35173065132E+03  0.13453424233E+04  0.12985498777E+04 0.  0.
        5    1    3    3  502    0 -0.16246920922E+03 -0.10358832386E+03  0.46648361973E+03  0.50473343684E+03  0.46999998093E+01 0.  1.
       -5    1    3    3    0  502  0.16246920922E+03  0.10358832386E+03 -0.81821427106E+03  0.84060898648E+03  0.46999998093E+01 0. -1.
</event>
<event>
 5   0  0.2150197E-03  0.1822344E+04  0.7818609E-02  0.8694507E-01
       -2   -1    0    0    0  501  0.00000000000E+00  0.00000000000E+00  0.84056020608E+03  0.84056020608E+03  0.25500000920E-02 0.  1.
        2   -1    0    0  501    0  0.00000000000E+00  0.00000000000E+00 -0.98771539803E+03  0.98771539804E+03  0.25500000920E-02 0. -1.
    10030    2    1    2    0    0  0.00000000000E+00  0.00000000000E+00 -0.14715519196E+03  0.18282756041E+04  0.18223438298E+04 0.  0.
        3    1    3    3  502    0  0.24264525921E+03 -0.61263201891E+03  0.55778756700E+03  0.86332015644E+03  0.10100000352E+00 0.  1.
       -3    1    3    3    0  502 -0.24264525921E+03  0.61263201891E+03 -0.70494275895E+03  0.96495544768E+03  0.10100000352E+00 0. -1.
</event>
<event>
 5   0  0.1961098E-03  0.1337571E+04  0.7818609E-02  0.9000291E-01
       -2   -1    0    0    0  501  0.00000000000E+00  0.00000000000E+00  0.29727006490E+03  0.29727006491E+03  0.25500000920E-02 0. -1.
        2   -1    0    0  501    0  0.00000000000E+00  0.00000000000E+00 -0.15046045833E+04  0.15046045833E+04  0.25500000920E-02 0.  1.
    10030    2    1    2    0    0  0.00000000000E+00  0.00000000000E+00 -0.12073345184E+04  0.18018746482E+04  0.13375707864E+04 0.  0.
        2    1    3    3  502    0  0.34950967397E+03 -0.40548521616E+03 -0.63642233272E+02  0.53909702891E+03  0.25500000920E-02 0. -1.
       -2    1    3    3    0  502 -0.34950967397E+03  0.40548521616E+03 -0.11436922852E+04  0.12627776193E+04  0.25500000920E-02 0.  1.
</event>
<event>
 5   0  0.1078787E-03  0.1355117E+04  0.7818609E-02  0.8986964E-01
        1   -1    0    0  501    0  0.00000000000E+00  0.00000000000E+00  0.49711939494E+03  0.49711939496E+03  0.50400001928E-02 0.  1.
       -1   -1    0    0    0  501  0.00000000000E+00  0.00000000000E+00 -0.92349139475E+03  0.92349139477E+03  0.50400001928E-02 0. -1.
    10030    2    1    2    0    0  0.00000000000E+00  0.00000000000E+00 -0.42637199981E+03  0.14206107897E+04  0.13551169446E+04 0.  0.
        5    1    3    3  502    0 -0.56799152482E+03  0.17873754011E+02  0.17360337685E+03  0.59421718741E+03  0.46999998093E+01 0.  1.
       -5    1    3    3    0  502  0.56799152482E+03 -0.17873754011E+02 -0.59997537667E+03  0.82639360232E+03  0.46999998093E+01 0. -1.
</event>
<event>
 5   0  0.2150197E-03  0.1504483E+04  0.7818609E-02  0.8881477E-01
       -2   -1    0    0    0  501  0.00000000000E+00  0.00000000000E+00  0.64309147179E+03  0.64309147180E+03  0.25500000920E-02 0. -1.
        2   -1    0    0  501    0  0.00000000000E+00  0.00000000000E+00 -0.87991698919E+03  0.87991698919E+03  0.25500000920E-02 0.  1.
    10030    2    1    2    0    0  0.00000000000E+00  0.00000000000E+00 -0.23682551740E+03  0.15230084610E+04  0.15044827837E+04 0.  0.
        3    1    3    3  502    0  0.22154372476E+02  0.18330821469E+03 -0.85662084844E+03  0.87629447446E+03  0.10100000352E+00 0.  1.
       -3    1    3    3    0  502 -0.22154372476E+02 -0.18330821469E+03  0.61979533104E+03  0.64671398653E+03  0.10100000352E+00 0. -1.
</event>
<event>
 5   0  0.2094566E-03  0.1503596E+04  0.7818609E-02  0.8882065E-01
        2   -1    0    0  501    0  0.00000000000E+00  0.00000000000E+00  0.12602353200E+04  0.12602353200E+04  0.25500000920E-02 0.  1.
       -2   -1    0    0    0  501  0.00000000000E+00  0.00000000000E+00 -0.44848812236E+03  0.44848812237E+03  0.25500000920E-02 0. -1.
    10030    2    1    2    0    0  0.00000000000E+00  0.00000000000E+00  0.81174719761E+03  0.17087234423E+04  0.15035964517E+04 0.  0.
        1    1    3    3  502    0  0.37506356841E+03  0.16178072485E+03  0.11231318638E+04  0.11951028687E+04  0.50400001928E-02 0.  1.
       -1    1    3    3    0  502 -0.37506356841E+03 -0.16178072485E+03 -0.31138466620E+03  0.51362057362E+03  0.50400001928E-02 0. -1.
</event>
<event>
 5   0  0.1993623E-03  0.1715474E+04  0.7818609E-02  0.8752588E-01
        2   -1    0    0  501    0  0.00000000000E+00  0.00000000000E+00  0.24451436563E+04  0.24451436563E+04  0.25500000920E-02 0. -1.
       -2   -1    0    0    0  501  0.00000000000E+00  0.00000000000E+00 -0.30088739351E+03  0.30088739352E+03  0.25500000920E-02 0.  1.
    10030    2    1    2    0    0  0.00000000000E+00  0.00000000000E+00  0.21442562628E+04  0.27460310498E+04  0.17154741636E+04 0.  0.
        4    1    3    3  502    0  0.70511743016E+03  0.33177876404E+03  0.49843795648E+03  0.92504580856E+03  0.12699999809E+01 0.  1.
       -4    1    3    3    0  502 -0.70511743016E+03 -0.33177876404E+03  0.16458183063E+04  0.18209852412E+04  0.12699999809E+01 0. -1.
</event>
<event>
 5   0  0.1961098E-03  0.1212314E+04  0.7818609E-02  0.9102146E-01
       -2   -1    0    0    0  501  0.00000000000E+00  0.00000000000E+00  0.99738106750E+03  0.99738106750E+03  0.25500000920E-02 0. -1.
        2   -1    0    0  501    0  0.00000000000E+00  0.00000000000E+00 -0.36839131547E+03  0.36839131548E+03  0.25500000920E-02 0.  1.
    10030    2    1    2    0    0  0.00000000000E+00  0.00000000000E+00  0.62898975203E+03  0.13657723830E+04  0.12123143544E+04 0.  0.
        2    1    3    3  502    0 -0.14051017420E+02  0.11639572098E+03  0.98448595962E+03  0.99144238342E+03  0.25500000920E-02 0. -1.
       -2    1    3    3    0  502  0.14051017420E+02 -0.11639572098E+03 -0.35549620759E+03  0.37432999956E+03  0.25500000920E-02 0.  1.
</event>
<event>
 5   0  0.1078787E-03  0.1501499E+04  0.7818609E-02  0.8883457E-01
        1   -1    0    0  501    0  0.00000000000E+00  0.00000000000E+00  0.25766943871E+04  0.25766943871E+04  0.50400001928E-02 0.  1.
       -1   -1    0    0    0  501  0.00000000000E+00  0.00000000000E+00 -0.21873956136E+03  0.21873956142E+03  0.50400001928E-02 0. -1.
    10030    2    1    2    0    0  0.00000000000E+00  0.00000000000E+00  0.23579548257E+04  0.27954339485E+04  0.15014992509E+04 0.  0.
        5    1    3    3  502    0  0.34851420373E+03  0.69915222803E+02 -0.52114068445E+02  0.35928853963E+03  0.46999998093E+01 0. -1.
       -5    1    3    3    0  502 -0.34851420373E+03 -0.69915222803E+02  0.24100688942E+04  0.24361454089E+04  0.46999998093E+01 0.  1.
</event>
<event>
 5   0  0.1961098E-03  0.1365679E+04  0.7818609E-02  0.8979044E-01
       -2   -1    0    0    0  501  0.00000000000E+00  0.00000000000E+00  0.45246436872E+03  0.45246436873E+03  0.25500000920E-02 0.  1.
        2   -1    0    0  501    0  0.00000000000E+00  0.00000000000E+00 -0.10305109599E+04  0.10305109599E+04  0.25500000920E-02 0. -1.
    10030    2    1    2    0    0  0.00000000000E+00  0.00000000000E+00 -0.57804659113E+03  0.14829753286E+04  0.13656785726E+04 0.  0.
        2    1    3    3  502    0 -0.48648590898E+03  0.46771735332E+03 -0.17595816492E+03  0.69741618711E+03  0.25500000920E-02 0.  1.
       -2    1    3    3    0  502  0.48648590898E+03 -0.46771735332E+03 -0.40208842621E+03  0.78555914147E+03  0.25500000920E-02 0. -1.
</event>
<event>
 5   0  0.1078787E-03  0.1510995E+04  0.7818609E-02  0.8877174E-01
        1   -1    0    0  501    0  0.00000000000E+00  0.00000000000E+00  0.13593056994E+04  0.13593056994E+04  0.50400001928E-02 0.  1.
       -1   -1    0    0    0  501  0.00000000000E+00  0.00000000000E+00 -0.41990318822E+03  0.41990318825E+03  0.50400001928E-02 0. -1.
    10030    2    1    2    0    0  0.00000000000E+00  0.00000000000E+00  0.93940251116E+03  0.17792088876E+04  0.15109954295E+04 0.  0.
        5    1    3    3  502    0  0.53440387808E+03 -0.53365953663E+03  0.49249450418E+03  0.90163902566E+03  0.46999998093E+01 0.  1.
       -5    1    3    3    0  502 -0.53440387808E+03  0.53365953663E+03  0.44690800698E+03  0.87756986198E+03  0.46999998093E+01 0. -1.
</event>
<event>
 5   0  0.1078018E-03  0.1526433E+04  0.7818609E-02  0.8867063E-01
       -1   -1    0    0    0  501  0.00000000000E+00  0.00000000000E+00  0.70547434130E+03  0.70547434131E+03  0.50400001928E-02 0. -1.
        1   -1    0    0  501    0  0.00000000000E+00  0.00000000000E+00 -0.82568496268E+03  0.82568496269E+03  0.50400001928E-02 0.  1.
    10030    2    1    2    0    0  0.00000000000E+00  0.00000000000E+00 -0.12021062138E+03  0.15311593040E+04  0.15264331694E+04 0.  0.
        4    1    3    3  502    0  0.78706545680E+02 -0.15826486616E+03 -0.80486992269E+03  0.82405078336E+03  0.12699999809E+01 0.  1.
       -4    1    3    3    0  502 -0.78706545680E+02  0.15826486616E+03  0.68465930131E+03  0.70710852065E+03  0.12699999809E+01 0. -1.
</event>
<event>
 5   0  0.1069697E-03  0.1491339E+04  0.7818609E-02  0.8890233E-01
        1   -1    0    0  501    0  0.00000000000E+00  0.00000000000E+00  0.12805270577E+04  0.12805270577E+04  0.50400001928E-02 0. -1.
       -1   -1    0    0    0  501  0.00000000000E+00  0.00000000000E+00 -0.43421406918E+03  0.43421406921E+03  0.50400001928E-02 0.  1.
    10030    2    1    2    0    0  0.00000000000E+00  0.00000000000E+00  0.84631298852E+03  0.17147411269E+04  0.14913388139E+04 0.  0.
        2    1    3    3  502    0 -0.73162308287E+03 -0.79812087075E+02  0.28527367980E+03  0.78931829893E+03  0.25500000920E-02 0.  1.
       -2    1    3    3    0  502  0.73162308287E+03  0.79812087075E+02  0.56103930872E+03  0.92542282800E+03  0.25500000920E-02 0. -1.
</event>
<event>
 5   0  0.1078018E-03  0.1412941E+04  0.7818609E-02  0.8944504E-01
       -1   -1    0    0    0  501  0.00000000000E+00  0.00000000000E+00  0.13150157038E+04  0.13150157038E+04  0.50400001928E-02 0.  1.
        1   -1    0    0  501    0  0.00000000000E+00  0.00000000000E+00 -0.37953979259E+03  0.37953979262E+03  0.50400001928E-02 0. -1.
    10030    2    1    2    0    0  0.00000000000E+00  0.00000000000E+00  0.93547591121E+03  0.16945554964E+04  0.14129413116E+04 0.  0.
        4    1    3    3  502    0  0.90841193587E+02 -0.27011089103E+03 -0.30754669585E+03  0.41928343508E+03  0.12699999809E+01 0. -1.
       -4    1    3    3    0  502 -0.90841193587E+02  0.27011089103E+03  0.12430226071E+04  0.12752720613E+04  0.12699999809E+01 0.  1.
</event>
<event>
 5   0  0.2094566E-03  0.1460653E+04  0.7818609E-02  0.8911048E-01
        2   -1    0    0  501    0  0.00000000000E+00  0.00000000000E+00  0.73233003902E+03  0.73233003903E+03  0.25500000920E-02 0. -1.
       -2   -1    0    0    0  501  0.00000000000E+00  0.00000000000E+00 -0.72832800679E+03  0.72832800679E+03  0.25500000920E-02 0.  1.
    10030    2    1    2    0    0  0.00000000000E+00  0.00000000000E+00  0.40020322361E+01  0.14606580458E+04  0.14606525633E+04 0.  0.
        1    1    3    3  502    0 -0.41671738219E+03  0.10025466982E+03 -0.58933199257E+03  0.72870883961E+03  0.50400001928E-02 0.  1.
       -1    1    3    3    0  502  0.41671738219E+03 -0.10025466982E+03  0.59333402481E+03  0.73194920620E+03  0.50400001928E-02 0. -1.
</event>
<event>
 5   0  0.1993623E-03  0.1510878E+04  0.7818609E-02  0.8877251E-01
        2   -1    0    0  501    0  0.00000000000E+00  0.00000000000E+00  0.96611340465E+03  0.96611340465E+03  0.25500000920E-02 0.  1.
       -2   -1    0    0    0  501  0.00000000000E+00  0.00000000000E+00 -0.59070522071E+03  0.59070522071E+03  0.25500000920E-02 0. -1.
    10030    2    1    2    0    0  0.00000000000E+00  0.00000000000E+00  0.37540818394E+03  0.15568186254E+04  0.15108781975E+04 0.  0.
        4    1    3    3  502    0 -0.30073339885E+03 -0.69010695586E+02 -0.52281592903E+03  0.60707591110E+03  0.12699999809E+01 0. -1.
       -4    1    3    3    0  502  0.30073339885E+03  0.69010695586E+02  0.89822411297E+03  0.94974271427E+03  0.12699999809E+01 0.  1.
</event>
<event>
 5   0  0.1087761E-03  0.1481917E+04  0.7818609E-02  0.8896568E-01
        1   -1    0    0  501    0  0.00000000000E+00  0.00000000000E+00  0.12211731524E+04  0.12211731524E+04  0.50400001928E-02 0.  1.
       -1   -1    0    0    0  501  0.00000000000E+00  0.00000000000E+00 -0.44958349862E+03  0.44958349865E+03  0.50400001928E-02 0. -1.
    10030    2    1    2    0    0  0.00000000000E+00  0.00000000000E+00  0.77158965377E+03  0.16707566510E+04  0.14819167295E+04 0.  0.
        3    1    3    3  502    0  0.27197099439E+03  0.26287990335E+02 -0.39070869816E+03  0.47677308779E+03  0.10100000352E+00 0. -1.
       -3    1    3    3    0  502 -0.27197099439E+03 -0.26287990335E+02  0.11622983519E+04  0.11939835633E+04  0.10100000352E+00 0.  1.
</event>
<event>
 5   0  0.2150197E-03  0.1492901E+04  0.7818609E-02  0.8889187E-01
       -2   -1    0    0    0  501  0.00000000000E+00  0.00000000000E+00  0.33108487168E+03  0.33108487169E+03  0.25500000920E-02 0. -1.
        2   -1    0    0  501    0  0.00000000000E+00  0.00000000000E+00 -0.16829174226E+04  0.16829174226E+04  0.25500000920E-02 0.  1.
    10030    2    1    2    0    0  0.00000000000E+00  0.00000000000E+00 -0.13518325510E+04  0.20140022943E+04  0.14929012009E+04 0.  0.
        3    1    3    3  502    0  0.98096287894E+02 -0.61015005990E+03 -0.11111172487E+03  0.62789473871E+03  0.10100000352E+00 0. -1.
       -3    1    3    3    0  502 -0.98096287894E+02  0.61015005990E+03 -0.12407208261E+04  0.13861075556E+04  0.10100000352E+00 0.  1.
</event>
<event>
 5   0  0.1087761E-03  0.1516202E+04  0.7818609E-02  0.8873750E-01
        1   -1    0    0  501    0  0.00000000000E+00  0.00000000000E+00  0.70142871485E+03  0.70142871487E+03  0.50400001928E-02 0.  1.
       -1   -1    0    0    0  501  0.00000000000E+00  0.00000000000E+00 -0.81935246354E+03  0.81935246355E+03  0.50400001928E-02 0. -1.
    10030    2    1    2    0    0  0.00000000000E+00  0.00000000000E+00 -0.11792374868E+03  0.15207811784E+04  0.15162022893E+04 0.  0.
        3    1    3    3  502    0 -0.26401609444E+03 -0.19418617126E+03 -0.74462310545E+03  0.81355783237E+03  0.10100000352E+00 0. -1.
       -3    1    3    3    0  502  0.26401609444E+03  0.19418617126E+03  0.62669935677E+03  0.70722334606E+03  0.10100000352E+00 0.  1.
</event>
<event>
 5   0  0.1069697E-03  0.9922441E+03  0.7818609E-02  0.9317092E-01
        1   -1    0    0  501    0  0.00000000000E+00  0.00000000000E+00  0.29944505956E+03  0.29944505960E+03  0.50400001928E-02 0.  1.
       -1   -1    0    0    0  501  0.00000000000E+00  0.00000000000E+00 -0.82197741032E+03  0.82197741033E+03  0.50400001928E-02 0. -1.
    10030    2    1    2    0    0  0.00000000000E+00  0.00000000000E+00 -0.52253235076E+03  0.11214224699E+04  0.99224407203E+03 0.  0.
        2    1    3    3  502    0 -0.40797022146E+03  0.12306056629E+03 -0.54841731028E+03  0.69451072763E+03  0.25500000920E-02 0. -1.
       -2    1    3    3    0  502  0.40797022146E+03 -0.12306056629E+03  0.25884959521E+02  0.42691174230E+03  0.25500000920E-02 0.  1.
</event>
<event>
 5   0  0.1961098E-03  0.1496882E+04  0.7818609E-02  0.8886529E-01
        2   -1    0    0  501    0  0.00000000000E+00  0.00000000000E+00  0.18599071982E+04  0.18599071982E+04  0.25500000920E-02 0. -1.
       -2   -1    0    0    0  501  0.00000000000E+00  0.00000000000E+00 -0.30117856478E+03  0.30117856479E+03  0.25500000920E-02 0.  1.
    10030    2    1    2    0    0  0.00000000000E+00  0.00000000000E+00  0.15587286334E+04  0.21610857630E+04  0.14968823342E+04 0.  0.
        2    1    3    3  502    0 -0.60356084340E+02 -0.27610264938E+03  0.17799067258E+04  0.18022051722E+04  0.25500000920E-02 0. -1.
       -2    1    3    3    0  502  0.60356084340E+02  0.27610264938E+03 -0.22117809241E+03  0.35888059084E+03  0.25500000920E-02 0.  1.
</event>
<event>
 5   0  0.7468375E-04  0.1368677E+04  0.7818609E-02  0.8976809E-01
        3   -1    0    0  501    0  0.00000000000E+00  0.00000000000E+00  0.39979138306E+03  0.39979139582E+03  0.10100000352E+00 0.  1.
       -3   -1    0    0    0  501  0.00000000000E+00  0.00000000000E+00 -0.11714095739E+04  0.11714095782E+04  0.10100000352E+00 0. -1.
    10030    2    1    2    0    0  0.00000000000E+00  0.00000000000E+00 -0.77161819081E+03  0.15712009740E+04  0.13686774158E+04 0.  0.
        4    1    3    3  502    0 -0.59573692505E+02  0.21351654955E+03 -0.11290518131E+04  0.11506076443E+04  0.12699999809E+01 0. -1.
       -4    1    3    3    0  502  0.59573692505E+02 -0.21351654955E+03  0.35743362224E+03  0.42059332969E+03  0.12699999809E+01 0.  1.
</event>
<event>
 5   0  0.1077140E-03  0.9407296E+03  0.7818609E-02  0.9376052E-01
        1   -1    0    0  501    0  0.00000000000E+00  0.00000000000E+00  0.81937335310E+03  0.81937335312E+03  0.50400001928E-02 0. -1.
       -1   -1    0    0    0  501  0.00000000000E+00  0.00000000000E+00 -0.27001493725E+03  0.27001493729E+03  0.50400001928E-02 0.  1.
    10030    2    1    2    0    0  0.00000000000E+00  0.00000000000E+00  0.54935841586E+03  0.10893882904E+04  0.94072959888E+03 0.  0.
        1    1    3    3  502    0  0.41740836724E+03 -0.21505234856E+03  0.24263335396E+03  0.52853401229E+03  0.50400001928E-02 0.  1.
       -1    1    3    3    0  502 -0.41740836724E+03  0.21505234856E+03  0.30672506190E+03  0.56085427812E+03  0.50400001928E-02 0. -1.
</event>
<event>
 5   0  0.1993623E-03  0.1500261E+04  0.7818609E-02  0.8884279E-01
       -2   -1    0    0    0  501  0.00000000000E+00  0.00000000000E+00  0.87120378630E+03  0.87120378630E+03  0.25500000920E-02 0. -1.
        2   -1    0    0  501    0  0.00000000000E+00  0.00000000000E+00 -0.64588306308E+03  0.64588306308E+03  0.25500000920E-02 0.  1.
    10030    2    1    2    0    0  0.00000000000E+00  0.00000000000E+00  0.22532072322E+03  0.15170868494E+04  0.15002610040E+04 0.  0.
        4    1    3    3  502    0  0.78779238692E+02 -0.40395184777E+03  0.74683900175E+03  0.85273288385E+03  0.12699999809E+01 0.  1.
       -4    1    3    3    0  502 -0.78779238692E+02  0.40395184777E+03 -0.52151827854E+03  0.66435396553E+03  0.12699999809E+01 0. -1.
</event>
<event>
 5   0  0.1077140E-03  0.1346018E+04  0.7818609E-02  0.8993848E-01
        1   -1    0    0  501    0  0.00000000000E+00  0.00000000000E+00  0.61723925043E+03  0.61723925045E+03  0.50400001928E-02 0.  1.
       -1   -1    0    0    0  501  0.00000000000E+00  0.00000000000E+00 -0.73381797874E+03  0.73381797876E+03  0.50400001928E-02 0. -1.
    10030    2    1    2    0    0  0.00000000000E+00  0.00000000000E+00 -0.11657872831E+03  0.13510572292E+04  0.13460182156E+04 0.  0.
        1    1    3    3  502    0 -0.27538390388E+03  0.15494128839E+02  0.55790206282E+03  0.62235928069E+03  0.50400001928E-02 0.  1.
       -1    1    3    3    0  502  0.27538390388E+03 -0.15494128839E+02 -0.67448079113E+03  0.72869794851E+03  0.50400001928E-02 0. -1.
</event>
<event>
 5   0  0.1993623E-03  0.1499335E+04  0.7818609E-02  0.8884895E-01
        2   -1    0    0  501    0  0.00000000000E+00  0.00000000000E+00  0.58103991353E+03  0.58103991353E+03  0.25500000920E-02 0. -1.
       -2   -1    0    0    0  501  0.00000000000E+00  0.00000000000E+00 -0.96723392954E+03  0.96723392954E+03  0.25500000920E-02 0.  1.
    10030    2    1    2    0    0  0.00000000000E+00  0.00000000000E+00 -0.38619401601E+03  0.15482738431E+04  0.14993352111E+04 0.  0.
        4    1    3    3  502    0  0.47082893517E+03  0.43235941233E+03 -0.59752479688E+03  0.87501545324E+03  0.12699999809E+01 0.  1.
       -4    1    3    3    0  502 -0.47082893517E+03 -0.43235941233E+03  0.21133078088E+03  0.67325838983E+03  0.12699999809E+01 0. -1.
</event>
<event>
 5   0  0.2111533E-03  0.1615066E+04  0.7818609E-02  0.8811346E-01
        2   -1    0    0  501    0  0.00000000000E+00  0.00000000000E+00  0.17154885048E+04  0.17154885048E+04  0.25500000920E-02 0. -1.
       -2   -1    0    0    0  501  0.00000000000E+00  0.00000000000E+00 -0.38013044745E+03  0.38013044746E+03  0.25500000920E-02 0.  1.
    10030    2    1    2    0    0  0.00000000000E+00  0.00000000000E+00  0.13353580573E+04  0.20956189522E+04  0.16150658351E+04 0.  0.
        5    1    3    3  502    0 -0.41368560107E+03 -0.11125880155E+03 -0.22052089010E+03  0.48183591649E+03  0.46999998093E+01 0.  1.
       -5    1    3    3    0  502  0.41368560107E+03  0.11125880155E+03  0.15558789474E+04  0.16137830357E+04  0.46999998093E+01 0. -1.
</event>
<event>
 5   0  0.1078018E-03  0.1521279E+04  0.7818609E-02  0.8870424E-01
        1   -1    0    0  501    0  0.00000000000E+00  0.00000000000E+00  0.17966155628E+04  0.17966155628E+04  0.50400001928E-02 0.  1.
       -1   -1    0    0    0  501  0.00000000000E+00  0.00000000000E+00 -0.32203480100E+03  0.32203480104E+03  0.50400001928E-02 0. -1.
    10030    2    1    2    0    0  0.00000000000E+00  0.00000000000E+00  0.14745807618E+04  0.21186503638E+04  0.15212793764E+04 0.  0.
        4    1    3    3  502    0  0.18041408453E+02  0.61119031365E+02 -0.31830904666E+03  0.32462792624E+03  0.12699999809E+01 0. -1.
       -4    1    3    3    0  502 -0.18041408453E+02 -0.61119031365E+02  0.17928898085E+04  0.17940224376E+04  0.12699999809E+01 0.  1.
</event>
<event>
 5   0  0.2111533E-03  0.1631454E+04  0.7818609E-02  0.8801454E-01
        2   -1    0    0  501    0  0.00000000000E+00  0.00000000000E+00  0.14961028870E+04  0.14961028870E+04  0.25500000920E-02 0. -1.
       -2   -1    0    0    0  501  0.00000000000E+00  0.00000000000E+00 -0.44476251936E+03  0.44476251936E+03  0.25500000920E-02 0.  1.
    10030    2    1    2    0    0  0.00000000000E+00  0.00000000000E+00  0.10513403676E+04  0.19408654064E+04  0.16314539396E+04 0.  0.
        5    1    3    3  502    0 -0.78756100978E+02  0.34647997355E+03 -0.34784483024E+03  0.49726151212E+03  0.46999998093E+01 0.  1.
       -5    1    3    3    0  502  0.78756100978E+02 -0.34647997355E+03  0.13991851979E+04  0.14436038942E+04  0.46999998093E+01 0. -1.
</event>
<event>
 5   0  0.1069697E-03  0.1514431E+04  0.7818609E-02  0.8874913E-01
        1   -1    0    0  501    0  0.00000000000E+00  0.00000000000E+00  0.90383602584E+03  0.90383602586E+03  0.50400001928E-02 0.  1.
       -1   -1    0    0    0  501  0.00000000000E+00  0.00000000000E+00 -0.63437991355E+03  0.63437991357E+03  0.50400001928E-02 0. -1.
    10030    2    1    2    0    0  0.00000000000E+00  0.00000000000E+00  0.26945611230E+03  0.15382159394E+04  0.15144311407E+04 0.  0.
        2    1    3    3  502    0  0.21769905909E+03  0.23165346064E+03 -0.56332041861E+03  0.64682772064E+03  0.25500000920E-02 0. -1.
       -2    1    3    3    0  502 -0.21769905909E+03 -0.23165346064E+03  0.83277653091E+03  0.89138821879E+03  0.25500000920E-02 0.  1.
</event>
<event>
 5   0  0.1961098E-03  0.1503845E+04  0.7818609E-02  0.8881900E-01
       -2   -1    0    0    0  501  0.00000000000E+00  0.00000000000E+00  0.17881178089E+04  0.17881178089E+04  0.25500000920E-02 0. -1.
        2   -1    0    0  501    0  0.00000000000E+00  0.00000000000E+00 -0.31619125206E+03  0.31619125207E+03  0.25500000920E-02 0.  1.
    10030    2    1    2    0    0  0.00000000000E+00  0.00000000000E+00  0.14719265568E+04  0.21043090610E+04  0.15038446846E+04 0.  0.
        2    1    3    3  502    0  0.18682310527E+03 -0.15314386868E+03  0.17323408007E+04  0.17491027891E+04  0.25500000920E-02 0. -1.
       -2    1    3    3    0  502 -0.18682310527E+03  0.15314386868E+03 -0.26041424383E+03  0.35520627187E+03  0.25500000920E-02 0.  1.
</event>
<event>
 5   0  0.1078787E-03  0.1520576E+04  0.7818609E-02  0.8870884E-01
       -1   -1    0    0    0  501  0.00000000000E+00  0.00000000000E+00  0.65083125496E+03  0.65083125498E+03  0.50400001928E-02 0.  1.
        1   -1    0    0  501    0  0.00000000000E+00  0.00000000000E+00 -0.88815275374E+03  0.88815275375E+03  0.50400001928E-02 0. -1.
    10030    2    1    2    0    0  0.00000000000E+00  0.00000000000E+00 -0.23732149877E+03  0.15389840087E+04  0.15205756428E+04 0.  0.
        5    1    3    3  502    0 -0.65002495145E+03  0.20540927052E+01 -0.51774234688E+03  0.83103302254E+03  0.46999998093E+01 0. -1.
       -5    1    3    3    0  502  0.65002495145E+03 -0.20540927052E+01  0.28042084810E+03  0.70795098619E+03  0.46999998093E+01 0.  1.
</event>
</LesHouchesEvents>
