<LesHouchesEvents version="3.0">
<header>
<!--
#*********************************************************************
#                                                                    *
#                        MadGraph5_aMC@NLO                           *
#                                                                    *
#                           Going Beyond                             *
#                                                                    *
#                   http://madgraph.hep.uiuc.edu                     *
#                   http://madgraph.phys.ucl.ac.be                   *
#                   http://amcatnlo.cern.ch                          *
#                                                                    *
#                     The MadGraph5_aMC@NLO team                     *
#                                                                    *
#....................................................................*
#                                                                    *
# This file contains all the information necessary to reproduce      *
# the events generated:                                              *
#                                                                    *
# 1. software version                                                *
# 2. proc_card          : code generation info including model       *
# 3. param_card         : model primary parameters in the LH format  *
# 4. run_card           : running parameters (collider and cuts)     *
# 5. pythia_card        : present only if pythia has been run        *
# 6. pgs_card           : present only if pgs has been run           *
# 7. delphes_cards      : present only if delphes has been run       *
#                                                                    *
#                                                                    *
#*********************************************************************
-->
<MGVersion>
#5.2.2.3
</MGVersion>
<MG5ProcCard>
#************************************************************
#*                     MadGraph5_aMC@NLO                    *
#*                                                          *
#*                *                       *                 *
#*                  *        * *        *                   *
#*                    * * * * 5 * * * *                     *
#*                  *        * *        *                   *
#*                *                       *                 *
#*                                                          *
#*                                                          *
#*         VERSION 2.2.3                 2015-02-10         *
#*                                                          *
#*    The MadGraph5_aMC@NLO Development Team - Find us at   *
#*    https://server06.fynu.ucl.ac.be/projects/madgraph     *
#*                                                          *
#************************************************************
#*                                                          *
#*               Command File for MadGraph5_aMC@NLO         *
#*                                                          *
#*     run as ./bin/mg5_aMC  filename                       *
#*                                                          *
#************************************************************
set group_subprocesses Auto
set ignore_six_quark_processes False
set loop_optimized_output True
set gauge unitary
set complex_mass_scheme False
import model sm
define p = g u c d s u~ c~ d~ s~
define j = g u c d s u~ c~ d~ s~
define l+ = e+ mu+
define l- = e- mu-
define vl = ve vm vt
define vl~ = ve~ vm~ vt~
import model Zprime_UFO
generate p p > zph, zph > j j
add process p p > zph, zph > b b~
output Dijet_signal
</MG5ProcCard>
<MGProcCard>
#*********************************************************************
#                        MadGraph/MadEvent                           *
#                   http://madgraph.hep.uiuc.edu                     *
#                                                                    *
#                          proc_card.dat                             *
#*********************************************************************
#                                                                    *
#            This Files is generated by MADGRAPH 5                   *
#                                                                    *
# WARNING: This Files is generated for MADEVENT (compatibility issue)*
#          This files is NOT a valid MG4 proc_card.dat               *
#          Running this in MG4 will NEVER reproduce the result of MG5*
#                                                                    *
#*********************************************************************
#*********************************************************************
# Process(es) requested : mg2 input                                  *
#*********************************************************************
# Begin PROCESS # This is TAG. Do not modify this line
p p > zph , zph > j j           #Process
# Be carefull the coupling are here in MG5 convention
          
end_coup           # End the couplings input

done               # this tells MG there are no more procs
# End PROCESS  # This is TAG. Do not modify this line
#*********************************************************************
# Model information                                                  *
#*********************************************************************
# Begin MODEL  # This is TAG. Do not modify this line
Zprime_UFO
# End   MODEL  # This is TAG. Do not modify this line
#*********************************************************************
# Start multiparticle definitions                                    *
#*********************************************************************
# Begin MULTIPARTICLES # This is TAG. Do not modify this line

# End  MULTIPARTICLES # This is TAG. Do not modify this line
</MGProcCard>
<MGRunCard>
#*********************************************************************
#                       MadGraph5_aMC@NLO                            *
#                                                                    *
#                     run_card.dat MadEvent                          *
#                                                                    *
#  This file is used to set the parameters of the run.               *
#                                                                    *
#  Some notation/conventions:                                        *
#                                                                    *
#   Lines starting with a '# ' are info or comments                  *
#                                                                    *
#   mind the format:   value    = variable     ! comment             *
#*********************************************************************
#
#*******************                                                 
# Running parameters
#*******************                                                 
#                                                                    
#*********************************************************************
# Tag name for the run (one word)                                    *
#*********************************************************************
  tag_1     = run_tag ! name of the run 
#*********************************************************************
# Run to generate the grid pack                                      *
#*********************************************************************
  .false.     = gridpack  !True = setting up the grid pack
#*********************************************************************
# Number of events and rnd seed                                      *
# Warning: Do not generate more than 1M events in a single run       *
# If you want to run Pythia, avoid more than 50k events in a run.    *
#*********************************************************************
  2000 = nevents ! Number of unweighted events requested 
 1812 = iseed   ! rnd seed (0=assigned automatically=default))
#*********************************************************************
# Collider type and energy                                           *
# lpp: 0=No PDF, 1=proton, -1=antiproton, 2=photon from proton,      *
#                                         3=photon from electron     *
#*********************************************************************
        1     = lpp1    ! beam 1 type 
        1     = lpp2    ! beam 2 type
     4000     = ebeam1  ! beam 1 total energy in GeV
     4000     = ebeam2  ! beam 2 total energy in GeV
#*********************************************************************
# Beam polarization from -100 (left-handed) to 100 (right-handed)    *
#*********************************************************************
        0     = polbeam1 ! beam polarization for beam 1
        0     = polbeam2 ! beam polarization for beam 2
#*********************************************************************
# PDF CHOICE: this automatically fixes also alpha_s and its evol.    *
#*********************************************************************
 'nn23lo1'    = pdlabel     ! PDF set                                     
 230000    = lhaid     ! if pdlabel=lhapdf, this is the lhapdf number
#*********************************************************************
# Renormalization and factorization scales                           *
#*********************************************************************
 F        = fixed_ren_scale  ! if .true. use fixed ren scale
 F        = fixed_fac_scale  ! if .true. use fixed fac scale
 91.1880  = scale            ! fixed ren scale
 91.1880  = dsqrt_q2fact1    ! fixed fact scale for pdf1
 91.1880  = dsqrt_q2fact2    ! fixed fact scale for pdf2
 1        = scalefact        ! scale factor for event-by-event scales
#*********************************************************************
# Matching - Warning! ickkw > 1 is still beta
#*********************************************************************
 0        = ickkw            ! 0 no matching, 1 MLM, 2 CKKW matching
 1        = highestmult      ! for ickkw=2, highest mult group
 1        = ktscheme         ! for ickkw=1, 1 Durham kT, 2 Pythia pTE
 1        = alpsfact         ! scale factor for QCD emission vx
 F        = chcluster        ! cluster only according to channel diag
 T        = pdfwgt           ! for ickkw=1, perform pdf reweighting
 5        = asrwgtflavor     ! highest quark flavor for a_s reweight
 T        = clusinfo         ! include clustering tag in output
 3.0      = lhe_version       ! Change the way clustering information pass to shower.        
#*********************************************************************
#**********************************************************
#
#**********************************************************
# Automatic ptj and mjj cuts if xqcut > 0
# (turn off for VBF and single top processes)
#**********************************************************
   T  = auto_ptj_mjj  ! Automatic setting of ptj and mjj
#**********************************************************
#                                                                    
#**********************************
# BW cutoff (M+/-bwcutoff*Gamma)
#**********************************
  15  = bwcutoff      ! (M+/-bwcutoff*Gamma)
#**********************************************************
# Apply pt/E/eta/dr/mij cuts on decay products or not
# (note that etmiss/ptll/ptheavy/ht/sorted cuts always apply)
#**********************************************************
   T  = cut_decays    ! Cut decay products 
#*************************************************************
# Number of helicities to sum per event (0 = all helicities)
# 0 gives more stable result, but longer run time (needed for
# long decay chains e.g.).
# Use >=2 if most helicities contribute, e.g. pure QCD.
#*************************************************************
   0  = nhel          ! Number of helicities used per event
#*******************                                                 
# Standard Cuts
#*******************                                                 
#                                                                    
#*********************************************************************
# Minimum and maximum pt's (for max, -1 means no cut)                *
#*********************************************************************
 20  = ptj       ! minimum pt for the jets 
  0  = ptb       ! minimum pt for the b 
 10  = pta       ! minimum pt for the photons 
 10  = ptl       ! minimum pt for the charged leptons 
  0  = misset    ! minimum missing Et (sum of neutrino's momenta)
  0  = ptheavy   ! minimum pt for one heavy final state
 1.0 = ptonium   ! minimum pt for the quarkonium states
 -1  = ptjmax    ! maximum pt for the jets
 -1  = ptbmax    ! maximum pt for the b
 -1  = ptamax    ! maximum pt for the photons
 -1  = ptlmax    ! maximum pt for the charged leptons
 -1  = missetmax ! maximum missing Et (sum of neutrino's momenta)
#*********************************************************************
# Minimum and maximum E's (in the center of mass frame)              *
#*********************************************************************
  0  = ej     ! minimum E for the jets 
  0  = eb     ! minimum E for the b 
  0  = ea     ! minimum E for the photons 
  0  = el     ! minimum E for the charged leptons 
 -1   = ejmax ! maximum E for the jets
 -1   = ebmax ! maximum E for the b
 -1   = eamax ! maximum E for the photons
 -1   = elmax ! maximum E for the charged leptons
#*********************************************************************
# Maximum and minimum absolute rapidity (for max, -1 means no cut)   *
#*********************************************************************
   5  = etaj    ! max rap for the jets 
  -1  = etab    ! max rap for the b
 2.5  = etaa    ! max rap for the photons 
 2.5  = etal    ! max rap for the charged leptons 
 0.6  = etaonium ! max rap for the quarkonium states
   0  = etajmin ! min rap for the jets
   0  = etabmin ! min rap for the b
   0  = etaamin ! min rap for the photons
   0  = etalmin ! main rap for the charged leptons
#*********************************************************************
# Minimum and maximum DeltaR distance                                *
#*********************************************************************
 0.4 = drjj    ! min distance between jets 
 0   = drbb    ! min distance between b's 
 0.4 = drll    ! min distance between leptons 
 0.4 = draa    ! min distance between gammas 
 0   = drbj    ! min distance between b and jet 
 0.4 = draj    ! min distance between gamma and jet 
 0.4 = drjl    ! min distance between jet and lepton 
 0   = drab    ! min distance between gamma and b 
 0   = drbl    ! min distance between b and lepton 
 0.4 = dral    ! min distance between gamma and lepton 
 -1  = drjjmax ! max distance between jets
 -1  = drbbmax ! max distance between b's
 -1  = drllmax ! max distance between leptons
 -1  = draamax ! max distance between gammas
 -1  = drbjmax ! max distance between b and jet
 -1  = drajmax ! max distance between gamma and jet
 -1  = drjlmax ! max distance between jet and lepton
 -1  = drabmax ! max distance between gamma and b
 -1  = drblmax ! max distance between b and lepton
 -1  = dralmax ! maxdistance between gamma and lepton
#*********************************************************************
# Minimum and maximum invariant mass for pairs                       *
# WARNING: for four lepton final state mmll cut require to have      *
#          different lepton masses for each flavor!                  *           
#*********************************************************************
 0   = mmjj    ! min invariant mass of a jet pair 
 0   = mmbb    ! min invariant mass of a b pair 
 0   = mmaa    ! min invariant mass of gamma gamma pair
 0   = mmll    ! min invariant mass of l+l- (same flavour) lepton pair
 -1  = mmjjmax ! max invariant mass of a jet pair
 -1  = mmbbmax ! max invariant mass of a b pair
 -1  = mmaamax ! max invariant mass of gamma gamma pair
 -1  = mmllmax ! max invariant mass of l+l- (same flavour) lepton pair
#*********************************************************************
# Minimum and maximum invariant mass for all letpons                 *
#*********************************************************************
 0   = mmnl    ! min invariant mass for all letpons (l+- and vl) 
 -1  = mmnlmax ! max invariant mass for all letpons (l+- and vl) 
#*********************************************************************
# Minimum and maximum pt for 4-momenta sum of leptons                *
#*********************************************************************
 0   = ptllmin  ! Minimum pt for 4-momenta sum of leptons(l and vl)
 -1  = ptllmax  ! Maximum pt for 4-momenta sum of leptons(l and vl)
#*********************************************************************
# Inclusive cuts                                                     *
#*********************************************************************
 0  = xptj ! minimum pt for at least one jet  
 0  = xptb ! minimum pt for at least one b 
 0  = xpta ! minimum pt for at least one photon 
 0  = xptl ! minimum pt for at least one charged lepton 
#*********************************************************************
# Control the pt's of the jets sorted by pt                          *
#*********************************************************************
 0   = ptj1min ! minimum pt for the leading jet in pt
 0   = ptj2min ! minimum pt for the second jet in pt
 0   = ptj3min ! minimum pt for the third jet in pt
 0   = ptj4min ! minimum pt for the fourth jet in pt
 -1  = ptj1max ! maximum pt for the leading jet in pt 
 -1  = ptj2max ! maximum pt for the second jet in pt
 -1  = ptj3max ! maximum pt for the third jet in pt
 -1  = ptj4max ! maximum pt for the fourth jet in pt
 0   = cutuse  ! reject event if fails any (0) / all (1) jet pt cuts
#*********************************************************************
# Control the pt's of leptons sorted by pt                           *
#*********************************************************************
 0   = ptl1min ! minimum pt for the leading lepton in pt
 0   = ptl2min ! minimum pt for the second lepton in pt
 0   = ptl3min ! minimum pt for the third lepton in pt
 0   = ptl4min ! minimum pt for the fourth lepton in pt
 -1  = ptl1max ! maximum pt for the leading lepton in pt 
 -1  = ptl2max ! maximum pt for the second lepton in pt
 -1  = ptl3max ! maximum pt for the third lepton in pt
 -1  = ptl4max ! maximum pt for the fourth lepton in pt
#*********************************************************************
# Control the Ht(k)=Sum of k leading jets                            *
#*********************************************************************
 0   = htjmin ! minimum jet HT=Sum(jet pt)
 -1  = htjmax ! maximum jet HT=Sum(jet pt)
 0   = ihtmin  !inclusive Ht for all partons (including b)
 -1  = ihtmax  !inclusive Ht for all partons (including b)
 0   = ht2min ! minimum Ht for the two leading jets
 0   = ht3min ! minimum Ht for the three leading jets
 0   = ht4min ! minimum Ht for the four leading jets
 -1  = ht2max ! maximum Ht for the two leading jets
 -1  = ht3max ! maximum Ht for the three leading jets
 -1  = ht4max ! maximum Ht for the four leading jets
#***********************************************************************
# Photon-isolation cuts, according to hep-ph/9801442                   *
# When ptgmin=0, all the other parameters are ignored                  *
# When ptgmin>0, pta and draj are not going to be used                 *
#***********************************************************************
   0 = ptgmin ! Min photon transverse momentum
 0.4 = R0gamma ! Radius of isolation code
 1.0 = xn ! n parameter of eq.(3.4) in hep-ph/9801442
 1.0 = epsgamma ! epsilon_gamma parameter of eq.(3.4) in hep-ph/9801442
 .true. = isoEM ! isolate photons from EM energy (photons and leptons)
#*********************************************************************
# WBF cuts                                                           *
#*********************************************************************
 0   = xetamin ! minimum rapidity for two jets in the WBF case  
 0   = deltaeta ! minimum rapidity for two jets in the WBF case 
#*********************************************************************
# KT DURHAM CUT                                                      *
#*********************************************************************
 -1    =  ktdurham        
 0.4  =  dparameter 
#*********************************************************************
# maximal pdg code for quark to be considered as a light jet         *
# (otherwise b cuts are applied)                                     *
#*********************************************************************
 4 = maxjetflavor    ! Maximum jet pdg code
#*********************************************************************
# Jet measure cuts                                                   *
#*********************************************************************
 0   = xqcut   ! minimum kt jet measure between partons
#*********************************************************************
#
#*********************************************************************
# Store info for systematics studies                                 *
# WARNING: If use_syst is T, matched Pythia output is                *
#          meaningful ONLY if plotted taking matchscale              *
#          reweighting into account!                                 *
#*********************************************************************
   F  = use_syst      ! Enable systematics studies
#
#**************************************
# Parameter of the systematics study
#  will be used by SysCalc (if installed)
#**************************************                                  
#
0.5 1 2 = sys_scalefact  # factorization/renormalization scale factor
0.5 1 2 = sys_alpsfact  # \alpha_s emission scale factors
30 50 = sys_matchscale # variation of merging scale
# PDF sets and number of members (0 or none for all members).
CT10nlo.LHgrid = sys_pdf # matching scales
# MSTW2008nlo68cl.LHgrid 1  = sys_pdf
</MGRunCard>
<slha>
######################################################################
## PARAM_CARD AUTOMATICALY GENERATED BY MG5 FOLLOWING UFO MODEL   ####
######################################################################
##                                                                  ##
##  Width set on Auto will be computed following the information    ##
##        present in the decay.py files of the model.               ##
##        See  arXiv:1402.1178 for more details.                    ##
##                                                                  ##
######################################################################

###################################
## INFORMATION FOR CKMBLOCK
###################################
Block ckmblock 
    1 2.277360e-01 # cabi 

###################################
## INFORMATION FOR FRBLOCK
###################################
Block frblock 
    1 1.000000e+00 # gz 

###################################
## INFORMATION FOR MASS
###################################
Block mass 
    1 5.040000e-03 # MD 
    2 2.550000e-03 # MU 
    3 1.010000e-01 # MS 
    4 1.270000e+00 # MC 
    5 4.700000e+00 # MB 
    6 1.720000e+02 # MT 
   11 5.110000e-04 # Me 
   13 1.056600e-01 # MM 
   15 1.777000e+00 # MTA 
   23 9.118760e+01 # MZ 
   25 1.200000e+02 # MH 
  10030 7.000000e+02 # MZph 
  10031 3.000000e+02 # MZpl 
## Dependent parameters, given by model restrictions.
## Those values should be edited following the 
## analytical expression. MG5 ignores those values 
## but they are important for interfacing the output of MG5
## to external program such as Pythia.
  12 0.000000 # ve : 0.0 
  14 0.000000 # vm : 0.0 
  16 0.000000 # vt : 0.0 
  21 0.000000 # g : 0.0 
  22 0.000000 # a : 0.0 
  24 79.824360 # w+ : cmath.sqrt(MZ__exp__2/2. + cmath.sqrt(MZ__exp__4/4. - (aEW*cmath.pi*MZ__exp__2)/(Gf*sqrt__2))) 

###################################
## INFORMATION FOR SMINPUTS
###################################
Block sminputs 
    1 1.279000e+02 # aEWM1 
    2 1.166370e-05 # Gf 
    3 1.184000e-01 # aS 

###################################
## INFORMATION FOR YUKAWA
###################################
Block yukawa 
    1 5.040000e-03 # ymdo 
    2 2.550000e-03 # ymup 
    3 1.010000e-01 # yms 
    4 1.270000e+00 # ymc 
    5 4.700000e+00 # ymb 
    6 1.720000e+02 # ymt 
   11 5.110000e-04 # yme 
   13 1.056600e-01 # ymm 
   15 1.777000e+00 # ymtau 

###################################
## INFORMATION FOR DECAY
###################################
DECAY   6 1.508336e+00 # WT 
DECAY  23 2.495200e+00 # WZ 
DECAY  24 2.085000e+00 # WW 
DECAY  25 5.753088e-03 # WH 
## Dependent parameters, given by model restrictions.
## Those values should be edited following the 
## analytical expression. MG5 ignores those values 
## but they are important for interfacing the output of MG5
## to external program such as Pythia.
DECAY  1 0.000000 # d : 0.0 
DECAY  2 0.000000 # u : 0.0 
DECAY  3 0.000000 # s : 0.0 
DECAY  4 0.000000 # c : 0.0 
DECAY  5 0.000000 # b : 0.0 
DECAY  11 0.000000 # e- : 0.0 
DECAY  12 0.000000 # ve : 0.0 
DECAY  13 0.000000 # mu- : 0.0 
DECAY  14 0.000000 # vm : 0.0 
DECAY  15 0.000000 # ta- : 0.0 
DECAY  16 0.000000 # vt : 0.0 
DECAY  21 0.000000 # g : 0.0 
DECAY  22 0.000000 # a : 0.0 
DECAY  10030 0.308725 # zph : (gz__exp__2*MZph*(5 + cmath.sqrt(1 - (4*MT__exp__2)/MZph__exp__2)))/(144.*cmath.pi) 
DECAY  10031 0.132629 # zpl : (5*gz__exp__2*MZpl)/(144.*cmath.pi) 
#===========================================================
# QUANTUM NUMBERS OF NEW STATE(S) (NON SM PDG CODE)
#===========================================================

Block QNUMBERS 10030  # zph 
        1 0  # 3 times electric charge
        2 3  # number of spin states (2S+1)
        3 1  # colour rep (1: singlet, 3: triplet, 8: octet)
        4 0  # Particle/Antiparticle distinction (0=own anti)
Block QNUMBERS 10031  # zpl 
        1 0  # 3 times electric charge
        2 3  # number of spin states (2S+1)
        3 1  # colour rep (1: singlet, 3: triplet, 8: octet)
        4 0  # Particle/Antiparticle distinction (0=own anti)
</slha>
## END BANNER##
<MGGenerationInfo>
#  Number of Events        :         4085
#  Integrated weight (pb)  :  0.98713E+01
#  Max wgt                 :  0.32907E-02
#  Average wgt             :  0.24165E-02
</MGGenerationInfo>
</header>
<init>
     2212     2212  0.40000000000E+04  0.40000000000E+04 0 0  247000  247000 2   1
  0.98690066790E+01  0.20981124489E-01  0.32906560000E-02   0
</init>
<event>
 5   0  0.3290656E-02  0.7260221E+03  0.7818609E-02  0.9673737E-01
       -2   -1    0    0    0  501  0.00000000000E+00  0.00000000000E+00  0.51769582186E+02  0.51769582248E+02  0.25500000920E-02 0.  1.
        2   -1    0    0  501    0  0.00000000000E+00  0.00000000000E+00 -0.25454527572E+04  0.25454527572E+04  0.25500000920E-02 0. -1.
    10030    2    1    2    0    0  0.00000000000E+00  0.00000000000E+00 -0.24936831750E+04  0.25972223395E+04  0.72602210930E+03 0.  0.
        1    1    3    3  502    0  0.27559889762E+03 -0.71614558568E+02 -0.44139643536E+03  0.52527536639E+03  0.50400001928E-02 0.  1.
       -1    1    3    3    0  502 -0.27559889762E+03  0.71614558568E+02 -0.20522867397E+04  0.20719469731E+04  0.50400001928E-02 0. -1.
</event>
<event>
 5   0  0.1233912E-02  0.7046397E+03  0.7818609E-02  0.9709330E-01
        3   -1    0    0  501    0  0.00000000000E+00  0.00000000000E+00  0.17988622427E+03  0.17988625263E+03  0.10100000352E+00 0. -1.
       -3   -1    0    0    0  501  0.00000000000E+00  0.00000000000E+00 -0.69004313521E+03  0.69004314260E+03  0.10100000352E+00 0.  1.
    10030    2    1    2    0    0  0.00000000000E+00  0.00000000000E+00 -0.51015691093E+03  0.86992939523E+03  0.70463968019E+03 0.  0.
        5    1    3    3  502    0 -0.29346219604E+03  0.40394209201E+02 -0.19681123784E+02  0.29691949965E+03  0.46999998093E+01 0. -1.
       -5    1    3    3    0  502  0.29346219604E+03 -0.40394209201E+02 -0.49047578715E+03  0.57300989557E+03  0.46999998093E+01 0.  1.
</event>
<event>
 5   0  0.3290656E-02  0.7022805E+03  0.7818609E-02  0.9713340E-01
        2   -1    0    0  501    0  0.00000000000E+00  0.00000000000E+00  0.76239727607E+03  0.76239727607E+03  0.25500000920E-02 0. -1.
       -2   -1    0    0    0  501  0.00000000000E+00  0.00000000000E+00 -0.16172602614E+03  0.16172602616E+03  0.25500000920E-02 0.  1.
    10030    2    1    2    0    0  0.00000000000E+00  0.00000000000E+00  0.60067124993E+03  0.92412330223E+03  0.70228051890E+03 0.  0.
        1    1    3    3  502    0  0.52904130135E+02 -0.91416829409E+01  0.75696444432E+03  0.75886598774E+03  0.50400001928E-02 0. -1.
       -1    1    3    3    0  502 -0.52904130135E+02  0.91416829409E+01 -0.15629319439E+03  0.16525731449E+03  0.50400001928E-02 0.  1.
</event>
<event>
 5   0  0.3184443E-02  0.6954027E+03  0.7818609E-02  0.9725127E-01
        2   -1    0    0  501    0  0.00000000000E+00  0.00000000000E+00  0.12563169470E+04  0.12563169470E+04  0.25500000920E-02 0. -1.
       -2   -1    0    0    0  501  0.00000000000E+00  0.00000000000E+00 -0.96230667295E+02  0.96230667329E+02  0.25500000920E-02 0.  1.
    10030    2    1    2    0    0  0.00000000000E+00  0.00000000000E+00  0.11600862797E+04  0.13525476143E+04  0.69540266943E+03 0.  0.
        3    1    3    3  502    0 -0.23170058154E+03  0.25761191984E+03  0.63665346606E+03  0.72482874307E+03  0.10100000352E+00 0. -1.
       -3    1    3    3    0  502  0.23170058154E+03 -0.25761191984E+03  0.52343281360E+03  0.62771887121E+03  0.10100000352E+00 0.  1.
</event>
<event>
 5   0  0.3290656E-02  0.7090035E+03  0.7818609E-02  0.9701958E-01
       -2   -1    0    0    0  501  0.00000000000E+00  0.00000000000E+00  0.70986341321E+02  0.70986341367E+02  0.25500000920E-02 0.  1.
        2   -1    0    0  501    0  0.00000000000E+00  0.00000000000E+00 -0.17703613945E+04  0.17703613945E+04  0.25500000920E-02 0. -1.
    10030    2    1    2    0    0  0.00000000000E+00  0.00000000000E+00 -0.16993750532E+04  0.18413477359E+04  0.70900346475E+03 0.  0.
        1    1    3    3  502    0 -0.86870882997E+02  0.25191526052E+03 -0.24248064274E+03  0.36028420854E+03  0.50400001928E-02 0.  1.
       -1    1    3    3    0  502  0.86870882997E+02 -0.25191526052E+03 -0.14568944105E+04  0.14810635274E+04  0.50400001928E-02 0. -1.
</event>
<event>
 5   0  0.3184443E-02  0.6957125E+03  0.7818609E-02  0.9724593E-01
       -2   -1    0    0    0  501  0.00000000000E+00  0.00000000000E+00  0.96841451869E+02  0.96841451903E+02  0.25500000920E-02 0. -1.
        2   -1    0    0  501    0  0.00000000000E+00  0.00000000000E+00 -0.12495058148E+04  0.12495058148E+04  0.25500000920E-02 0.  1.
    10030    2    1    2    0    0  0.00000000000E+00  0.00000000000E+00 -0.11526643629E+04  0.13463472667E+04  0.69571246144E+03 0.  0.
        3    1    3    3  502    0 -0.26684117586E+01 -0.24323530668E+03 -0.95117446404E+02  0.26118551577E+03  0.10100000352E+00 0. -1.
       -3    1    3    3    0  502  0.26684117586E+01  0.24323530668E+03 -0.10575469165E+04  0.10851617510E+04  0.10100000352E+00 0.  1.
</event>
<event>
 5   0  0.1969818E-02  0.6834475E+03  0.7818609E-02  0.9745965E-01
       -1   -1    0    0    0  501  0.00000000000E+00  0.00000000000E+00  0.15324599984E+03  0.15324599992E+03  0.50400001928E-02 0. -1.
        1   -1    0    0  501    0  0.00000000000E+00  0.00000000000E+00 -0.76201090667E+03  0.76201090669E+03  0.50400001928E-02 0.  1.
    10030    2    1    2    0    0  0.00000000000E+00  0.00000000000E+00 -0.60876490683E+03  0.91525690661E+03  0.68344750589E+03 0.  0.
        1    1    3    3  502    0 -0.56574566610E+02 -0.12753899288E+03 -0.72212881522E+03  0.73548412769E+03  0.50400001928E-02 0.  1.
       -1    1    3    3    0  502  0.56574566610E+02  0.12753899288E+03  0.11336390839E+03  0.17977277892E+03  0.50400001928E-02 0. -1.
</event>
<event>
 5   0  0.1884172E-02  0.7011877E+03  0.7818609E-02  0.9715203E-01
       -1   -1    0    0    0  501  0.00000000000E+00  0.00000000000E+00  0.72031578444E+03  0.72031578446E+03  0.50400001928E-02 0. -1.
        1   -1    0    0  501    0  0.00000000000E+00  0.00000000000E+00 -0.17064189652E+03  0.17064189659E+03  0.50400001928E-02 0.  1.
    10030    2    1    2    0    0  0.00000000000E+00  0.00000000000E+00  0.54967388792E+03  0.89095768105E+03  0.70118771121E+03 0.  0.
        3    1    3    3  502    0 -0.31459741352E+03  0.14023011689E+03  0.19170923004E+03  0.39419342633E+03  0.10100000352E+00 0.  1.
       -3    1    3    3    0  502  0.31459741352E+03 -0.14023011689E+03  0.35796465788E+03  0.49676425472E+03  0.10100000352E+00 0. -1.
</event>
<event>
 5   0  0.3290656E-02  0.7229069E+03  0.7818609E-02  0.9678841E-01
       -2   -1    0    0    0  501  0.00000000000E+00  0.00000000000E+00  0.51115203897E+03  0.51115203898E+03  0.25500000920E-02 0. -1.
        2   -1    0    0  501    0  0.00000000000E+00  0.00000000000E+00 -0.25559634394E+03  0.25559634396E+03  0.25500000920E-02 0.  1.
    10030    2    1    2    0    0  0.00000000000E+00  0.00000000000E+00  0.25555569503E+03  0.76674838294E+03  0.72290688852E+03 0.  0.
        1    1    3    3  502    0  0.27065012747E+03 -0.11831054708E+03  0.34873799233E+03  0.45701976365E+03  0.50400001928E-02 0. -1.
       -1    1    3    3    0  502 -0.27065012747E+03  0.11831054708E+03 -0.93182297301E+02  0.30972861928E+03  0.50400001928E-02 0.  1.
</event>
<event>
 5   0  0.1233912E-02  0.7023086E+03  0.7818609E-02  0.9713292E-01
       -4   -1    0    0    0  501  0.00000000000E+00  0.00000000000E+00  0.10874249130E+03  0.10874990719E+03  0.12699999809E+01 0. -1.
        4   -1    0    0  501    0  0.00000000000E+00  0.00000000000E+00 -0.11339108206E+04  0.11339115318E+04  0.12699999809E+01 0.  1.
    10030    2    1    2    0    0  0.00000000000E+00  0.00000000000E+00 -0.10251683293E+04  0.12426614390E+04  0.70230858500E+03 0.  0.
        5    1    3    3  502    0  0.13089998298E+03 -0.68399402137E+02 -0.10762246191E+04  0.10863216856E+04  0.46999998093E+01 0.  1.
       -5    1    3    3    0  502 -0.13089998298E+03  0.68399402137E+02  0.51056289851E+02  0.15633975339E+03  0.46999998093E+01 0. -1.
</event>
<event>
 5   0  0.3290656E-02  0.7098130E+03  0.7818609E-02  0.9700596E-01
       -2   -1    0    0    0  501  0.00000000000E+00  0.00000000000E+00  0.32519589546E+03  0.32519589547E+03  0.25500000920E-02 0. -1.
        2   -1    0    0  501    0  0.00000000000E+00  0.00000000000E+00 -0.38733148023E+03  0.38733148024E+03  0.25500000920E-02 0.  1.
    10030    2    1    2    0    0  0.00000000000E+00  0.00000000000E+00 -0.62135584766E+02  0.71252737571E+03  0.70981295440E+03 0.  0.
        1    1    3    3  502    0 -0.12858791350E+03  0.30741734758E+03  0.91539907455E+02  0.34557174620E+03  0.50400001928E-02 0. -1.
       -1    1    3    3    0  502  0.12858791350E+03 -0.30741734758E+03 -0.15367549222E+03  0.36695562951E+03  0.50400001928E-02 0.  1.
</event>
<event>
 5   0  0.1233912E-02  0.7028922E+03  0.7818609E-02  0.9712299E-01
       -4   -1    0    0    0  501  0.00000000000E+00  0.00000000000E+00  0.14245965509E+04  0.14245971170E+04  0.12699999809E+01 0. -1.
        4   -1    0    0  501    0  0.00000000000E+00  0.00000000000E+00 -0.86696068269E+02  0.86705369806E+02  0.12699999809E+01 0.  1.
    10030    2    1    2    0    0  0.00000000000E+00  0.00000000000E+00  0.13379004826E+04  0.15113024868E+04  0.70289224293E+03 0.  0.
        1    1    3    3  502    0 -0.32341538678E+03  0.35250671559E+02  0.95479694782E+03  0.10087008148E+04  0.50400001928E-02 0. -1.
       -1    1    3    3    0  502  0.32341538678E+03 -0.35250671559E+02  0.38310353481E+03  0.50260167196E+03  0.50400001928E-02 0.  1.
</event>
<event>
 5   0  0.3113940E-02  0.6994215E+03  0.7818609E-02  0.9718222E-01
       -2   -1    0    0    0  501  0.00000000000E+00  0.00000000000E+00  0.14708161523E+03  0.14708161525E+03  0.25500000920E-02 0. -1.
        2   -1    0    0  501    0  0.00000000000E+00  0.00000000000E+00 -0.83149492884E+03  0.83149492885E+03  0.25500000920E-02 0.  1.
    10030    2    1    2    0    0  0.00000000000E+00  0.00000000000E+00 -0.68441331362E+03  0.97857654409E+03  0.69942152440E+03 0.  0.
        5    1    3    3  502    0 -0.26892920291E+03 -0.12246053933E+03 -0.80619243461E+02  0.30633486953E+03  0.46999998093E+01 0.  1.
       -5    1    3    3    0  502  0.26892920291E+03  0.12246053933E+03 -0.60379407015E+03  0.67224167457E+03  0.46999998093E+01 0. -1.
</event>
<event>
 5   0  0.1839038E-02  0.6486851E+03  0.7818609E-02  0.9809250E-01
       -1   -1    0    0    0  501  0.00000000000E+00  0.00000000000E+00  0.12292850128E+03  0.12292850138E+03  0.50400001928E-02 0. -1.
        1   -1    0    0  501    0  0.00000000000E+00  0.00000000000E+00 -0.85576639666E+03  0.85576639667E+03  0.50400001928E-02 0.  1.
    10030    2    1    2    0    0  0.00000000000E+00  0.00000000000E+00 -0.73283789538E+03  0.97869489805E+03  0.64868507195E+03 0.  0.
        5    1    3    3  502    0  0.23693209158E+03  0.22098193258E+03 -0.38808180438E+03  0.50556840035E+03  0.46999998093E+01 0.  1.
       -5    1    3    3    0  502 -0.23693209158E+03 -0.22098193258E+03 -0.34475609100E+03  0.47312649770E+03  0.46999998093E+01 0. -1.
</event>
<event>
 5   0  0.1233912E-02  0.6371560E+03  0.7818609E-02  0.9831183E-01
        3   -1    0    0  501    0  0.00000000000E+00  0.00000000000E+00  0.12078729604E+03  0.12078733827E+03  0.10100000352E+00 0. -1.
       -3   -1    0    0    0  501  0.00000000000E+00  0.00000000000E+00 -0.84025332988E+03  0.84025333595E+03  0.10100000352E+00 0.  1.
    10030    2    1    2    0    0  0.00000000000E+00  0.00000000000E+00 -0.71946603384E+03  0.96104067422E+03  0.63715602772E+03 0.  0.
        1    1    3    3  502    0  0.13126084554E+03  0.28989946943E+03 -0.33731827187E+03  0.46373993629E+03  0.50400001928E-02 0. -1.
       -1    1    3    3    0  502 -0.13126084554E+03 -0.28989946943E+03 -0.38214776197E+03  0.49730073794E+03  0.50400001928E-02 0.  1.
</event>
<event>
 5   0  0.1969818E-02  0.6878788E+03  0.7818609E-02  0.9738189E-01
        1   -1    0    0  501    0  0.00000000000E+00  0.00000000000E+00  0.22549573616E+03  0.22549573621E+03  0.50400001928E-02 0.  1.
       -1   -1    0    0    0  501  0.00000000000E+00  0.00000000000E+00 -0.52459663275E+03  0.52459663278E+03  0.50400001928E-02 0. -1.
    10030    2    1    2    0    0  0.00000000000E+00  0.00000000000E+00 -0.29910089660E+03  0.75009236899E+03  0.68787877978E+03 0.  0.
        1    1    3    3  502    0  0.25392954168E+03  0.14083553711E+03  0.51456451025E+02  0.29489426415E+03  0.50400001928E-02 0.  1.
       -1    1    3    3    0  502 -0.25392954168E+03 -0.14083553711E+03 -0.35055734762E+03  0.45519810484E+03  0.50400001928E-02 0. -1.
</event>
<event>
 5   0  0.1884172E-02  0.7183782E+03  0.7818609E-02  0.9686309E-01
       -1   -1    0    0    0  501  0.00000000000E+00  0.00000000000E+00  0.24386256718E+03  0.24386256723E+03  0.50400001928E-02 0. -1.
        1   -1    0    0  501    0  0.00000000000E+00  0.00000000000E+00 -0.52905540337E+03  0.52905540339E+03  0.50400001928E-02 0.  1.
    10030    2    1    2    0    0  0.00000000000E+00  0.00000000000E+00 -0.28519283618E+03  0.77291797062E+03  0.71837819810E+03 0.  0.
        3    1    3    3  502    0 -0.23499961349E+03 -0.24940813312E+03 -0.25841448831E+03  0.42919377113E+03  0.10100000352E+00 0.  1.
       -3    1    3    3    0  502  0.23499961349E+03  0.24940813312E+03 -0.26778347870E+02  0.34372419950E+03  0.10100000352E+00 0. -1.
</event>
<event>
 5   0  0.1884172E-02  0.7033842E+03  0.7818609E-02  0.9711462E-01
       -1   -1    0    0    0  501  0.00000000000E+00  0.00000000000E+00  0.21469964148E+03  0.21469964154E+03  0.50400001928E-02 0. -1.
        1   -1    0    0  501    0  0.00000000000E+00  0.00000000000E+00 -0.57609469122E+03  0.57609469124E+03  0.50400001928E-02 0.  1.
    10030    2    1    2    0    0  0.00000000000E+00  0.00000000000E+00 -0.36139504974E+03  0.79079433278E+03  0.70338417297E+03 0.  0.
        3    1    3    3  502    0 -0.21917309703E+03  0.17187517434E+03  0.60718253812E+02  0.28506953286E+03  0.10100000352E+00 0. -1.
       -3    1    3    3    0  502  0.21917309703E+03 -0.17187517434E+03 -0.42211330356E+03  0.50572479992E+03  0.10100000352E+00 0.  1.
</event>
<event>
 5   0  0.3290656E-02  0.6969449E+03  0.7818609E-02  0.9722471E-01
       -2   -1    0    0    0  501  0.00000000000E+00  0.00000000000E+00  0.40832086598E+03  0.40832086599E+03  0.25500000920E-02 0. -1.
        2   -1    0    0  501    0  0.00000000000E+00  0.00000000000E+00 -0.29739612418E+03  0.29739612419E+03  0.25500000920E-02 0.  1.
    10030    2    1    2    0    0  0.00000000000E+00  0.00000000000E+00  0.11092474180E+03  0.70571699018E+03  0.69694488439E+03 0.  0.
        1    1    3    3  502    0  0.10973952533E+03 -0.87103590150E+02 -0.26761976649E+03  0.30207637822E+03  0.50400001928E-02 0.  1.
       -1    1    3    3    0  502 -0.10973952533E+03  0.87103590150E+02  0.37854450830E+03  0.40364061196E+03  0.50400001928E-02 0. -1.
</event>
<event>
 5   0  0.1951465E-02  0.6473533E+03  0.7818609E-02  0.9811758E-01
        1   -1    0    0  501    0  0.00000000000E+00  0.00000000000E+00  0.82116415106E+03  0.82116415107E+03  0.50400001928E-02 0. -1.
       -1   -1    0    0    0  501  0.00000000000E+00  0.00000000000E+00 -0.12758297930E+03  0.12758297940E+03  0.50400001928E-02 0.  1.
    10030    2    1    2    0    0  0.00000000000E+00  0.00000000000E+00  0.69358117175E+03  0.94874713048E+03  0.64735328514E+03 0.  0.
        4    1    3    3  502    0  0.19686863263E+03 -0.11037170377E+02  0.72297889026E+03  0.74938585942E+03  0.12699999809E+01 0. -1.
       -4    1    3    3    0  502 -0.19686863263E+03  0.11037170377E+02 -0.29397718501E+02  0.19936127106E+03  0.12699999809E+01 0.  1.
</event>
<event>
 5   0  0.1969818E-02  0.7037756E+03  0.7818609E-02  0.9710797E-01
        1   -1    0    0  501    0  0.00000000000E+00  0.00000000000E+00  0.54881617370E+03  0.54881617372E+03  0.50400001928E-02 0.  1.
       -1   -1    0    0    0  501  0.00000000000E+00  0.00000000000E+00 -0.22562202847E+03  0.22562202853E+03  0.50400001928E-02 0. -1.
    10030    2    1    2    0    0  0.00000000000E+00  0.00000000000E+00  0.32319414523E+03  0.77443820225E+03  0.70377558468E+03 0.  0.
        1    1    3    3  502    0  0.30187485281E+03  0.16521826787E+03  0.24245637145E+03  0.42096388786E+03  0.50400001928E-02 0.  1.
       -1    1    3    3    0  502 -0.30187485281E+03 -0.16521826787E+03  0.80737773774E+02  0.35347431439E+03  0.50400001928E-02 0. -1.
</event>
<event>
 5   0  0.2933851E-02  0.7470319E+03  0.7818609E-02  0.9640018E-01
        2   -1    0    0  501    0  0.00000000000E+00  0.00000000000E+00  0.50850249667E+03  0.50850249668E+03  0.25500000920E-02 0. -1.
       -2   -1    0    0    0  501  0.00000000000E+00  0.00000000000E+00 -0.27436279678E+03  0.27436279679E+03  0.25500000920E-02 0.  1.
    10030    2    1    2    0    0  0.00000000000E+00  0.00000000000E+00  0.23413969989E+03  0.78286529347E+03  0.74703190605E+03 0.  0.
        2    1    3    3  502    0 -0.31853758996E+03  0.16421457642E+03  0.67514324665E+01  0.35843856541E+03  0.25500000920E-02 0. -1.
       -2    1    3    3    0  502  0.31853758996E+03 -0.16421457642E+03  0.22738826742E+03  0.42442672806E+03  0.25500000920E-02 0.  1.
</event>
<event>
 5   0  0.1884172E-02  0.6832440E+03  0.7818609E-02  0.9746324E-01
        1   -1    0    0  501    0  0.00000000000E+00  0.00000000000E+00  0.17491511170E+04  0.17491511170E+04  0.50400001928E-02 0.  1.
       -1   -1    0    0    0  501  0.00000000000E+00  0.00000000000E+00 -0.66721281804E+02  0.66721281994E+02  0.50400001928E-02 0. -1.
    10030    2    1    2    0    0  0.00000000000E+00  0.00000000000E+00  0.16824298352E+04  0.18158723990E+04  0.68324404065E+03 0.  0.
        3    1    3    3  502    0 -0.15706368351E+03 -0.16192915055E+03  0.15230411608E+04  0.15396572470E+04  0.10100000352E+00 0.  1.
       -3    1    3    3    0  502  0.15706368351E+03  0.16192915055E+03  0.15938867438E+03  0.27621515201E+03  0.10100000352E+00 0. -1.
</event>
<event>
 5   0  0.1233912E-02  0.6908992E+03  0.7818609E-02  0.9732924E-01
        3   -1    0    0  501    0  0.00000000000E+00  0.00000000000E+00  0.22536514179E+03  0.22536516442E+03  0.10100000352E+00 0.  1.
       -3   -1    0    0    0  501  0.00000000000E+00  0.00000000000E+00 -0.52952022237E+03  0.52952023200E+03  0.10100000352E+00 0. -1.
    10030    2    1    2    0    0  0.00000000000E+00  0.00000000000E+00 -0.30415508058E+03  0.75488539643E+03  0.69089915957E+03 0.  0.
        1    1    3    3  502    0  0.47377315642E+02  0.16104037216E+03  0.17780618976E+03  0.24452740674E+03  0.50400001928E-02 0.  1.
       -1    1    3    3    0  502 -0.47377315642E+02 -0.16104037216E+03 -0.48196127034E+03  0.51035798969E+03  0.50400001928E-02 0. -1.
</event>
<event>
 5   0  0.3184443E-02  0.7001199E+03  0.7818609E-02  0.9717027E-01
        2   -1    0    0  501    0  0.00000000000E+00  0.00000000000E+00  0.29272041862E+03  0.29272041863E+03  0.25500000920E-02 0. -1.
       -2   -1    0    0    0  501  0.00000000000E+00  0.00000000000E+00 -0.41863146237E+03  0.41863146238E+03  0.25500000920E-02 0.  1.
    10030    2    1    2    0    0  0.00000000000E+00  0.00000000000E+00 -0.12591104376E+03  0.71135188101E+03  0.70011992378E+03 0.  0.
        3    1    3    3  502    0  0.15135832270E+03 -0.30401486966E+03 -0.14921501473E+03  0.37094408426E+03  0.10100000352E+00 0.  1.
       -3    1    3    3    0  502 -0.15135832270E+03  0.30401486966E+03  0.23303970971E+02  0.34040779675E+03  0.10100000352E+00 0. -1.
</event>
<event>
 5   0  0.1969818E-02  0.6977242E+03  0.7818609E-02  0.9721132E-01
       -1   -1    0    0    0  501  0.00000000000E+00  0.00000000000E+00  0.50253021840E+03  0.50253021842E+03  0.50400001928E-02 0. -1.
        1   -1    0    0  501    0  0.00000000000E+00  0.00000000000E+00 -0.24218395135E+03  0.24218395140E+03  0.50400001928E-02 0.  1.
    10030    2    1    2    0    0  0.00000000000E+00  0.00000000000E+00  0.26034626705E+03  0.74471416982E+03  0.69772416897E+03 0.  0.
        1    1    3    3  502    0  0.73397845932E+02 -0.28319360629E+02  0.49293867423E+03  0.49917708937E+03  0.50400001928E-02 0. -1.
       -1    1    3    3    0  502 -0.73397845932E+02  0.28319360629E+02 -0.23259240718E+03  0.24553708045E+03  0.50400001928E-02 0.  1.
</event>
<event>
 5   0  0.2933851E-02  0.6764704E+03  0.7818609E-02  0.9758339E-01
        2   -1    0    0  501    0  0.00000000000E+00  0.00000000000E+00  0.12139732659E+04  0.12139732659E+04  0.25500000920E-02 0. -1.
       -2   -1    0    0    0  501  0.00000000000E+00  0.00000000000E+00 -0.94238530699E+02  0.94238530734E+02  0.25500000920E-02 0.  1.
    10030    2    1    2    0    0  0.00000000000E+00  0.00000000000E+00  0.11197347352E+04  0.13082117966E+04  0.67647041889E+03 0.  0.
        2    1    3    3  502    0  0.79385157450E+01 -0.10529082132E+03  0.11812833810E+04  0.11859930874E+04  0.25500000920E-02 0. -1.
       -2    1    3    3    0  502 -0.79385157450E+01  0.10529082132E+03 -0.61548645798E+02  0.12221870925E+03  0.25500000920E-02 0.  1.
</event>
<event>
 5   0  0.1858013E-02  0.6992633E+03  0.7818609E-02  0.9718493E-01
        1   -1    0    0  501    0  0.00000000000E+00  0.00000000000E+00  0.38922255355E+03  0.38922255358E+03  0.50400001928E-02 0. -1.
       -1   -1    0    0    0  501  0.00000000000E+00  0.00000000000E+00 -0.31406788555E+03  0.31406788559E+03  0.50400001928E-02 0.  1.
    10030    2    1    2    0    0  0.00000000000E+00  0.00000000000E+00  0.75154667999E+02  0.70329043918E+03  0.69926333932E+03 0.  0.
        2    1    3    3  502    0 -0.26213297468E+03 -0.16934760291E+02 -0.19449341708E+03  0.32684579210E+03  0.25500000920E-02 0. -1.
       -2    1    3    3    0  502  0.26213297468E+03  0.16934760291E+02  0.26964808508E+03  0.37644464708E+03  0.25500000920E-02 0.  1.
</event>
<event>
 5   0  0.3184443E-02  0.7074324E+03  0.7818609E-02  0.9704606E-01
       -2   -1    0    0    0  501  0.00000000000E+00  0.00000000000E+00  0.20674620764E+03  0.20674620766E+03  0.25500000920E-02 0.  1.
        2   -1    0    0  501    0  0.00000000000E+00  0.00000000000E+00 -0.60516293189E+03  0.60516293189E+03  0.25500000920E-02 0. -1.
    10030    2    1    2    0    0  0.00000000000E+00  0.00000000000E+00 -0.39841672425E+03  0.81190913955E+03  0.70743237467E+03 0.  0.
        3    1    3    3  502    0 -0.93517577574E+02 -0.27795334122E+03  0.27765016829E+02  0.29457512382E+03  0.10100000352E+00 0.  1.
       -3    1    3    3    0  502  0.93517577574E+02  0.27795334122E+03 -0.42618174108E+03  0.51733401574E+03  0.10100000352E+00 0. -1.
</event>
<event>
 5   0  0.3113940E-02  0.6953290E+03  0.7818609E-02  0.9725254E-01
        2   -1    0    0  501    0  0.00000000000E+00  0.00000000000E+00  0.86489532129E+03  0.86489532129E+03  0.25500000920E-02 0. -1.
       -2   -1    0    0    0  501  0.00000000000E+00  0.00000000000E+00 -0.13975173267E+03  0.13975173269E+03  0.25500000920E-02 0.  1.
    10030    2    1    2    0    0  0.00000000000E+00  0.00000000000E+00  0.72514358862E+03  0.10046470540E+04  0.69532904366E+03 0.  0.
        5    1    3    3  502    0 -0.11781924535E+02  0.34449648917E+03  0.42770053802E+03  0.54933276347E+03  0.46999998093E+01 0.  1.
       -5    1    3    3    0  502  0.11781924535E+02 -0.34449648917E+03  0.29744305060E+03  0.45531429051E+03  0.46999998093E+01 0. -1.
</event>
<event>
 5   0  0.1858013E-02  0.6979521E+03  0.7818609E-02  0.9720741E-01
       -1   -1    0    0    0  501  0.00000000000E+00  0.00000000000E+00  0.11265570748E+03  0.11265570759E+03  0.50400001928E-02 0.  1.
        1   -1    0    0  501    0  0.00000000000E+00  0.00000000000E+00 -0.10810307432E+04  0.10810307432E+04  0.50400001928E-02 0. -1.
    10030    2    1    2    0    0  0.00000000000E+00  0.00000000000E+00 -0.96837503571E+03  0.11936864508E+04  0.69795209938E+03 0.  0.
        2    1    3    3  502    0  0.48001910378E+02  0.32710308676E+03 -0.67527656494E+03  0.75186371899E+03  0.25500000920E-02 0. -1.
       -2    1    3    3    0  502 -0.48001910378E+02 -0.32710308676E+03 -0.29309847077E+03  0.44182273181E+03  0.25500000920E-02 0.  1.
</event>
<event>
 5   0  0.3184443E-02  0.7283529E+03  0.7818609E-02  0.9669937E-01
        2   -1    0    0  501    0  0.00000000000E+00  0.00000000000E+00  0.12257278573E+04  0.12257278573E+04  0.25500000920E-02 0. -1.
       -2   -1    0    0    0  501  0.00000000000E+00  0.00000000000E+00 -0.10820060591E+03  0.10820060594E+03  0.25500000920E-02 0.  1.
    10030    2    1    2    0    0  0.00000000000E+00  0.00000000000E+00  0.11175272514E+04  0.13339284633E+04  0.72835292782E+03 0.  0.
        3    1    3    3  502    0  0.28574304370E+02 -0.25745391439E+03  0.10275724388E+04  0.10597188948E+04  0.10100000352E+00 0. -1.
       -3    1    3    3    0  502 -0.28574304370E+02  0.25745391439E+03  0.89954812615E+02  0.27420956843E+03  0.10100000352E+00 0.  1.
</event>
<event>
 5   0  0.3290656E-02  0.7007082E+03  0.7818609E-02  0.9716022E-01
       -2   -1    0    0    0  501  0.00000000000E+00  0.00000000000E+00  0.44105217269E+03  0.44105217270E+03  0.25500000920E-02 0.  1.
        2   -1    0    0  501    0  0.00000000000E+00  0.00000000000E+00 -0.27830720307E+03  0.27830720308E+03  0.25500000920E-02 0. -1.
    10030    2    1    2    0    0  0.00000000000E+00  0.00000000000E+00  0.16274496962E+03  0.71935937577E+03  0.70070820345E+03 0.  0.
        1    1    3    3  502    0  0.12537908400E+03  0.17607146573E+03  0.36444154766E+03  0.42372009326E+03  0.50400001928E-02 0.  1.
       -1    1    3    3    0  502 -0.12537908400E+03 -0.17607146573E+03 -0.20169657804E+03  0.29563928251E+03  0.50400001928E-02 0. -1.
</event>
<event>
 5   0  0.1839038E-02  0.6925084E+03  0.7818609E-02  0.9730130E-01
       -1   -1    0    0    0  501  0.00000000000E+00  0.00000000000E+00  0.71312648905E+02  0.71312649084E+02  0.50400001928E-02 0.  1.
        1   -1    0    0  501    0  0.00000000000E+00  0.00000000000E+00 -0.16812161898E+04  0.16812161898E+04  0.50400001928E-02 0. -1.
    10030    2    1    2    0    0  0.00000000000E+00  0.00000000000E+00 -0.16099035409E+04  0.17525288389E+04  0.69250842606E+03 0.  0.
        5    1    3    3  502    0 -0.37574475027E+02  0.25329087089E+03 -0.21523000291E+03  0.33453572396E+03  0.46999998093E+01 0.  1.
       -5    1    3    3    0  502  0.37574475027E+02 -0.25329087089E+03 -0.13946735380E+04  0.14179931150E+04  0.46999998093E+01 0. -1.
</event>
<event>
 5   0  0.3184443E-02  0.7040220E+03  0.7818609E-02  0.9710379E-01
       -2   -1    0    0    0  501  0.00000000000E+00  0.00000000000E+00  0.74570649128E+03  0.74570649128E+03  0.25500000920E-02 0. -1.
        2   -1    0    0  501    0  0.00000000000E+00  0.00000000000E+00 -0.16616689943E+03  0.16616689945E+03  0.25500000920E-02 0.  1.
    10030    2    1    2    0    0  0.00000000000E+00  0.00000000000E+00  0.57953959184E+03  0.91187339073E+03  0.70402197566E+03 0.  0.
        3    1    3    3  502    0  0.31868251669E+03  0.14426910707E+03  0.34059191780E+03  0.48823660900E+03  0.10100000352E+00 0. -1.
       -3    1    3    3    0  502 -0.31868251669E+03 -0.14426910707E+03  0.23894767405E+03  0.42363678173E+03  0.10100000352E+00 0.  1.
</event>
<event>
 5   0  0.1951465E-02  0.7112990E+03  0.7818609E-02  0.9698102E-01
       -1   -1    0    0    0  501  0.00000000000E+00  0.00000000000E+00  0.20086197480E+03  0.20086197486E+03  0.50400001928E-02 0. -1.
        1   -1    0    0  501    0  0.00000000000E+00  0.00000000000E+00 -0.62971887064E+03  0.62971887066E+03  0.50400001928E-02 0.  1.
    10030    2    1    2    0    0  0.00000000000E+00  0.00000000000E+00 -0.42885689584E+03  0.83058084552E+03  0.71129902561E+03 0.  0.
        4    1    3    3  502    0 -0.42968246521E+02  0.11822424717E+03 -0.60287243764E+03  0.61585715210E+03  0.12699999809E+01 0.  1.
       -4    1    3    3    0  502  0.42968246521E+02 -0.11822424717E+03  0.17401554180E+03  0.21472369342E+03  0.12699999809E+01 0. -1.
</event>
<event>
 5   0  0.1969818E-02  0.7021035E+03  0.7818609E-02  0.9713642E-01
       -1   -1    0    0    0  501  0.00000000000E+00  0.00000000000E+00  0.44492113541E+03  0.44492113544E+03  0.50400001928E-02 0.  1.
        1   -1    0    0  501    0  0.00000000000E+00  0.00000000000E+00 -0.27698691768E+03  0.27698691772E+03  0.50400001928E-02 0. -1.
    10030    2    1    2    0    0  0.00000000000E+00  0.00000000000E+00  0.16793421773E+03  0.72190805316E+03  0.70210350785E+03 0.  0.
        1    1    3    3  502    0 -0.63878939724E+02  0.34055431400E+03  0.14194537518E+03  0.37444124944E+03  0.50400001928E-02 0. -1.
       -1    1    3    3    0  502  0.63878939724E+02 -0.34055431400E+03  0.25988842551E+02  0.34746680372E+03  0.50400001928E-02 0.  1.
</event>
<event>
 5   0  0.1884172E-02  0.5988093E+03  0.7818609E-02  0.9907879E-01
       -1   -1    0    0    0  501  0.00000000000E+00  0.00000000000E+00  0.81352555707E+02  0.81352555863E+02  0.50400001928E-02 0.  1.
        1   -1    0    0  501    0  0.00000000000E+00  0.00000000000E+00 -0.11019095100E+04  0.11019095101E+04  0.50400001928E-02 0. -1.
    10030    2    1    2    0    0  0.00000000000E+00  0.00000000000E+00 -0.10205569543E+04  0.11832620659E+04  0.59880933493E+03 0.  0.
        3    1    3    3  502    0 -0.93713072624E+02  0.21964770641E+03 -0.86714597448E+03  0.89942726563E+03  0.10100000352E+00 0. -1.
       -3    1    3    3    0  502  0.93713072624E+02 -0.21964770641E+03 -0.15341097986E+03  0.28383480028E+03  0.10100000352E+00 0.  1.
</event>
<event>
 5   0  0.3183963E-02  0.6982200E+03  0.7818609E-02  0.9720281E-01
       -2   -1    0    0    0  501  0.00000000000E+00  0.00000000000E+00  0.13288708352E+03  0.13288708355E+03  0.25500000920E-02 0. -1.
        2   -1    0    0  501    0  0.00000000000E+00  0.00000000000E+00 -0.91715311453E+03  0.91715311453E+03  0.25500000920E-02 0.  1.
    10030    2    1    2    0    0  0.00000000000E+00  0.00000000000E+00 -0.78426603100E+03  0.10500401981E+04  0.69822002992E+03 0.  0.
        4    1    3    3  502    0 -0.29871804256E+03 -0.18424355576E+02 -0.66243145978E+03  0.72690369213E+03  0.12699999809E+01 0.  1.
       -4    1    3    3    0  502  0.29871804256E+03  0.18424355576E+02 -0.12183457122E+03  0.32313650594E+03  0.12699999809E+01 0. -1.
</event>
<event>
 5   0  0.3183963E-02  0.7075033E+03  0.7818609E-02  0.9704486E-01
        2   -1    0    0  501    0  0.00000000000E+00  0.00000000000E+00  0.39310969697E+03  0.39310969698E+03  0.25500000920E-02 0. -1.
       -2   -1    0    0    0  501  0.00000000000E+00  0.00000000000E+00 -0.31833411520E+03  0.31833411521E+03  0.25500000920E-02 0.  1.
    10030    2    1    2    0    0  0.00000000000E+00  0.00000000000E+00  0.74775581767E+02  0.71144381218E+03  0.70750329347E+03 0.  0.
        4    1    3    3  502    0  0.24098567625E+03  0.18749248347E+03 -0.14224389281E+03  0.33684189980E+03  0.12699999809E+01 0.  1.
       -4    1    3    3    0  502 -0.24098567625E+03 -0.18749248347E+03  0.21701947458E+03  0.37460191239E+03  0.12699999809E+01 0. -1.
</event>
<event>
 5   0  0.1233912E-02  0.7111522E+03  0.7818609E-02  0.9698348E-01
        4   -1    0    0  501    0  0.00000000000E+00  0.00000000000E+00  0.19769384040E+03  0.19769791964E+03  0.12699999809E+01 0. -1.
       -4   -1    0    0    0  501  0.00000000000E+00  0.00000000000E+00 -0.63953497642E+03  0.63953623741E+03  0.12699999809E+01 0.  1.
    10030    2    1    2    0    0  0.00000000000E+00  0.00000000000E+00 -0.44184113602E+03  0.83723415705E+03  0.71115219486E+03 0.  0.
        3    1    3    3  502    0  0.10408139253E+03  0.16359912368E+03  0.12997727061E+03  0.23343459602E+03  0.10100000352E+00 0. -1.
       -3    1    3    3    0  502 -0.10408139253E+03 -0.16359912368E+03 -0.57181840663E+03  0.60379956104E+03  0.10100000352E+00 0.  1.
</event>
<event>
 5   0  0.1884172E-02  0.6974220E+03  0.7818609E-02  0.9721651E-01
        1   -1    0    0  501    0  0.00000000000E+00  0.00000000000E+00  0.41552356454E+03  0.41552356457E+03  0.50400001928E-02 0. -1.
       -1   -1    0    0    0  501  0.00000000000E+00  0.00000000000E+00 -0.29264131668E+03  0.29264131673E+03  0.50400001928E-02 0.  1.
    10030    2    1    2    0    0  0.00000000000E+00  0.00000000000E+00  0.12288224785E+03  0.70816488130E+03  0.69742200443E+03 0.  0.
        3    1    3    3  502    0  0.11706174872E+03 -0.30401312011E+03  0.18774331446E+03  0.37599866029E+03  0.10100000352E+00 0. -1.
       -3    1    3    3    0  502 -0.11706174872E+03  0.30401312011E+03 -0.64861066606E+02  0.33216622100E+03  0.10100000352E+00 0.  1.
</event>
<event>
 5   0  0.1839038E-02  0.7047892E+03  0.7818609E-02  0.9709077E-01
       -1   -1    0    0    0  501  0.00000000000E+00  0.00000000000E+00  0.27217144947E+03  0.27217144952E+03  0.50400001928E-02 0. -1.
        1   -1    0    0  501    0  0.00000000000E+00  0.00000000000E+00 -0.45626367269E+03  0.45626367272E+03  0.50400001928E-02 0.  1.
    10030    2    1    2    0    0  0.00000000000E+00  0.00000000000E+00 -0.18409222322E+03  0.72843512224E+03  0.70478917462E+03 0.  0.
        5    1    3    3  502    0  0.19745758362E+03  0.27822141811E+03 -0.98099465135E+00  0.34120332234E+03  0.46999998093E+01 0. -1.
       -5    1    3    3    0  502 -0.19745758362E+03 -0.27822141811E+03 -0.18311122857E+03  0.38723179990E+03  0.46999998093E+01 0.  1.
</event>
<event>
 5   0  0.2933851E-02  0.6969553E+03  0.7818609E-02  0.9722453E-01
        2   -1    0    0  501    0  0.00000000000E+00  0.00000000000E+00  0.57867852320E+03  0.57867852320E+03  0.25500000920E-02 0. -1.
       -2   -1    0    0    0  501  0.00000000000E+00  0.00000000000E+00 -0.20985167119E+03  0.20985167121E+03  0.25500000920E-02 0.  1.
    10030    2    1    2    0    0  0.00000000000E+00  0.00000000000E+00  0.36882685200E+03  0.78853019441E+03  0.69695525017E+03 0.  0.
        2    1    3    3  502    0 -0.10277278711E+03  0.33194016414E+03  0.21413563196E+03  0.40816735198E+03  0.25500000920E-02 0. -1.
       -2    1    3    3    0  502  0.10277278711E+03 -0.33194016414E+03  0.15469122004E+03  0.38036284243E+03  0.25500000920E-02 0.  1.
</event>
<event>
 5   0  0.3184443E-02  0.6940512E+03  0.7818609E-02  0.9727460E-01
        2   -1    0    0  501    0  0.00000000000E+00  0.00000000000E+00  0.65066054319E+03  0.65066054319E+03  0.25500000920E-02 0.  1.
       -2   -1    0    0    0  501  0.00000000000E+00  0.00000000000E+00 -0.18508388068E+03  0.18508388070E+03  0.25500000920E-02 0. -1.
    10030    2    1    2    0    0  0.00000000000E+00  0.00000000000E+00  0.46557666251E+03  0.83574442389E+03  0.69405123254E+03 0.  0.
        3    1    3    3  502    0 -0.26000580443E+03  0.19884049623E+03  0.37158609307E+03  0.49519369548E+03  0.10100000352E+00 0.  1.
       -3    1    3    3    0  502  0.26000580443E+03 -0.19884049623E+03  0.93990569436E+02  0.34055072841E+03  0.10100000352E+00 0. -1.
</event>
<event>
 5   0  0.3290656E-02  0.6939324E+03  0.7818609E-02  0.9727665E-01
       -2   -1    0    0    0  501  0.00000000000E+00  0.00000000000E+00  0.22561874440E+03  0.22561874442E+03  0.25500000920E-02 0.  1.
        2   -1    0    0  501    0  0.00000000000E+00  0.00000000000E+00 -0.53357957156E+03  0.53357957157E+03  0.25500000920E-02 0. -1.
    10030    2    1    2    0    0  0.00000000000E+00  0.00000000000E+00 -0.30796082716E+03  0.75919831598E+03  0.69393242605E+03 0.  0.
        1    1    3    3  502    0 -0.33327192007E+03 -0.94368236690E+02 -0.17613371909E+03  0.38858541382E+03  0.50400001928E-02 0. -1.
       -1    1    3    3    0  502  0.33327192007E+03  0.94368236690E+02 -0.13182710807E+03  0.37061290217E+03  0.50400001928E-02 0.  1.
</event>
<event>
 5   0  0.2933851E-02  0.7056937E+03  0.7818609E-02  0.9707544E-01
        2   -1    0    0  501    0  0.00000000000E+00  0.00000000000E+00  0.87815586486E+03  0.87815586487E+03  0.25500000920E-02 0. -1.
       -2   -1    0    0    0  501  0.00000000000E+00  0.00000000000E+00 -0.14177540613E+03  0.14177540615E+03  0.25500000920E-02 0.  1.
    10030    2    1    2    0    0  0.00000000000E+00  0.00000000000E+00  0.73638045873E+03  0.10199312710E+04  0.70569371373E+03 0.  0.
        2    1    3    3  502    0  0.20558896511E+03  0.70571532528E+02  0.76990187042E+03  0.79999753366E+03  0.25500000920E-02 0. -1.
       -2    1    3    3    0  502 -0.20558896511E+03 -0.70571532528E+02 -0.33521411692E+02  0.21993373736E+03  0.25500000920E-02 0.  1.
</event>
<event>
 5   0  0.3184443E-02  0.7084205E+03  0.7818609E-02  0.9702939E-01
        2   -1    0    0  501    0  0.00000000000E+00  0.00000000000E+00  0.25569040032E+03  0.25569040033E+03  0.25500000920E-02 0. -1.
       -2   -1    0    0    0  501  0.00000000000E+00  0.00000000000E+00 -0.49069072162E+03  0.49069072163E+03  0.25500000920E-02 0.  1.
    10030    2    1    2    0    0  0.00000000000E+00  0.00000000000E+00 -0.23500032130E+03  0.74638112196E+03  0.70842051650E+03 0.  0.
        3    1    3    3  502    0  0.30935883079E+02  0.17492735279E+03  0.20536522031E+03  0.27153543328E+03  0.10100000352E+00 0. -1.
       -3    1    3    3    0  502 -0.30935883079E+02 -0.17492735279E+03 -0.44036554161E+03  0.47484568868E+03  0.10100000352E+00 0.  1.
</event>
<event>
 5   0  0.1884172E-02  0.6879668E+03  0.7818609E-02  0.9738035E-01
       -1   -1    0    0    0  501  0.00000000000E+00  0.00000000000E+00  0.31955264253E+03  0.31955264257E+03  0.50400001928E-02 0.  1.
        1   -1    0    0  501    0  0.00000000000E+00  0.00000000000E+00 -0.37028198262E+03  0.37028198265E+03  0.50400001928E-02 0. -1.
    10030    2    1    2    0    0  0.00000000000E+00  0.00000000000E+00 -0.50729340090E+02  0.68983462522E+03  0.68796681912E+03 0.  0.
        3    1    3    3  502    0  0.23149520736E+03 -0.25279337159E+03 -0.54253584256E+02  0.34704175737E+03  0.10100000352E+00 0.  1.
       -3    1    3    3    0  502 -0.23149520736E+03  0.25279337159E+03  0.35242441659E+01  0.34279286785E+03  0.10100000352E+00 0. -1.
</event>
<event>
 5   0  0.3113940E-02  0.7117905E+03  0.7818609E-02  0.9697279E-01
       -2   -1    0    0    0  501  0.00000000000E+00  0.00000000000E+00  0.86562244778E+02  0.86562244816E+02  0.25500000920E-02 0. -1.
        2   -1    0    0  501    0  0.00000000000E+00  0.00000000000E+00 -0.14632409286E+04  0.14632409286E+04  0.25500000920E-02 0.  1.
    10030    2    1    2    0    0  0.00000000000E+00  0.00000000000E+00 -0.13766786838E+04  0.15498031734E+04  0.71179047328E+03 0.  0.
        5    1    3    3  502    0  0.13854233167E+03  0.30989843866E+03 -0.92089934396E+03  0.98148291460E+03  0.46999998093E+01 0.  1.
       -5    1    3    3    0  502 -0.13854233167E+03 -0.30989843866E+03 -0.45577933989E+03  0.56832025884E+03  0.46999998093E+01 0. -1.
</event>
<event>
 5   0  0.1839038E-02  0.7009772E+03  0.7818609E-02  0.9715562E-01
       -1   -1    0    0    0  501  0.00000000000E+00  0.00000000000E+00  0.31441104893E+03  0.31441104897E+03  0.50400001928E-02 0. -1.
        1   -1    0    0  501    0  0.00000000000E+00  0.00000000000E+00 -0.39070596645E+03  0.39070596649E+03  0.50400001928E-02 0.  1.
    10030    2    1    2    0    0  0.00000000000E+00  0.00000000000E+00 -0.76294917527E+02  0.70511701546E+03  0.70097724003E+03 0.  0.
        5    1    3    3  502    0 -0.17760022579E+03  0.29598066396E+03  0.22822287840E+02  0.34596147250E+03  0.46999998093E+01 0.  1.
       -5    1    3    3    0  502  0.17760022579E+03 -0.29598066396E+03 -0.99117205367E+02  0.35915554295E+03  0.46999998093E+01 0. -1.
</event>
<event>
 5   0  0.1884172E-02  0.6980237E+03  0.7818609E-02  0.9720618E-01
       -1   -1    0    0    0  501  0.00000000000E+00  0.00000000000E+00  0.62411505350E+03  0.62411505352E+03  0.50400001928E-02 0.  1.
        1   -1    0    0  501    0  0.00000000000E+00  0.00000000000E+00 -0.19517115710E+03  0.19517115716E+03  0.50400001928E-02 0. -1.
    10030    2    1    2    0    0  0.00000000000E+00  0.00000000000E+00  0.42894389640E+03  0.81928621068E+03  0.69802365917E+03 0.  0.
        3    1    3    3  502    0 -0.19020253615E+03 -0.45791385021E+02  0.55370702975E+03  0.58725236543E+03  0.10100000352E+00 0.  1.
       -3    1    3    3    0  502  0.19020253615E+03  0.45791385021E+02 -0.12476313335E+03  0.23203384526E+03  0.10100000352E+00 0. -1.
</event>
<event>
 5   0  0.3184443E-02  0.6938704E+03  0.7818609E-02  0.9727772E-01
       -2   -1    0    0    0  501  0.00000000000E+00  0.00000000000E+00  0.29426054357E+03  0.29426054358E+03  0.25500000920E-02 0. -1.
        2   -1    0    0  501    0  0.00000000000E+00  0.00000000000E+00 -0.40903897706E+03  0.40903897707E+03  0.25500000920E-02 0.  1.
    10030    2    1    2    0    0  0.00000000000E+00  0.00000000000E+00 -0.11477843349E+03  0.70329952065E+03  0.69387039636E+03 0.  0.
        3    1    3    3  502    0 -0.29631294535E+03 -0.17725403002E+03 -0.23111483211E+02  0.34605563656E+03  0.10100000352E+00 0. -1.
       -3    1    3    3    0  502  0.29631294535E+03  0.17725403002E+03 -0.91666950283E+02  0.35724388408E+03  0.10100000352E+00 0.  1.
</event>
<event>
 5   0  0.1969818E-02  0.6968984E+03  0.7818609E-02  0.9722551E-01
       -1   -1    0    0    0  501  0.00000000000E+00  0.00000000000E+00  0.78031894692E+03  0.78031894693E+03  0.50400001928E-02 0.  1.
        1   -1    0    0  501    0  0.00000000000E+00  0.00000000000E+00 -0.15559898262E+03  0.15559898270E+03  0.50400001928E-02 0. -1.
    10030    2    1    2    0    0  0.00000000000E+00  0.00000000000E+00  0.62471996430E+03  0.93591792963E+03  0.69689836936E+03 0.  0.
        1    1    3    3  502    0 -0.51503703609E+02  0.16301633127E+02 -0.14994084582E+03  0.15937575725E+03  0.50400001928E-02 0. -1.
       -1    1    3    3    0  502  0.51503703609E+02 -0.16301633127E+02  0.77466081012E+03  0.77654217238E+03  0.50400001928E-02 0.  1.
</event>
<event>
 5   0  0.1884172E-02  0.6987033E+03  0.7818609E-02  0.9719452E-01
        1   -1    0    0  501    0  0.00000000000E+00  0.00000000000E+00  0.21858887850E+03  0.21858887856E+03  0.50400001928E-02 0.  1.
       -1   -1    0    0    0  501  0.00000000000E+00  0.00000000000E+00 -0.55833849427E+03  0.55833849430E+03  0.50400001928E-02 0. -1.
    10030    2    1    2    0    0  0.00000000000E+00  0.00000000000E+00 -0.33974961578E+03  0.77692737285E+03  0.69870332851E+03 0.  0.
        3    1    3    3  502    0  0.16827483822E+03 -0.24061024300E+03  0.40625441851E+02  0.29641212348E+03  0.10100000352E+00 0.  1.
       -3    1    3    3    0  502 -0.16827483822E+03  0.24061024300E+03 -0.38037505763E+03  0.48051524938E+03  0.10100000352E+00 0. -1.
</event>
<event>
 5   0  0.1858013E-02  0.6976594E+03  0.7818609E-02  0.9721243E-01
        1   -1    0    0  501    0  0.00000000000E+00  0.00000000000E+00  0.57457980335E+03  0.57457980337E+03  0.50400001928E-02 0. -1.
       -1   -1    0    0    0  501  0.00000000000E+00  0.00000000000E+00 -0.21177592570E+03  0.21177592576E+03  0.50400001928E-02 0.  1.
    10030    2    1    2    0    0  0.00000000000E+00  0.00000000000E+00  0.36280387765E+03  0.78635572913E+03  0.69765942916E+03 0.  0.
        2    1    3    3  502    0  0.69156022603E+02  0.50542433911E+02  0.56254175662E+03  0.56902576482E+03  0.25500000920E-02 0. -1.
       -2    1    3    3    0  502 -0.69156022603E+02 -0.50542433911E+02 -0.19973787896E+03  0.21732996431E+03  0.25500000920E-02 0.  1.
</event>
<event>
 5   0  0.1839038E-02  0.6826291E+03  0.7818609E-02  0.9747409E-01
       -1   -1    0    0    0  501  0.00000000000E+00  0.00000000000E+00  0.38544039834E+03  0.38544039837E+03  0.50400001928E-02 0.  1.
        1   -1    0    0  501    0  0.00000000000E+00  0.00000000000E+00 -0.30224027232E+03  0.30224027236E+03  0.50400001928E-02 0. -1.
    10030    2    1    2    0    0  0.00000000000E+00  0.00000000000E+00  0.83200126023E+02  0.68768067073E+03  0.68262906760E+03 0.  0.
        5    1    3    3  502    0  0.93478041987E+02 -0.11637182246E+03 -0.26757986970E+03  0.30643371561E+03  0.46999998093E+01 0. -1.
       -5    1    3    3    0  502 -0.93478041987E+02  0.11637182246E+03  0.35077999572E+03  0.38124695512E+03  0.46999998093E+01 0.  1.
</event>
<event>
 5   0  0.3183963E-02  0.7002090E+03  0.7818609E-02  0.9716875E-01
       -2   -1    0    0    0  501  0.00000000000E+00  0.00000000000E+00  0.11716989896E+03  0.11716989898E+03  0.25500000920E-02 0. -1.
        2   -1    0    0  501    0  0.00000000000E+00  0.00000000000E+00 -0.10461148771E+04  0.10461148771E+04  0.25500000920E-02 0.  1.
    10030    2    1    2    0    0  0.00000000000E+00  0.00000000000E+00 -0.92894497818E+03  0.11632847761E+04  0.70020903870E+03 0.  0.
        4    1    3    3  502    0 -0.30696554783E+03  0.15947149414E+03 -0.55413182480E+03  0.65324015274E+03  0.12699999809E+01 0. -1.
       -4    1    3    3    0  502  0.30696554783E+03 -0.15947149414E+03 -0.37481315338E+03  0.51004462338E+03  0.12699999809E+01 0.  1.
</event>
<event>
 5   0  0.3290656E-02  0.6942101E+03  0.7818609E-02  0.9727185E-01
        2   -1    0    0  501    0  0.00000000000E+00  0.00000000000E+00  0.62986078937E+03  0.62986078938E+03  0.25500000920E-02 0. -1.
       -2   -1    0    0    0  501  0.00000000000E+00  0.00000000000E+00 -0.19128340900E+03  0.19128340901E+03  0.25500000920E-02 0.  1.
    10030    2    1    2    0    0  0.00000000000E+00  0.00000000000E+00  0.43857738037E+03  0.82114419839E+03  0.69421010938E+03 0.  0.
        1    1    3    3  502    0 -0.98150509603E+02  0.20671762850E+02  0.61234473512E+03  0.62050537384E+03  0.50400001928E-02 0. -1.
       -1    1    3    3    0  502  0.98150509603E+02 -0.20671762850E+02 -0.17376735474E+03  0.20063882455E+03  0.50400001928E-02 0.  1.
</event>
<event>
 5   0  0.1951465E-02  0.6903988E+03  0.7818609E-02  0.9733794E-01
        1   -1    0    0  501    0  0.00000000000E+00  0.00000000000E+00  0.12793372387E+04  0.12793372387E+04  0.50400001928E-02 0.  1.
       -1   -1    0    0    0  501  0.00000000000E+00  0.00000000000E+00 -0.93144033542E+02  0.93144033679E+02  0.50400001928E-02 0. -1.
    10030    2    1    2    0    0  0.00000000000E+00  0.00000000000E+00  0.11861932052E+04  0.13724812724E+04  0.69039881453E+03 0.  0.
        4    1    3    3  502    0  0.13166489858E+03  0.30248265034E+03  0.79514180079E+03  0.86086206534E+03  0.12699999809E+01 0.  1.
       -4    1    3    3    0  502 -0.13166489858E+03 -0.30248265034E+03  0.39105140440E+03  0.51161920709E+03  0.12699999809E+01 0. -1.
</event>
<event>
 5   0  0.2933851E-02  0.6991271E+03  0.7818609E-02  0.9718726E-01
       -2   -1    0    0    0  501  0.00000000000E+00  0.00000000000E+00  0.94277714720E+02  0.94277714754E+02  0.25500000920E-02 0.  1.
        2   -1    0    0  501    0  0.00000000000E+00  0.00000000000E+00 -0.12961141608E+04  0.12961141608E+04  0.25500000920E-02 0. -1.
    10030    2    1    2    0    0  0.00000000000E+00  0.00000000000E+00 -0.12018364461E+04  0.13903918756E+04  0.69912711613E+03 0.  0.
        2    1    3    3  502    0 -0.12654960260E+03  0.17617261886E+03 -0.55756202516E+02  0.22396505906E+03  0.25500000920E-02 0.  1.
       -2    1    3    3    0  502  0.12654960260E+03 -0.17617261886E+03 -0.11460802436E+04  0.11664268165E+04  0.25500000920E-02 0. -1.
</event>
<event>
 5   0  0.1839038E-02  0.6557533E+03  0.7818609E-02  0.9796043E-01
       -1   -1    0    0    0  501  0.00000000000E+00  0.00000000000E+00  0.64961140933E+02  0.64961141128E+02  0.50400001928E-02 0. -1.
        1   -1    0    0  501    0  0.00000000000E+00  0.00000000000E+00 -0.16548833012E+04  0.16548833012E+04  0.50400001928E-02 0.  1.
    10030    2    1    2    0    0  0.00000000000E+00  0.00000000000E+00 -0.15899221602E+04  0.17198444423E+04  0.65575333023E+03 0.  0.
        5    1    3    3  502    0  0.44752618159E+02  0.27198991792E+03 -0.32948013495E+03  0.42960512288E+03  0.46999998093E+01 0. -1.
       -5    1    3    3    0  502 -0.44752618159E+02 -0.27198991792E+03 -0.12604420253E+04  0.12902393194E+04  0.46999998093E+01 0.  1.
</event>
<event>
 5   0  0.2933851E-02  0.7101916E+03  0.7818609E-02  0.9699960E-01
       -2   -1    0    0    0  501  0.00000000000E+00  0.00000000000E+00  0.10012107846E+03  0.10012107849E+03  0.25500000920E-02 0.  1.
        2   -1    0    0  501    0  0.00000000000E+00  0.00000000000E+00 -0.12594053883E+04  0.12594053883E+04  0.25500000920E-02 0. -1.
    10030    2    1    2    0    0  0.00000000000E+00  0.00000000000E+00 -0.11592843099E+04  0.13595264668E+04  0.71019159589E+03 0.  0.
        2    1    3    3  502    0  0.44923130077E+02  0.18435466649E+03 -0.11542166206E+04  0.11697096811E+04  0.25500000920E-02 0. -1.
       -2    1    3    3    0  502 -0.44923130077E+02 -0.18435466649E+03 -0.50676892541E+01  0.18981678575E+03  0.25500000920E-02 0.  1.
</event>
<event>
 5   0  0.1858013E-02  0.7031381E+03  0.7818609E-02  0.9711881E-01
        1   -1    0    0  501    0  0.00000000000E+00  0.00000000000E+00  0.12795387394E+04  0.12795387394E+04  0.50400001928E-02 0.  1.
       -1   -1    0    0    0  501  0.00000000000E+00  0.00000000000E+00 -0.96597941852E+02  0.96597941983E+02  0.50400001928E-02 0. -1.
    10030    2    1    2    0    0  0.00000000000E+00  0.00000000000E+00  0.11829407975E+04  0.13761366814E+04  0.70313813392E+03 0.  0.
        2    1    3    3  502    0 -0.25063507319E+03  0.62246949511E+02  0.12458715119E+03  0.28673085095E+03  0.25500000920E-02 0. -1.
       -2    1    3    3    0  502  0.25063507319E+03 -0.62246949511E+02  0.10583536463E+04  0.10894058304E+04  0.25500000920E-02 0.  1.
</event>
<event>
 5   0  0.1858013E-02  0.7045764E+03  0.7818609E-02  0.9709438E-01
        1   -1    0    0  501    0  0.00000000000E+00  0.00000000000E+00  0.41846192475E+03  0.41846192478E+03  0.50400001928E-02 0.  1.
       -1   -1    0    0    0  501  0.00000000000E+00  0.00000000000E+00 -0.29657890134E+03  0.29657890138E+03  0.50400001928E-02 0. -1.
    10030    2    1    2    0    0  0.00000000000E+00  0.00000000000E+00  0.12188302341E+03  0.71504082617E+03  0.70457640585E+03 0.  0.
        2    1    3    3  502    0 -0.45537208844E+02 -0.15514616342E+03 -0.25669747380E+03  0.30337693135E+03  0.25500000920E-02 0. -1.
       -2    1    3    3    0  502  0.45537208844E+02  0.15514616342E+03  0.37858049721E+03  0.41166389481E+03  0.25500000920E-02 0.  1.
</event>
<event>
 5   0  0.1858013E-02  0.7010839E+03  0.7818609E-02  0.9715380E-01
        1   -1    0    0  501    0  0.00000000000E+00  0.00000000000E+00  0.90289374746E+03  0.90289374748E+03  0.50400001928E-02 0.  1.
       -1   -1    0    0    0  501  0.00000000000E+00  0.00000000000E+00 -0.13609536659E+03  0.13609536668E+03  0.50400001928E-02 0. -1.
    10030    2    1    2    0    0  0.00000000000E+00  0.00000000000E+00  0.76679838087E+03  0.10389891142E+04  0.70108389115E+03 0.  0.
        2    1    3    3  502    0 -0.15752061923E+03  0.14063142801E+03  0.79806034775E+03  0.82552423507E+03  0.25500000920E-02 0.  1.
       -2    1    3    3    0  502  0.15752061923E+03 -0.14063142801E+03 -0.31261966877E+02  0.21346487909E+03  0.25500000920E-02 0. -1.
</event>
<event>
 5   0  0.2933851E-02  0.6970431E+03  0.7818609E-02  0.9722302E-01
       -2   -1    0    0    0  501  0.00000000000E+00  0.00000000000E+00  0.70251952903E+02  0.70251952950E+02  0.25500000920E-02 0. -1.
        2   -1    0    0  501    0  0.00000000000E+00  0.00000000000E+00 -0.17290232315E+04  0.17290232315E+04  0.25500000920E-02 0.  1.
    10030    2    1    2    0    0  0.00000000000E+00  0.00000000000E+00 -0.16587712786E+04  0.17992751844E+04  0.69704306516E+03 0.  0.
        2    1    3    3  502    0  0.34775146958E+02 -0.33569707339E+03 -0.10539054046E+04  0.11066247954E+04  0.25500000920E-02 0.  1.
       -2    1    3    3    0  502 -0.34775146958E+02  0.33569707339E+03 -0.60486587396E+03  0.69265038902E+03  0.25500000920E-02 0. -1.
</event>
<event>
 5   0  0.1839038E-02  0.6984253E+03  0.7818609E-02  0.9719929E-01
        1   -1    0    0  501    0  0.00000000000E+00  0.00000000000E+00  0.48552182913E+03  0.48552182915E+03  0.50400001928E-02 0.  1.
       -1   -1    0    0    0  501  0.00000000000E+00  0.00000000000E+00 -0.25117196371E+03  0.25117196376E+03  0.50400001928E-02 0. -1.
    10030    2    1    2    0    0  0.00000000000E+00  0.00000000000E+00  0.23434986542E+03  0.73669379291E+03  0.69842528955E+03 0.  0.
        5    1    3    3  502    0  0.29582786423E+03  0.15718114633E+03  0.13250599299E+02  0.33528749812E+03  0.46999998093E+01 0. -1.
       -5    1    3    3    0  502 -0.29582786423E+03 -0.15718114633E+03  0.22109926612E+03  0.40140629479E+03  0.46999998093E+01 0.  1.
</event>
<event>
 5   0  0.3113940E-02  0.6975811E+03  0.7818609E-02  0.9721378E-01
       -2   -1    0    0    0  501  0.00000000000E+00  0.00000000000E+00  0.11167587340E+03  0.11167587343E+03  0.25500000920E-02 0.  1.
        2   -1    0    0  501    0  0.00000000000E+00  0.00000000000E+00 -0.10893567235E+04  0.10893567235E+04  0.25500000920E-02 0. -1.
    10030    2    1    2    0    0  0.00000000000E+00  0.00000000000E+00 -0.97768085007E+03  0.12010325969E+04  0.69758114525E+03 0.  0.
        5    1    3    3  502    0 -0.19975810011E+03  0.27191537262E+03 -0.33686591867E+03  0.47680394879E+03  0.46999998093E+01 0. -1.
       -5    1    3    3    0  502  0.19975810011E+03 -0.27191537262E+03 -0.64081493141E+03  0.72422864811E+03  0.46999998093E+01 0.  1.
</event>
<event>
 5   0  0.3113940E-02  0.7141727E+03  0.7818609E-02  0.9693297E-01
       -2   -1    0    0    0  501  0.00000000000E+00  0.00000000000E+00  0.18305011960E+03  0.18305011962E+03  0.25500000920E-02 0.  1.
        2   -1    0    0  501    0  0.00000000000E+00  0.00000000000E+00 -0.69658869882E+03  0.69658869882E+03  0.25500000920E-02 0. -1.
    10030    2    1    2    0    0  0.00000000000E+00  0.00000000000E+00 -0.51353857922E+03  0.87963881844E+03  0.71417265319E+03 0.  0.
        5    1    3    3  502    0  0.18344802672E+02 -0.21658216919E+03  0.92136326781E+02  0.23612615380E+03  0.46999998093E+01 0.  1.
       -5    1    3    3    0  502 -0.18344802672E+02  0.21658216919E+03 -0.60567490600E+03  0.64351266464E+03  0.46999998093E+01 0. -1.
</event>
<event>
 5   0  0.3183963E-02  0.6978370E+03  0.7818609E-02  0.9720938E-01
       -2   -1    0    0    0  501  0.00000000000E+00  0.00000000000E+00  0.95002007514E+02  0.95002007548E+02  0.25500000920E-02 0. -1.
        2   -1    0    0  501    0  0.00000000000E+00  0.00000000000E+00 -0.12814898801E+04  0.12814898801E+04  0.25500000920E-02 0.  1.
    10030    2    1    2    0    0  0.00000000000E+00  0.00000000000E+00 -0.11864878725E+04  0.13764918876E+04  0.69783697592E+03 0.  0.
        4    1    3    3  502    0 -0.28247910734E+03 -0.89302198166E+02 -0.95681366213E+03  0.10016303338E+04  0.12699999809E+01 0.  1.
       -4    1    3    3    0  502  0.28247910734E+03  0.89302198166E+02 -0.22967421041E+03  0.37486155379E+03  0.12699999809E+01 0. -1.
</event>
<event>
 5   0  0.1951465E-02  0.6885458E+03  0.7818609E-02  0.9737023E-01
       -1   -1    0    0    0  501  0.00000000000E+00  0.00000000000E+00  0.10010504037E+03  0.10010504050E+03  0.50400001928E-02 0. -1.
        1   -1    0    0  501    0  0.00000000000E+00  0.00000000000E+00 -0.11839945408E+04  0.11839945408E+04  0.50400001928E-02 0.  1.
    10030    2    1    2    0    0  0.00000000000E+00  0.00000000000E+00 -0.10838895004E+04  0.12840995813E+04  0.68854577594E+03 0.  0.
        4    1    3    3  502    0  0.24327876894E+03  0.16088216483E+03 -0.88305413235E+03  0.92997518458E+03  0.12699999809E+01 0.  1.
       -4    1    3    3    0  502 -0.24327876894E+03 -0.16088216483E+03 -0.20083536805E+03  0.35412439670E+03  0.12699999809E+01 0. -1.
</event>
<event>
 5   0  0.1858013E-02  0.6899720E+03  0.7818609E-02  0.9734537E-01
       -1   -1    0    0    0  501  0.00000000000E+00  0.00000000000E+00  0.77994095893E+02  0.77994096056E+02  0.50400001928E-02 0. -1.
        1   -1    0    0  501    0  0.00000000000E+00  0.00000000000E+00 -0.15259534180E+04  0.15259534180E+04  0.50400001928E-02 0.  1.
    10030    2    1    2    0    0  0.00000000000E+00  0.00000000000E+00 -0.14479593221E+04  0.16039475141E+04  0.68997204972E+03 0.  0.
        2    1    3    3  502    0  0.27942806530E+02 -0.73156235294E+01  0.75178163022E+02  0.80536171912E+02  0.25500000920E-02 0. -1.
       -2    1    3    3    0  502 -0.27942806530E+02  0.73156235294E+01 -0.15231374851E+04  0.15234113422E+04  0.25500000920E-02 0.  1.
</event>
<event>
 5   0  0.1233912E-02  0.6949403E+03  0.7818609E-02  0.9725924E-01
       -3   -1    0    0    0  501  0.00000000000E+00  0.00000000000E+00  0.55139220769E+03  0.55139221694E+03  0.10100000352E+00 0.  1.
        3   -1    0    0  501    0  0.00000000000E+00  0.00000000000E+00 -0.21896480964E+03  0.21896483294E+03  0.10100000352E+00 0. -1.
    10030    2    1    2    0    0  0.00000000000E+00  0.00000000000E+00  0.33242739805E+03  0.77035704988E+03  0.69494029191E+03 0.  0.
        3    1    3    3  502    0  0.82174768972E+02  0.33443301610E+03  0.21746243108E+03  0.40729357231E+03  0.10100000352E+00 0. -1.
       -3    1    3    3    0  502 -0.82174768972E+02 -0.33443301610E+03  0.11496496697E+03  0.36306347757E+03  0.10100000352E+00 0.  1.
</event>
<event>
 5   0  0.2933851E-02  0.6996874E+03  0.7818609E-02  0.9717767E-01
       -2   -1    0    0    0  501  0.00000000000E+00  0.00000000000E+00  0.99207997081E+02  0.99207997114E+02  0.25500000920E-02 0. -1.
        2   -1    0    0  501    0  0.00000000000E+00  0.00000000000E+00 -0.12336769727E+04  0.12336769727E+04  0.25500000920E-02 0.  1.
    10030    2    1    2    0    0  0.00000000000E+00  0.00000000000E+00 -0.11344689756E+04  0.13328849698E+04  0.69968742028E+03 0.  0.
        2    1    3    3  502    0  0.85347210908E+02  0.31275121042E+03 -0.31672410640E+03  0.45322359339E+03  0.25500000920E-02 0.  1.
       -2    1    3    3    0  502 -0.85347210908E+02 -0.31275121042E+03 -0.81774486918E+03  0.87966137638E+03  0.25500000920E-02 0. -1.
</event>
<event>
 5   0  0.1858013E-02  0.6756529E+03  0.7818609E-02  0.9759799E-01
       -1   -1    0    0    0  501  0.00000000000E+00  0.00000000000E+00  0.33468956217E+03  0.33468956221E+03  0.50400001928E-02 0. -1.
        1   -1    0    0  501    0  0.00000000000E+00  0.00000000000E+00 -0.34099272973E+03  0.34099272977E+03  0.50400001928E-02 0.  1.
    10030    2    1    2    0    0  0.00000000000E+00  0.00000000000E+00 -0.63031675624E+01  0.67568229198E+03  0.67565289149E+03 0.  0.
        2    1    3    3  502    0 -0.21255335299E+03 -0.26129324224E+03  0.22803757770E+02  0.33759901908E+03  0.25500000920E-02 0.  1.
       -2    1    3    3    0  502  0.21255335299E+03  0.26129324224E+03 -0.29106925333E+02  0.33808327290E+03  0.25500000920E-02 0. -1.
</event>
<event>
 5   0  0.3184443E-02  0.7016354E+03  0.7818609E-02  0.9714440E-01
        2   -1    0    0  501    0  0.00000000000E+00  0.00000000000E+00  0.22634877140E+04  0.22634877140E+04  0.25500000920E-02 0. -1.
       -2   -1    0    0    0  501  0.00000000000E+00  0.00000000000E+00 -0.54373193189E+02  0.54373193249E+02  0.25500000920E-02 0.  1.
    10030    2    1    2    0    0  0.00000000000E+00  0.00000000000E+00  0.22091145208E+04  0.23178609073E+04  0.70163538915E+03 0.  0.
        3    1    3    3  502    0  0.77191133151E+01 -0.21299806840E+03  0.18403684907E+03  0.28159782291E+03  0.10100000352E+00 0.  1.
       -3    1    3    3    0  502 -0.77191133151E+01  0.21299806840E+03  0.20250776718E+04  0.20362630844E+04  0.10100000352E+00 0. -1.
</event>
<event>
 5   0  0.3113940E-02  0.6932110E+03  0.7818609E-02  0.9728913E-01
        2   -1    0    0  501    0  0.00000000000E+00  0.00000000000E+00  0.69395434743E+03  0.69395434744E+03  0.25500000920E-02 0. -1.
       -2   -1    0    0    0  501  0.00000000000E+00  0.00000000000E+00 -0.17311710853E+03  0.17311710855E+03  0.25500000920E-02 0.  1.
    10030    2    1    2    0    0  0.00000000000E+00  0.00000000000E+00  0.52083723891E+03  0.86707145598E+03  0.69321099266E+03 0.  0.
        5    1    3    3  502    0 -0.22652633938E+03 -0.56317308215E+02  0.58084793444E+03  0.62601296678E+03  0.46999998093E+01 0. -1.
       -5    1    3    3    0  502  0.22652633938E+03  0.56317308215E+02 -0.60010695536E+02  0.24105848920E+03  0.46999998093E+01 0.  1.
</event>
<event>
 5   0  0.1839038E-02  0.6867169E+03  0.7818609E-02  0.9740222E-01
        1   -1    0    0  501    0  0.00000000000E+00  0.00000000000E+00  0.26104326007E+03  0.26104326012E+03  0.50400001928E-02 0. -1.
       -1   -1    0    0    0  501  0.00000000000E+00  0.00000000000E+00 -0.45163025086E+03  0.45163025088E+03  0.50400001928E-02 0.  1.
    10030    2    1    2    0    0  0.00000000000E+00  0.00000000000E+00 -0.19058699079E+03  0.71267351100E+03  0.68671692292E+03 0.  0.
        5    1    3    3  502    0 -0.12521846076E+03  0.31914270865E+03 -0.76123376856E+02  0.35121017910E+03  0.46999998093E+01 0. -1.
       -5    1    3    3    0  502  0.12521846076E+03 -0.31914270865E+03 -0.11446361393E+03  0.36146333191E+03  0.46999998093E+01 0.  1.
</event>
<event>
 5   0  0.1884172E-02  0.6392057E+03  0.7818609E-02  0.9827247E-01
       -1   -1    0    0    0  501  0.00000000000E+00  0.00000000000E+00  0.74419594932E+02  0.74419595102E+02  0.50400001928E-02 0. -1.
        1   -1    0    0  501    0  0.00000000000E+00  0.00000000000E+00 -0.13725684187E+04  0.13725684187E+04  0.50400001928E-02 0.  1.
    10030    2    1    2    0    0  0.00000000000E+00  0.00000000000E+00 -0.12981488238E+04  0.14469880138E+04  0.63920571295E+03 0.  0.
        3    1    3    3  502    0  0.27110942232E+03  0.34782063754E+02 -0.10240332658E+04  0.10598840741E+04  0.10100000352E+00 0.  1.
       -3    1    3    3    0  502 -0.27110942232E+03 -0.34782063754E+02 -0.27411555797E+03  0.38710393973E+03  0.10100000352E+00 0. -1.
</event>
<event>
 5   0  0.3184443E-02  0.6978346E+03  0.7818609E-02  0.9720943E-01
       -2   -1    0    0    0  501  0.00000000000E+00  0.00000000000E+00  0.29768274057E+03  0.29768274058E+03  0.25500000920E-02 0.  1.
        2   -1    0    0  501    0  0.00000000000E+00  0.00000000000E+00 -0.40896986551E+03  0.40896986552E+03  0.25500000920E-02 0. -1.
    10030    2    1    2    0    0  0.00000000000E+00  0.00000000000E+00 -0.11128712494E+03  0.70665260609E+03  0.69783456601E+03 0.  0.
        3    1    3    3  502    0  0.45969034920E-01  0.20679349546E+03  0.22894094252E+03  0.30850853674E+03  0.10100000352E+00 0.  1.
       -3    1    3    3    0  502 -0.45969034920E-01 -0.20679349546E+03 -0.34022806746E+03  0.39814406936E+03  0.10100000352E+00 0. -1.
</event>
<event>
 5   0  0.3290656E-02  0.7113099E+03  0.7818609E-02  0.9698084E-01
       -2   -1    0    0    0  501  0.00000000000E+00  0.00000000000E+00  0.42614771711E+03  0.42614771712E+03  0.25500000920E-02 0. -1.
        2   -1    0    0  501    0  0.00000000000E+00  0.00000000000E+00 -0.29682296241E+03  0.29682296243E+03  0.25500000920E-02 0.  1.
    10030    2    1    2    0    0  0.00000000000E+00  0.00000000000E+00  0.12932475470E+03  0.72297067955E+03  0.71130985605E+03 0.  0.
        1    1    3    3  502    0 -0.20404504092E+03 -0.17842136921E+03  0.29870198118E+03  0.40335026627E+03  0.50400001928E-02 0. -1.
       -1    1    3    3    0  502  0.20404504092E+03  0.17842136921E+03 -0.16937722648E+03  0.31962041328E+03  0.50400001928E-02 0.  1.
</event>
<event>
 5   0  0.3290656E-02  0.7062694E+03  0.7818609E-02  0.9706570E-01
       -2   -1    0    0    0  501  0.00000000000E+00  0.00000000000E+00  0.27436627382E+03  0.27436627383E+03  0.25500000920E-02 0. -1.
        2   -1    0    0  501    0  0.00000000000E+00  0.00000000000E+00 -0.45451694772E+03  0.45451694773E+03  0.25500000920E-02 0.  1.
    10030    2    1    2    0    0  0.00000000000E+00  0.00000000000E+00 -0.18015067390E+03  0.72888322156E+03  0.70626941415E+03 0.  0.
        1    1    3    3  502    0 -0.20162988040E+03 -0.21223341382E+03  0.11374897929E+03  0.31406442162E+03  0.50400001928E-02 0. -1.
       -1    1    3    3    0  502  0.20162988040E+03  0.21223341382E+03 -0.29389965320E+03  0.41481879994E+03  0.50400001928E-02 0.  1.
</event>
<event>
 5   0  0.2933851E-02  0.6932635E+03  0.7818609E-02  0.9728822E-01
       -2   -1    0    0    0  501  0.00000000000E+00  0.00000000000E+00  0.15969616827E+03  0.15969616829E+03  0.25500000920E-02 0.  1.
        2   -1    0    0  501    0  0.00000000000E+00  0.00000000000E+00 -0.75238861865E+03  0.75238861866E+03  0.25500000920E-02 0. -1.
    10030    2    1    2    0    0  0.00000000000E+00  0.00000000000E+00 -0.59269245038E+03  0.91208478695E+03  0.69326352698E+03 0.  0.
        2    1    3    3  502    0  0.44233636573E+02  0.32236138588E+03 -0.45356431330E+03  0.55820611248E+03  0.25500000920E-02 0. -1.
       -2    1    3    3    0  502 -0.44233636573E+02 -0.32236138588E+03 -0.13912813708E+03  0.35387867447E+03  0.25500000920E-02 0.  1.
</event>
<event>
 5   0  0.1969818E-02  0.7029256E+03  0.7818609E-02  0.9712242E-01
       -1   -1    0    0    0  501  0.00000000000E+00  0.00000000000E+00  0.12595378731E+03  0.12595378741E+03  0.50400001928E-02 0. -1.
        1   -1    0    0  501    0  0.00000000000E+00  0.00000000000E+00 -0.98072559694E+03  0.98072559696E+03  0.50400001928E-02 0.  1.
    10030    2    1    2    0    0  0.00000000000E+00  0.00000000000E+00 -0.85477180963E+03  0.11066793844E+04  0.70292561003E+03 0.  0.
        1    1    3    3  502    0  0.21854297273E+03  0.16192327312E+02 -0.85999357455E+03  0.88747516624E+03  0.50400001928E-02 0.  1.
       -1    1    3    3    0  502 -0.21854297273E+03 -0.16192327312E+02  0.52217649192E+01  0.21920421813E+03  0.50400001928E-02 0. -1.
</event>
<event>
 5   0  0.3290656E-02  0.6968991E+03  0.7818609E-02  0.9722550E-01
       -2   -1    0    0    0  501  0.00000000000E+00  0.00000000000E+00  0.14050343120E+03  0.14050343122E+03  0.25500000920E-02 0. -1.
        2   -1    0    0  501    0  0.00000000000E+00  0.00000000000E+00 -0.86415741429E+03  0.86415741429E+03  0.25500000920E-02 0.  1.
    10030    2    1    2    0    0  0.00000000000E+00  0.00000000000E+00 -0.72365398309E+03  0.10046608455E+04  0.69689907968E+03 0.  0.
        1    1    3    3  502    0  0.21590966324E+03  0.46931974279E+02  0.26600880316E+02  0.22254707311E+03  0.50400001928E-02 0. -1.
       -1    1    3    3    0  502 -0.21590966324E+03 -0.46931974279E+02 -0.75025486341E+03  0.78211377240E+03  0.50400001928E-02 0.  1.
</event>
<event>
 5   0  0.3183963E-02  0.7042918E+03  0.7818609E-02  0.9709921E-01
       -2   -1    0    0    0  501  0.00000000000E+00  0.00000000000E+00  0.10375266310E+03  0.10375266313E+03  0.25500000920E-02 0.  1.
        2   -1    0    0  501    0  0.00000000000E+00  0.00000000000E+00 -0.11952149089E+04  0.11952149089E+04  0.25500000920E-02 0. -1.
    10030    2    1    2    0    0  0.00000000000E+00  0.00000000000E+00 -0.10914622458E+04  0.12989675720E+04  0.70429178554E+03 0.  0.
        4    1    3    3  502    0 -0.86262228031E+02 -0.21819007304E+03 -0.10300539984E+04  0.10564378507E+04  0.12699999809E+01 0. -1.
       -4    1    3    3    0  502  0.86262228031E+02  0.21819007304E+03 -0.61408247393E+02  0.24252972129E+03  0.12699999809E+01 0.  1.
</event>
<event>
 5   0  0.3184443E-02  0.6950964E+03  0.7818609E-02  0.9725655E-01
       -2   -1    0    0    0  501  0.00000000000E+00  0.00000000000E+00  0.15721471319E+03  0.15721471321E+03  0.25500000920E-02 0.  1.
        2   -1    0    0  501    0  0.00000000000E+00  0.00000000000E+00 -0.76831077954E+03  0.76831077954E+03  0.25500000920E-02 0. -1.
    10030    2    1    2    0    0  0.00000000000E+00  0.00000000000E+00 -0.61109606634E+03  0.92552549275E+03  0.69509642168E+03 0.  0.
        3    1    3    3  502    0 -0.97558623475E+02 -0.96386115182E+02  0.11966310060E+03  0.18200889006E+03  0.10100000352E+00 0.  1.
       -3    1    3    3    0  502  0.97558623475E+02  0.96386115182E+02 -0.73075916694E+03  0.74351660270E+03  0.10100000352E+00 0. -1.
</event>
<event>
 5   0  0.1884172E-02  0.7025121E+03  0.7818609E-02  0.9712946E-01
       -1   -1    0    0    0  501  0.00000000000E+00  0.00000000000E+00  0.38298682492E+03  0.38298682495E+03  0.50400001928E-02 0. -1.
        1   -1    0    0  501    0  0.00000000000E+00  0.00000000000E+00 -0.32215417681E+03  0.32215417685E+03  0.50400001928E-02 0.  1.
    10030    2    1    2    0    0  0.00000000000E+00  0.00000000000E+00  0.60832648106E+02  0.70514100181E+03  0.70251207915E+03 0.  0.
        3    1    3    3  502    0  0.95382656644E+02  0.28362744145E+03  0.21505692304E+03  0.36849948043E+03  0.10100000352E+00 0. -1.
       -3    1    3    3    0  502 -0.95382656644E+02 -0.28362744145E+03 -0.15422427493E+03  0.33664152137E+03  0.10100000352E+00 0.  1.
</event>
<event>
 5   0  0.1233912E-02  0.7068386E+03  0.7818609E-02  0.9705608E-01
        4   -1    0    0  501    0  0.00000000000E+00  0.00000000000E+00  0.13673905431E+03  0.13674495191E+03  0.12699999809E+01 0. -1.
       -4   -1    0    0    0  501  0.00000000000E+00  0.00000000000E+00 -0.91343075254E+03  0.91343163542E+03  0.12699999809E+01 0.  1.
    10030    2    1    2    0    0  0.00000000000E+00  0.00000000000E+00 -0.77669169822E+03  0.10501765873E+04  0.70683864529E+03 0.  0.
        3    1    3    3  502    0  0.18441029199E+03  0.13914487873E+03 -0.78572644998E+03  0.81898383223E+03  0.10100000352E+00 0.  1.
       -3    1    3    3    0  502 -0.18441029199E+03 -0.13914487873E+03  0.90347517522E+01  0.23119275509E+03  0.10100000352E+00 0. -1.
</event>
<event>
 5   0  0.3290656E-02  0.7059612E+03  0.7818609E-02  0.9707092E-01
       -2   -1    0    0    0  501  0.00000000000E+00  0.00000000000E+00  0.12033542411E+03  0.12033542414E+03  0.25500000920E-02 0. -1.
        2   -1    0    0  501    0  0.00000000000E+00  0.00000000000E+00 -0.10353999462E+04  0.10353999462E+04  0.25500000920E-02 0.  1.
    10030    2    1    2    0    0  0.00000000000E+00  0.00000000000E+00 -0.91506452208E+03  0.11557353703E+04  0.70596116512E+03 0.  0.
        1    1    3    3  502    0 -0.14565819456E+03 -0.10582557251E+03  0.39512820887E+02  0.18432749247E+03  0.50400001928E-02 0. -1.
       -1    1    3    3    0  502  0.14565819456E+03  0.10582557251E+03 -0.95457734296E+03  0.97140787786E+03  0.50400001928E-02 0.  1.
</event>
<event>
 5   0  0.3183963E-02  0.7020879E+03  0.7818609E-02  0.9713668E-01
       -2   -1    0    0    0  501  0.00000000000E+00  0.00000000000E+00  0.34007234016E+03  0.34007234017E+03  0.25500000920E-02 0. -1.
        2   -1    0    0  501    0  0.00000000000E+00  0.00000000000E+00 -0.36236952580E+03  0.36236952581E+03  0.25500000920E-02 0.  1.
    10030    2    1    2    0    0  0.00000000000E+00  0.00000000000E+00 -0.22297185637E+02  0.70244186598E+03  0.70208789378E+03 0.  0.
        4    1    3    3  502    0 -0.25652800413E+03  0.21605459940E+03 -0.11485427881E+03  0.35451279961E+03  0.12699999809E+01 0.  1.
       -4    1    3    3    0  502  0.25652800413E+03 -0.21605459940E+03  0.92557093177E+02  0.34792906637E+03  0.12699999809E+01 0. -1.
</event>
<event>
 5   0  0.3184443E-02  0.7118578E+03  0.7818609E-02  0.9697166E-01
       -2   -1    0    0    0  501  0.00000000000E+00  0.00000000000E+00  0.14198491460E+03  0.14198491462E+03  0.25500000920E-02 0. -1.
        2   -1    0    0  501    0  0.00000000000E+00  0.00000000000E+00 -0.89224525226E+03  0.89224525226E+03  0.25500000920E-02 0.  1.
    10030    2    1    2    0    0  0.00000000000E+00  0.00000000000E+00 -0.75026033766E+03  0.10342301669E+04  0.71185775533E+03 0.  0.
        3    1    3    3  502    0 -0.31695617127E+03  0.52337822398E+02 -0.59777790254E+03  0.67863015931E+03  0.10100000352E+00 0.  1.
       -3    1    3    3    0  502  0.31695617127E+03 -0.52337822398E+02 -0.15248243512E+03  0.35560000757E+03  0.10100000352E+00 0. -1.
</event>
<event>
 5   0  0.1969818E-02  0.6874284E+03  0.7818609E-02  0.9738976E-01
       -1   -1    0    0    0  501  0.00000000000E+00  0.00000000000E+00  0.28498531636E+03  0.28498531641E+03  0.50400001928E-02 0.  1.
        1   -1    0    0  501    0  0.00000000000E+00  0.00000000000E+00 -0.41454573799E+03  0.41454573802E+03  0.50400001928E-02 0. -1.
    10030    2    1    2    0    0  0.00000000000E+00  0.00000000000E+00 -0.12956042162E+03  0.69953105442E+03  0.68742839136E+03 0.  0.
        1    1    3    3  502    0  0.14312692671E+03  0.19509384030E+03 -0.31319384382E+03  0.39577431385E+03  0.50400001928E-02 0. -1.
       -1    1    3    3    0  502 -0.14312692671E+03 -0.19509384030E+03  0.18363342219E+03  0.30375674057E+03  0.50400001928E-02 0.  1.
</event>
<event>
 5   0  0.2933851E-02  0.7021322E+03  0.7818609E-02  0.9713593E-01
       -2   -1    0    0    0  501  0.00000000000E+00  0.00000000000E+00  0.73484734310E+03  0.73484734310E+03  0.25500000920E-02 0. -1.
        2   -1    0    0  501    0  0.00000000000E+00  0.00000000000E+00 -0.16771839239E+03  0.16771839241E+03  0.25500000920E-02 0.  1.
    10030    2    1    2    0    0  0.00000000000E+00  0.00000000000E+00  0.56712895071E+03  0.90256573551E+03  0.70213222415E+03 0.  0.
        2    1    3    3  502    0  0.36530814811E+02 -0.23926420352E+03 -0.43321616820E+02  0.24588335040E+03  0.25500000920E-02 0.  1.
       -2    1    3    3    0  502 -0.36530814811E+02  0.23926420352E+03  0.61045056753E+03  0.65668238511E+03  0.25500000920E-02 0. -1.
</event>
<event>
 5   0  0.1969818E-02  0.7077453E+03  0.7818609E-02  0.9704078E-01
       -1   -1    0    0    0  501  0.00000000000E+00  0.00000000000E+00  0.26212227134E+03  0.26212227139E+03  0.50400001928E-02 0. -1.
        1   -1    0    0  501    0  0.00000000000E+00  0.00000000000E+00 -0.47773831958E+03  0.47773831961E+03  0.50400001928E-02 0.  1.
    10030    2    1    2    0    0  0.00000000000E+00  0.00000000000E+00 -0.21561604824E+03  0.73986059100E+03  0.70774530296E+03 0.  0.
        1    1    3    3  502    0 -0.27020770283E+03  0.50507825175E+02 -0.34077141062E+03  0.43782233542E+03  0.50400001928E-02 0.  1.
       -1    1    3    3    0  502  0.27020770283E+03 -0.50507825175E+02  0.12515536238E+03  0.30203825558E+03  0.50400001928E-02 0. -1.
</event>
<event>
 5   0  0.1858013E-02  0.7062435E+03  0.7818609E-02  0.9706614E-01
       -1   -1    0    0    0  501  0.00000000000E+00  0.00000000000E+00  0.11526885706E+03  0.11526885717E+03  0.50400001928E-02 0. -1.
        1   -1    0    0  501    0  0.00000000000E+00  0.00000000000E+00 -0.10817749149E+04  0.10817749149E+04  0.50400001928E-02 0.  1.
    10030    2    1    2    0    0  0.00000000000E+00  0.00000000000E+00 -0.96650605782E+03  0.11970437721E+04  0.70624346542E+03 0.  0.
        2    1    3    3  502    0 -0.35716725877E+02 -0.35058077202E+03 -0.52162007891E+03  0.62949985619E+03  0.25500000920E-02 0.  1.
       -2    1    3    3    0  502  0.35716725877E+02  0.35058077202E+03 -0.44488597891E+03  0.56754391588E+03  0.25500000920E-02 0. -1.
</event>
<event>
 5   0  0.3113940E-02  0.6506323E+03  0.7818609E-02  0.9805593E-01
        2   -1    0    0  501    0  0.00000000000E+00  0.00000000000E+00  0.79412962713E+03  0.79412962713E+03  0.25500000920E-02 0. -1.
       -2   -1    0    0    0  501  0.00000000000E+00  0.00000000000E+00 -0.13326614859E+03  0.13326614862E+03  0.25500000920E-02 0.  1.
    10030    2    1    2    0    0  0.00000000000E+00  0.00000000000E+00  0.66086347854E+03  0.92739577575E+03  0.65063229832E+03 0.  0.
        5    1    3    3  502    0  0.40070122715E+02  0.30140667377E+03  0.49516545004E+03  0.58108735199E+03  0.46999998093E+01 0.  1.
       -5    1    3    3    0  502 -0.40070122715E+02 -0.30140667377E+03  0.16569802849E+03  0.34630842377E+03  0.46999998093E+01 0. -1.
</event>
<event>
 5   0  0.1969818E-02  0.6966073E+03  0.7818609E-02  0.9723052E-01
       -1   -1    0    0    0  501  0.00000000000E+00  0.00000000000E+00  0.11266114837E+04  0.11266114837E+04  0.50400001928E-02 0.  1.
        1   -1    0    0  501    0  0.00000000000E+00  0.00000000000E+00 -0.10768168798E+03  0.10768168810E+03  0.50400001928E-02 0. -1.
    10030    2    1    2    0    0  0.00000000000E+00  0.00000000000E+00  0.10189297957E+04  0.12342931718E+04  0.69660728203E+03 0.  0.
        1    1    3    3  502    0  0.21589076047E+03 -0.27262034093E+03  0.47470945890E+03  0.58845538585E+03  0.50400001928E-02 0. -1.
       -1    1    3    3    0  502 -0.21589076047E+03  0.27262034093E+03  0.54422033685E+03  0.64583778599E+03  0.50400001928E-02 0.  1.
</event>
<event>
 5   0  0.3183963E-02  0.6093157E+03  0.7818609E-02  0.9886265E-01
       -2   -1    0    0    0  501  0.00000000000E+00  0.00000000000E+00  0.35070535828E+02  0.35070535920E+02  0.25500000920E-02 0. -1.
        2   -1    0    0  501    0  0.00000000000E+00  0.00000000000E+00 -0.26465633342E+04  0.26465633342E+04  0.25500000920E-02 0.  1.
    10030    2    1    2    0    0  0.00000000000E+00  0.00000000000E+00 -0.26114927984E+04  0.26816338702E+04  0.60931566321E+03 0.  0.
        4    1    3    3  502    0 -0.11932554883E+03 -0.17309917520E+03 -0.22761061462E+04  0.22857958598E+04  0.12699999809E+01 0.  1.
       -4    1    3    3    0  502  0.11932554883E+03  0.17309917520E+03 -0.33538665224E+03  0.39583801037E+03  0.12699999809E+01 0. -1.
</event>
<event>
 5   0  0.1839038E-02  0.7020389E+03  0.7818609E-02  0.9713752E-01
       -1   -1    0    0    0  501  0.00000000000E+00  0.00000000000E+00  0.24036768124E+03  0.24036768130E+03  0.50400001928E-02 0.  1.
        1   -1    0    0  501    0  0.00000000000E+00  0.00000000000E+00 -0.51260911716E+03  0.51260911718E+03  0.50400001928E-02 0. -1.
    10030    2    1    2    0    0  0.00000000000E+00  0.00000000000E+00 -0.27224143591E+03  0.75297679848E+03  0.70203893027E+03 0.  0.
        5    1    3    3  502    0  0.34916380703E+03 -0.34945771043E+02 -0.14414727606E+03  0.37939042983E+03  0.46999998093E+01 0.  1.
       -5    1    3    3    0  502 -0.34916380703E+03  0.34945771043E+02 -0.12809415986E+03  0.37358636865E+03  0.46999998093E+01 0. -1.
</event>
<event>
 5   0  0.3184443E-02  0.7029732E+03  0.7818609E-02  0.9712161E-01
        2   -1    0    0  501    0  0.00000000000E+00  0.00000000000E+00  0.37657721259E+03  0.37657721260E+03  0.25500000920E-02 0.  1.
       -2   -1    0    0    0  501  0.00000000000E+00  0.00000000000E+00 -0.32806776866E+03  0.32806776867E+03  0.25500000920E-02 0. -1.
    10030    2    1    2    0    0  0.00000000000E+00  0.00000000000E+00  0.48509443929E+02  0.70464498126E+03  0.70297324520E+03 0.  0.
        3    1    3    3  502    0  0.24544546048E+03  0.19990886585E+03  0.17737862075E+03  0.36286390564E+03  0.10100000352E+00 0.  1.
       -3    1    3    3    0  502 -0.24544546048E+03 -0.19990886585E+03 -0.12886917683E+03  0.34178107562E+03  0.10100000352E+00 0. -1.
</event>
<event>
 5   0  0.3113940E-02  0.7229957E+03  0.7818609E-02  0.9678695E-01
       -2   -1    0    0    0  501  0.00000000000E+00  0.00000000000E+00  0.11889443676E+04  0.11889443676E+04  0.25500000920E-02 0. -1.
        2   -1    0    0  501    0  0.00000000000E+00  0.00000000000E+00 -0.10991320703E+03  0.10991320706E+03  0.25500000920E-02 0.  1.
    10030    2    1    2    0    0  0.00000000000E+00  0.00000000000E+00  0.10790311606E+04  0.12988575747E+04  0.72299568035E+03 0.  0.
        5    1    3    3  502    0 -0.93273624070E+02 -0.23864650565E+03  0.99755635106E+03  0.10299480022E+04  0.46999998093E+01 0. -1.
       -5    1    3    3    0  502  0.93273624070E+02  0.23864650565E+03  0.81474809502E+02  0.26890957251E+03  0.46999998093E+01 0.  1.
</event>
<event>
 5   0  0.1884172E-02  0.6999959E+03  0.7818609E-02  0.9717239E-01
       -1   -1    0    0    0  501  0.00000000000E+00  0.00000000000E+00  0.35123240661E+03  0.35123240665E+03  0.50400001928E-02 0. -1.
        1   -1    0    0  501    0  0.00000000000E+00  0.00000000000E+00 -0.34876785427E+03  0.34876785430E+03  0.50400001928E-02 0.  1.
    10030    2    1    2    0    0  0.00000000000E+00  0.00000000000E+00  0.24645523422E+01  0.70000026095E+03  0.69999592235E+03 0.  0.
        3    1    3    3  502    0  0.50800504286E+02  0.19729965478E+03 -0.28335816918E+03  0.34899814792E+03  0.10100000352E+00 0.  1.
       -3    1    3    3    0  502 -0.50800504286E+02 -0.19729965478E+03  0.28582272152E+03  0.35100211303E+03  0.10100000352E+00 0. -1.
</event>
<event>
 5   0  0.2933851E-02  0.6109047E+03  0.7818609E-02  0.9883037E-01
       -2   -1    0    0    0  501  0.00000000000E+00  0.00000000000E+00  0.38275047929E+03  0.38275047930E+03  0.25500000920E-02 0.  1.
        2   -1    0    0  501    0  0.00000000000E+00  0.00000000000E+00 -0.24376490814E+03  0.24376490815E+03  0.25500000920E-02 0. -1.
    10030    2    1    2    0    0  0.00000000000E+00  0.00000000000E+00  0.13898557115E+03  0.62651538745E+03  0.61090469120E+03 0.  0.
        2    1    3    3  502    0 -0.74339959789E+02 -0.15965200370E+03  0.32544170806E+03  0.37003715659E+03  0.25500000920E-02 0.  1.
       -2    1    3    3    0  502  0.74339959789E+02  0.15965200370E+03 -0.18645613691E+03  0.25647823086E+03  0.25500000920E-02 0. -1.
</event>
<event>
 5   0  0.3183963E-02  0.6913978E+03  0.7818609E-02  0.9732057E-01
        2   -1    0    0  501    0  0.00000000000E+00  0.00000000000E+00  0.45130960868E+03  0.45130960868E+03  0.25500000920E-02 0. -1.
       -2   -1    0    0    0  501  0.00000000000E+00  0.00000000000E+00 -0.26480210849E+03  0.26480210850E+03  0.25500000920E-02 0.  1.
    10030    2    1    2    0    0  0.00000000000E+00  0.00000000000E+00  0.18650750018E+03  0.71611171719E+03  0.69139781882E+03 0.  0.
        4    1    3    3  502    0  0.11681887263E+03  0.77480665106E+01  0.43014867006E+03  0.44579835441E+03  0.12699999809E+01 0. -1.
       -4    1    3    3    0  502 -0.11681887263E+03 -0.77480665106E+01 -0.24364116988E+03  0.27031336278E+03  0.12699999809E+01 0.  1.
</event>
<event>
 5   0  0.3183963E-02  0.7024303E+03  0.7818609E-02  0.9713085E-01
        2   -1    0    0  501    0  0.00000000000E+00  0.00000000000E+00  0.10204925494E+04  0.10204925494E+04  0.25500000920E-02 0.  1.
       -2   -1    0    0    0  501  0.00000000000E+00  0.00000000000E+00 -0.12087503374E+03  0.12087503377E+03  0.25500000920E-02 0. -1.
    10030    2    1    2    0    0  0.00000000000E+00  0.00000000000E+00  0.89961751564E+03  0.11413675831E+04  0.70243027086E+03 0.  0.
        4    1    3    3  502    0 -0.94158324153E+02  0.32013723576E+03  0.62778226672E+03  0.71096119939E+03  0.12699999809E+01 0. -1.
       -4    1    3    3    0  502  0.94158324153E+02 -0.32013723576E+03  0.27183524892E+03  0.43040638376E+03  0.12699999809E+01 0.  1.
</event>
<event>
 5   0  0.1951465E-02  0.7028539E+03  0.7818609E-02  0.9712364E-01
       -1   -1    0    0    0  501  0.00000000000E+00  0.00000000000E+00  0.22634028640E+03  0.22634028646E+03  0.50400001928E-02 0. -1.
        1   -1    0    0  501    0  0.00000000000E+00  0.00000000000E+00 -0.54564259323E+03  0.54564259326E+03  0.50400001928E-02 0.  1.
    10030    2    1    2    0    0  0.00000000000E+00  0.00000000000E+00 -0.31930230683E+03  0.77198287971E+03  0.70285389906E+03 0.  0.
        4    1    3    3  502    0 -0.18254409672E+03  0.19019805234E+03 -0.41488959939E+03  0.49156142947E+03  0.12699999809E+01 0.  1.
       -4    1    3    3    0  502  0.18254409672E+03 -0.19019805234E+03  0.95587292558E+02  0.28042145024E+03  0.12699999809E+01 0. -1.
</event>
<event>
 5   0  0.1884172E-02  0.7131830E+03  0.7818609E-02  0.9694949E-01
        1   -1    0    0  501    0  0.00000000000E+00  0.00000000000E+00  0.60695590563E+03  0.60695590565E+03  0.50400001928E-02 0. -1.
       -1   -1    0    0    0  501  0.00000000000E+00  0.00000000000E+00 -0.20950039448E+03  0.20950039454E+03  0.50400001928E-02 0.  1.
    10030    2    1    2    0    0  0.00000000000E+00  0.00000000000E+00  0.39745551115E+03  0.81645630019E+03  0.71318301072E+03 0.  0.
        3    1    3    3  502    0  0.21057337843E+03 -0.24485393871E+03  0.25627566323E+02  0.32396200605E+03  0.10100000352E+00 0. -1.
       -3    1    3    3    0  502 -0.21057337843E+03  0.24485393871E+03  0.37182794483E+03  0.49249429414E+03  0.10100000352E+00 0.  1.
</event>
<event>
 5   0  0.1969818E-02  0.7259783E+03  0.7818609E-02  0.9673809E-01
       -1   -1    0    0    0  501  0.00000000000E+00  0.00000000000E+00  0.56791436949E+02  0.56791437173E+02  0.50400001928E-02 0.  1.
        1   -1    0    0  501    0  0.00000000000E+00  0.00000000000E+00 -0.23200879849E+04  0.23200879849E+04  0.50400001928E-02 0. -1.
    10030    2    1    2    0    0  0.00000000000E+00  0.00000000000E+00 -0.22632965480E+04  0.23768794221E+04  0.72597832140E+03 0.  0.
        1    1    3    3  502    0 -0.96257101675E+02 -0.12131780896E+03 -0.22064984569E+04  0.22119265089E+04  0.50400001928E-02 0. -1.
       -1    1    3    3    0  502  0.96257101675E+02  0.12131780896E+03 -0.56798091032E+02  0.16495291317E+03  0.50400001928E-02 0.  1.
</event>
<event>
 5   0  0.1858013E-02  0.6993608E+03  0.7818609E-02  0.9718326E-01
       -1   -1    0    0    0  501  0.00000000000E+00  0.00000000000E+00  0.68025324727E+03  0.68025324729E+03  0.50400001928E-02 0. -1.
        1   -1    0    0  501    0  0.00000000000E+00  0.00000000000E+00 -0.17975127084E+03  0.17975127091E+03  0.50400001928E-02 0.  1.
    10030    2    1    2    0    0  0.00000000000E+00  0.00000000000E+00  0.50050197643E+03  0.86000451820E+03  0.69936081025E+03 0.  0.
        2    1    3    3  502    0  0.41964272450E+02 -0.15074612108E+03  0.63479749238E+03  0.65379908957E+03  0.25500000920E-02 0. -1.
       -2    1    3    3    0  502 -0.41964272450E+02  0.15074612108E+03 -0.13429551596E+03  0.20620542863E+03  0.25500000920E-02 0.  1.
</event>
<event>
 5   0  0.1969818E-02  0.8106932E+03  0.7818609E-02  0.9544667E-01
        1   -1    0    0  501    0  0.00000000000E+00  0.00000000000E+00  0.30704245455E+03  0.30704245460E+03  0.50400001928E-02 0. -1.
       -1   -1    0    0    0  501  0.00000000000E+00  0.00000000000E+00 -0.53512426864E+03  0.53512426866E+03  0.50400001928E-02 0.  1.
    10030    2    1    2    0    0  0.00000000000E+00  0.00000000000E+00 -0.22808181408E+03  0.84216672326E+03  0.81069320698E+03 0.  0.
        1    1    3    3  502    0  0.72341065019E+02  0.46726841353E+02 -0.52551085800E+03  0.53252069377E+03  0.50400001928E-02 0.  1.
       -1    1    3    3    0  502 -0.72341065019E+02 -0.46726841353E+02  0.29742904391E+03  0.30964602949E+03  0.50400001928E-02 0. -1.
</event>
<event>
 5   0  0.2933851E-02  0.7608634E+03  0.7818609E-02  0.9618460E-01
        2   -1    0    0  501    0  0.00000000000E+00  0.00000000000E+00  0.80543809266E+03  0.80543809266E+03  0.25500000920E-02 0.  1.
       -2   -1    0    0    0  501  0.00000000000E+00  0.00000000000E+00 -0.17968889236E+03  0.17968889238E+03  0.25500000920E-02 0. -1.
    10030    2    1    2    0    0  0.00000000000E+00  0.00000000000E+00  0.62574920029E+03  0.98512698504E+03  0.76086340101E+03 0.  0.
        2    1    3    3  502    0  0.34491734644E+03 -0.15447007308E+03  0.36930098619E+03  0.52840533472E+03  0.25500000920E-02 0.  1.
       -2    1    3    3    0  502 -0.34491734644E+03  0.15447007308E+03  0.25644821410E+03  0.45672165032E+03  0.25500000920E-02 0. -1.
</event>
<event>
 5   0  0.1951465E-02  0.7056012E+03  0.7818609E-02  0.9707701E-01
       -1   -1    0    0    0  501  0.00000000000E+00  0.00000000000E+00  0.12015015359E+03  0.12015015370E+03  0.50400001928E-02 0. -1.
        1   -1    0    0  501    0  0.00000000000E+00  0.00000000000E+00 -0.10359393591E+04  0.10359393591E+04  0.50400001928E-02 0.  1.
    10030    2    1    2    0    0  0.00000000000E+00  0.00000000000E+00 -0.91578920553E+03  0.11560895128E+04  0.70560122783E+03 0.  0.
        4    1    3    3  502    0  0.10418518058E+03 -0.32635398850E+03 -0.31978631022E+03  0.46864312090E+03  0.12699999809E+01 0.  1.
       -4    1    3    3    0  502 -0.10418518058E+03  0.32635398850E+03 -0.59600289531E+03  0.68744639194E+03  0.12699999809E+01 0. -1.
</event>
<event>
 5   0  0.2933851E-02  0.6716442E+03  0.7818609E-02  0.9766992E-01
       -2   -1    0    0    0  501  0.00000000000E+00  0.00000000000E+00  0.20776580603E+03  0.20776580605E+03  0.25500000920E-02 0.  1.
        2   -1    0    0  501    0  0.00000000000E+00  0.00000000000E+00 -0.54280577129E+03  0.54280577129E+03  0.25500000920E-02 0. -1.
    10030    2    1    2    0    0  0.00000000000E+00  0.00000000000E+00 -0.33503996525E+03  0.75057157734E+03  0.67164418734E+03 0.  0.
        2    1    3    3  502    0 -0.31890179147E+03 -0.10502642188E+03 -0.15981183524E+03  0.37184502764E+03  0.25500000920E-02 0.  1.
       -2    1    3    3    0  502  0.31890179147E+03  0.10502642188E+03 -0.17522813001E+03  0.37872654970E+03  0.25500000920E-02 0. -1.
</event>
<event>
 5   0  0.1969818E-02  0.6965648E+03  0.7818609E-02  0.9723125E-01
       -1   -1    0    0    0  501  0.00000000000E+00  0.00000000000E+00  0.37487486723E+03  0.37487486726E+03  0.50400001928E-02 0. -1.
        1   -1    0    0  501    0  0.00000000000E+00  0.00000000000E+00 -0.32357635662E+03  0.32357635666E+03  0.50400001928E-02 0.  1.
    10030    2    1    2    0    0  0.00000000000E+00  0.00000000000E+00  0.51298510609E+02  0.69845122392E+03  0.69656483906E+03 0.  0.
        1    1    3    3  502    0  0.12744404043E+03  0.90516676038E+02  0.33772416504E+03  0.37214629349E+03  0.50400001928E-02 0. -1.
       -1    1    3    3    0  502 -0.12744404043E+03 -0.90516676038E+02 -0.28642565443E+03  0.32630493043E+03  0.50400001928E-02 0.  1.
</event>
<event>
 5   0  0.1884172E-02  0.5999056E+03  0.7818609E-02  0.9905602E-01
       -1   -1    0    0    0  501  0.00000000000E+00  0.00000000000E+00  0.32590320925E+03  0.32590320929E+03  0.50400001928E-02 0. -1.
        1   -1    0    0  501    0  0.00000000000E+00  0.00000000000E+00 -0.27606872247E+03  0.27606872252E+03  0.50400001928E-02 0.  1.
    10030    2    1    2    0    0  0.00000000000E+00  0.00000000000E+00  0.49834486772E+02  0.60197193181E+03  0.59990560142E+03 0.  0.
        3    1    3    3  502    0 -0.11298478493E+03  0.15121073972E+03 -0.20899816384E+03  0.28162118550E+03  0.10100000352E+00 0.  1.
       -3    1    3    3    0  502  0.11298478493E+03 -0.15121073972E+03  0.25883265061E+03  0.32035074630E+03  0.10100000352E+00 0. -1.
</event>
<event>
 5   0  0.2933851E-02  0.7048957E+03  0.7818609E-02  0.9708896E-01
        2   -1    0    0  501    0  0.00000000000E+00  0.00000000000E+00  0.30423431745E+03  0.30423431746E+03  0.25500000920E-02 0.  1.
       -2   -1    0    0    0  501  0.00000000000E+00  0.00000000000E+00 -0.40830206287E+03  0.40830206288E+03  0.25500000920E-02 0. -1.
    10030    2    1    2    0    0  0.00000000000E+00  0.00000000000E+00 -0.10406774542E+03  0.71253638034E+03  0.70489573532E+03 0.  0.
        2    1    3    3  502    0  0.22294915971E+03  0.69540566826E+02  0.21479188917E+03  0.31729761095E+03  0.25500000920E-02 0.  1.
       -2    1    3    3    0  502 -0.22294915971E+03 -0.69540566826E+02 -0.31885963459E+03  0.39523876939E+03  0.25500000920E-02 0. -1.
</event>
<event>
 5   0  0.3184443E-02  0.6936813E+03  0.7818609E-02  0.9728099E-01
       -2   -1    0    0    0  501  0.00000000000E+00  0.00000000000E+00  0.11741908848E+03  0.11741908851E+03  0.25500000920E-02 0. -1.
        2   -1    0    0  501    0  0.00000000000E+00  0.00000000000E+00 -0.10245219251E+04  0.10245219251E+04  0.25500000920E-02 0.  1.
    10030    2    1    2    0    0  0.00000000000E+00  0.00000000000E+00 -0.90710283663E+03  0.11419410136E+04  0.69368128298E+03 0.  0.
        3    1    3    3  502    0  0.31721130510E+02 -0.25291334975E+03 -0.84076658962E+03  0.87855555375E+03  0.10100000352E+00 0.  1.
       -3    1    3    3    0  502 -0.31721130510E+02  0.25291334975E+03 -0.66336247011E+02  0.26338545987E+03  0.10100000352E+00 0. -1.
</event>
<event>
 5   0  0.3113940E-02  0.6968684E+03  0.7818609E-02  0.9722603E-01
       -2   -1    0    0    0  501  0.00000000000E+00  0.00000000000E+00  0.42337087824E+03  0.42337087824E+03  0.25500000920E-02 0.  1.
        2   -1    0    0  501    0  0.00000000000E+00  0.00000000000E+00 -0.28676132652E+03  0.28676132653E+03  0.25500000920E-02 0. -1.
    10030    2    1    2    0    0  0.00000000000E+00  0.00000000000E+00  0.13660955171E+03  0.71013220478E+03  0.69686840841E+03 0.  0.
        5    1    3    3  502    0 -0.33036225558E+03  0.59031746718E+02 -0.27073365274E+02  0.33671801873E+03  0.46999998093E+01 0. -1.
       -5    1    3    3    0  502  0.33036225558E+03 -0.59031746718E+02  0.16368291699E+03  0.37341418605E+03  0.46999998093E+01 0.  1.
</event>
<event>
 5   0  0.1951465E-02  0.6724116E+03  0.7818609E-02  0.9765611E-01
       -1   -1    0    0    0  501  0.00000000000E+00  0.00000000000E+00  0.36208525564E+03  0.36208525568E+03  0.50400001928E-02 0. -1.
        1   -1    0    0  501    0  0.00000000000E+00  0.00000000000E+00 -0.31217599991E+03  0.31217599995E+03  0.50400001928E-02 0.  1.
    10030    2    1    2    0    0  0.00000000000E+00  0.00000000000E+00  0.49909255735E+02  0.67426125562E+03  0.67241156075E+03 0.  0.
        4    1    3    3  502    0 -0.26238512279E+03  0.17640315704E+02  0.23499581822E+03  0.35267801304E+03  0.12699999809E+01 0. -1.
       -4    1    3    3    0  502  0.26238512279E+03 -0.17640315704E+02 -0.18508656249E+03  0.32158324259E+03  0.12699999809E+01 0.  1.
</event>
<event>
 5   0  0.1969818E-02  0.6986121E+03  0.7818609E-02  0.9719609E-01
        1   -1    0    0  501    0  0.00000000000E+00  0.00000000000E+00  0.22757147124E+03  0.22757147129E+03  0.50400001928E-02 0.  1.
       -1   -1    0    0    0  501  0.00000000000E+00  0.00000000000E+00 -0.53616000613E+03  0.53616000615E+03  0.50400001928E-02 0. -1.
    10030    2    1    2    0    0  0.00000000000E+00  0.00000000000E+00 -0.30858853489E+03  0.76373147745E+03  0.69861211396E+03 0.  0.
        1    1    3    3  502    0 -0.11838489981E+02 -0.81844983441E+02  0.21671564948E+03  0.23195780632E+03  0.50400001928E-02 0.  1.
       -1    1    3    3    0  502  0.11838489981E+02  0.81844983441E+02 -0.52530418437E+03  0.53177367113E+03  0.50400001928E-02 0. -1.
</event>
<event>
 5   0  0.1884172E-02  0.7102745E+03  0.7818609E-02  0.9699821E-01
       -1   -1    0    0    0  501  0.00000000000E+00  0.00000000000E+00  0.10892313664E+04  0.10892313664E+04  0.50400001928E-02 0.  1.
        1   -1    0    0  501    0  0.00000000000E+00  0.00000000000E+00 -0.11579034616E+03  0.11579034627E+03  0.50400001928E-02 0. -1.
    10030    2    1    2    0    0  0.00000000000E+00  0.00000000000E+00  0.97344102020E+03  0.12050217126E+04  0.71027453012E+03 0.  0.
        3    1    3    3  502    0 -0.28546264252E+03  0.17952347015E+03  0.67567827507E+03  0.75515477766E+03  0.10100000352E+00 0.  1.
       -3    1    3    3    0  502  0.28546264252E+03 -0.17952347015E+03  0.29776274512E+03  0.44986693499E+03  0.10100000352E+00 0. -1.
</event>
<event>
 5   0  0.3184443E-02  0.6979201E+03  0.7818609E-02  0.9720796E-01
       -2   -1    0    0    0  501  0.00000000000E+00  0.00000000000E+00  0.14770997893E+03  0.14770997895E+03  0.25500000920E-02 0.  1.
        2   -1    0    0  501    0  0.00000000000E+00  0.00000000000E+00 -0.82440693977E+03  0.82440693978E+03  0.25500000920E-02 0. -1.
    10030    2    1    2    0    0  0.00000000000E+00  0.00000000000E+00 -0.67669696085E+03  0.97211691872E+03  0.69792014361E+03 0.  0.
        3    1    3    3  502    0 -0.22622749679E+03  0.10310502288E+03 -0.67942875285E+03  0.72348667330E+03  0.10100000352E+00 0. -1.
       -3    1    3    3    0  502  0.22622749679E+03 -0.10310502288E+03  0.27317920022E+01  0.24863024542E+03  0.10100000352E+00 0.  1.
</event>
<event>
 5   0  0.2933851E-02  0.6822835E+03  0.7818609E-02  0.9748019E-01
        2   -1    0    0  501    0  0.00000000000E+00  0.00000000000E+00  0.35744456407E+03  0.35744456408E+03  0.25500000920E-02 0. -1.
       -2   -1    0    0    0  501  0.00000000000E+00  0.00000000000E+00 -0.32558245818E+03  0.32558245819E+03  0.25500000920E-02 0.  1.
    10030    2    1    2    0    0  0.00000000000E+00  0.00000000000E+00  0.31862105891E+02  0.68302702226E+03  0.68228345968E+03 0.  0.
        2    1    3    3  502    0 -0.12364514521E+03 -0.14522376545E+03  0.29908133174E+03  0.35472201368E+03  0.25500000920E-02 0. -1.
       -2    1    3    3    0  502  0.12364514521E+03  0.14522376545E+03 -0.26721922585E+03  0.32830500858E+03  0.25500000920E-02 0.  1.
</event>
<event>
 5   0  0.1233912E-02  0.6754937E+03  0.7818609E-02  0.9760084E-01
        4   -1    0    0  501    0  0.00000000000E+00  0.00000000000E+00  0.12240728332E+03  0.12241387139E+03  0.12699999809E+01 0.  1.
       -4   -1    0    0    0  501  0.00000000000E+00  0.00000000000E+00 -0.93188076361E+03  0.93188162901E+03  0.12699999809E+01 0. -1.
    10030    2    1    2    0    0  0.00000000000E+00  0.00000000000E+00 -0.80947348029E+03  0.10542955004E+04  0.67549366160E+03 0.  0.
        3    1    3    3  502    0 -0.15851665471E+03  0.21952425443E+03 -0.71982249649E+03  0.76906622911E+03  0.10100000352E+00 0. -1.
       -3    1    3    3    0  502  0.15851665471E+03 -0.21952425443E+03 -0.89650983801E+02  0.28522927129E+03  0.10100000352E+00 0.  1.
</event>
<event>
 5   0  0.1858013E-02  0.6912502E+03  0.7818609E-02  0.9732314E-01
       -1   -1    0    0    0  501  0.00000000000E+00  0.00000000000E+00  0.79466566345E+02  0.79466566505E+02  0.50400001928E-02 0. -1.
        1   -1    0    0  501    0  0.00000000000E+00  0.00000000000E+00 -0.15032322341E+04  0.15032322341E+04  0.50400001928E-02 0.  1.
    10030    2    1    2    0    0  0.00000000000E+00  0.00000000000E+00 -0.14237656677E+04  0.15826988006E+04  0.69125018393E+03 0.  0.
        2    1    3    3  502    0 -0.32906166808E+02 -0.16542250926E+03 -0.21156749384E+02  0.16998538301E+03  0.25500000920E-02 0. -1.
       -2    1    3    3    0  502  0.32906166808E+02  0.16542250926E+03 -0.14026089184E+04  0.14127134176E+04  0.25500000920E-02 0.  1.
</event>
<event>
 5   0  0.3183963E-02  0.6985245E+03  0.7818609E-02  0.9719759E-01
       -2   -1    0    0    0  501  0.00000000000E+00  0.00000000000E+00  0.13027834268E+03  0.13027834271E+03  0.25500000920E-02 0.  1.
        2   -1    0    0  501    0  0.00000000000E+00  0.00000000000E+00 -0.93633454636E+03  0.93633454636E+03  0.25500000920E-02 0. -1.
    10030    2    1    2    0    0  0.00000000000E+00  0.00000000000E+00 -0.80605620367E+03  0.10666128891E+04  0.69852448178E+03 0.  0.
        4    1    3    3  502    0  0.12427412797E+03 -0.11802336184E+03 -0.86770557840E+03  0.88447055152E+03  0.12699999809E+01 0. -1.
       -4    1    3    3    0  502 -0.12427412797E+03  0.11802336184E+03  0.61649374727E+02  0.18214233755E+03  0.12699999809E+01 0.  1.
</event>
<event>
 5   0  0.1884172E-02  0.6985059E+03  0.7818609E-02  0.9719791E-01
       -1   -1    0    0    0  501  0.00000000000E+00  0.00000000000E+00  0.94839062320E+02  0.94839062454E+02  0.50400001928E-02 0.  1.
        1   -1    0    0  501    0  0.00000000000E+00  0.00000000000E+00 -0.12861536693E+04  0.12861536693E+04  0.50400001928E-02 0. -1.
    10030    2    1    2    0    0  0.00000000000E+00  0.00000000000E+00 -0.11913146070E+04  0.13809927318E+04  0.69850585709E+03 0.  0.
        3    1    3    3  502    0  0.33052053044E+03 -0.10958829674E+03 -0.64886141867E+03  0.73639294311E+03  0.10100000352E+00 0.  1.
       -3    1    3    3    0  502 -0.33052053044E+03  0.10958829674E+03 -0.54245318834E+03  0.64459978868E+03  0.10100000352E+00 0. -1.
</event>
<event>
 5   0  0.3290656E-02  0.7144415E+03  0.7818609E-02  0.9692849E-01
       -2   -1    0    0    0  501  0.00000000000E+00  0.00000000000E+00  0.75628941355E+02  0.75628941398E+02  0.25500000920E-02 0.  1.
        2   -1    0    0  501    0  0.00000000000E+00  0.00000000000E+00 -0.16872727510E+04  0.16872727510E+04  0.25500000920E-02 0. -1.
    10030    2    1    2    0    0  0.00000000000E+00  0.00000000000E+00 -0.16116438097E+04  0.17629016924E+04  0.71444146570E+03 0.  0.
        1    1    3    3  502    0  0.26412592215E+03 -0.19112279060E+03 -0.44556142635E+03  0.55210090428E+03  0.50400001928E-02 0.  1.
       -1    1    3    3    0  502 -0.26412592215E+03  0.19112279060E+03 -0.11660823833E+04  0.12108007882E+04  0.50400001928E-02 0. -1.
</event>
<event>
 5   0  0.1233912E-02  0.7022487E+03  0.7818609E-02  0.9713394E-01
       -4   -1    0    0    0  501  0.00000000000E+00  0.00000000000E+00  0.87715280878E+03  0.87715372817E+03  0.12699999809E+01 0. -1.
        4   -1    0    0  501    0  0.00000000000E+00  0.00000000000E+00 -0.14055122849E+03  0.14055696614E+03  0.12699999809E+01 0.  1.
    10030    2    1    2    0    0  0.00000000000E+00  0.00000000000E+00  0.73660158029E+03  0.10177106943E+04  0.70224865200E+03 0.  0.
        5    1    3    3  502    0 -0.11659372584E+03  0.32678578589E+03  0.44611653174E+03  0.56517704894E+03  0.46999998093E+01 0. -1.
       -5    1    3    3    0  502  0.11659372584E+03 -0.32678578589E+03  0.29048504855E+03  0.45253364537E+03  0.46999998093E+01 0.  1.
</event>
<event>
 5   0  0.1951465E-02  0.6978301E+03  0.7818609E-02  0.9720950E-01
        1   -1    0    0  501    0  0.00000000000E+00  0.00000000000E+00  0.18034730437E+03  0.18034730444E+03  0.50400001928E-02 0.  1.
       -1   -1    0    0    0  501  0.00000000000E+00  0.00000000000E+00 -0.67504029929E+03  0.67504029931E+03  0.50400001928E-02 0. -1.
    10030    2    1    2    0    0  0.00000000000E+00  0.00000000000E+00 -0.49469299493E+03  0.85538760375E+03  0.69783006056E+03 0.  0.
        4    1    3    3  502    0 -0.20158346728E+03 -0.39474292908E+02 -0.59306480105E+03  0.62763172739E+03  0.12699999809E+01 0. -1.
       -4    1    3    3    0  502  0.20158346728E+03  0.39474292908E+02  0.98371806121E+02  0.22775587637E+03  0.12699999809E+01 0.  1.
</event>
<event>
 5   0  0.3183963E-02  0.6894361E+03  0.7818609E-02  0.9735470E-01
       -2   -1    0    0    0  501  0.00000000000E+00  0.00000000000E+00  0.14988172027E+03  0.14988172029E+03  0.25500000920E-02 0. -1.
        2   -1    0    0  501    0  0.00000000000E+00  0.00000000000E+00 -0.79282877009E+03  0.79282877009E+03  0.25500000920E-02 0.  1.
    10030    2    1    2    0    0  0.00000000000E+00  0.00000000000E+00 -0.64294704982E+03  0.94271049038E+03  0.68943611728E+03 0.  0.
        4    1    3    3  502    0  0.19661457389E+03 -0.60948275803E+02 -0.69956142312E+03  0.72921860962E+03  0.12699999809E+01 0.  1.
       -4    1    3    3    0  502 -0.19661457389E+03  0.60948275803E+02  0.56614373300E+02  0.21349188077E+03  0.12699999809E+01 0. -1.
</event>
<event>
 5   0  0.2933851E-02  0.7014183E+03  0.7818609E-02  0.9714810E-01
        2   -1    0    0  501    0  0.00000000000E+00  0.00000000000E+00  0.11901752632E+04  0.11901752632E+04  0.25500000920E-02 0. -1.
       -2   -1    0    0    0  501  0.00000000000E+00  0.00000000000E+00 -0.10334353188E+03  0.10334353191E+03  0.25500000920E-02 0.  1.
    10030    2    1    2    0    0  0.00000000000E+00  0.00000000000E+00  0.10868317313E+04  0.12935187951E+04  0.70141832105E+03 0.  0.
        2    1    3    3  502    0 -0.28394724912E+03  0.44466931144E+02  0.17277633179E+03  0.33534312141E+03  0.25500000920E-02 0.  1.
       -2    1    3    3    0  502  0.28394724912E+03 -0.44466931144E+02  0.91405539953E+03  0.95817567370E+03  0.25500000920E-02 0. -1.
</event>
<event>
 5   0  0.1839038E-02  0.7036334E+03  0.7818609E-02  0.9711039E-01
        1   -1    0    0  501    0  0.00000000000E+00  0.00000000000E+00  0.94805981288E+03  0.94805981290E+03  0.50400001928E-02 0. -1.
       -1   -1    0    0    0  501  0.00000000000E+00  0.00000000000E+00 -0.13055610721E+03  0.13055610731E+03  0.50400001928E-02 0.  1.
    10030    2    1    2    0    0  0.00000000000E+00  0.00000000000E+00  0.81750370567E+03  0.10786159202E+04  0.70363342341E+03 0.  0.
        5    1    3    3  502    0 -0.11509510586E+03  0.49021606031E+02  0.91276173583E+03  0.92130672289E+03  0.46999998093E+01 0. -1.
       -5    1    3    3    0  502  0.11509510586E+03 -0.49021606031E+02 -0.95258030163E+02  0.15730919731E+03  0.46999998093E+01 0.  1.
</event>
<event>
 5   0  0.3113940E-02  0.6700552E+03  0.7818609E-02  0.9769858E-01
        2   -1    0    0  501    0  0.00000000000E+00  0.00000000000E+00  0.41535947116E+03  0.41535947117E+03  0.25500000920E-02 0. -1.
       -2   -1    0    0    0  501  0.00000000000E+00  0.00000000000E+00 -0.27023219083E+03  0.27023219084E+03  0.25500000920E-02 0.  1.
    10030    2    1    2    0    0  0.00000000000E+00  0.00000000000E+00  0.14512728033E+03  0.68559166201E+03  0.67005522124E+03 0.  0.
        5    1    3    3  502    0 -0.33335026355E+02 -0.87353996421E+01  0.41350735361E+03  0.41496741158E+03  0.46999998093E+01 0. -1.
       -5    1    3    3    0  502  0.33335026355E+02  0.87353996421E+01 -0.26838007327E+03  0.27062425043E+03  0.46999998093E+01 0.  1.
</event>
<event>
 5   0  0.2933851E-02  0.7049234E+03  0.7818609E-02  0.9708849E-01
        2   -1    0    0  501    0  0.00000000000E+00  0.00000000000E+00  0.40851745873E+03  0.40851745873E+03  0.25500000920E-02 0. -1.
       -2   -1    0    0    0  501  0.00000000000E+00  0.00000000000E+00 -0.30409774059E+03  0.30409774060E+03  0.25500000920E-02 0.  1.
    10030    2    1    2    0    0  0.00000000000E+00  0.00000000000E+00  0.10441971813E+03  0.71261519934E+03  0.70492336094E+03 0.  0.
        2    1    3    3  502    0 -0.34628151424E+03  0.30530148559E+02 -0.66166763906E+01  0.34768772985E+03  0.25500000920E-02 0.  1.
       -2    1    3    3    0  502  0.34628151424E+03 -0.30530148559E+02  0.11103639452E+03  0.36492746949E+03  0.25500000920E-02 0. -1.
</event>
<event>
 5   0  0.1233912E-02  0.7651755E+03  0.7818609E-02  0.9611839E-01
       -4   -1    0    0    0  501  0.00000000000E+00  0.00000000000E+00  0.66003842417E+03  0.66003964599E+03  0.12699999809E+01 0. -1.
        4   -1    0    0  501    0  0.00000000000E+00  0.00000000000E+00 -0.22176168616E+03  0.22176532269E+03  0.12699999809E+01 0.  1.
    10030    2    1    2    0    0  0.00000000000E+00  0.00000000000E+00  0.43827673801E+03  0.88180496868E+03  0.76517547249E+03 0.  0.
        4    1    3    3  502    0  0.17167775834E+03  0.19303517445E+03  0.54434997348E+03  0.60253990558E+03  0.12699999809E+01 0. -1.
       -4    1    3    3    0  502 -0.17167775834E+03 -0.19303517445E+03 -0.10607323547E+03  0.27926506310E+03  0.12699999809E+01 0.  1.
</event>
<event>
 5   0  0.1884172E-02  0.7019420E+03  0.7818609E-02  0.9713917E-01
        1   -1    0    0  501    0  0.00000000000E+00  0.00000000000E+00  0.96100550479E+03  0.96100550480E+03  0.50400001928E-02 0.  1.
       -1   -1    0    0    0  501  0.00000000000E+00  0.00000000000E+00 -0.12817889929E+03  0.12817889939E+03  0.50400001928E-02 0. -1.
    10030    2    1    2    0    0  0.00000000000E+00  0.00000000000E+00  0.83282660550E+03  0.10891844042E+04  0.70194195737E+03 0.  0.
        3    1    3    3  502    0  0.76117024423E+02 -0.52752227055E+02  0.94170451495E+03  0.94624732631E+03  0.10100000352E+00 0.  1.
       -3    1    3    3    0  502 -0.76117024423E+02  0.52752227055E+02 -0.10887790945E+03  0.14293707788E+03  0.10100000352E+00 0. -1.
</event>
<event>
 5   0  0.3290656E-02  0.6956469E+03  0.7818609E-02  0.9724706E-01
        2   -1    0    0  501    0  0.00000000000E+00  0.00000000000E+00  0.26388903760E+04  0.26388903760E+04  0.25500000920E-02 0. -1.
       -2   -1    0    0    0  501  0.00000000000E+00  0.00000000000E+00 -0.45845462010E+02  0.45845462081E+02  0.25500000920E-02 0.  1.
    10030    2    1    2    0    0  0.00000000000E+00  0.00000000000E+00  0.25930449140E+04  0.26847358381E+04  0.69564688910E+03 0.  0.
        1    1    3    3  502    0 -0.24954339343E+02 -0.12111612886E+03  0.41856108362E+02  0.13055178878E+03  0.50400001928E-02 0.  1.
       -1    1    3    3    0  502  0.24954339343E+02  0.12111612886E+03  0.25511888057E+04  0.25541840493E+04  0.50400001928E-02 0. -1.
</event>
<event>
 5   0  0.1884172E-02  0.6999283E+03  0.7818609E-02  0.9717355E-01
       -1   -1    0    0    0  501  0.00000000000E+00  0.00000000000E+00  0.13863996560E+03  0.13863996569E+03  0.50400001928E-02 0. -1.
        1   -1    0    0  501    0  0.00000000000E+00  0.00000000000E+00 -0.88340264533E+03  0.88340264534E+03  0.50400001928E-02 0.  1.
    10030    2    1    2    0    0  0.00000000000E+00  0.00000000000E+00 -0.74476267973E+03  0.10220426110E+04  0.69992831751E+03 0.  0.
        3    1    3    3  502    0 -0.11196364151E+03 -0.18945259796E+03 -0.76972699047E+03  0.80056717017E+03  0.10100000352E+00 0.  1.
       -3    1    3    3    0  502  0.11196364151E+03  0.18945259796E+03  0.24964310745E+02  0.22147544086E+03  0.10100000352E+00 0. -1.
</event>
<event>
 5   0  0.2933851E-02  0.6992928E+03  0.7818609E-02  0.9718442E-01
        2   -1    0    0  501    0  0.00000000000E+00  0.00000000000E+00  0.58252362647E+03  0.58252362648E+03  0.25500000920E-02 0.  1.
       -2   -1    0    0    0  501  0.00000000000E+00  0.00000000000E+00 -0.20986720774E+03  0.20986720776E+03  0.25500000920E-02 0. -1.
    10030    2    1    2    0    0  0.00000000000E+00  0.00000000000E+00  0.37265641873E+03  0.79239083423E+03  0.69929280545E+03 0.  0.
        2    1    3    3  502    0  0.24740975522E+03  0.23001228235E+03  0.28853247827E+03  0.44426144108E+03  0.25500000920E-02 0.  1.
       -2    1    3    3    0  502 -0.24740975522E+03 -0.23001228235E+03  0.84123940460E+02  0.34812939315E+03  0.25500000920E-02 0. -1.
</event>
<event>
 5   0  0.3184443E-02  0.7048945E+03  0.7818609E-02  0.9708898E-01
       -2   -1    0    0    0  501  0.00000000000E+00  0.00000000000E+00  0.10645602643E+03  0.10645602646E+03  0.25500000920E-02 0. -1.
        2   -1    0    0  501    0  0.00000000000E+00  0.00000000000E+00 -0.11668580482E+04  0.11668580482E+04  0.25500000920E-02 0.  1.
    10030    2    1    2    0    0  0.00000000000E+00  0.00000000000E+00 -0.10604020217E+04  0.12733140746E+04  0.70489452045E+03 0.  0.
        3    1    3    3  502    0 -0.32958537400E+03  0.94618500972E+02 -0.67739550699E+03  0.75923900228E+03  0.10100000352E+00 0.  1.
       -3    1    3    3    0  502  0.32958537400E+03 -0.94618500972E+02 -0.38300651476E+03  0.51407507237E+03  0.10100000352E+00 0. -1.
</event>
<event>
 5   0  0.3290656E-02  0.6862254E+03  0.7818609E-02  0.9741083E-01
        2   -1    0    0  501    0  0.00000000000E+00  0.00000000000E+00  0.26477549663E+03  0.26477549664E+03  0.25500000920E-02 0.  1.
       -2   -1    0    0    0  501  0.00000000000E+00  0.00000000000E+00 -0.44462701156E+03  0.44462701157E+03  0.25500000920E-02 0. -1.
    10030    2    1    2    0    0  0.00000000000E+00  0.00000000000E+00 -0.17985151493E+03  0.70940250821E+03  0.68622543762E+03 0.  0.
        1    1    3    3  502    0  0.25524540553E+02 -0.31521209383E+03 -0.22752335302E+03  0.38958573185E+03  0.50400001928E-02 0.  1.
       -1    1    3    3    0  502 -0.25524540553E+02  0.31521209383E+03  0.47671838085E+02  0.31981677636E+03  0.50400001928E-02 0. -1.
</event>
<event>
 5   0  0.3113940E-02  0.6992137E+03  0.7818609E-02  0.9718578E-01
        2   -1    0    0  501    0  0.00000000000E+00  0.00000000000E+00  0.12222305743E+04  0.12222305743E+04  0.25500000920E-02 0. -1.
       -2   -1    0    0    0  501  0.00000000000E+00  0.00000000000E+00 -0.10000154157E+03  0.10000154160E+03  0.25500000920E-02 0.  1.
    10030    2    1    2    0    0  0.00000000000E+00  0.00000000000E+00  0.11222290328E+04  0.13222321159E+04  0.69921367725E+03 0.  0.
        5    1    3    3  502    0  0.14791240212E+03  0.72793257112E+02 -0.21818717673E+02  0.16635829832E+03  0.46999998093E+01 0.  1.
       -5    1    3    3    0  502 -0.14791240212E+03 -0.72793257112E+02  0.11440477504E+04  0.11558738176E+04  0.46999998093E+01 0. -1.
</event>
<event>
 5   0  0.1951465E-02  0.6937499E+03  0.7818609E-02  0.9727981E-01
        1   -1    0    0  501    0  0.00000000000E+00  0.00000000000E+00  0.70774292365E+03  0.70774292366E+03  0.50400001928E-02 0.  1.
       -1   -1    0    0    0  501  0.00000000000E+00  0.00000000000E+00 -0.17000837658E+03  0.17000837665E+03  0.50400001928E-02 0. -1.
    10030    2    1    2    0    0  0.00000000000E+00  0.00000000000E+00  0.53773454707E+03  0.87775130031E+03  0.69374988439E+03 0.  0.
        4    1    3    3  502    0  0.14315837427E+03  0.30592265237E+03  0.36879318727E+03  0.50009300859E+03  0.12699999809E+01 0. -1.
       -4    1    3    3    0  502 -0.14315837427E+03 -0.30592265237E+03  0.16894135980E+03  0.37765829173E+03  0.12699999809E+01 0.  1.
</event>
<event>
 5   0  0.1839038E-02  0.6986973E+03  0.7818609E-02  0.9719463E-01
       -1   -1    0    0    0  501  0.00000000000E+00  0.00000000000E+00  0.71121126581E+03  0.71121126582E+03  0.50400001928E-02 0. -1.
        1   -1    0    0  501    0  0.00000000000E+00  0.00000000000E+00 -0.17160089296E+03  0.17160089303E+03  0.50400001928E-02 0.  1.
    10030    2    1    2    0    0  0.00000000000E+00  0.00000000000E+00  0.53961037285E+03  0.88281215886E+03  0.69869732599E+03 0.  0.
        5    1    3    3  502    0 -0.87538453458E+02  0.21692179308E+03  0.59759903730E+03  0.64176689267E+03  0.46999998093E+01 0. -1.
       -5    1    3    3    0  502  0.87538453458E+02 -0.21692179308E+03 -0.57988664455E+02  0.24104526619E+03  0.46999998093E+01 0.  1.
</event>
<event>
 5   0  0.1233912E-02  0.6933887E+03  0.7818609E-02  0.9728606E-01
        3   -1    0    0  501    0  0.00000000000E+00  0.00000000000E+00  0.83249466920E+03  0.83249467532E+03  0.10100000352E+00 0. -1.
       -3   -1    0    0    0  501  0.00000000000E+00  0.00000000000E+00 -0.14438164828E+03  0.14438168361E+03  0.10100000352E+00 0.  1.
    10030    2    1    2    0    0  0.00000000000E+00  0.00000000000E+00  0.68811302091E+03  0.97687635893E+03  0.69338870130E+03 0.  0.
        1    1    3    3  502    0 -0.10492120316E+03  0.27095533807E+03  0.77596069614E+02  0.30074308661E+03  0.50400001928E-02 0.  1.
       -1    1    3    3    0  502  0.10492120316E+03 -0.27095533807E+03  0.61051695130E+03  0.67613327233E+03  0.50400001928E-02 0. -1.
</event>
<event>
 5   0  0.3183963E-02  0.6928170E+03  0.7818609E-02  0.9729596E-01
        2   -1    0    0  501    0  0.00000000000E+00  0.00000000000E+00  0.94444771231E+03  0.94444771231E+03  0.25500000920E-02 0.  1.
       -2   -1    0    0    0  501  0.00000000000E+00  0.00000000000E+00 -0.12705715026E+03  0.12705715028E+03  0.25500000920E-02 0. -1.
    10030    2    1    2    0    0  0.00000000000E+00  0.00000000000E+00  0.81739056205E+03  0.10715048626E+04  0.69281695969E+03 0.  0.
        4    1    3    3  502    0 -0.16589020307E+03 -0.28753399820E+03  0.25557598036E+03  0.41894636200E+03  0.12699999809E+01 0. -1.
       -4    1    3    3    0  502  0.16589020307E+03  0.28753399820E+03  0.56181458169E+03  0.65255850059E+03  0.12699999809E+01 0.  1.
</event>
<event>
 5   0  0.1951465E-02  0.7008222E+03  0.7818609E-02  0.9715827E-01
        1   -1    0    0  501    0  0.00000000000E+00  0.00000000000E+00  0.17256592632E+04  0.17256592632E+04  0.50400001928E-02 0. -1.
       -1   -1    0    0    0  501  0.00000000000E+00  0.00000000000E+00 -0.71154219927E+02  0.71154220105E+02  0.50400001928E-02 0.  1.
    10030    2    1    2    0    0  0.00000000000E+00  0.00000000000E+00  0.16545050433E+04  0.17968134833E+04  0.70082219971E+03 0.  0.
        4    1    3    3  502    0  0.10588576039E+03 -0.24879770966E+03  0.13986794804E+04  0.14245764270E+04  0.12699999809E+01 0. -1.
       -4    1    3    3    0  502 -0.10588576039E+03  0.24879770966E+03  0.25582556294E+03  0.37223705638E+03  0.12699999809E+01 0.  1.
</event>
<event>
 5   0  0.1233912E-02  0.7030819E+03  0.7818609E-02  0.9711976E-01
       -3   -1    0    0    0  501  0.00000000000E+00  0.00000000000E+00  0.12066902900E+03  0.12066907127E+03  0.10100000352E+00 0. -1.
        3   -1    0    0  501    0  0.00000000000E+00  0.00000000000E+00 -0.10241319671E+04  0.10241319721E+04  0.10100000352E+00 0.  1.
    10030    2    1    2    0    0  0.00000000000E+00  0.00000000000E+00 -0.90346293812E+03  0.11448010434E+04  0.70308189307E+03 0.  0.
        3    1    3    3  502    0  0.12430627562E+03 -0.25855431922E+03 -0.12091524737E+03  0.31132441824E+03  0.10100000352E+00 0. -1.
       -3    1    3    3    0  502 -0.12430627562E+03  0.25855431922E+03 -0.78254769075E+03  0.83347662513E+03  0.10100000352E+00 0.  1.
</event>
<event>
 5   0  0.1969818E-02  0.7065330E+03  0.7818609E-02  0.9706125E-01
       -1   -1    0    0    0  501  0.00000000000E+00  0.00000000000E+00  0.17970624229E+03  0.17970624236E+03  0.50400001928E-02 0.  1.
        1   -1    0    0  501    0  0.00000000000E+00  0.00000000000E+00 -0.69445126367E+03  0.69445126368E+03  0.50400001928E-02 0. -1.
    10030    2    1    2    0    0  0.00000000000E+00  0.00000000000E+00 -0.51474502138E+03  0.87415750604E+03  0.70653301999E+03 0.  0.
        1    1    3    3  502    0  0.20722654762E+03 -0.16659630163E+03  0.30404495412E+02  0.26762212749E+03  0.50400001928E-02 0.  1.
       -1    1    3    3    0  502 -0.20722654762E+03  0.16659630163E+03 -0.54514951679E+03  0.60653537855E+03  0.50400001928E-02 0. -1.
</event>
<event>
 5   0  0.3290656E-02  0.6987647E+03  0.7818609E-02  0.9719347E-01
       -2   -1    0    0    0  501  0.00000000000E+00  0.00000000000E+00  0.37479158628E+03  0.37479158629E+03  0.25500000920E-02 0. -1.
        2   -1    0    0  501    0  0.00000000000E+00  0.00000000000E+00 -0.32569574656E+03  0.32569574657E+03  0.25500000920E-02 0.  1.
    10030    2    1    2    0    0  0.00000000000E+00  0.00000000000E+00  0.49095839720E+02  0.70048733287E+03  0.69876469718E+03 0.  0.
        1    1    3    3  502    0  0.28140816454E+03 -0.99909035669E+01 -0.18278955429E+03  0.33571177282E+03  0.50400001928E-02 0.  1.
       -1    1    3    3    0  502 -0.28140816454E+03  0.99909035669E+01  0.23188539401E+03  0.36477556005E+03  0.50400001928E-02 0. -1.
</event>
<event>
 5   0  0.1839038E-02  0.7109074E+03  0.7818609E-02  0.9698759E-01
        1   -1    0    0  501    0  0.00000000000E+00  0.00000000000E+00  0.91096855630E+03  0.91096855631E+03  0.50400001928E-02 0. -1.
       -1   -1    0    0    0  501  0.00000000000E+00  0.00000000000E+00 -0.13869562145E+03  0.13869562154E+03  0.50400001928E-02 0.  1.
    10030    2    1    2    0    0  0.00000000000E+00  0.00000000000E+00  0.77227293484E+03  0.10496641779E+04  0.71090744853E+03 0.  0.
        5    1    3    3  502    0  0.26777510696E+03 -0.23346429432E+03  0.40205102347E+03  0.53654095845E+03  0.46999998093E+01 0. -1.
       -5    1    3    3    0  502 -0.26777510696E+03  0.23346429432E+03  0.37022191138E+03  0.51312321940E+03  0.46999998093E+01 0.  1.
</event>
<event>
 5   0  0.3183963E-02  0.7106809E+03  0.7818609E-02  0.9699139E-01
        2   -1    0    0  501    0  0.00000000000E+00  0.00000000000E+00  0.10717669943E+04  0.10717669943E+04  0.25500000920E-02 0.  1.
       -2   -1    0    0    0  501  0.00000000000E+00  0.00000000000E+00 -0.11781183312E+03  0.11781183315E+03  0.25500000920E-02 0. -1.
    10030    2    1    2    0    0  0.00000000000E+00  0.00000000000E+00  0.95395516120E+03  0.11895788275E+04  0.71068089689E+03 0.  0.
        4    1    3    3  502    0  0.40184545827E+02  0.82401759958E+02 -0.97671201854E+02  0.13396314545E+03  0.12699999809E+01 0. -1.
       -4    1    3    3    0  502 -0.40184545827E+02 -0.82401759958E+02  0.10516263631E+04  0.10556156820E+04  0.12699999809E+01 0.  1.
</event>
<event>
 5   0  0.3290656E-02  0.7011592E+03  0.7818609E-02  0.9715252E-01
       -2   -1    0    0    0  501  0.00000000000E+00  0.00000000000E+00  0.40757620017E+03  0.40757620018E+03  0.25500000920E-02 0.  1.
        2   -1    0    0  501    0  0.00000000000E+00  0.00000000000E+00 -0.30155355191E+03  0.30155355192E+03  0.25500000920E-02 0. -1.
    10030    2    1    2    0    0  0.00000000000E+00  0.00000000000E+00  0.10602264827E+03  0.70912975210E+03  0.70115918547E+03 0.  0.
        1    1    3    3  502    0 -0.14502531132E+03  0.31850604531E+03  0.73925102202E+02  0.35769171445E+03  0.50400001928E-02 0.  1.
       -1    1    3    3    0  502  0.14502531132E+03 -0.31850604531E+03  0.32097546063E+02  0.35143803766E+03  0.50400001928E-02 0. -1.
</event>
<event>
 5   0  0.3184443E-02  0.7135829E+03  0.7818609E-02  0.9694282E-01
       -2   -1    0    0    0  501  0.00000000000E+00  0.00000000000E+00  0.10495729925E+03  0.10495729928E+03  0.25500000920E-02 0.  1.
        2   -1    0    0  501    0  0.00000000000E+00  0.00000000000E+00 -0.12128753764E+04  0.12128753764E+04  0.25500000920E-02 0. -1.
    10030    2    1    2    0    0  0.00000000000E+00  0.00000000000E+00 -0.11079180771E+04  0.13178326757E+04  0.71358285813E+03 0.  0.
        3    1    3    3  502    0  0.36810035727E+02 -0.32277347370E+03 -0.82639814848E+03  0.88795923559E+03  0.10100000352E+00 0. -1.
       -3    1    3    3    0  502 -0.36810035727E+02  0.32277347370E+03 -0.28151992865E+03  0.42987344008E+03  0.10100000352E+00 0.  1.
</event>
<event>
 5   0  0.2933851E-02  0.6999825E+03  0.7818609E-02  0.9717262E-01
        2   -1    0    0  501    0  0.00000000000E+00  0.00000000000E+00  0.88197629734E+03  0.88197629734E+03  0.25500000920E-02 0.  1.
       -2   -1    0    0    0  501  0.00000000000E+00  0.00000000000E+00 -0.13888566359E+03  0.13888566362E+03  0.25500000920E-02 0. -1.
    10030    2    1    2    0    0  0.00000000000E+00  0.00000000000E+00  0.74309063375E+03  0.10208619610E+04  0.69998246648E+03 0.  0.
        2    1    3    3  502    0  0.25914401877E+02  0.34482008717E+03  0.29271805205E+03  0.45305221194E+03  0.25500000920E-02 0. -1.
       -2    1    3    3    0  502 -0.25914401877E+02 -0.34482008717E+03  0.45037258169E+03  0.56780974902E+03  0.25500000920E-02 0.  1.
</event>
<event>
 5   0  0.3290656E-02  0.7008402E+03  0.7818609E-02  0.9715796E-01
       -2   -1    0    0    0  501  0.00000000000E+00  0.00000000000E+00  0.18656264081E+03  0.18656264082E+03  0.25500000920E-02 0.  1.
        2   -1    0    0  501    0  0.00000000000E+00  0.00000000000E+00 -0.65819316914E+03  0.65819316915E+03  0.25500000920E-02 0. -1.
    10030    2    1    2    0    0  0.00000000000E+00  0.00000000000E+00 -0.47163052834E+03  0.84475580997E+03  0.70084022660E+03 0.  0.
        1    1    3    3  502    0 -0.17688351360E+02 -0.34749357189E+03 -0.18568679533E+03  0.39439098147E+03  0.50400001928E-02 0.  1.
       -1    1    3    3    0  502  0.17688351360E+02  0.34749357189E+03 -0.28594373301E+03  0.45036482850E+03  0.50400001928E-02 0. -1.
</event>
<event>
 5   0  0.3113940E-02  0.7115474E+03  0.7818609E-02  0.9697686E-01
        2   -1    0    0  501    0  0.00000000000E+00  0.00000000000E+00  0.48434758443E+03  0.48434758444E+03  0.25500000920E-02 0.  1.
       -2   -1    0    0    0  501  0.00000000000E+00  0.00000000000E+00 -0.26133079672E+03  0.26133079673E+03  0.25500000920E-02 0. -1.
    10030    2    1    2    0    0  0.00000000000E+00  0.00000000000E+00  0.22301678771E+03  0.74567838117E+03  0.71154744083E+03 0.  0.
        5    1    3    3  502    0 -0.12230158131E+03 -0.33405504009E+03  0.10988369301E+03  0.37235327659E+03  0.46999998093E+01 0. -1.
       -5    1    3    3    0  502  0.12230158131E+03  0.33405504009E+03  0.11313309470E+03  0.37332510458E+03  0.46999998093E+01 0.  1.
</event>
<event>
 5   0  0.2933851E-02  0.7070489E+03  0.7818609E-02  0.9705253E-01
       -2   -1    0    0    0  501  0.00000000000E+00  0.00000000000E+00  0.15629922524E+03  0.15629922526E+03  0.25500000920E-02 0. -1.
        2   -1    0    0  501    0  0.00000000000E+00  0.00000000000E+00 -0.79961711829E+03  0.79961711829E+03  0.25500000920E-02 0.  1.
    10030    2    1    2    0    0  0.00000000000E+00  0.00000000000E+00 -0.64331789305E+03  0.95591634355E+03  0.70704889813E+03 0.  0.
        2    1    3    3  502    0  0.19253597997E+03 -0.11610688811E+03  0.47183105320E+02  0.22973279801E+03  0.25500000920E-02 0. -1.
       -2    1    3    3    0  502 -0.19253597997E+03  0.11610688811E+03 -0.69050099837E+03  0.72618354553E+03  0.25500000920E-02 0.  1.
</event>
<event>
 5   0  0.1884172E-02  0.6986597E+03  0.7818609E-02  0.9719527E-01
       -1   -1    0    0    0  501  0.00000000000E+00  0.00000000000E+00  0.20787141950E+03  0.20787141956E+03  0.50400001928E-02 0. -1.
        1   -1    0    0  501    0  0.00000000000E+00  0.00000000000E+00 -0.58705200719E+03  0.58705200721E+03  0.50400001928E-02 0.  1.
    10030    2    1    2    0    0  0.00000000000E+00  0.00000000000E+00 -0.37918058769E+03  0.79492342677E+03  0.69865967133E+03 0.  0.
        3    1    3    3  502    0 -0.25762631801E+03  0.22015824948E+03 -0.93110888892E+02  0.35144078075E+03  0.10100000352E+00 0. -1.
       -3    1    3    3    0  502  0.25762631801E+03 -0.22015824948E+03 -0.28606969880E+03  0.44348264602E+03  0.10100000352E+00 0.  1.
</event>
<event>
 5   0  0.1969818E-02  0.7070156E+03  0.7818609E-02  0.9705309E-01
       -1   -1    0    0    0  501  0.00000000000E+00  0.00000000000E+00  0.49575397126E+03  0.49575397129E+03  0.50400001928E-02 0.  1.
        1   -1    0    0  501    0  0.00000000000E+00  0.00000000000E+00 -0.25207618344E+03  0.25207618349E+03  0.50400001928E-02 0. -1.
    10030    2    1    2    0    0  0.00000000000E+00  0.00000000000E+00  0.24367778782E+03  0.74783015477E+03  0.70701561235E+03 0.  0.
        1    1    3    3  502    0  0.27928290427E+03  0.11496635385E+03  0.31616042887E+03  0.43723405625E+03  0.50400001928E-02 0.  1.
       -1    1    3    3    0  502 -0.27928290427E+03 -0.11496635385E+03 -0.72482641044E+02  0.31059609852E+03  0.50400001928E-02 0. -1.
</event>
<event>
 5   0  0.2933851E-02  0.7008764E+03  0.7818609E-02  0.9715735E-01
        2   -1    0    0  501    0  0.00000000000E+00  0.00000000000E+00  0.81610526171E+03  0.81610526171E+03  0.25500000920E-02 0. -1.
       -2   -1    0    0    0  501  0.00000000000E+00  0.00000000000E+00 -0.15047927034E+03  0.15047927036E+03  0.25500000920E-02 0.  1.
    10030    2    1    2    0    0  0.00000000000E+00  0.00000000000E+00  0.66562599137E+03  0.96658453207E+03  0.70087637801E+03 0.  0.
        2    1    3    3  502    0 -0.14961913736E+03 -0.24473370900E+03  0.55182161664E+02  0.29210536722E+03  0.25500000920E-02 0.  1.
       -2    1    3    3    0  502  0.14961913736E+03  0.24473370900E+03  0.61044382970E+03  0.67447916485E+03  0.25500000920E-02 0. -1.
</event>
<event>
 5   0  0.3113940E-02  0.6905215E+03  0.7818609E-02  0.9733580E-01
       -2   -1    0    0    0  501  0.00000000000E+00  0.00000000000E+00  0.73843135268E+02  0.73843135312E+02  0.25500000920E-02 0.  1.
        2   -1    0    0  501    0  0.00000000000E+00  0.00000000000E+00 -0.16143003903E+04  0.16143003903E+04  0.25500000920E-02 0. -1.
    10030    2    1    2    0    0  0.00000000000E+00  0.00000000000E+00 -0.15404572550E+04  0.16881435256E+04  0.69052154818E+03 0.  0.
        5    1    3    3  502    0 -0.12539944856E+03 -0.45634135267E+02  0.81635393332E+01  0.13377678937E+03  0.46999998093E+01 0.  1.
       -5    1    3    3    0  502  0.12539944856E+03  0.45634135267E+02 -0.15486207944E+04  0.15543667362E+04  0.46999998093E+01 0. -1.
</event>
<event>
 5   0  0.3113940E-02  0.6860995E+03  0.7818609E-02  0.9741304E-01
       -2   -1    0    0    0  501  0.00000000000E+00  0.00000000000E+00  0.12257110007E+03  0.12257110009E+03  0.25500000920E-02 0. -1.
        2   -1    0    0  501    0  0.00000000000E+00  0.00000000000E+00 -0.96012144003E+03  0.96012144003E+03  0.25500000920E-02 0.  1.
    10030    2    1    2    0    0  0.00000000000E+00  0.00000000000E+00 -0.83755033996E+03  0.10826925401E+04  0.68609952957E+03 0.  0.
        5    1    3    3  502    0 -0.17409824000E+03  0.22119804374E+03 -0.72809629834E+03  0.78063120703E+03  0.46999998093E+01 0.  1.
       -5    1    3    3    0  502  0.17409824000E+03 -0.22119804374E+03 -0.10945404162E+03  0.30206133310E+03  0.46999998093E+01 0. -1.
</event>
<event>
 5   0  0.1951465E-02  0.7079736E+03  0.7818609E-02  0.9703693E-01
        1   -1    0    0  501    0  0.00000000000E+00  0.00000000000E+00  0.41905441985E+03  0.41905441988E+03  0.50400001928E-02 0. -1.
       -1   -1    0    0    0  501  0.00000000000E+00  0.00000000000E+00 -0.29902239150E+03  0.29902239154E+03  0.50400001928E-02 0.  1.
    10030    2    1    2    0    0  0.00000000000E+00  0.00000000000E+00  0.12003202835E+03  0.71807681141E+03  0.70797360068E+03 0.  0.
        4    1    3    3  502    0 -0.68712411558E+02  0.28958095072E+03  0.25439249928E+03  0.39152992110E+03  0.12699999809E+01 0. -1.
       -4    1    3    3    0  502  0.68712411558E+02 -0.28958095072E+03 -0.13436047093E+03  0.32654689031E+03  0.12699999809E+01 0.  1.
</event>
<event>
 5   0  0.1839038E-02  0.6832866E+03  0.7818609E-02  0.9746249E-01
        1   -1    0    0  501    0  0.00000000000E+00  0.00000000000E+00  0.13809230801E+04  0.13809230801E+04  0.50400001928E-02 0.  1.
       -1   -1    0    0    0  501  0.00000000000E+00  0.00000000000E+00 -0.84523265158E+02  0.84523265308E+02  0.50400001928E-02 0. -1.
    10030    2    1    2    0    0  0.00000000000E+00  0.00000000000E+00  0.12963998149E+04  0.14654463454E+04  0.68328655124E+03 0.  0.
        5    1    3    3  502    0 -0.32637974504E+03  0.89023376042E+02  0.74991259557E+03  0.82270279594E+03  0.46999998093E+01 0.  1.
       -5    1    3    3    0  502  0.32637974504E+03 -0.89023376042E+02  0.54648721934E+03  0.64274354945E+03  0.46999998093E+01 0. -1.
</event>
<event>
 5   0  0.3290656E-02  0.7026430E+03  0.7818609E-02  0.9712723E-01
       -2   -1    0    0    0  501  0.00000000000E+00  0.00000000000E+00  0.11371767090E+03  0.11371767092E+03  0.25500000920E-02 0. -1.
        2   -1    0    0  501    0  0.00000000000E+00  0.00000000000E+00 -0.10853793670E+04  0.10853793670E+04  0.25500000920E-02 0.  1.
    10030    2    1    2    0    0  0.00000000000E+00  0.00000000000E+00 -0.97166169610E+03  0.11990970379E+04  0.70264304927E+03 0.  0.
        1    1    3    3  502    0 -0.11502380912E+03 -0.23837160802E+03 -0.91564422967E+02  0.28006346380E+03  0.50400001928E-02 0. -1.
       -1    1    3    3    0  502  0.11502380912E+03  0.23837160802E+03 -0.88009727313E+03  0.91903357412E+03  0.50400001928E-02 0.  1.
</event>
<event>
 5   0  0.3183963E-02  0.6995902E+03  0.7818609E-02  0.9717933E-01
       -2   -1    0    0    0  501  0.00000000000E+00  0.00000000000E+00  0.28468256448E+03  0.28468256449E+03  0.25500000920E-02 0.  1.
        2   -1    0    0  501    0  0.00000000000E+00  0.00000000000E+00 -0.42980021087E+03  0.42980021088E+03  0.25500000920E-02 0. -1.
    10030    2    1    2    0    0  0.00000000000E+00  0.00000000000E+00 -0.14511764640E+03  0.71448277537E+03  0.69959024079E+03 0.  0.
        4    1    3    3  502    0 -0.50242608156E+02 -0.10763661695E+03  0.26345105741E+03  0.28899486766E+03  0.12699999809E+01 0.  1.
       -4    1    3    3    0  502  0.50242608156E+02  0.10763661695E+03 -0.40856870380E+03  0.42548790771E+03  0.12699999809E+01 0. -1.
</event>
<event>
 5   0  0.2933851E-02  0.7400101E+03  0.7818609E-02  0.9651155E-01
       -2   -1    0    0    0  501  0.00000000000E+00  0.00000000000E+00  0.24608373450E+03  0.24608373452E+03  0.25500000920E-02 0. -1.
        2   -1    0    0  501    0  0.00000000000E+00  0.00000000000E+00 -0.55632984371E+03  0.55632984372E+03  0.25500000920E-02 0.  1.
    10030    2    1    2    0    0  0.00000000000E+00  0.00000000000E+00 -0.31024610921E+03  0.80241357824E+03  0.74001006902E+03 0.  0.
        2    1    3    3  502    0 -0.77791460431E+01  0.28850955116E+03  0.95929769080E+02  0.30413943649E+03  0.25500000920E-02 0. -1.
       -2    1    3    3    0  502  0.77791460431E+01 -0.28850955116E+03 -0.40617587829E+03  0.49827414175E+03  0.25500000920E-02 0.  1.
</event>
<event>
 5   0  0.2933851E-02  0.6949705E+03  0.7818609E-02  0.9725872E-01
        2   -1    0    0  501    0  0.00000000000E+00  0.00000000000E+00  0.91245112174E+03  0.91245112174E+03  0.25500000920E-02 0. -1.
       -2   -1    0    0    0  501  0.00000000000E+00  0.00000000000E+00 -0.13233147793E+03  0.13233147796E+03  0.25500000920E-02 0.  1.
    10030    2    1    2    0    0  0.00000000000E+00  0.00000000000E+00  0.78011964381E+03  0.10447825997E+04  0.69497051879E+03 0.  0.
        2    1    3    3  502    0  0.29695592206E+02 -0.15157460767E+03  0.85800771182E+03  0.87179924492E+03  0.25500000920E-02 0. -1.
       -2    1    3    3    0  502 -0.29695592206E+02  0.15157460767E+03 -0.77888068014E+02  0.17298335478E+03  0.25500000920E-02 0.  1.
</event>
<event>
 5   0  0.1233912E-02  0.6983444E+03  0.7818609E-02  0.9720068E-01
       -4   -1    0    0    0  501  0.00000000000E+00  0.00000000000E+00  0.25539684346E+03  0.25540000107E+03  0.12699999809E+01 0. -1.
        4   -1    0    0  501    0  0.00000000000E+00  0.00000000000E+00 -0.47737256914E+03  0.47737425849E+03  0.12699999809E+01 0.  1.
    10030    2    1    2    0    0  0.00000000000E+00  0.00000000000E+00 -0.22197572568E+03  0.73277425956E+03  0.69834439404E+03 0.  0.
        3    1    3    3  502    0 -0.17024217582E+03 -0.88942008668E+02  0.19498427245E+03  0.27370048600E+03  0.10100000352E+00 0. -1.
       -3    1    3    3    0  502  0.17024217582E+03  0.88942008668E+02 -0.41695999813E+03  0.45907377356E+03  0.10100000352E+00 0.  1.
</event>
<event>
 5   0  0.1884172E-02  0.6983312E+03  0.7818609E-02  0.9720090E-01
       -1   -1    0    0    0  501  0.00000000000E+00  0.00000000000E+00  0.15252932905E+03  0.15252932913E+03  0.50400001928E-02 0. -1.
        1   -1    0    0  501    0  0.00000000000E+00  0.00000000000E+00 -0.79929939303E+03  0.79929939304E+03  0.50400001928E-02 0.  1.
    10030    2    1    2    0    0  0.00000000000E+00  0.00000000000E+00 -0.64677006398E+03  0.95182872218E+03  0.69833115404E+03 0.  0.
        3    1    3    3  502    0  0.62525220037E+02 -0.32284613004E+03 -0.16339843759E+03  0.36720305885E+03  0.10100000352E+00 0.  1.
       -3    1    3    3    0  502 -0.62525220037E+02  0.32284613004E+03 -0.48337162639E+03  0.58462566332E+03  0.10100000352E+00 0. -1.
</event>
<event>
 5   0  0.3113940E-02  0.6903502E+03  0.7818609E-02  0.9733878E-01
       -2   -1    0    0    0  501  0.00000000000E+00  0.00000000000E+00  0.18600270453E+03  0.18600270455E+03  0.25500000920E-02 0.  1.
        2   -1    0    0  501    0  0.00000000000E+00  0.00000000000E+00 -0.64055974977E+03  0.64055974977E+03  0.25500000920E-02 0. -1.
    10030    2    1    2    0    0  0.00000000000E+00  0.00000000000E+00 -0.45455704524E+03  0.82656245432E+03  0.69035018904E+03 0.  0.
        5    1    3    3  502    0 -0.31804204984E+03 -0.13389539037E+03 -0.23531342503E+03  0.41769991504E+03  0.46999998093E+01 0. -1.
       -5    1    3    3    0  502  0.31804204984E+03  0.13389539037E+03 -0.21924362021E+03  0.40886253928E+03  0.46999998093E+01 0.  1.
</event>
<event>
 5   0  0.3290656E-02  0.7005966E+03  0.7818609E-02  0.9716212E-01
       -2   -1    0    0    0  501  0.00000000000E+00  0.00000000000E+00  0.62680071548E+03  0.62680071548E+03  0.25500000920E-02 0.  1.
        2   -1    0    0  501    0  0.00000000000E+00  0.00000000000E+00 -0.19577020876E+03  0.19577020877E+03  0.25500000920E-02 0. -1.
    10030    2    1    2    0    0  0.00000000000E+00  0.00000000000E+00  0.43103050672E+03  0.82257092426E+03  0.70059662268E+03 0.  0.
        1    1    3    3  502    0  0.18047507226E+03 -0.26523421882E+03  0.50352786299E+02  0.32473965827E+03  0.50400001928E-02 0. -1.
       -1    1    3    3    0  502 -0.18047507226E+03  0.26523421882E+03  0.38067772042E+03  0.49783126599E+03  0.50400001928E-02 0.  1.
</event>
<event>
 5   0  0.1951465E-02  0.7019812E+03  0.7818609E-02  0.9713850E-01
       -1   -1    0    0    0  501  0.00000000000E+00  0.00000000000E+00  0.87516941053E+02  0.87516941198E+02  0.50400001928E-02 0.  1.
        1   -1    0    0  501    0  0.00000000000E+00  0.00000000000E+00 -0.14076635833E+04  0.14076635833E+04  0.50400001928E-02 0. -1.
    10030    2    1    2    0    0  0.00000000000E+00  0.00000000000E+00 -0.13201466422E+04  0.14951805245E+04  0.70198122754E+03 0.  0.
        4    1    3    3  502    0 -0.10359225454E+01 -0.35080786382E+03 -0.68394082125E+03  0.76866370431E+03  0.12699999809E+01 0. -1.
       -4    1    3    3    0  502  0.10359225454E+01  0.35080786382E+03 -0.63620582098E+03  0.72651682018E+03  0.12699999809E+01 0.  1.
</event>
<event>
 5   0  0.1884172E-02  0.7001428E+03  0.7818609E-02  0.9716988E-01
        1   -1    0    0  501    0  0.00000000000E+00  0.00000000000E+00  0.34063623920E+03  0.34063623924E+03  0.50400001928E-02 0. -1.
       -1   -1    0    0    0  501  0.00000000000E+00  0.00000000000E+00 -0.35976793615E+03  0.35976793618E+03  0.50400001928E-02 0.  1.
    10030    2    1    2    0    0  0.00000000000E+00  0.00000000000E+00 -0.19131696942E+02  0.70040417542E+03  0.70014283337E+03 0.  0.
        3    1    3    3  502    0 -0.72446900249E+02  0.38814855275E+02 -0.34997927617E+03  0.35950055674E+03  0.10100000352E+00 0.  1.
       -3    1    3    3    0  502  0.72446900249E+02 -0.38814855275E+02  0.33084757923E+03  0.34090361868E+03  0.10100000352E+00 0. -1.
</event>
<event>
 5   0  0.3113940E-02  0.7032593E+03  0.7818609E-02  0.9711675E-01
       -2   -1    0    0    0  501  0.00000000000E+00  0.00000000000E+00  0.27965016358E+03  0.27965016359E+03  0.25500000920E-02 0.  1.
        2   -1    0    0  501    0  0.00000000000E+00  0.00000000000E+00 -0.44213598010E+03  0.44213598011E+03  0.25500000920E-02 0. -1.
    10030    2    1    2    0    0  0.00000000000E+00  0.00000000000E+00 -0.16248581652E+03  0.72178614370E+03  0.70325926704E+03 0.  0.
        5    1    3    3  502    0 -0.11452549777E+03 -0.29414557890E+03  0.77703326480E+02  0.32511168569E+03  0.46999998093E+01 0.  1.
       -5    1    3    3    0  502  0.11452549777E+03  0.29414557890E+03 -0.24018914300E+03  0.39667445801E+03  0.46999998093E+01 0. -1.
</event>
<event>
 5   0  0.1233912E-02  0.6992111E+03  0.7818609E-02  0.9718582E-01
       -4   -1    0    0    0  501  0.00000000000E+00  0.00000000000E+00  0.85577154308E+03  0.85577248545E+03  0.12699999809E+01 0.  1.
        4   -1    0    0  501    0  0.00000000000E+00  0.00000000000E+00 -0.14281936309E+03  0.14282500962E+03  0.12699999809E+01 0. -1.
    10030    2    1    2    0    0  0.00000000000E+00  0.00000000000E+00  0.71295218000E+03  0.99859749506E+03  0.69921108843E+03 0.  0.
        2    1    3    3  502    0  0.11475449251E+02 -0.24329168777E+03 -0.17132729791E+01  0.24356819699E+03  0.25500000920E-02 0. -1.
       -2    1    3    3    0  502 -0.11475449251E+02  0.24329168777E+03  0.71466545298E+03  0.75502929808E+03  0.25500000920E-02 0.  1.
</event>
<event>
 5   0  0.2933851E-02  0.6988912E+03  0.7818609E-02  0.9719130E-01
       -2   -1    0    0    0  501  0.00000000000E+00  0.00000000000E+00  0.33548809837E+03  0.33548809838E+03  0.25500000920E-02 0.  1.
        2   -1    0    0  501    0  0.00000000000E+00  0.00000000000E+00 -0.36398380926E+03  0.36398380926E+03  0.25500000920E-02 0. -1.
    10030    2    1    2    0    0  0.00000000000E+00  0.00000000000E+00 -0.28495710890E+02  0.69947190764E+03  0.69889122475E+03 0.  0.
        2    1    3    3  502    0 -0.12411264110E+03 -0.25881262929E+03 -0.21372304084E+03  0.35786235197E+03  0.25500000920E-02 0. -1.
       -2    1    3    3    0  502  0.12411264110E+03  0.25881262929E+03  0.18522732995E+03  0.34160955568E+03  0.25500000920E-02 0.  1.
</event>
<event>
 5   0  0.3183963E-02  0.7202837E+03  0.7818609E-02  0.9683160E-01
        2   -1    0    0  501    0  0.00000000000E+00  0.00000000000E+00  0.58760210627E+03  0.58760210628E+03  0.25500000920E-02 0.  1.
       -2   -1    0    0    0  501  0.00000000000E+00  0.00000000000E+00 -0.22073127366E+03  0.22073127367E+03  0.25500000920E-02 0. -1.
    10030    2    1    2    0    0  0.00000000000E+00  0.00000000000E+00  0.36687083261E+03  0.80833337995E+03  0.72028372557E+03 0.  0.
        4    1    3    3  502    0 -0.72306821472E+02 -0.77116132150E+02  0.56979579095E+03  0.57952051780E+03  0.12699999809E+01 0.  1.
       -4    1    3    3    0  502  0.72306821472E+02  0.77116132150E+02 -0.20292495834E+03  0.22881286215E+03  0.12699999809E+01 0. -1.
</event>
<event>
 5   0  0.1969818E-02  0.7021960E+03  0.7818609E-02  0.9713484E-01
        1   -1    0    0  501    0  0.00000000000E+00  0.00000000000E+00  0.72088675386E+03  0.72088675388E+03  0.50400001928E-02 0.  1.
       -1   -1    0    0    0  501  0.00000000000E+00  0.00000000000E+00 -0.17099745474E+03  0.17099745481E+03  0.50400001928E-02 0. -1.
    10030    2    1    2    0    0  0.00000000000E+00  0.00000000000E+00  0.54988929912E+03  0.89188420869E+03  0.70219598434E+03 0.  0.
        1    1    3    3  502    0  0.26960850404E+02 -0.20941853551E+03 -0.81343228251E+02  0.22627357618E+03  0.50400001928E-02 0. -1.
       -1    1    3    3    0  502 -0.26960850404E+02  0.20941853551E+03  0.63123252737E+03  0.66561063251E+03  0.50400001928E-02 0.  1.
</event>
<event>
 5   0  0.1969818E-02  0.7028786E+03  0.7818609E-02  0.9712322E-01
        1   -1    0    0  501    0  0.00000000000E+00  0.00000000000E+00  0.14358809814E+04  0.14358809814E+04  0.50400001928E-02 0.  1.
       -1   -1    0    0    0  501  0.00000000000E+00  0.00000000000E+00 -0.86016594796E+02  0.86016594944E+02  0.50400001928E-02 0. -1.
    10030    2    1    2    0    0  0.00000000000E+00  0.00000000000E+00  0.13498643866E+04  0.15218975764E+04  0.70287863155E+03 0.  0.
        1    1    3    3  502    0  0.23136537649E+03  0.21569293031E+03  0.34331728090E+03  0.46681916522E+03  0.50400001928E-02 0. -1.
       -1    1    3    3    0  502 -0.23136537649E+03 -0.21569293031E+03  0.10065471057E+04  0.10550784111E+04  0.50400001928E-02 0.  1.
</event>
<event>
 5   0  0.1884172E-02  0.6966124E+03  0.7818609E-02  0.9723043E-01
       -1   -1    0    0    0  501  0.00000000000E+00  0.00000000000E+00  0.46889468548E+03  0.46889468551E+03  0.50400001928E-02 0.  1.
        1   -1    0    0  501    0  0.00000000000E+00  0.00000000000E+00 -0.25873018738E+03  0.25873018743E+03  0.50400001928E-02 0. -1.
    10030    2    1    2    0    0  0.00000000000E+00  0.00000000000E+00  0.21016449811E+03  0.72762487294E+03  0.69661240260E+03 0.  0.
        3    1    3    3  502    0  0.10660355861E+03 -0.40682184002E+01  0.45140972881E+03  0.46384439479E+03  0.10100000352E+00 0.  1.
       -3    1    3    3    0  502 -0.10660355861E+03  0.40682184002E+01 -0.24124523071E+03  0.26378047815E+03  0.10100000352E+00 0. -1.
</event>
<event>
 5   0  0.3290656E-02  0.7000114E+03  0.7818609E-02  0.9717213E-01
        2   -1    0    0  501    0  0.00000000000E+00  0.00000000000E+00  0.22683765051E+03  0.22683765053E+03  0.25500000920E-02 0.  1.
       -2   -1    0    0    0  501  0.00000000000E+00  0.00000000000E+00 -0.54005131977E+03  0.54005131978E+03  0.25500000920E-02 0. -1.
    10030    2    1    2    0    0  0.00000000000E+00  0.00000000000E+00 -0.31321366926E+03  0.76688897031E+03  0.70001135003E+03 0.  0.
        1    1    3    3  502    0  0.10674151407E+03 -0.76072054281E+02 -0.51214773277E+03  0.52865490490E+03  0.50400001928E-02 0. -1.
       -1    1    3    3    0  502 -0.10674151407E+03  0.76072054281E+02  0.19893406351E+03  0.23823406540E+03  0.50400001928E-02 0.  1.
</event>
<event>
 5   0  0.1233912E-02  0.6992593E+03  0.7818609E-02  0.9718500E-01
       -3   -1    0    0    0  501  0.00000000000E+00  0.00000000000E+00  0.45942132341E+03  0.45942133451E+03  0.10100000352E+00 0. -1.
        3   -1    0    0  501    0  0.00000000000E+00  0.00000000000E+00 -0.26607576311E+03  0.26607578228E+03  0.10100000352E+00 0.  1.
    10030    2    1    2    0    0  0.00000000000E+00  0.00000000000E+00  0.19334556030E+03  0.72549711679E+03  0.69925929439E+03 0.  0.
        4    1    3    3  502    0  0.14693847390E+03 -0.18552423042E+03 -0.17033378654E+03  0.29159109541E+03  0.12699999809E+01 0.  1.
       -4    1    3    3    0  502 -0.14693847390E+03  0.18552423042E+03  0.36367934683E+03  0.43390602139E+03  0.12699999809E+01 0. -1.
</event>
<event>
 5   0  0.2933851E-02  0.6999817E+03  0.7818609E-02  0.9717264E-01
       -2   -1    0    0    0  501  0.00000000000E+00  0.00000000000E+00  0.10225582661E+03  0.10225582664E+03  0.25500000920E-02 0.  1.
        2   -1    0    0  501    0  0.00000000000E+00  0.00000000000E+00 -0.11979129638E+04  0.11979129638E+04  0.25500000920E-02 0. -1.
    10030    2    1    2    0    0  0.00000000000E+00  0.00000000000E+00 -0.10956571372E+04  0.13001687904E+04  0.69998165786E+03 0.  0.
        2    1    3    3  502    0  0.48320229605E+02 -0.31814291184E+02  0.93312917268E+02  0.10979205002E+03  0.25500000920E-02 0.  1.
       -2    1    3    3    0  502 -0.48320229605E+02  0.31814291184E+02 -0.11889700544E+04  0.11903767404E+04  0.25500000920E-02 0. -1.
</event>
<event>
 5   0  0.1951465E-02  0.7045176E+03  0.7818609E-02  0.9709538E-01
        1   -1    0    0  501    0  0.00000000000E+00  0.00000000000E+00  0.56013428172E+03  0.56013428175E+03  0.50400001928E-02 0. -1.
       -1   -1    0    0    0  501  0.00000000000E+00  0.00000000000E+00 -0.22152947467E+03  0.22152947473E+03  0.50400001928E-02 0.  1.
    10030    2    1    2    0    0  0.00000000000E+00  0.00000000000E+00  0.33860480705E+03  0.78166375647E+03  0.70451757453E+03 0.  0.
        4    1    3    3  502    0 -0.15272071726E+03  0.72146896970E+02  0.51227291398E+03  0.53940146785E+03  0.12699999809E+01 0. -1.
       -4    1    3    3    0  502  0.15272071726E+03 -0.72146896970E+02 -0.17366810693E+03  0.24226228862E+03  0.12699999809E+01 0.  1.
</event>
<event>
 5   0  0.1839038E-02  0.7043581E+03  0.7818609E-02  0.9709808E-01
       -1   -1    0    0    0  501  0.00000000000E+00  0.00000000000E+00  0.18318044463E+03  0.18318044470E+03  0.50400001928E-02 0. -1.
        1   -1    0    0  501    0  0.00000000000E+00  0.00000000000E+00 -0.67709243541E+03  0.67709243542E+03  0.50400001928E-02 0.  1.
    10030    2    1    2    0    0  0.00000000000E+00  0.00000000000E+00 -0.49391199077E+03  0.86027288012E+03  0.70435812883E+03 0.  0.
        5    1    3    3  502    0 -0.81902868339E+02  0.43274654967E+02 -0.66190701279E+03  0.66837396657E+03  0.46999998093E+01 0.  1.
       -5    1    3    3    0  502  0.81902868339E+02 -0.43274654967E+02  0.16799502202E+03  0.19189891356E+03  0.46999998093E+01 0. -1.
</event>
<event>
 5   0  0.3290656E-02  0.7005463E+03  0.7818609E-02  0.9716298E-01
       -2   -1    0    0    0  501  0.00000000000E+00  0.00000000000E+00  0.19949306057E+03  0.19949306059E+03  0.25500000920E-02 0.  1.
        2   -1    0    0  501    0  0.00000000000E+00  0.00000000000E+00 -0.61501523833E+03  0.61501523833E+03  0.25500000920E-02 0. -1.
    10030    2    1    2    0    0  0.00000000000E+00  0.00000000000E+00 -0.41552217776E+03  0.81450829892E+03  0.70054627884E+03 0.  0.
        1    1    3    3  502    0  0.62011404274E+01  0.86211635764E+02  0.18689910003E+03  0.20591788145E+03  0.50400001928E-02 0.  1.
       -1    1    3    3    0  502 -0.62011404274E+01 -0.86211635764E+02 -0.60242127778E+03  0.60859041747E+03  0.50400001928E-02 0. -1.
</event>
<event>
 5   0  0.1884172E-02  0.6997254E+03  0.7818609E-02  0.9717702E-01
        1   -1    0    0  501    0  0.00000000000E+00  0.00000000000E+00  0.40228482390E+03  0.40228482394E+03  0.50400001928E-02 0.  1.
       -1   -1    0    0    0  501  0.00000000000E+00  0.00000000000E+00 -0.30427177263E+03  0.30427177267E+03  0.50400001928E-02 0. -1.
    10030    2    1    2    0    0  0.00000000000E+00  0.00000000000E+00  0.98013051272E+02  0.70655659661E+03  0.69972542186E+03 0.  0.
        3    1    3    3  502    0 -0.32795023026E+03 -0.79604037456E+02 -0.44175201110E+02  0.34035219245E+03  0.10100000352E+00 0. -1.
       -3    1    3    3    0  502  0.32795023026E+03  0.79604037456E+02  0.14218825238E+03  0.36620440416E+03  0.10100000352E+00 0.  1.
</event>
<event>
 5   0  0.2933851E-02  0.6876280E+03  0.7818609E-02  0.9738627E-01
        2   -1    0    0  501    0  0.00000000000E+00  0.00000000000E+00  0.10504453014E+04  0.10504453014E+04  0.25500000920E-02 0.  1.
       -2   -1    0    0    0  501  0.00000000000E+00  0.00000000000E+00 -0.11253137111E+03  0.11253137114E+03  0.25500000920E-02 0. -1.
    10030    2    1    2    0    0  0.00000000000E+00  0.00000000000E+00  0.93791393026E+03  0.11629766725E+04  0.68762795191E+03 0.  0.
        2    1    3    3  502    0 -0.24421097630E+02 -0.20449191728E+03  0.33312622485E+01  0.20597191934E+03  0.25500000920E-02 0. -1.
       -2    1    3    3    0  502  0.24421097630E+02  0.20449191728E+03  0.93458266801E+03  0.95700475317E+03  0.25500000920E-02 0.  1.
</event>
<event>
 5   0  0.2933851E-02  0.7063683E+03  0.7818609E-02  0.9706403E-01
        2   -1    0    0  501    0  0.00000000000E+00  0.00000000000E+00  0.16633801149E+04  0.16633801149E+04  0.25500000920E-02 0. -1.
       -2   -1    0    0    0  501  0.00000000000E+00  0.00000000000E+00 -0.74991309547E+02  0.74991309590E+02  0.25500000920E-02 0.  1.
    10030    2    1    2    0    0  0.00000000000E+00  0.00000000000E+00  0.15883888053E+04  0.17383714245E+04  0.70636832638E+03 0.  0.
        2    1    3    3  502    0  0.26194560976E+03 -0.16132840166E+03  0.36725053643E+03  0.47907756383E+03  0.25500000920E-02 0.  1.
       -2    1    3    3    0  502 -0.26194560976E+03  0.16132840166E+03  0.12211382689E+04  0.12592938606E+04  0.25500000920E-02 0. -1.
</event>
<event>
 5   0  0.2933851E-02  0.6929943E+03  0.7818609E-02  0.9729288E-01
       -2   -1    0    0    0  501  0.00000000000E+00  0.00000000000E+00  0.18830712530E+03  0.18830712532E+03  0.25500000920E-02 0.  1.
        2   -1    0    0  501    0  0.00000000000E+00  0.00000000000E+00 -0.63757690234E+03  0.63757690235E+03  0.25500000920E-02 0. -1.
    10030    2    1    2    0    0  0.00000000000E+00  0.00000000000E+00 -0.44926977704E+03  0.82588402766E+03  0.69299429621E+03 0.  0.
        2    1    3    3  502    0 -0.19829649507E+02 -0.11924879554E+03  0.16236075414E+03  0.20242160144E+03  0.25500000920E-02 0.  1.
       -2    1    3    3    0  502  0.19829649507E+02  0.11924879554E+03 -0.61163053118E+03  0.62346242623E+03  0.25500000920E-02 0. -1.
</event>
<event>
 5   0  0.3113940E-02  0.7016562E+03  0.7818609E-02  0.9714404E-01
       -2   -1    0    0    0  501  0.00000000000E+00  0.00000000000E+00  0.13512387010E+03  0.13512387013E+03  0.25500000920E-02 0.  1.
        2   -1    0    0  501    0  0.00000000000E+00  0.00000000000E+00 -0.91087059272E+03  0.91087059273E+03  0.25500000920E-02 0. -1.
    10030    2    1    2    0    0  0.00000000000E+00  0.00000000000E+00 -0.77574672262E+03  0.10459944629E+04  0.70165621116E+03 0.  0.
        5    1    3    3  502    0  0.56337362300E+02  0.10470691882E+03  0.10412141011E+03  0.15811639789E+03  0.46999998093E+01 0.  1.
       -5    1    3    3    0  502 -0.56337362300E+02 -0.10470691882E+03 -0.87986813273E+03  0.88787806496E+03  0.46999998093E+01 0. -1.
</event>
<event>
 5   0  0.3290656E-02  0.7124789E+03  0.7818609E-02  0.9696126E-01
        2   -1    0    0  501    0  0.00000000000E+00  0.00000000000E+00  0.28623929179E+03  0.28623929180E+03  0.25500000920E-02 0. -1.
       -2   -1    0    0    0  501  0.00000000000E+00  0.00000000000E+00 -0.44335818247E+03  0.44335818247E+03  0.25500000920E-02 0.  1.
    10030    2    1    2    0    0  0.00000000000E+00  0.00000000000E+00 -0.15711889068E+03  0.72959747427E+03  0.71247886190E+03 0.  0.
        1    1    3    3  502    0 -0.12410792766E+03  0.15538989458E+03 -0.38122431873E+03  0.42997764857E+03  0.50400001928E-02 0.  1.
       -1    1    3    3    0  502  0.12410792766E+03 -0.15538989458E+03  0.22410542806E+03  0.29961982571E+03  0.50400001928E-02 0. -1.
</event>
<event>
 5   0  0.3113940E-02  0.6907322E+03  0.7818609E-02  0.9733214E-01
       -2   -1    0    0    0  501  0.00000000000E+00  0.00000000000E+00  0.13243355800E+03  0.13243355803E+03  0.25500000920E-02 0. -1.
        2   -1    0    0  501    0  0.00000000000E+00  0.00000000000E+00 -0.90066093796E+03  0.90066093796E+03  0.25500000920E-02 0.  1.
    10030    2    1    2    0    0  0.00000000000E+00  0.00000000000E+00 -0.76822737996E+03  0.10330944960E+04  0.69073216975E+03 0.  0.
        5    1    3    3  502    0 -0.11923973156E+03  0.22763612256E+00  0.10061921948E+03  0.15609126409E+03  0.46999998093E+01 0. -1.
       -5    1    3    3    0  502  0.11923973156E+03 -0.22763612256E+00 -0.86884659943E+03  0.87700323189E+03  0.46999998093E+01 0.  1.
</event>
<event>
 5   0  0.1951465E-02  0.7015238E+03  0.7818609E-02  0.9714630E-01
       -1   -1    0    0    0  501  0.00000000000E+00  0.00000000000E+00  0.14871830323E+04  0.14871830323E+04  0.50400001928E-02 0.  1.
        1   -1    0    0  501    0  0.00000000000E+00  0.00000000000E+00 -0.82729509357E+02  0.82729509511E+02  0.50400001928E-02 0. -1.
    10030    2    1    2    0    0  0.00000000000E+00  0.00000000000E+00  0.14044535229E+04  0.15699125418E+04  0.70152383484E+03 0.  0.
        4    1    3    3  502    0  0.46947155977E+02 -0.11936636706E+03 -0.28358275618E+02  0.13137035334E+03  0.12699999809E+01 0. -1.
       -4    1    3    3    0  502 -0.46947155977E+02  0.11936636706E+03  0.14328117985E+04  0.14385421884E+04  0.12699999809E+01 0.  1.
</event>
<event>
 5   0  0.1839038E-02  0.6825087E+03  0.7818609E-02  0.9747621E-01
       -1   -1    0    0    0  501  0.00000000000E+00  0.00000000000E+00  0.23301757660E+03  0.23301757665E+03  0.50400001928E-02 0.  1.
        1   -1    0    0  501    0  0.00000000000E+00  0.00000000000E+00 -0.49976713101E+03  0.49976713104E+03  0.50400001928E-02 0. -1.
    10030    2    1    2    0    0  0.00000000000E+00  0.00000000000E+00 -0.26674955442E+03  0.73278470769E+03  0.68250868349E+03 0.  0.
        5    1    3    3  502    0  0.70301661851E+02 -0.32720958166E+03 -0.61962009960E+02  0.34039655502E+03  0.46999998093E+01 0.  1.
       -5    1    3    3    0  502 -0.70301661851E+02  0.32720958166E+03 -0.20478754446E+03  0.39238815267E+03  0.46999998093E+01 0. -1.
</event>
<event>
 5   0  0.3183963E-02  0.7157116E+03  0.7818609E-02  0.9690734E-01
       -2   -1    0    0    0  501  0.00000000000E+00  0.00000000000E+00  0.12238712833E+03  0.12238712835E+03  0.25500000920E-02 0.  1.
        2   -1    0    0  501    0  0.00000000000E+00  0.00000000000E+00 -0.10463582246E+04  0.10463582246E+04  0.25500000920E-02 0. -1.
    10030    2    1    2    0    0  0.00000000000E+00  0.00000000000E+00 -0.92397109628E+03  0.11687453530E+04  0.71571161323E+03 0.  0.
        4    1    3    3  502    0 -0.26198574702E+03  0.12055198760E+03 -0.80796947221E+03  0.85789602766E+03  0.12699999809E+01 0. -1.
       -4    1    3    3    0  502  0.26198574702E+03 -0.12055198760E+03 -0.11600162407E+03  0.31084932530E+03  0.12699999809E+01 0.  1.
</event>
<event>
 5   0  0.2933851E-02  0.7022427E+03  0.7818609E-02  0.9713405E-01
       -2   -1    0    0    0  501  0.00000000000E+00  0.00000000000E+00  0.18309757410E+03  0.18309757412E+03  0.25500000920E-02 0. -1.
        2   -1    0    0  501    0  0.00000000000E+00  0.00000000000E+00 -0.67333609640E+03  0.67333609640E+03  0.25500000920E-02 0.  1.
    10030    2    1    2    0    0  0.00000000000E+00  0.00000000000E+00 -0.49023852230E+03  0.85643367052E+03  0.70224270965E+03 0.  0.
        2    1    3    3  502    0 -0.20145227120E+03 -0.27765660124E+03 -0.15377359964E+03  0.37592888388E+03  0.25500000920E-02 0. -1.
       -2    1    3    3    0  502  0.20145227120E+03  0.27765660124E+03 -0.33646492267E+03  0.48050478664E+03  0.25500000920E-02 0.  1.
</event>
<event>
 5   0  0.1839038E-02  0.7030270E+03  0.7818609E-02  0.9712070E-01
        1   -1    0    0  501    0  0.00000000000E+00  0.00000000000E+00  0.42462783551E+03  0.42462783554E+03  0.50400001928E-02 0.  1.
       -1   -1    0    0    0  501  0.00000000000E+00  0.00000000000E+00 -0.29098832097E+03  0.29098832101E+03  0.50400001928E-02 0. -1.
    10030    2    1    2    0    0  0.00000000000E+00  0.00000000000E+00  0.13363951454E+03  0.71561615655E+03  0.70302700067E+03 0.  0.
        5    1    3    3  502    0  0.27034869564E+03  0.24347971106E+02 -0.16046868092E+03  0.31536253500E+03  0.46999998093E+01 0. -1.
       -5    1    3    3    0  502 -0.27034869564E+03 -0.24347971106E+02  0.29410819546E+03  0.40025362155E+03  0.46999998093E+01 0.  1.
</event>
<event>
 5   0  0.1858013E-02  0.7082823E+03  0.7818609E-02  0.9703172E-01
        1   -1    0    0  501    0  0.00000000000E+00  0.00000000000E+00  0.94894643672E+03  0.94894643673E+03  0.50400001928E-02 0.  1.
       -1   -1    0    0    0  501  0.00000000000E+00  0.00000000000E+00 -0.13216336264E+03  0.13216336274E+03  0.50400001928E-02 0. -1.
    10030    2    1    2    0    0  0.00000000000E+00  0.00000000000E+00  0.81678307408E+03  0.10811097995E+04  0.70828229430E+03 0.  0.
        2    1    3    3  502    0 -0.27292088694E+03 -0.39290036409E+02  0.69182623801E+02  0.28428111603E+03  0.25500000920E-02 0. -1.
       -2    1    3    3    0  502  0.27292088694E+03  0.39290036409E+02  0.74760045028E+03  0.79682868344E+03  0.25500000920E-02 0.  1.
</event>
<event>
 5   0  0.3113940E-02  0.7054858E+03  0.7818609E-02  0.9707897E-01
       -2   -1    0    0    0  501  0.00000000000E+00  0.00000000000E+00  0.69559911523E+02  0.69559911570E+02  0.25500000920E-02 0. -1.
        2   -1    0    0  501    0  0.00000000000E+00  0.00000000000E+00 -0.17887824221E+04  0.17887824221E+04  0.25500000920E-02 0.  1.
    10030    2    1    2    0    0  0.00000000000E+00  0.00000000000E+00 -0.17192225106E+04  0.18583423337E+04  0.70548578174E+03 0.  0.
        5    1    3    3  502    0  0.61743676710E+02 -0.29507319406E+03 -0.13419162449E+04  0.13753696848E+04  0.46999998093E+01 0.  1.
       -5    1    3    3    0  502 -0.61743676710E+02  0.29507319406E+03 -0.37730626569E+03  0.48297264891E+03  0.46999998093E+01 0. -1.
</event>
<event>
 5   0  0.1858013E-02  0.6859297E+03  0.7818609E-02  0.9741601E-01
       -1   -1    0    0    0  501  0.00000000000E+00  0.00000000000E+00  0.28748849878E+03  0.28748849882E+03  0.50400001928E-02 0.  1.
        1   -1    0    0  501    0  0.00000000000E+00  0.00000000000E+00 -0.40914640600E+03  0.40914640603E+03  0.50400001928E-02 0. -1.
    10030    2    1    2    0    0  0.00000000000E+00  0.00000000000E+00 -0.12165790722E+03  0.69663490485E+03  0.68592969338E+03 0.  0.
        2    1    3    3  502    0  0.23967162296E+03 -0.12981920657E+02 -0.30962956326E+03  0.39176712926E+03  0.25500000920E-02 0. -1.
       -2    1    3    3    0  502 -0.23967162296E+03  0.12981920657E+02  0.18797165603E+03  0.30486777559E+03  0.25500000920E-02 0.  1.
</event>
<event>
 5   0  0.1884172E-02  0.7033104E+03  0.7818609E-02  0.9711588E-01
        1   -1    0    0  501    0  0.00000000000E+00  0.00000000000E+00  0.30656673201E+03  0.30656673205E+03  0.50400001928E-02 0. -1.
       -1   -1    0    0    0  501  0.00000000000E+00  0.00000000000E+00 -0.40337505923E+03  0.40337505926E+03  0.50400001928E-02 0.  1.
    10030    2    1    2    0    0  0.00000000000E+00  0.00000000000E+00 -0.96808327223E+02  0.70994179132E+03  0.70331038300E+03 0.  0.
        3    1    3    3  502    0 -0.28558714574E+03 -0.17832243901E+03 -0.15086220355E+03  0.36894216989E+03  0.10100000352E+00 0.  1.
       -3    1    3    3    0  502  0.28558714574E+03  0.17832243901E+03  0.54053876323E+02  0.34099962142E+03  0.10100000352E+00 0. -1.
</event>
<event>
 5   0  0.1969818E-02  0.7029741E+03  0.7818609E-02  0.9712160E-01
       -1   -1    0    0    0  501  0.00000000000E+00  0.00000000000E+00  0.18538866312E+03  0.18538866319E+03  0.50400001928E-02 0. -1.
        1   -1    0    0  501    0  0.00000000000E+00  0.00000000000E+00 -0.66640073011E+03  0.66640073013E+03  0.50400001928E-02 0.  1.
    10030    2    1    2    0    0  0.00000000000E+00  0.00000000000E+00 -0.48101206699E+03  0.85178939332E+03  0.70297408344E+03 0.  0.
        1    1    3    3  502    0 -0.38313707606E+02  0.15043459664E+00 -0.66386288838E+03  0.66496759125E+03  0.50400001928E-02 0.  1.
       -1    1    3    3    0  502  0.38313707606E+02 -0.15043459664E+00  0.18285082139E+03  0.18682180207E+03  0.50400001928E-02 0. -1.
</event>
<event>
 5   0  0.3290656E-02  0.7876805E+03  0.7818609E-02  0.9578022E-01
       -2   -1    0    0    0  501  0.00000000000E+00  0.00000000000E+00  0.94679967074E+02  0.94679967109E+02  0.25500000920E-02 0. -1.
        2   -1    0    0  501    0  0.00000000000E+00  0.00000000000E+00 -0.16382574004E+04  0.16382574004E+04  0.25500000920E-02 0.  1.
    10030    2    1    2    0    0  0.00000000000E+00  0.00000000000E+00 -0.15435774333E+04  0.17329373675E+04  0.78768053615E+03 0.  0.
        1    1    3    3  502    0  0.95191223637E+02  0.75644185350E+02 -0.15959324831E+04  0.16005573724E+04  0.50400001928E-02 0.  1.
       -1    1    3    3    0  502 -0.95191223637E+02 -0.75644185350E+02  0.52355049768E+02  0.13237999508E+03  0.50400001928E-02 0. -1.
</event>
<event>
 5   0  0.1233912E-02  0.6090522E+03  0.7818609E-02  0.9886802E-01
       -3   -1    0    0    0  501  0.00000000000E+00  0.00000000000E+00  0.28268789943E+03  0.28268791748E+03  0.10100000352E+00 0.  1.
        3   -1    0    0  501    0  0.00000000000E+00  0.00000000000E+00 -0.32805126603E+03  0.32805128158E+03  0.10100000352E+00 0. -1.
    10030    2    1    2    0    0  0.00000000000E+00  0.00000000000E+00 -0.45363366601E+02  0.61073919906E+03  0.60905216052E+03 0.  0.
        1    1    3    3  502    0 -0.20756387533E+02  0.24104807999E+03  0.16276604969E+03  0.29159525279E+03  0.50400001928E-02 0.  1.
       -1    1    3    3    0  502  0.20756387533E+02 -0.24104807999E+03 -0.20812941630E+03  0.31914394627E+03  0.50400001928E-02 0. -1.
</event>
<event>
 5   0  0.3184443E-02  0.7032816E+03  0.7818609E-02  0.9711637E-01
       -2   -1    0    0    0  501  0.00000000000E+00  0.00000000000E+00  0.72226046538E+02  0.72226046583E+02  0.25500000920E-02 0. -1.
        2   -1    0    0  501    0  0.00000000000E+00  0.00000000000E+00 -0.17120037198E+04  0.17120037198E+04  0.25500000920E-02 0.  1.
    10030    2    1    2    0    0  0.00000000000E+00  0.00000000000E+00 -0.16397776733E+04  0.17842297664E+04  0.70328162320E+03 0.  0.
        3    1    3    3  502    0  0.23947125344E+03 -0.20239595212E+03 -0.41602927912E+03  0.52095198814E+03  0.10100000352E+00 0. -1.
       -3    1    3    3    0  502 -0.23947125344E+03  0.20239595212E+03 -0.12237483941E+04  0.12632777782E+04  0.10100000352E+00 0.  1.
</event>
<event>
 5   0  0.3113940E-02  0.7007651E+03  0.7818609E-02  0.9715925E-01
        2   -1    0    0  501    0  0.00000000000E+00  0.00000000000E+00  0.66582641102E+03  0.66582641102E+03  0.25500000920E-02 0. -1.
       -2   -1    0    0    0  501  0.00000000000E+00  0.00000000000E+00 -0.18438426818E+03  0.18438426819E+03  0.25500000920E-02 0.  1.
    10030    2    1    2    0    0  0.00000000000E+00  0.00000000000E+00  0.48144214284E+03  0.85021067922E+03  0.70076505488E+03 0.  0.
        5    1    3    3  502    0  0.18851600003E+02 -0.28023754194E+03 -0.13361792356E+02  0.28122782620E+03  0.46999998093E+01 0.  1.
       -5    1    3    3    0  502 -0.18851600003E+02  0.28023754194E+03  0.49480393520E+03  0.56898285301E+03  0.46999998093E+01 0. -1.
</event>
<event>
 5   0  0.3183963E-02  0.6951103E+03  0.7818609E-02  0.9725631E-01
       -2   -1    0    0    0  501  0.00000000000E+00  0.00000000000E+00  0.12562045274E+03  0.12562045277E+03  0.25500000920E-02 0. -1.
        2   -1    0    0  501    0  0.00000000000E+00  0.00000000000E+00 -0.96158360067E+03  0.96158360067E+03  0.25500000920E-02 0.  1.
    10030    2    1    2    0    0  0.00000000000E+00  0.00000000000E+00 -0.83596314793E+03  0.10872040534E+04  0.69511025681E+03 0.  0.
        4    1    3    3  502    0  0.23084772986E+03  0.25758459957E+03 -0.36488467253E+03  0.50277523553E+03  0.12699999809E+01 0. -1.
       -4    1    3    3    0  502 -0.23084772986E+03 -0.25758459957E+03 -0.47107847540E+03  0.58442881791E+03  0.12699999809E+01 0.  1.
</event>
<event>
 5   0  0.3290656E-02  0.7013298E+03  0.7818609E-02  0.9714961E-01
       -2   -1    0    0    0  501  0.00000000000E+00  0.00000000000E+00  0.18322224656E+03  0.18322224657E+03  0.25500000920E-02 0. -1.
        2   -1    0    0  501    0  0.00000000000E+00  0.00000000000E+00 -0.67112950909E+03  0.67112950909E+03  0.25500000920E-02 0.  1.
    10030    2    1    2    0    0  0.00000000000E+00  0.00000000000E+00 -0.48790726253E+03  0.85435175567E+03  0.70132975523E+03 0.  0.
        1    1    3    3  502    0  0.11418387459E+03  0.30897914225E+03 -0.39043939718E+03  0.51083166548E+03  0.50400001928E-02 0.  1.
       -1    1    3    3    0  502 -0.11418387459E+03 -0.30897914225E+03 -0.97467865352E+02  0.34352009019E+03  0.50400001928E-02 0. -1.
</event>
<event>
 5   0  0.1858013E-02  0.6936356E+03  0.7818609E-02  0.9728178E-01
       -1   -1    0    0    0  501  0.00000000000E+00  0.00000000000E+00  0.32687690063E+03  0.32687690067E+03  0.50400001928E-02 0.  1.
        1   -1    0    0  501    0  0.00000000000E+00  0.00000000000E+00 -0.36797516906E+03  0.36797516910E+03  0.50400001928E-02 0. -1.
    10030    2    1    2    0    0  0.00000000000E+00  0.00000000000E+00 -0.41098268431E+02  0.69485206976E+03  0.69363558962E+03 0.  0.
        2    1    3    3  502    0  0.65419865642E+02 -0.32036192164E+03  0.95286973755E+02  0.34057470110E+03  0.25500000920E-02 0. -1.
       -2    1    3    3    0  502 -0.65419865642E+02  0.32036192164E+03 -0.13638524219E+03  0.35427736866E+03  0.25500000920E-02 0.  1.
</event>
<event>
 5   0  0.1884172E-02  0.6944952E+03  0.7818609E-02  0.9726693E-01
        1   -1    0    0  501    0  0.00000000000E+00  0.00000000000E+00  0.70937326654E+03  0.70937326656E+03  0.50400001928E-02 0.  1.
       -1   -1    0    0    0  501  0.00000000000E+00  0.00000000000E+00 -0.16998230123E+03  0.16998230131E+03  0.50400001928E-02 0. -1.
    10030    2    1    2    0    0  0.00000000000E+00  0.00000000000E+00  0.53939096531E+03  0.87935556787E+03  0.69449521329E+03 0.  0.
        3    1    3    3  502    0 -0.17372778552E+03  0.14676140798E+03  0.60195755931E+03  0.64348517291E+03  0.10100000352E+00 0.  1.
       -3    1    3    3    0  502  0.17372778552E+03 -0.14676140798E+03 -0.62566594006E+02  0.23587039496E+03  0.10100000352E+00 0. -1.
</event>
<event>
 5   0  0.1233912E-02  0.7013985E+03  0.7818609E-02  0.9714844E-01
        3   -1    0    0  501    0  0.00000000000E+00  0.00000000000E+00  0.10243638173E+04  0.10243638223E+04  0.10100000352E+00 0. -1.
       -3   -1    0    0    0  501  0.00000000000E+00  0.00000000000E+00 -0.12006468947E+03  0.12006473196E+03  0.10100000352E+00 0.  1.
    10030    2    1    2    0    0  0.00000000000E+00  0.00000000000E+00  0.90429912784E+03  0.11444285543E+04  0.70139846248E+03 0.  0.
        3    1    3    3  502    0 -0.11072815043E+03 -0.33079173207E+03  0.51111578914E+03  0.61880792934E+03  0.10100000352E+00 0.  1.
       -3    1    3    3    0  502  0.11072815043E+03  0.33079173207E+03  0.39318333870E+03  0.52562062491E+03  0.10100000352E+00 0. -1.
</event>
<event>
 5   0  0.3184443E-02  0.6948041E+03  0.7818609E-02  0.9726159E-01
        2   -1    0    0  501    0  0.00000000000E+00  0.00000000000E+00  0.95501948667E+03  0.95501948667E+03  0.25500000920E-02 0. -1.
       -2   -1    0    0    0  501  0.00000000000E+00  0.00000000000E+00 -0.12637247231E+03  0.12637247234E+03  0.25500000920E-02 0.  1.
    10030    2    1    2    0    0  0.00000000000E+00  0.00000000000E+00  0.82864701436E+03  0.10813919590E+04  0.69480406923E+03 0.  0.
        3    1    3    3  502    0  0.10746322023E+03  0.23125940289E+02  0.92723887784E+03  0.93373181353E+03  0.10100000352E+00 0. -1.
       -3    1    3    3    0  502 -0.10746322023E+03 -0.23125940289E+02 -0.98591863487E+02  0.14766014548E+03  0.10100000352E+00 0.  1.
</event>
<event>
 5   0  0.3184443E-02  0.6943492E+03  0.7818609E-02  0.9726945E-01
        2   -1    0    0  501    0  0.00000000000E+00  0.00000000000E+00  0.47716485146E+03  0.47716485147E+03  0.25500000920E-02 0.  1.
       -2   -1    0    0    0  501  0.00000000000E+00  0.00000000000E+00 -0.25259655247E+03  0.25259655248E+03  0.25500000920E-02 0. -1.
    10030    2    1    2    0    0  0.00000000000E+00  0.00000000000E+00  0.22456829900E+03  0.72976140395E+03  0.69434918145E+03 0.  0.
        3    1    3    3  502    0  0.14266819363E+03  0.24803208902E+03 -0.94354583879E+02  0.30129209807E+03  0.10100000352E+00 0. -1.
       -3    1    3    3    0  502 -0.14266819363E+03 -0.24803208902E+03  0.31892288287E+03  0.42846930588E+03  0.10100000352E+00 0.  1.
</event>
<event>
 5   0  0.1858013E-02  0.6854285E+03  0.7818609E-02  0.9742481E-01
        1   -1    0    0  501    0  0.00000000000E+00  0.00000000000E+00  0.67411527866E+03  0.67411527868E+03  0.50400001928E-02 0.  1.
       -1   -1    0    0    0  501  0.00000000000E+00  0.00000000000E+00 -0.17423289525E+03  0.17423289533E+03  0.50400001928E-02 0. -1.
    10030    2    1    2    0    0  0.00000000000E+00  0.00000000000E+00  0.49988238340E+03  0.84834817400E+03  0.68542849890E+03 0.  0.
        2    1    3    3  502    0  0.10115745324E+03  0.32126907914E+03  0.17160013816E+03  0.37801224713E+03  0.25500000920E-02 0.  1.
       -2    1    3    3    0  502 -0.10115745324E+03 -0.32126907914E+03  0.32828224524E+03  0.47033592687E+03  0.25500000920E-02 0. -1.
</event>
<event>
 5   0  0.1969818E-02  0.6989474E+03  0.7818609E-02  0.9719034E-01
        1   -1    0    0  501    0  0.00000000000E+00  0.00000000000E+00  0.43126776243E+03  0.43126776246E+03  0.50400001928E-02 0.  1.
       -1   -1    0    0    0  501  0.00000000000E+00  0.00000000000E+00 -0.28319269828E+03  0.28319269833E+03  0.50400001928E-02 0. -1.
    10030    2    1    2    0    0  0.00000000000E+00  0.00000000000E+00  0.14807506415E+03  0.71446046078E+03  0.69894744108E+03 0.  0.
        1    1    3    3  502    0 -0.10610118763E+03 -0.30234441461E+03 -0.68566062987E+02  0.32767500985E+03  0.50400001928E-02 0.  1.
       -1    1    3    3    0  502  0.10610118763E+03  0.30234441461E+03  0.21664112713E+03  0.38678545093E+03  0.50400001928E-02 0. -1.
</event>
<event>
 5   0  0.3113940E-02  0.7005720E+03  0.7818609E-02  0.9716254E-01
        2   -1    0    0  501    0  0.00000000000E+00  0.00000000000E+00  0.91273005479E+03  0.91273005479E+03  0.25500000920E-02 0.  1.
       -2   -1    0    0    0  501  0.00000000000E+00  0.00000000000E+00 -0.13443216954E+03  0.13443216957E+03  0.25500000920E-02 0. -1.
    10030    2    1    2    0    0  0.00000000000E+00  0.00000000000E+00  0.77829788524E+03  0.10471622244E+04  0.70057199912E+03 0.  0.
        5    1    3    3  502    0  0.13697807326E+03 -0.32070771358E+03  0.34044381845E+03  0.48738128157E+03  0.46999998093E+01 0.  1.
       -5    1    3    3    0  502 -0.13697807326E+03  0.32070771358E+03  0.43785406679E+03  0.55978094279E+03  0.46999998093E+01 0. -1.
</event>
<event>
 5   0  0.1951465E-02  0.7161526E+03  0.7818609E-02  0.9690001E-01
       -1   -1    0    0    0  501  0.00000000000E+00  0.00000000000E+00  0.11507008763E+04  0.11507008763E+04  0.50400001928E-02 0. -1.
        1   -1    0    0  501    0  0.00000000000E+00  0.00000000000E+00 -0.11142654858E+03  0.11142654870E+03  0.50400001928E-02 0.  1.
    10030    2    1    2    0    0  0.00000000000E+00  0.00000000000E+00  0.10392743277E+04  0.12621274250E+04  0.71615257361E+03 0.  0.
        4    1    3    3  502    0 -0.81929118502E+02  0.61845530939E+02 -0.84935548659E+02  0.13324004834E+03  0.12699999809E+01 0.  1.
       -4    1    3    3    0  502  0.81929118502E+02 -0.61845530939E+02  0.11242098763E+04  0.11288873766E+04  0.12699999809E+01 0. -1.
</event>
<event>
 5   0  0.1969818E-02  0.7039985E+03  0.7818609E-02  0.9710419E-01
       -1   -1    0    0    0  501  0.00000000000E+00  0.00000000000E+00  0.70413926982E+02  0.70413927162E+02  0.50400001928E-02 0.  1.
        1   -1    0    0  501    0  0.00000000000E+00  0.00000000000E+00 -0.17596442725E+04  0.17596442725E+04  0.50400001928E-02 0. -1.
    10030    2    1    2    0    0  0.00000000000E+00  0.00000000000E+00 -0.16892303455E+04  0.18300581996E+04  0.70399847581E+03 0.  0.
        1    1    3    3  502    0  0.17461748480E+03  0.10009821067E+03 -0.15952985485E+04  0.16079453898E+04  0.50400001928E-02 0. -1.
       -1    1    3    3    0  502 -0.17461748480E+03 -0.10009821067E+03 -0.93931797004E+02  0.22211280983E+03  0.50400001928E-02 0.  1.
</event>
<event>
 5   0  0.3183963E-02  0.7033056E+03  0.7818609E-02  0.9711596E-01
        2   -1    0    0  501    0  0.00000000000E+00  0.00000000000E+00  0.85996524961E+03  0.85996524961E+03  0.25500000920E-02 0. -1.
       -2   -1    0    0    0  501  0.00000000000E+00  0.00000000000E+00 -0.14379615595E+03  0.14379615597E+03  0.25500000920E-02 0.  1.
    10030    2    1    2    0    0  0.00000000000E+00  0.00000000000E+00  0.71616909366E+03  0.10037614056E+04  0.70330561538E+03 0.  0.
        4    1    3    3  502    0 -0.60630718847E+02  0.16827459365E+03 -0.74020905386E+02  0.19357977754E+03  0.12699999809E+01 0.  1.
       -4    1    3    3    0  502  0.60630718847E+02 -0.16827459365E+03  0.79018999904E+03  0.81018162805E+03  0.12699999809E+01 0. -1.
</event>
<event>
 5   0  0.1969818E-02  0.6995056E+03  0.7818609E-02  0.9718078E-01
        1   -1    0    0  501    0  0.00000000000E+00  0.00000000000E+00  0.93363972286E+03  0.93363972288E+03  0.50400001928E-02 0.  1.
       -1   -1    0    0    0  501  0.00000000000E+00  0.00000000000E+00 -0.13102164308E+03  0.13102164317E+03  0.50400001928E-02 0. -1.
    10030    2    1    2    0    0  0.00000000000E+00  0.00000000000E+00  0.80261807979E+03  0.10646613661E+04  0.69950556993E+03 0.  0.
        1    1    3    3  502    0  0.29895245260E+03 -0.17444583383E+03  0.32485737942E+03  0.47469593935E+03  0.50400001928E-02 0. -1.
       -1    1    3    3    0  502 -0.29895245260E+03  0.17444583383E+03  0.47776070037E+03  0.58996542670E+03  0.50400001928E-02 0.  1.
</event>
<event>
 5   0  0.1969818E-02  0.6940850E+03  0.7818609E-02  0.9727401E-01
        1   -1    0    0  501    0  0.00000000000E+00  0.00000000000E+00  0.17228886321E+04  0.17228886321E+04  0.50400001928E-02 0. -1.
       -1   -1    0    0    0  501  0.00000000000E+00  0.00000000000E+00 -0.69904985543E+02  0.69904985724E+02  0.50400001928E-02 0.  1.
    10030    2    1    2    0    0  0.00000000000E+00  0.00000000000E+00  0.16529836466E+04  0.17927936179E+04  0.69408502387E+03 0.  0.
        1    1    3    3  502    0 -0.25670614243E+02  0.26044133571E+03  0.23777057456E+03  0.35358664558E+03  0.50400001928E-02 0.  1.
       -1    1    3    3    0  502  0.25670614243E+02 -0.26044133571E+03  0.14152130720E+04  0.14392069723E+04  0.50400001928E-02 0. -1.
</event>
<event>
 5   0  0.1969818E-02  0.6999731E+03  0.7818609E-02  0.9717278E-01
        1   -1    0    0  501    0  0.00000000000E+00  0.00000000000E+00  0.86527922983E+03  0.86527922985E+03  0.50400001928E-02 0.  1.
       -1   -1    0    0    0  501  0.00000000000E+00  0.00000000000E+00 -0.14156192482E+03  0.14156192491E+03  0.50400001928E-02 0. -1.
    10030    2    1    2    0    0  0.00000000000E+00  0.00000000000E+00  0.72371730502E+03  0.10068411548E+04  0.69997312329E+03 0.  0.
        1    1    3    3  502    0  0.32425469396E+02  0.92834156267E+02 -0.12128309954E+03  0.15613834216E+03  0.50400001928E-02 0. -1.
       -1    1    3    3    0  502 -0.32425469396E+02 -0.92834156267E+02  0.84500040455E+03  0.85070281259E+03  0.50400001928E-02 0.  1.
</event>
<event>
 5   0  0.1839038E-02  0.6967688E+03  0.7818609E-02  0.9722774E-01
       -1   -1    0    0    0  501  0.00000000000E+00  0.00000000000E+00  0.10220892394E+04  0.10220892394E+04  0.50400001928E-02 0.  1.
        1   -1    0    0  501    0  0.00000000000E+00  0.00000000000E+00 -0.11874861083E+03  0.11874861094E+03  0.50400001928E-02 0. -1.
    10030    2    1    2    0    0  0.00000000000E+00  0.00000000000E+00  0.90334062853E+03  0.11408378503E+04  0.69676876333E+03 0.  0.
        5    1    3    3  502    0  0.34137284839E+03  0.52806669664E+02  0.37797932471E+03  0.51206877066E+03  0.46999998093E+01 0. -1.
       -5    1    3    3    0  502 -0.34137284839E+03 -0.52806669664E+02  0.52536130382E+03  0.62876907965E+03  0.46999998093E+01 0.  1.
</event>
<event>
 5   0  0.1839038E-02  0.7059782E+03  0.7818609E-02  0.9707063E-01
       -1   -1    0    0    0  501  0.00000000000E+00  0.00000000000E+00  0.77202942266E+02  0.77202942430E+02  0.50400001928E-02 0. -1.
        1   -1    0    0  501    0  0.00000000000E+00  0.00000000000E+00 -0.16139449251E+04  0.16139449251E+04  0.50400001928E-02 0.  1.
    10030    2    1    2    0    0  0.00000000000E+00  0.00000000000E+00 -0.15367419828E+04  0.16911478675E+04  0.70597817818E+03 0.  0.
        5    1    3    3  502    0  0.14038302612E+02  0.31756421874E+03 -0.40087861882E+03  0.51163450234E+03  0.46999998093E+01 0. -1.
       -5    1    3    3    0  502 -0.14038302612E+02 -0.31756421874E+03 -0.11358633640E+04  0.11795133652E+04  0.46999998093E+01 0.  1.
</event>
<event>
 5   0  0.1858013E-02  0.6986667E+03  0.7818609E-02  0.9719515E-01
        1   -1    0    0  501    0  0.00000000000E+00  0.00000000000E+00  0.16290946622E+04  0.16290946622E+04  0.50400001928E-02 0.  1.
       -1   -1    0    0    0  501  0.00000000000E+00  0.00000000000E+00 -0.74908957601E+02  0.74908957770E+02  0.50400001928E-02 0. -1.
    10030    2    1    2    0    0  0.00000000000E+00  0.00000000000E+00  0.15541857046E+04  0.17040036200E+04  0.69866668199E+03 0.  0.
        2    1    3    3  502    0 -0.32893571472E+03  0.17224246714E+02  0.10608744407E+04  0.11108330019E+04  0.25500000920E-02 0.  1.
       -2    1    3    3    0  502  0.32893571472E+03 -0.17224246714E+02  0.49331126388E+03  0.59317061810E+03  0.25500000920E-02 0. -1.
</event>
<event>
 5   0  0.1858013E-02  0.6981427E+03  0.7818609E-02  0.9720414E-01
       -1   -1    0    0    0  501  0.00000000000E+00  0.00000000000E+00  0.27575008510E+03  0.27575008515E+03  0.50400001928E-02 0. -1.
        1   -1    0    0  501    0  0.00000000000E+00  0.00000000000E+00 -0.44188856484E+03  0.44188856486E+03  0.50400001928E-02 0.  1.
    10030    2    1    2    0    0  0.00000000000E+00  0.00000000000E+00 -0.16613847973E+03  0.71763865001E+03  0.69814270572E+03 0.  0.
        2    1    3    3  502    0 -0.18053157789E+03 -0.18361069760E+03 -0.32533334281E+03  0.41490519741E+03  0.25500000920E-02 0.  1.
       -2    1    3    3    0  502  0.18053157789E+03  0.18361069760E+03  0.15919486308E+03  0.30273345260E+03  0.25500000920E-02 0. -1.
</event>
<event>
 5   0  0.1858013E-02  0.7016292E+03  0.7818609E-02  0.9714450E-01
       -1   -1    0    0    0  501  0.00000000000E+00  0.00000000000E+00  0.23287783148E+03  0.23287783154E+03  0.50400001928E-02 0. -1.
        1   -1    0    0  501    0  0.00000000000E+00  0.00000000000E+00 -0.52847836759E+03  0.52847836761E+03  0.50400001928E-02 0.  1.
    10030    2    1    2    0    0  0.00000000000E+00  0.00000000000E+00 -0.29560053611E+03  0.76135619915E+03  0.70162923616E+03 0.  0.
        2    1    3    3  502    0 -0.29179324454E+03  0.70417133728E+02  0.49230145630E+02  0.30418000843E+03  0.25500000920E-02 0. -1.
       -2    1    3    3    0  502  0.29179324454E+03 -0.70417133728E+02 -0.34483068174E+03  0.45717619072E+03  0.25500000920E-02 0.  1.
</event>
<event>
 5   0  0.3113940E-02  0.7071111E+03  0.7818609E-02  0.9705148E-01
        2   -1    0    0  501    0  0.00000000000E+00  0.00000000000E+00  0.12151224460E+04  0.12151224460E+04  0.25500000920E-02 0.  1.
       -2   -1    0    0    0  501  0.00000000000E+00  0.00000000000E+00 -0.10287155722E+03  0.10287155725E+03  0.25500000920E-02 0. -1.
    10030    2    1    2    0    0  0.00000000000E+00  0.00000000000E+00  0.11122508888E+04  0.13179940033E+04  0.70711113202E+03 0.  0.
        5    1    3    3  502    0 -0.13407670867E+03  0.26905774894E+03  0.20936331976E+03  0.36636556297E+03  0.46999998093E+01 0. -1.
       -5    1    3    3    0  502  0.13407670867E+03 -0.26905774894E+03  0.90288756904E+03  0.95162844031E+03  0.46999998093E+01 0.  1.
</event>
<event>
 5   0  0.1969818E-02  0.6930063E+03  0.7818609E-02  0.9729268E-01
        1   -1    0    0  501    0  0.00000000000E+00  0.00000000000E+00  0.57502487785E+03  0.57502487788E+03  0.50400001928E-02 0.  1.
       -1   -1    0    0    0  501  0.00000000000E+00  0.00000000000E+00 -0.20879868870E+03  0.20879868876E+03  0.50400001928E-02 0. -1.
    10030    2    1    2    0    0  0.00000000000E+00  0.00000000000E+00  0.36622618915E+03  0.78382356664E+03  0.69300632176E+03 0.  0.
        1    1    3    3  502    0  0.17429471153E+03  0.15106570052E+03  0.47558245582E+03  0.52856235645E+03  0.50400001928E-02 0.  1.
       -1    1    3    3    0  502 -0.17429471153E+03 -0.15106570052E+03 -0.10935626667E+03  0.25526121019E+03  0.50400001928E-02 0. -1.
</event>
<event>
 5   0  0.1233912E-02  0.6971738E+03  0.7818609E-02  0.9722078E-01
        3   -1    0    0  501    0  0.00000000000E+00  0.00000000000E+00  0.16585371949E+03  0.16585375024E+03  0.10100000352E+00 0.  1.
       -3   -1    0    0    0  501  0.00000000000E+00  0.00000000000E+00 -0.73265058853E+03  0.73265059549E+03  0.10100000352E+00 0. -1.
    10030    2    1    2    0    0  0.00000000000E+00  0.00000000000E+00 -0.56679686904E+03  0.89850434573E+03  0.69717384384E+03 0.  0.
        2    1    3    3  502    0 -0.21051823756E+03 -0.66635664451E+02 -0.63102209748E+03  0.66854104410E+03  0.25500000920E-02 0. -1.
       -2    1    3    3    0  502  0.21051823756E+03  0.66635664451E+02  0.64225228445E+02  0.22996330163E+03  0.25500000920E-02 0.  1.
</event>
<event>
 5   0  0.3113940E-02  0.7019832E+03  0.7818609E-02  0.9713847E-01
        2   -1    0    0  501    0  0.00000000000E+00  0.00000000000E+00  0.11714390858E+04  0.11714390858E+04  0.25500000920E-02 0.  1.
       -2   -1    0    0    0  501  0.00000000000E+00  0.00000000000E+00 -0.10516561527E+03  0.10516561531E+03  0.25500000920E-02 0. -1.
    10030    2    1    2    0    0  0.00000000000E+00  0.00000000000E+00  0.10662734706E+04  0.12766047011E+04  0.70198322555E+03 0.  0.
        5    1    3    3  502    0 -0.10953998407E+03  0.43073655494E+01  0.11394472593E+04  0.11447181785E+04  0.46999998093E+01 0.  1.
       -5    1    3    3    0  502  0.10953998407E+03 -0.43073655494E+01 -0.73173788704E+02  0.13188652266E+03  0.46999998093E+01 0. -1.
</event>
<event>
 5   0  0.1951465E-02  0.7154297E+03  0.7818609E-02  0.9691203E-01
        1   -1    0    0  501    0  0.00000000000E+00  0.00000000000E+00  0.19951779126E+03  0.19951779133E+03  0.50400001928E-02 0. -1.
       -1   -1    0    0    0  501  0.00000000000E+00  0.00000000000E+00 -0.64134595869E+03  0.64134595871E+03  0.50400001928E-02 0.  1.
    10030    2    1    2    0    0  0.00000000000E+00  0.00000000000E+00 -0.44182816743E+03  0.84086375003E+03  0.71542974259E+03 0.  0.
        4    1    3    3  502    0 -0.29410533158E+03  0.19092105669E+03 -0.30410132256E+03  0.46414224461E+03  0.12699999809E+01 0. -1.
       -4    1    3    3    0  502  0.29410533158E+03 -0.19092105669E+03 -0.13772684487E+03  0.37672150542E+03  0.12699999809E+01 0.  1.
</event>
<event>
 5   0  0.3183963E-02  0.6986760E+03  0.7818609E-02  0.9719499E-01
       -2   -1    0    0    0  501  0.00000000000E+00  0.00000000000E+00  0.72332622728E+03  0.72332622728E+03  0.25500000920E-02 0.  1.
        2   -1    0    0  501    0  0.00000000000E+00  0.00000000000E+00 -0.16871644494E+03  0.16871644496E+03  0.25500000920E-02 0. -1.
    10030    2    1    2    0    0  0.00000000000E+00  0.00000000000E+00  0.55460978234E+03  0.89204267224E+03  0.69867597528E+03 0.  0.
        4    1    3    3  502    0 -0.26111679459E+02  0.19082010555E+02  0.72140779626E+03  0.72213348097E+03  0.12699999809E+01 0.  1.
       -4    1    3    3    0  502  0.26111679459E+02 -0.19082010555E+02 -0.16679801392E+03  0.16990919127E+03  0.12699999809E+01 0. -1.
</event>
<event>
 5   0  0.3290656E-02  0.7139853E+03  0.7818609E-02  0.9693610E-01
       -2   -1    0    0    0  501  0.00000000000E+00  0.00000000000E+00  0.25145220097E+03  0.25145220099E+03  0.25500000920E-02 0. -1.
        2   -1    0    0  501    0  0.00000000000E+00  0.00000000000E+00 -0.50683099647E+03  0.50683099647E+03  0.25500000920E-02 0.  1.
    10030    2    1    2    0    0  0.00000000000E+00  0.00000000000E+00 -0.25537879549E+03  0.75828319746E+03  0.71398534884E+03 0.  0.
        1    1    3    3  502    0 -0.33307813032E+03 -0.45666097668E+02 -0.16753572083E+00  0.33619408304E+03  0.50400001928E-02 0.  1.
       -1    1    3    3    0  502  0.33307813032E+03  0.45666097668E+02 -0.25521125977E+03  0.42208911442E+03  0.50400001928E-02 0. -1.
</event>
<event>
 5   0  0.1884172E-02  0.7034726E+03  0.7818609E-02  0.9711312E-01
        1   -1    0    0  501    0  0.00000000000E+00  0.00000000000E+00  0.35882592733E+03  0.35882592737E+03  0.50400001928E-02 0.  1.
       -1   -1    0    0    0  501  0.00000000000E+00  0.00000000000E+00 -0.34478679017E+03  0.34478679021E+03  0.50400001928E-02 0. -1.
    10030    2    1    2    0    0  0.00000000000E+00  0.00000000000E+00  0.14039137158E+02  0.70361271758E+03  0.70347264266E+03 0.  0.
        3    1    3    3  502    0  0.94306525188E+02  0.33834094263E+03 -0.11695527846E+02  0.35143293773E+03  0.10100000352E+00 0.  1.
       -3    1    3    3    0  502 -0.94306525188E+02 -0.33834094263E+03  0.25734665004E+02  0.35217977985E+03  0.10100000352E+00 0. -1.
</event>
<event>
 5   0  0.3184443E-02  0.6988337E+03  0.7818609E-02  0.9719229E-01
       -2   -1    0    0    0  501  0.00000000000E+00  0.00000000000E+00  0.91822141193E+02  0.91822141228E+02  0.25500000920E-02 0.  1.
        2   -1    0    0  501    0  0.00000000000E+00  0.00000000000E+00 -0.13296590600E+04  0.13296590600E+04  0.25500000920E-02 0. -1.
    10030    2    1    2    0    0  0.00000000000E+00  0.00000000000E+00 -0.12378369188E+04  0.14214812012E+04  0.69883371976E+03 0.  0.
        3    1    3    3  502    0  0.14738886811E+03  0.31344536808E+03 -0.71258882886E+03  0.79230948905E+03  0.10100000352E+00 0. -1.
       -3    1    3    3    0  502 -0.14738886811E+03 -0.31344536808E+03 -0.52524808991E+03  0.62917171215E+03  0.10100000352E+00 0.  1.
</event>
<event>
 5   0  0.1951465E-02  0.7002543E+03  0.7818609E-02  0.9716797E-01
       -1   -1    0    0    0  501  0.00000000000E+00  0.00000000000E+00  0.55504507475E+03  0.55504507477E+03  0.50400001928E-02 0. -1.
        1   -1    0    0  501    0  0.00000000000E+00  0.00000000000E+00 -0.22086319441E+03  0.22086319447E+03  0.50400001928E-02 0.  1.
    10030    2    1    2    0    0  0.00000000000E+00  0.00000000000E+00  0.33418188034E+03  0.77590826924E+03  0.70025432032E+03 0.  0.
        4    1    3    3  502    0  0.71055108542E+01 -0.33963383117E+03  0.26101822713E+03  0.42840839786E+03  0.12699999809E+01 0. -1.
       -4    1    3    3    0  502 -0.71055108542E+01  0.33963383117E+03  0.73163653203E+02  0.34749987138E+03  0.12699999809E+01 0.  1.
</event>
<event>
 5   0  0.2933851E-02  0.6950216E+03  0.7818609E-02  0.9725784E-01
        2   -1    0    0  501    0  0.00000000000E+00  0.00000000000E+00  0.75626495972E+03  0.75626495972E+03  0.25500000920E-02 0. -1.
       -2   -1    0    0    0  501  0.00000000000E+00  0.00000000000E+00 -0.15968446780E+03  0.15968446782E+03  0.25500000920E-02 0.  1.
    10030    2    1    2    0    0  0.00000000000E+00  0.00000000000E+00  0.59658049192E+03  0.91594942754E+03  0.69502163309E+03 0.  0.
        2    1    3    3  502    0 -0.75142821527E+02 -0.22065452697E+03  0.63795596342E+03  0.67920738745E+03  0.25500000920E-02 0. -1.
       -2    1    3    3    0  502  0.75142821527E+02  0.22065452697E+03 -0.41375471491E+02  0.23674204009E+03  0.25500000920E-02 0.  1.
</event>
<event>
 5   0  0.1951465E-02  0.6982300E+03  0.7818609E-02  0.9720264E-01
       -1   -1    0    0    0  501  0.00000000000E+00  0.00000000000E+00  0.17077954152E+03  0.17077954159E+03  0.50400001928E-02 0. -1.
        1   -1    0    0  501    0  0.00000000000E+00  0.00000000000E+00 -0.71367616116E+03  0.71367616118E+03  0.50400001928E-02 0.  1.
    10030    2    1    2    0    0  0.00000000000E+00  0.00000000000E+00 -0.54289661964E+03  0.88445570277E+03  0.69823001264E+03 0.  0.
        4    1    3    3  502    0 -0.33764001792E+03 -0.78652915660E+02 -0.21933408664E+03  0.41023909773E+03  0.12699999809E+01 0. -1.
       -4    1    3    3    0  502  0.33764001792E+03  0.78652915660E+02 -0.32356253300E+03  0.47421660505E+03  0.12699999809E+01 0.  1.
</event>
<event>
 5   0  0.1951465E-02  0.7088673E+03  0.7818609E-02  0.9702187E-01
        1   -1    0    0  501    0  0.00000000000E+00  0.00000000000E+00  0.40084848815E+03  0.40084848819E+03  0.50400001928E-02 0. -1.
       -1   -1    0    0    0  501  0.00000000000E+00  0.00000000000E+00 -0.31339322212E+03  0.31339322216E+03  0.50400001928E-02 0.  1.
    10030    2    1    2    0    0  0.00000000000E+00  0.00000000000E+00  0.87455266030E+02  0.71424171035E+03  0.70886726349E+03 0.  0.
        4    1    3    3  502    0 -0.14730746718E+03 -0.22968080080E+03  0.27164793709E+03  0.38502853760E+03  0.12699999809E+01 0. -1.
       -4    1    3    3    0  502  0.14730746718E+03  0.22968080080E+03 -0.18419267106E+03  0.32921317275E+03  0.12699999809E+01 0.  1.
</event>
<event>
 5   0  0.1858013E-02  0.6488189E+03  0.7818609E-02  0.9808998E-01
        1   -1    0    0  501    0  0.00000000000E+00  0.00000000000E+00  0.66004807491E+03  0.66004807492E+03  0.50400001928E-02 0.  1.
       -1   -1    0    0    0  501  0.00000000000E+00  0.00000000000E+00 -0.15944519508E+03  0.15944519516E+03  0.50400001928E-02 0. -1.
    10030    2    1    2    0    0  0.00000000000E+00  0.00000000000E+00  0.50060287982E+03  0.81949327009E+03  0.64881890881E+03 0.  0.
        2    1    3    3  502    0  0.31140584177E+03  0.20692007936E+02  0.36213512335E+03  0.47806234431E+03  0.25500000920E-02 0.  1.
       -2    1    3    3    0  502 -0.31140584177E+03 -0.20692007936E+02  0.13846775648E+03  0.34143092577E+03  0.25500000920E-02 0. -1.
</event>
<event>
 5   0  0.2933851E-02  0.6896099E+03  0.7818609E-02  0.9735167E-01
        2   -1    0    0  501    0  0.00000000000E+00  0.00000000000E+00  0.55683679769E+03  0.55683679770E+03  0.25500000920E-02 0.  1.
       -2   -1    0    0    0  501  0.00000000000E+00  0.00000000000E+00 -0.21351043899E+03  0.21351043901E+03  0.25500000920E-02 0. -1.
    10030    2    1    2    0    0  0.00000000000E+00  0.00000000000E+00  0.34332635870E+03  0.77034723671E+03  0.68960994521E+03 0.  0.
        2    1    3    3  502    0 -0.50207680441E+02 -0.24240956419E+03 -0.96452138673E+02  0.26568067873E+03  0.25500000920E-02 0. -1.
       -2    1    3    3    0  502  0.50207680441E+02  0.24240956419E+03  0.43977849737E+03  0.50466655798E+03  0.25500000920E-02 0.  1.
</event>
<event>
 5   0  0.3290656E-02  0.7032304E+03  0.7818609E-02  0.9711724E-01
        2   -1    0    0  501    0  0.00000000000E+00  0.00000000000E+00  0.12078913296E+04  0.12078913296E+04  0.25500000920E-02 0. -1.
       -2   -1    0    0    0  501  0.00000000000E+00  0.00000000000E+00 -0.10235461850E+03  0.10235461853E+03  0.25500000920E-02 0.  1.
    10030    2    1    2    0    0  0.00000000000E+00  0.00000000000E+00  0.11055367111E+04  0.13102459481E+04  0.70323042098E+03 0.  0.
        1    1    3    3  502    0 -0.32529796571E+03  0.12945423629E+03  0.61331718198E+03  0.70621181775E+03  0.50400001928E-02 0. -1.
       -1    1    3    3    0  502  0.32529796571E+03 -0.12945423629E+03  0.49221952913E+03  0.60403413038E+03  0.50400001928E-02 0.  1.
</event>
<event>
 5   0  0.1233912E-02  0.7099828E+03  0.7818609E-02  0.9700311E-01
        4   -1    0    0  501    0  0.00000000000E+00  0.00000000000E+00  0.12484183759E+03  0.12484829720E+03  0.12699999809E+01 0. -1.
       -4   -1    0    0    0  501  0.00000000000E+00  0.00000000000E+00 -0.10093954308E+04  0.10093962298E+04  0.12699999809E+01 0.  1.
    10030    2    1    2    0    0  0.00000000000E+00  0.00000000000E+00 -0.88455359326E+03  0.11342445270E+04  0.70998280800E+03 0.  0.
        4    1    3    3  502    0 -0.15460055540E+03 -0.16145756955E+03 -0.17208570197E+01  0.22354966505E+03  0.12699999809E+01 0. -1.
       -4    1    3    3    0  502  0.15460055540E+03  0.16145756955E+03 -0.88283273624E+03  0.91069486194E+03  0.12699999809E+01 0.  1.
</event>
<event>
 5   0  0.3290656E-02  0.7053021E+03  0.7818609E-02  0.9708208E-01
        2   -1    0    0  501    0  0.00000000000E+00  0.00000000000E+00  0.18273622610E+04  0.18273622610E+04  0.25500000920E-02 0. -1.
       -2   -1    0    0    0  501  0.00000000000E+00  0.00000000000E+00 -0.68055888756E+02  0.68055888804E+02  0.25500000920E-02 0.  1.
    10030    2    1    2    0    0  0.00000000000E+00  0.00000000000E+00  0.17593063722E+04  0.18954181498E+04  0.70530209923E+03 0.  0.
        1    1    3    3  502    0 -0.39691755902E+02 -0.23101049068E+03  0.17158220823E+03  0.29048534644E+03  0.50400001928E-02 0.  1.
       -1    1    3    3    0  502  0.39691755902E+02  0.23101049068E+03  0.15877241640E+04  0.16049328033E+04  0.50400001928E-02 0. -1.
</event>
<event>
 5   0  0.1969818E-02  0.6947758E+03  0.7818609E-02  0.9726208E-01
        1   -1    0    0  501    0  0.00000000000E+00  0.00000000000E+00  0.16428433442E+03  0.16428433449E+03  0.50400001928E-02 0.  1.
       -1   -1    0    0    0  501  0.00000000000E+00  0.00000000000E+00 -0.73456996446E+03  0.73456996448E+03  0.50400001928E-02 0. -1.
    10030    2    1    2    0    0  0.00000000000E+00  0.00000000000E+00 -0.57028563005E+03  0.89885429898E+03  0.69477575587E+03 0.  0.
        1    1    3    3  502    0 -0.14300987348E+03 -0.23928596502E+03 -0.16966167319E+02  0.27928023171E+03  0.50400001928E-02 0.  1.
       -1    1    3    3    0  502  0.14300987348E+03  0.23928596502E+03 -0.55331946273E+03  0.61957406726E+03  0.50400001928E-02 0. -1.
</event>
<event>
 5   0  0.3113940E-02  0.6978699E+03  0.7818609E-02  0.9720882E-01
       -2   -1    0    0    0  501  0.00000000000E+00  0.00000000000E+00  0.16874163888E+03  0.16874163890E+03  0.25500000920E-02 0. -1.
        2   -1    0    0  501    0  0.00000000000E+00  0.00000000000E+00 -0.72155045054E+03  0.72155045055E+03  0.25500000920E-02 0.  1.
    10030    2    1    2    0    0  0.00000000000E+00  0.00000000000E+00 -0.55280881166E+03  0.89029208945E+03  0.69786991788E+03 0.  0.
        5    1    3    3  502    0 -0.20202800425E+03  0.50165494143E+02 -0.63361190385E+03  0.66694679398E+03  0.46999998093E+01 0.  1.
       -5    1    3    3    0  502  0.20202800425E+03 -0.50165494143E+02  0.80803092186E+02  0.22334529547E+03  0.46999998093E+01 0. -1.
</event>
<event>
 5   0  0.1233912E-02  0.7000405E+03  0.7818609E-02  0.9717163E-01
       -3   -1    0    0    0  501  0.00000000000E+00  0.00000000000E+00  0.24289618068E+03  0.24289620168E+03  0.10100000352E+00 0.  1.
        3   -1    0    0  501    0  0.00000000000E+00  0.00000000000E+00 -0.50438906205E+03  0.50438907217E+03  0.10100000352E+00 0. -1.
    10030    2    1    2    0    0  0.00000000000E+00  0.00000000000E+00 -0.26149288137E+03  0.74728527385E+03  0.70004053704E+03 0.  0.
        4    1    3    3  502    0  0.50873753070E+02  0.33795869167E+03 -0.50093744370E+02  0.34542034125E+03  0.12699999809E+01 0.  1.
       -4    1    3    3    0  502 -0.50873753070E+02 -0.33795869167E+03 -0.21139913700E+03  0.40186493260E+03  0.12699999809E+01 0. -1.
</event>
<event>
 5   0  0.3183963E-02  0.7105861E+03  0.7818609E-02  0.9699298E-01
        2   -1    0    0  501    0  0.00000000000E+00  0.00000000000E+00  0.24817008396E+03  0.24817008397E+03  0.25500000920E-02 0. -1.
       -2   -1    0    0    0  501  0.00000000000E+00  0.00000000000E+00 -0.50865586220E+03  0.50865586220E+03  0.25500000920E-02 0.  1.
    10030    2    1    2    0    0  0.00000000000E+00  0.00000000000E+00 -0.26048577824E+03  0.75682594617E+03  0.71058614688E+03 0.  0.
        4    1    3    3  502    0  0.26673513167E+03 -0.18387835021E+03 -0.28558541010E+03  0.43187905426E+03  0.12699999809E+01 0. -1.
       -4    1    3    3    0  502 -0.26673513167E+03  0.18387835021E+03  0.25099631869E+02  0.32494689191E+03  0.12699999809E+01 0.  1.
</event>
<event>
 5   0  0.3183963E-02  0.7033977E+03  0.7818609E-02  0.9711439E-01
       -2   -1    0    0    0  501  0.00000000000E+00  0.00000000000E+00  0.51343362158E+02  0.51343362221E+02  0.25500000920E-02 0. -1.
        2   -1    0    0  501    0  0.00000000000E+00  0.00000000000E+00 -0.24091153947E+04  0.24091153947E+04  0.25500000920E-02 0.  1.
    10030    2    1    2    0    0  0.00000000000E+00  0.00000000000E+00 -0.23577720326E+04  0.24604587569E+04  0.70339770904E+03 0.  0.
        4    1    3    3  502    0 -0.31887639042E+03  0.40198553089E+02 -0.16784018523E+04  0.17088980270E+04  0.12699999809E+01 0.  1.
       -4    1    3    3    0  502  0.31887639042E+03 -0.40198553089E+02 -0.67937018026E+03  0.75156072992E+03  0.12699999809E+01 0. -1.
</event>
<event>
 5   0  0.1858013E-02  0.7335215E+03  0.7818609E-02  0.9661563E-01
       -1   -1    0    0    0  501  0.00000000000E+00  0.00000000000E+00  0.10827758527E+04  0.10827758527E+04  0.50400001928E-02 0. -1.
        1   -1    0    0  501    0  0.00000000000E+00  0.00000000000E+00 -0.12423018132E+03  0.12423018142E+03  0.50400001928E-02 0.  1.
    10030    2    1    2    0    0  0.00000000000E+00  0.00000000000E+00  0.95854567137E+03  0.12070060341E+04  0.73352148045E+03 0.  0.
        2    1    3    3  502    0  0.18469834794E+03 -0.27973202732E+03  0.23437608854E+03  0.40901789414E+03  0.25500000920E-02 0.  1.
       -2    1    3    3    0  502 -0.18469834794E+03  0.27973202732E+03  0.72416958282E+03  0.79798813997E+03  0.25500000920E-02 0. -1.
</event>
<event>
 5   0  0.1969818E-02  0.6988005E+03  0.7818609E-02  0.9719286E-01
       -1   -1    0    0    0  501  0.00000000000E+00  0.00000000000E+00  0.95867852228E+02  0.95867852360E+02  0.50400001928E-02 0.  1.
        1   -1    0    0  501    0  0.00000000000E+00  0.00000000000E+00 -0.12734250932E+04  0.12734250932E+04  0.50400001928E-02 0. -1.
    10030    2    1    2    0    0  0.00000000000E+00  0.00000000000E+00 -0.11775572410E+04  0.13692929456E+04  0.69880048299E+03 0.  0.
        1    1    3    3  502    0 -0.75904866895E+02  0.20189916582E+03 -0.11273915945E+04  0.11478399842E+04  0.50400001928E-02 0. -1.
       -1    1    3    3    0  502  0.75904866895E+02 -0.20189916582E+03 -0.50165646455E+02  0.22145296134E+03  0.50400001928E-02 0.  1.
</event>
<event>
 5   0  0.1839038E-02  0.7018137E+03  0.7818609E-02  0.9714136E-01
       -1   -1    0    0    0  501  0.00000000000E+00  0.00000000000E+00  0.62481370963E+02  0.62481371166E+02  0.50400001928E-02 0.  1.
        1   -1    0    0  501    0  0.00000000000E+00  0.00000000000E+00 -0.19707572306E+04  0.19707572306E+04  0.50400001928E-02 0. -1.
    10030    2    1    2    0    0  0.00000000000E+00  0.00000000000E+00 -0.19082758596E+04  0.20332386018E+04  0.70181368985E+03 0.  0.
        5    1    3    3  502    0  0.23588724727E+03 -0.25729281098E+03 -0.85084676584E+03  0.91967640664E+03  0.46999998093E+01 0.  1.
       -5    1    3    3    0  502 -0.23588724727E+03  0.25729281098E+03 -0.10574290938E+04  0.11135621951E+04  0.46999998093E+01 0. -1.
</event>
<event>
 5   0  0.3183963E-02  0.6998113E+03  0.7818609E-02  0.9717555E-01
       -2   -1    0    0    0  501  0.00000000000E+00  0.00000000000E+00  0.25030141819E+03  0.25030141820E+03  0.25500000920E-02 0.  1.
        2   -1    0    0  501    0  0.00000000000E+00  0.00000000000E+00 -0.48914616544E+03  0.48914616544E+03  0.25500000920E-02 0. -1.
    10030    2    1    2    0    0  0.00000000000E+00  0.00000000000E+00 -0.23884474724E+03  0.73944758365E+03  0.69981134292E+03 0.  0.
        4    1    3    3  502    0  0.90526259969E+02 -0.26147812607E+03 -0.34571711538E+03  0.44281796590E+03  0.12699999809E+01 0. -1.
       -4    1    3    3    0  502 -0.90526259969E+02  0.26147812607E+03  0.10687236813E+03  0.29662961775E+03  0.12699999809E+01 0.  1.
</event>
<event>
 5   0  0.3113940E-02  0.7032966E+03  0.7818609E-02  0.9711611E-01
        2   -1    0    0  501    0  0.00000000000E+00  0.00000000000E+00  0.47815293281E+03  0.47815293282E+03  0.25500000920E-02 0. -1.
       -2   -1    0    0    0  501  0.00000000000E+00  0.00000000000E+00 -0.25861289226E+03  0.25861289227E+03  0.25500000920E-02 0.  1.
    10030    2    1    2    0    0  0.00000000000E+00  0.00000000000E+00  0.21954004055E+03  0.73676582509E+03  0.70329656022E+03 0.  0.
        5    1    3    3  502    0  0.45205073305E+02  0.30923587023E+03 -0.59031993351E+02  0.31808361845E+03  0.46999998093E+01 0. -1.
       -5    1    3    3    0  502 -0.45205073305E+02 -0.30923587023E+03  0.27857203390E+03  0.41868220664E+03  0.46999998093E+01 0.  1.
</event>
<event>
 5   0  0.3290656E-02  0.7093089E+03  0.7818609E-02  0.9701444E-01
       -2   -1    0    0    0  501  0.00000000000E+00  0.00000000000E+00  0.91652102698E+03  0.91652102699E+03  0.25500000920E-02 0. -1.
        2   -1    0    0  501    0  0.00000000000E+00  0.00000000000E+00 -0.13723610527E+03  0.13723610529E+03  0.25500000920E-02 0.  1.
    10030    2    1    2    0    0  0.00000000000E+00  0.00000000000E+00  0.77928492172E+03  0.10537571323E+04  0.70930889224E+03 0.  0.
        1    1    3    3  502    0  0.18284339826E+03 -0.25667934106E+03  0.14796781440E+03  0.34815293556E+03  0.50400001928E-02 0.  1.
       -1    1    3    3    0  502 -0.18284339826E+03  0.25667934106E+03  0.63131710732E+03  0.70560419672E+03  0.50400001928E-02 0. -1.
</event>
<event>
 5   0  0.3290656E-02  0.6856543E+03  0.7818609E-02  0.9742085E-01
       -2   -1    0    0    0  501  0.00000000000E+00  0.00000000000E+00  0.18002145241E+03  0.18002145243E+03  0.25500000920E-02 0.  1.
        2   -1    0    0  501    0  0.00000000000E+00  0.00000000000E+00 -0.65286919482E+03  0.65286919483E+03  0.25500000920E-02 0. -1.
    10030    2    1    2    0    0  0.00000000000E+00  0.00000000000E+00 -0.47284774241E+03  0.83289064726E+03  0.68565431727E+03 0.  0.
        1    1    3    3  502    0 -0.82179985823E+01  0.30283495561E+03 -0.41482328787E+02  0.30577333021E+03  0.50400001928E-02 0.  1.
       -1    1    3    3    0  502  0.82179985823E+01 -0.30283495561E+03 -0.43136541362E+03  0.52711731705E+03  0.50400001928E-02 0. -1.
</event>
<event>
 5   0  0.1839038E-02  0.6939784E+03  0.7818609E-02  0.9727586E-01
       -1   -1    0    0    0  501  0.00000000000E+00  0.00000000000E+00  0.36005380888E+03  0.36005380892E+03  0.50400001928E-02 0.  1.
        1   -1    0    0  501    0  0.00000000000E+00  0.00000000000E+00 -0.33439867789E+03  0.33439867793E+03  0.50400001928E-02 0. -1.
    10030    2    1    2    0    0  0.00000000000E+00  0.00000000000E+00  0.25655130990E+02  0.69445248685E+03  0.69397843680E+03 0.  0.
        5    1    3    3  502    0  0.10139425313E+03 -0.76527457695E+02 -0.31025855872E+03  0.33529048541E+03  0.46999998093E+01 0. -1.
       -5    1    3    3    0  502 -0.10139425313E+03  0.76527457695E+02  0.33591368971E+03  0.35916200144E+03  0.46999998093E+01 0.  1.
</event>
<event>
 5   0  0.1839038E-02  0.7104119E+03  0.7818609E-02  0.9699590E-01
       -1   -1    0    0    0  501  0.00000000000E+00  0.00000000000E+00  0.64785376167E+03  0.64785376169E+03  0.50400001928E-02 0. -1.
        1   -1    0    0  501    0  0.00000000000E+00  0.00000000000E+00 -0.19475267912E+03  0.19475267919E+03  0.50400001928E-02 0.  1.
    10030    2    1    2    0    0  0.00000000000E+00  0.00000000000E+00  0.45310108255E+03  0.84260644088E+03  0.71041186871E+03 0.  0.
        5    1    3    3  502    0 -0.13462325768E+03  0.15941435109E+03 -0.11435829689E+03  0.23798375345E+03  0.46999998093E+01 0.  1.
       -5    1    3    3    0  502  0.13462325768E+03 -0.15941435109E+03  0.56745937944E+03  0.60462268743E+03  0.46999998093E+01 0. -1.
</event>
<event>
 5   0  0.3183963E-02  0.6897317E+03  0.7818609E-02  0.9734955E-01
       -2   -1    0    0    0  501  0.00000000000E+00  0.00000000000E+00  0.16216632610E+03  0.16216632612E+03  0.25500000920E-02 0. -1.
        2   -1    0    0  501    0  0.00000000000E+00  0.00000000000E+00 -0.73339796327E+03  0.73339796327E+03  0.25500000920E-02 0.  1.
    10030    2    1    2    0    0  0.00000000000E+00  0.00000000000E+00 -0.57123163717E+03  0.89556428939E+03  0.68973169648E+03 0.  0.
        4    1    3    3  502    0 -0.11219984791E+03 -0.29613701534E+03 -0.46291088209E+03  0.56086900020E+03  0.12699999809E+01 0. -1.
       -4    1    3    3    0  502  0.11219984791E+03  0.29613701534E+03 -0.10832075508E+03  0.33469528919E+03  0.12699999809E+01 0.  1.
</event>
<event>
 5   0  0.1951465E-02  0.7028871E+03  0.7818609E-02  0.9712308E-01
        1   -1    0    0  501    0  0.00000000000E+00  0.00000000000E+00  0.13039109601E+03  0.13039109611E+03  0.50400001928E-02 0. -1.
       -1   -1    0    0    0  501  0.00000000000E+00  0.00000000000E+00 -0.94724690108E+03  0.94724690109E+03  0.50400001928E-02 0.  1.
    10030    2    1    2    0    0  0.00000000000E+00  0.00000000000E+00 -0.81685580506E+03  0.10776379972E+04  0.70288707965E+03 0.  0.
        4    1    3    3  502    0  0.67174688321E+02 -0.32475084943E+03 -0.58679831486E+03  0.67402479789E+03  0.12699999809E+01 0.  1.
       -4    1    3    3    0  502 -0.67174688321E+02  0.32475084943E+03 -0.23005749020E+03  0.40361319931E+03  0.12699999809E+01 0. -1.
</event>
<event>
 5   0  0.3183963E-02  0.6860371E+03  0.7818609E-02  0.9741413E-01
        2   -1    0    0  501    0  0.00000000000E+00  0.00000000000E+00  0.13997853282E+04  0.13997853282E+04  0.25500000920E-02 0.  1.
       -2   -1    0    0    0  501  0.00000000000E+00  0.00000000000E+00 -0.84056970343E+02  0.84056970381E+02  0.25500000920E-02 0. -1.
    10030    2    1    2    0    0  0.00000000000E+00  0.00000000000E+00  0.13157283578E+04  0.14838422986E+04  0.68603706561E+03 0.  0.
        4    1    3    3  502    0 -0.30459838313E+03  0.14292541723E+03  0.80218533159E+03  0.86989123976E+03  0.12699999809E+01 0. -1.
       -4    1    3    3    0  502  0.30459838313E+03 -0.14292541723E+03  0.51354302624E+03  0.61395105880E+03  0.12699999809E+01 0.  1.
</event>
<event>
 5   0  0.1884172E-02  0.6970869E+03  0.7818609E-02  0.9722227E-01
       -1   -1    0    0    0  501  0.00000000000E+00  0.00000000000E+00  0.20883105135E+03  0.20883105142E+03  0.50400001928E-02 0.  1.
        1   -1    0    0  501    0  0.00000000000E+00  0.00000000000E+00 -0.58172646619E+03  0.58172646621E+03  0.50400001928E-02 0. -1.
    10030    2    1    2    0    0  0.00000000000E+00  0.00000000000E+00 -0.37289541483E+03  0.79055751762E+03  0.69708693738E+03 0.  0.
        3    1    3    3  502    0 -0.12904116418E+03  0.17813057624E+03  0.12017650792E+03  0.25064821464E+03  0.10100000352E+00 0.  1.
       -3    1    3    3    0  502  0.12904116418E+03 -0.17813057624E+03 -0.49307192275E+03  0.53990930299E+03  0.10100000352E+00 0. -1.
</event>
<event>
 5   0  0.1951465E-02  0.6515456E+03  0.7818609E-02  0.9803883E-01
       -1   -1    0    0    0  501  0.00000000000E+00  0.00000000000E+00  0.10197511000E+03  0.10197511013E+03  0.50400001928E-02 0.  1.
        1   -1    0    0  501    0  0.00000000000E+00  0.00000000000E+00 -0.10407237854E+04  0.10407237854E+04  0.50400001928E-02 0. -1.
    10030    2    1    2    0    0  0.00000000000E+00  0.00000000000E+00 -0.93874867541E+03  0.11426988956E+04  0.65154561645E+03 0.  0.
        4    1    3    3  502    0  0.29252598340E+03 -0.56046807770E+02 -0.23793805893E+03  0.38122018364E+03  0.12699999809E+01 0.  1.
       -4    1    3    3    0  502 -0.29252598340E+03  0.56046807770E+02 -0.70081061648E+03  0.76147871191E+03  0.12699999809E+01 0. -1.
</event>
<event>
 5   0  0.1858013E-02  0.7001949E+03  0.7818609E-02  0.9716899E-01
       -1   -1    0    0    0  501  0.00000000000E+00  0.00000000000E+00  0.43942920741E+02  0.43942921030E+02  0.50400001928E-02 0.  1.
        1   -1    0    0  501    0  0.00000000000E+00  0.00000000000E+00 -0.27892600319E+04  0.27892600319E+04  0.50400001928E-02 0. -1.
    10030    2    1    2    0    0  0.00000000000E+00  0.00000000000E+00 -0.27453171111E+04  0.28332029529E+04  0.70019492407E+03 0.  0.
        2    1    3    3  502    0 -0.81340338956E+02  0.30122161805E+03 -0.20152129616E+04  0.20392238707E+04  0.25500000920E-02 0. -1.
       -2    1    3    3    0  502  0.81340338956E+02 -0.30122161805E+03 -0.73010414949E+03  0.79397908224E+03  0.25500000920E-02 0.  1.
</event>
<event>
 5   0  0.3290656E-02  0.7041207E+03  0.7818609E-02  0.9710211E-01
        2   -1    0    0  501    0  0.00000000000E+00  0.00000000000E+00  0.28012614927E+03  0.28012614929E+03  0.25500000920E-02 0.  1.
       -2   -1    0    0    0  501  0.00000000000E+00  0.00000000000E+00 -0.44246663794E+03  0.44246663794E+03  0.25500000920E-02 0. -1.
    10030    2    1    2    0    0  0.00000000000E+00  0.00000000000E+00 -0.16234048866E+03  0.72259278723E+03  0.70412065862E+03 0.  0.
        1    1    3    3  502    0  0.19780072679E+03 -0.45676274076E+02  0.21401268571E+03  0.29497945556E+03  0.50400001928E-02 0.  1.
       -1    1    3    3    0  502 -0.19780072679E+03  0.45676274076E+02 -0.37635317438E+03  0.42761333167E+03  0.50400001928E-02 0. -1.
</event>
<event>
 5   0  0.1969818E-02  0.6976540E+03  0.7818609E-02  0.9721253E-01
        1   -1    0    0  501    0  0.00000000000E+00  0.00000000000E+00  0.60172362200E+03  0.60172362202E+03  0.50400001928E-02 0.  1.
       -1   -1    0    0    0  501  0.00000000000E+00  0.00000000000E+00 -0.20221956799E+03  0.20221956805E+03  0.50400001928E-02 0. -1.
    10030    2    1    2    0    0  0.00000000000E+00  0.00000000000E+00  0.39950405401E+03  0.80394319007E+03  0.69765404298E+03 0.  0.
        1    1    3    3  502    0 -0.32619946146E+03  0.16176450341E+02  0.34094468463E+03  0.47213456154E+03  0.50400001928E-02 0.  1.
       -1    1    3    3    0  502  0.32619946146E+03 -0.16176450341E+02  0.58559369387E+02  0.33180862853E+03  0.50400001928E-02 0. -1.
</event>
<event>
 5   0  0.3290656E-02  0.7030578E+03  0.7818609E-02  0.9712017E-01
       -2   -1    0    0    0  501  0.00000000000E+00  0.00000000000E+00  0.16839293663E+03  0.16839293665E+03  0.25500000920E-02 0. -1.
        2   -1    0    0  501    0  0.00000000000E+00  0.00000000000E+00 -0.73383457040E+03  0.73383457040E+03  0.25500000920E-02 0.  1.
    10030    2    1    2    0    0  0.00000000000E+00  0.00000000000E+00 -0.56544163376E+03  0.90222750705E+03  0.70305777379E+03 0.  0.
        1    1    3    3  502    0  0.11496618607E+03  0.81653803304E+02 -0.69594837656E+03  0.71009063534E+03  0.50400001928E-02 0.  1.
       -1    1    3    3    0  502 -0.11496618607E+03 -0.81653803304E+02  0.13050674279E+03  0.19213687172E+03  0.50400001928E-02 0. -1.
</event>
<event>
 5   0  0.2933851E-02  0.7008394E+03  0.7818609E-02  0.9715798E-01
       -2   -1    0    0    0  501  0.00000000000E+00  0.00000000000E+00  0.24400184785E+03  0.24400184786E+03  0.25500000920E-02 0. -1.
        2   -1    0    0  501    0  0.00000000000E+00  0.00000000000E+00 -0.50325009481E+03  0.50325009482E+03  0.25500000920E-02 0.  1.
    10030    2    1    2    0    0  0.00000000000E+00  0.00000000000E+00 -0.25924824696E+03  0.74725194268E+03  0.70083936269E+03 0.  0.
        2    1    3    3  502    0  0.12367062940E+03 -0.24859492122E+03  0.98308826699E+02  0.29454793302E+03  0.25500000920E-02 0. -1.
       -2    1    3    3    0  502 -0.12367062940E+03  0.24859492122E+03 -0.35755707366E+03  0.45270400966E+03  0.25500000920E-02 0.  1.
</event>
<event>
 5   0  0.3183963E-02  0.6839304E+03  0.7818609E-02  0.9745115E-01
        2   -1    0    0  501    0  0.00000000000E+00  0.00000000000E+00  0.23255612172E+03  0.23255612173E+03  0.25500000920E-02 0. -1.
       -2   -1    0    0    0  501  0.00000000000E+00  0.00000000000E+00 -0.50284728335E+03  0.50284728336E+03  0.25500000920E-02 0.  1.
    10030    2    1    2    0    0  0.00000000000E+00  0.00000000000E+00 -0.27029116163E+03  0.73540340509E+03  0.68393044687E+03 0.  0.
        4    1    3    3  502    0 -0.42910712119E+02 -0.12712853435E+03 -0.47335835861E+03  0.49200888410E+03  0.12699999809E+01 0.  1.
       -4    1    3    3    0  502  0.42910712119E+02  0.12712853435E+03  0.20306719698E+03  0.24339452099E+03  0.12699999809E+01 0. -1.
</event>
<event>
 5   0  0.1858013E-02  0.6922923E+03  0.7818609E-02  0.9730505E-01
       -1   -1    0    0    0  501  0.00000000000E+00  0.00000000000E+00  0.15130380276E+03  0.15130380284E+03  0.50400001928E-02 0. -1.
        1   -1    0    0  501    0  0.00000000000E+00  0.00000000000E+00 -0.79189795325E+03  0.79189795327E+03  0.50400001928E-02 0.  1.
    10030    2    1    2    0    0  0.00000000000E+00  0.00000000000E+00 -0.64059415050E+03  0.94320175611E+03  0.69229234220E+03 0.  0.
        2    1    3    3  502    0 -0.26126932783E+03  0.19091917889E+03 -0.48774542073E+03  0.58532673780E+03  0.25500000920E-02 0.  1.
       -2    1    3    3    0  502  0.26126932783E+03 -0.19091917889E+03 -0.15284872977E+03  0.35787501831E+03  0.25500000920E-02 0. -1.
</event>
<event>
 5   0  0.1969818E-02  0.6971880E+03  0.7818609E-02  0.9722053E-01
       -1   -1    0    0    0  501  0.00000000000E+00  0.00000000000E+00  0.53155519680E+02  0.53155519919E+02  0.50400001928E-02 0.  1.
        1   -1    0    0  501    0  0.00000000000E+00  0.00000000000E+00 -0.22860802748E+04  0.22860802748E+04  0.50400001928E-02 0. -1.
    10030    2    1    2    0    0  0.00000000000E+00  0.00000000000E+00 -0.22329247551E+04  0.23392357947E+04  0.69718802434E+03 0.  0.
        1    1    3    3  502    0  0.11454690273E+03 -0.32901679392E+03 -0.11568288595E+04  0.12081498474E+04  0.50400001928E-02 0.  1.
       -1    1    3    3    0  502 -0.11454690273E+03  0.32901679392E+03 -0.10760958956E+04  0.11310859473E+04  0.50400001928E-02 0. -1.
</event>
<event>
 5   0  0.3183963E-02  0.6999499E+03  0.7818609E-02  0.9717318E-01
       -2   -1    0    0    0  501  0.00000000000E+00  0.00000000000E+00  0.36085441084E+03  0.36085441085E+03  0.25500000920E-02 0. -1.
        2   -1    0    0  501    0  0.00000000000E+00  0.00000000000E+00 -0.33942350024E+03  0.33942350025E+03  0.25500000920E-02 0.  1.
    10030    2    1    2    0    0  0.00000000000E+00  0.00000000000E+00  0.21430910596E+02  0.70027791110E+03  0.69994990452E+03 0.  0.
        4    1    3    3  502    0 -0.16858120202E+03  0.17424286775E+03  0.26322361704E+03  0.35786657305E+03  0.12699999809E+01 0. -1.
       -4    1    3    3    0  502  0.16858120202E+03 -0.17424286775E+03 -0.24179270644E+03  0.34241133805E+03  0.12699999809E+01 0.  1.
</event>
<event>
 5   0  0.3113940E-02  0.7029510E+03  0.7818609E-02  0.9712199E-01
        2   -1    0    0  501    0  0.00000000000E+00  0.00000000000E+00  0.16359198689E+03  0.16359198691E+03  0.25500000920E-02 0. -1.
       -2   -1    0    0    0  501  0.00000000000E+00  0.00000000000E+00 -0.75514096877E+03  0.75514096878E+03  0.25500000920E-02 0.  1.
    10030    2    1    2    0    0  0.00000000000E+00  0.00000000000E+00 -0.59154898189E+03  0.91873295568E+03  0.70295095554E+03 0.  0.
        5    1    3    3  502    0 -0.13289504993E+02 -0.34552297359E+03 -0.37791795269E+03  0.51225658140E+03  0.46999998093E+01 0.  1.
       -5    1    3    3    0  502  0.13289504993E+02  0.34552297359E+03 -0.21363102920E+03  0.40647637429E+03  0.46999998093E+01 0. -1.
</event>
<event>
 5   0  0.1858013E-02  0.6989167E+03  0.7818609E-02  0.9719087E-01
       -1   -1    0    0    0  501  0.00000000000E+00  0.00000000000E+00  0.27081928907E+03  0.27081928911E+03  0.50400001928E-02 0.  1.
        1   -1    0    0  501    0  0.00000000000E+00  0.00000000000E+00 -0.45093225112E+03  0.45093225115E+03  0.50400001928E-02 0. -1.
    10030    2    1    2    0    0  0.00000000000E+00  0.00000000000E+00 -0.18011296206E+03  0.72175154026E+03  0.69891673808E+03 0.  0.
        2    1    3    3  502    0 -0.20793576984E+02 -0.32487518900E+03  0.41157414393E+02  0.32813136704E+03  0.25500000920E-02 0. -1.
       -2    1    3    3    0  502  0.20793576984E+02  0.32487518900E+03 -0.22127037645E+03  0.39362017323E+03  0.25500000920E-02 0.  1.
</event>
<event>
 5   0  0.1233912E-02  0.7299127E+03  0.7818609E-02  0.9667402E-01
       -3   -1    0    0    0  501  0.00000000000E+00  0.00000000000E+00  0.15218544597E+04  0.15218544631E+04  0.10100000352E+00 0.  1.
        3   -1    0    0  501    0  0.00000000000E+00  0.00000000000E+00 -0.87520251295E+02  0.87520309573E+02  0.10100000352E+00 0. -1.
    10030    2    1    2    0    0  0.00000000000E+00  0.00000000000E+00  0.14343342084E+04  0.16093747727E+04  0.72991269161E+03 0.  0.
        1    1    3    3  502    0 -0.29203079318E+03 -0.14469482926E+03  0.10792962090E+04  0.11274302127E+04  0.50400001928E-02 0.  1.
       -1    1    3    3    0  502  0.29203079318E+03  0.14469482926E+03  0.35503799945E+03  0.48194455994E+03  0.50400001928E-02 0. -1.
</event>
<event>
 5   0  0.1884172E-02  0.7066834E+03  0.7818609E-02  0.9705870E-01
        1   -1    0    0  501    0  0.00000000000E+00  0.00000000000E+00  0.37485888822E+03  0.37485888826E+03  0.50400001928E-02 0. -1.
       -1   -1    0    0    0  501  0.00000000000E+00  0.00000000000E+00 -0.33305960668E+03  0.33305960671E+03  0.50400001928E-02 0.  1.
    10030    2    1    2    0    0  0.00000000000E+00  0.00000000000E+00  0.41799281548E+02  0.70791849497E+03  0.70668339133E+03 0.  0.
        3    1    3    3  502    0  0.28354814554E+02 -0.31983875380E+03 -0.12683529585E+03  0.34523618932E+03  0.10100000352E+00 0.  1.
       -3    1    3    3    0  502 -0.28354814554E+02  0.31983875380E+03  0.16863457740E+03  0.36268230566E+03  0.10100000352E+00 0. -1.
</event>
<event>
 5   0  0.2933851E-02  0.6821562E+03  0.7818609E-02  0.9748244E-01
       -2   -1    0    0    0  501  0.00000000000E+00  0.00000000000E+00  0.12783794620E+03  0.12783794623E+03  0.25500000920E-02 0.  1.
        2   -1    0    0  501    0  0.00000000000E+00  0.00000000000E+00 -0.91001348245E+03  0.91001348245E+03  0.25500000920E-02 0. -1.
    10030    2    1    2    0    0  0.00000000000E+00  0.00000000000E+00 -0.78217553624E+03  0.10378514287E+04  0.68215615405E+03 0.  0.
        2    1    3    3  502    0 -0.10176408151E+03  0.25855565280E+02 -0.88481355788E+03  0.89102158827E+03  0.25500000920E-02 0. -1.
       -2    1    3    3    0  502  0.10176408151E+03 -0.25855565280E+02  0.10263802164E+03  0.14682984041E+03  0.25500000920E-02 0.  1.
</event>
<event>
 5   0  0.3183963E-02  0.6556370E+03  0.7818609E-02  0.9796259E-01
        2   -1    0    0  501    0  0.00000000000E+00  0.00000000000E+00  0.14640144286E+04  0.14640144286E+04  0.25500000920E-02 0.  1.
       -2   -1    0    0    0  501  0.00000000000E+00  0.00000000000E+00 -0.73404308486E+02  0.73404308530E+02  0.25500000920E-02 0. -1.
    10030    2    1    2    0    0  0.00000000000E+00  0.00000000000E+00  0.13906101201E+04  0.15374187371E+04  0.65563699340E+03 0.  0.
        4    1    3    3  502    0  0.27088200512E+03 -0.16342225180E+02  0.11265366268E+04  0.11587624922E+04  0.12699999809E+01 0.  1.
       -4    1    3    3    0  502 -0.27088200512E+03  0.16342225180E+02  0.26407349334E+03  0.37865624491E+03  0.12699999809E+01 0. -1.
</event>
<event>
 5   0  0.1969818E-02  0.6999690E+03  0.7818609E-02  0.9717285E-01
       -1   -1    0    0    0  501  0.00000000000E+00  0.00000000000E+00  0.83581460821E+02  0.83581460973E+02  0.50400001928E-02 0. -1.
        1   -1    0    0  501    0  0.00000000000E+00  0.00000000000E+00 -0.14655060201E+04  0.14655060201E+04  0.50400001928E-02 0.  1.
    10030    2    1    2    0    0  0.00000000000E+00  0.00000000000E+00 -0.13819245593E+04  0.15490874811E+04  0.69996895396E+03 0.  0.
        1    1    3    3  502    0  0.21538446342E+03  0.46295008363E+01 -0.80548223781E+02  0.22999981683E+03  0.50400001928E-02 0. -1.
       -1    1    3    3    0  502 -0.21538446342E+03 -0.46295008363E+01 -0.13013763355E+04  0.13190876643E+04  0.50400001928E-02 0.  1.
</event>
<event>
 5   0  0.1969818E-02  0.6389908E+03  0.7818609E-02  0.9827659E-01
       -1   -1    0    0    0  501  0.00000000000E+00  0.00000000000E+00  0.10904395272E+03  0.10904395284E+03  0.50400001928E-02 0.  1.
        1   -1    0    0  501    0  0.00000000000E+00  0.00000000000E+00 -0.93611167003E+03  0.93611167004E+03  0.50400001928E-02 0. -1.
    10030    2    1    2    0    0  0.00000000000E+00  0.00000000000E+00 -0.82706771730E+03  0.10451556229E+04  0.63899081921E+03 0.  0.
        1    1    3    3  502    0  0.27031653824E+02  0.67020582206E+02 -0.92256813253E+03  0.92539420137E+03  0.50400001928E-02 0. -1.
       -1    1    3    3    0  502 -0.27031653824E+02 -0.67020582206E+02  0.95500415228E+02  0.11976142151E+03  0.50400001928E-02 0.  1.
</event>
<event>
 5   0  0.3184443E-02  0.7024931E+03  0.7818609E-02  0.9712978E-01
       -2   -1    0    0    0  501  0.00000000000E+00  0.00000000000E+00  0.14404016785E+03  0.14404016787E+03  0.25500000920E-02 0.  1.
        2   -1    0    0  501    0  0.00000000000E+00  0.00000000000E+00 -0.85652588524E+03  0.85652588524E+03  0.25500000920E-02 0. -1.
    10030    2    1    2    0    0  0.00000000000E+00  0.00000000000E+00 -0.71248571739E+03  0.10005660531E+04  0.70249308122E+03 0.  0.
        3    1    3    3  502    0  0.21294850848E+03 -0.26284212245E+03 -0.22156427357E+03  0.40438074400E+03  0.10100000352E+00 0.  1.
       -3    1    3    3    0  502 -0.21294850848E+03  0.26284212245E+03 -0.49092144382E+03  0.59618530911E+03  0.10100000352E+00 0. -1.
</event>
<event>
 5   0  0.1951465E-02  0.7026351E+03  0.7818609E-02  0.9712736E-01
        1   -1    0    0  501    0  0.00000000000E+00  0.00000000000E+00  0.16291870431E+04  0.16291870431E+04  0.50400001928E-02 0. -1.
       -1   -1    0    0    0  501  0.00000000000E+00  0.00000000000E+00 -0.75758032190E+02  0.75758032358E+02  0.50400001928E-02 0.  1.
    10030    2    1    2    0    0  0.00000000000E+00  0.00000000000E+00  0.15534290109E+04  0.17049450754E+04  0.70263505350E+03 0.  0.
        4    1    3    3  502    0  0.27302449428E+03  0.94028961088E+02  0.12622487531E+04  0.12948580415E+04  0.12699999809E+01 0. -1.
       -4    1    3    3    0  502 -0.27302449428E+03 -0.94028961088E+02  0.29118025783E+03  0.41008703399E+03  0.12699999809E+01 0.  1.
</event>
<event>
 5   0  0.1969818E-02  0.7023171E+03  0.7818609E-02  0.9713278E-01
       -1   -1    0    0    0  501  0.00000000000E+00  0.00000000000E+00  0.20538251033E+03  0.20538251040E+03  0.50400001928E-02 0.  1.
        1   -1    0    0  501    0  0.00000000000E+00  0.00000000000E+00 -0.60040319737E+03  0.60040319739E+03  0.50400001928E-02 0. -1.
    10030    2    1    2    0    0  0.00000000000E+00  0.00000000000E+00 -0.39502068704E+03  0.80578570779E+03  0.70231706778E+03 0.  0.
        1    1    3    3  502    0 -0.24108186020E+03  0.14227601134E+03 -0.44075775894E+03  0.52214014288E+03  0.50400001928E-02 0. -1.
       -1    1    3    3    0  502  0.24108186020E+03 -0.14227601134E+03  0.45737071903E+02  0.28364556491E+03  0.50400001928E-02 0.  1.
</event>
<event>
 5   0  0.1233912E-02  0.7072678E+03  0.7818609E-02  0.9704883E-01
        3   -1    0    0  501    0  0.00000000000E+00  0.00000000000E+00  0.57017300730E+03  0.57017301624E+03  0.10100000352E+00 0.  1.
       -3   -1    0    0    0  501  0.00000000000E+00  0.00000000000E+00 -0.21933154469E+03  0.21933156794E+03  0.10100000352E+00 0. -1.
    10030    2    1    2    0    0  0.00000000000E+00  0.00000000000E+00  0.35084146261E+03  0.78950458419E+03  0.70726781107E+03 0.  0.
        1    1    3    3  502    0  0.20038917819E+03  0.54041170510E+02  0.49503524328E+03  0.53678316196E+03  0.50400001928E-02 0.  1.
       -1    1    3    3    0  502 -0.20038917819E+03 -0.54041170510E+02 -0.14419378067E+03  0.25272142223E+03  0.50400001928E-02 0. -1.
</event>
<event>
 5   0  0.1969818E-02  0.7046973E+03  0.7818609E-02  0.9709233E-01
        1   -1    0    0  501    0  0.00000000000E+00  0.00000000000E+00  0.11160825252E+04  0.11160825252E+04  0.50400001928E-02 0.  1.
       -1   -1    0    0    0  501  0.00000000000E+00  0.00000000000E+00 -0.11123691242E+03  0.11123691254E+03  0.50400001928E-02 0. -1.
    10030    2    1    2    0    0  0.00000000000E+00  0.00000000000E+00  0.10048456128E+04  0.12273194378E+04  0.70469730861E+03 0.  0.
        1    1    3    3  502    0  0.43919601373E+02 -0.34906510097E+03  0.46873243725E+03  0.58607633791E+03  0.50400001928E-02 0.  1.
       -1    1    3    3    0  502 -0.43919601373E+02  0.34906510097E+03  0.53611317555E+03  0.64124309987E+03  0.50400001928E-02 0. -1.
</event>
<event>
 5   0  0.1884172E-02  0.6934785E+03  0.7818609E-02  0.9728450E-01
       -1   -1    0    0    0  501  0.00000000000E+00  0.00000000000E+00  0.61551980450E+03  0.61551980452E+03  0.50400001928E-02 0.  1.
        1   -1    0    0  501    0  0.00000000000E+00  0.00000000000E+00 -0.19532775070E+03  0.19532775077E+03  0.50400001928E-02 0. -1.
    10030    2    1    2    0    0  0.00000000000E+00  0.00000000000E+00  0.42019205380E+03  0.81084755528E+03  0.69347847539E+03 0.  0.
        3    1    3    3  502    0 -0.17254045476E+03 -0.21202686226E+03  0.45951173800E+03  0.53467433678E+03  0.10100000352E+00 0.  1.
       -3    1    3    3    0  502  0.17254045476E+03  0.21202686226E+03 -0.39319684201E+02  0.27617321850E+03  0.10100000352E+00 0. -1.
</event>
<event>
 5   0  0.1233912E-02  0.7061137E+03  0.7818609E-02  0.9706834E-01
       -4   -1    0    0    0  501  0.00000000000E+00  0.00000000000E+00  0.27924593119E+03  0.27924881913E+03  0.12699999809E+01 0.  1.
        4   -1    0    0  501    0  0.00000000000E+00  0.00000000000E+00 -0.44637154417E+03  0.44637335084E+03  0.12699999809E+01 0. -1.
    10030    2    1    2    0    0  0.00000000000E+00  0.00000000000E+00 -0.16712561298E+03  0.72562216998E+03  0.70611370405E+03 0.  0.
        2    1    3    3  502    0  0.16389708633E+03 -0.28715275210E+03  0.43673065332E+02  0.33350606379E+03  0.25500000920E-02 0.  1.
       -2    1    3    3    0  502 -0.16389708633E+03  0.28715275210E+03 -0.21079867831E+03  0.39211610618E+03  0.25500000920E-02 0. -1.
</event>
<event>
 5   0  0.1951465E-02  0.7018562E+03  0.7818609E-02  0.9714063E-01
       -1   -1    0    0    0  501  0.00000000000E+00  0.00000000000E+00  0.29163260409E+03  0.29163260413E+03  0.50400001928E-02 0.  1.
        1   -1    0    0  501    0  0.00000000000E+00  0.00000000000E+00 -0.42227969604E+03  0.42227969607E+03  0.50400001928E-02 0. -1.
    10030    2    1    2    0    0  0.00000000000E+00  0.00000000000E+00 -0.13064709195E+03  0.71391230020E+03  0.70185618879E+03 0.  0.
        4    1    3    3  502    0 -0.34893692255E+03  0.23016031734E+02 -0.95191189995E+02  0.36242197669E+03  0.12699999809E+01 0.  1.
       -4    1    3    3    0  502  0.34893692255E+03 -0.23016031734E+02 -0.35455901955E+02  0.35149032351E+03  0.12699999809E+01 0. -1.
</event>
<event>
 5   0  0.1969818E-02  0.6958401E+03  0.7818609E-02  0.9724373E-01
        1   -1    0    0  501    0  0.00000000000E+00  0.00000000000E+00  0.12038798837E+04  0.12038798837E+04  0.50400001928E-02 0. -1.
       -1   -1    0    0    0  501  0.00000000000E+00  0.00000000000E+00 -0.10054854776E+03  0.10054854789E+03  0.50400001928E-02 0.  1.
    10030    2    1    2    0    0  0.00000000000E+00  0.00000000000E+00  0.11033313359E+04  0.13044284316E+04  0.69584013702E+03 0.  0.
        1    1    3    3  502    0 -0.22259261427E+02  0.18692989538E+03  0.11001614812E+04  0.11161512197E+04  0.50400001928E-02 0. -1.
       -1    1    3    3    0  502  0.22259261427E+02 -0.18692989538E+03  0.31698547113E+01  0.18827721187E+03  0.50400001928E-02 0.  1.
</event>
<event>
 5   0  0.1969818E-02  0.7032477E+03  0.7818609E-02  0.9711694E-01
        1   -1    0    0  501    0  0.00000000000E+00  0.00000000000E+00  0.34694777323E+03  0.34694777327E+03  0.50400001928E-02 0.  1.
       -1   -1    0    0    0  501  0.00000000000E+00  0.00000000000E+00 -0.35636297238E+03  0.35636297242E+03  0.50400001928E-02 0. -1.
    10030    2    1    2    0    0  0.00000000000E+00  0.00000000000E+00 -0.94151991488E+01  0.70331074569E+03  0.70324772237E+03 0.  0.
        1    1    3    3  502    0  0.19602230645E+03 -0.17194296354E+03  0.23121651388E+03  0.34849706405E+03  0.50400001928E-02 0.  1.
       -1    1    3    3    0  502 -0.19602230645E+03  0.17194296354E+03 -0.24063171302E+03  0.35481368164E+03  0.50400001928E-02 0. -1.
</event>
<event>
 5   0  0.3113940E-02  0.5699831E+03  0.7818609E-02  0.9969716E-01
        2   -1    0    0  501    0  0.00000000000E+00  0.00000000000E+00  0.10826323036E+03  0.10826323039E+03  0.25500000920E-02 0. -1.
       -2   -1    0    0    0  501  0.00000000000E+00  0.00000000000E+00 -0.75021028131E+03  0.75021028131E+03  0.25500000920E-02 0.  1.
    10030    2    1    2    0    0  0.00000000000E+00  0.00000000000E+00 -0.64194705095E+03  0.85847351170E+03  0.56998311736E+03 0.  0.
        5    1    3    3  502    0  0.15763261653E+02  0.22117986862E+03 -0.51424872881E+02  0.22767437768E+03  0.46999998093E+01 0. -1.
       -5    1    3    3    0  502 -0.15763261653E+02 -0.22117986862E+03 -0.59052217806E+03  0.63079913402E+03  0.46999998093E+01 0.  1.
</event>
<event>
 5   0  0.3183963E-02  0.7323030E+03  0.7818609E-02  0.9663531E-01
       -2   -1    0    0    0  501  0.00000000000E+00  0.00000000000E+00  0.12681968460E+03  0.12681968463E+03  0.25500000920E-02 0.  1.
        2   -1    0    0  501    0  0.00000000000E+00  0.00000000000E+00 -0.10571460453E+04  0.10571460453E+04  0.25500000920E-02 0. -1.
    10030    2    1    2    0    0  0.00000000000E+00  0.00000000000E+00 -0.93032636071E+03  0.11839657299E+04  0.73230301941E+03 0.  0.
        4    1    3    3  502    0 -0.14488129661E+02 -0.79406688366E+02  0.11225242436E+03  0.13826622051E+03  0.12699999809E+01 0.  1.
       -4    1    3    3    0  502  0.14488129661E+02  0.79406688366E+02 -0.10425787851E+04  0.10456995094E+04  0.12699999809E+01 0. -1.
</event>
<event>
 5   0  0.1839038E-02  0.7071677E+03  0.7818609E-02  0.9705052E-01
        1   -1    0    0  501    0  0.00000000000E+00  0.00000000000E+00  0.96290656233E+03  0.96290656234E+03  0.50400001928E-02 0.  1.
       -1   -1    0    0    0  501  0.00000000000E+00  0.00000000000E+00 -0.12983767143E+03  0.12983767153E+03  0.50400001928E-02 0. -1.
    10030    2    1    2    0    0  0.00000000000E+00  0.00000000000E+00  0.83306889090E+03  0.10927442339E+04  0.70716771963E+03 0.  0.
        5    1    3    3  502    0  0.21837987194E+03  0.23532036362E+03  0.64538667767E+03  0.72084082550E+03  0.46999998093E+01 0.  1.
       -5    1    3    3    0  502 -0.21837987194E+03 -0.23532036362E+03  0.18768221323E+03  0.37190340837E+03  0.46999998093E+01 0. -1.
</event>
<event>
 5   0  0.3183963E-02  0.7005976E+03  0.7818609E-02  0.9716211E-01
        2   -1    0    0  501    0  0.00000000000E+00  0.00000000000E+00  0.81974973646E+03  0.81974973646E+03  0.25500000920E-02 0. -1.
       -2   -1    0    0    0  501  0.00000000000E+00  0.00000000000E+00 -0.14969112643E+03  0.14969112645E+03  0.25500000920E-02 0.  1.
    10030    2    1    2    0    0  0.00000000000E+00  0.00000000000E+00  0.67005861003E+03  0.96944086291E+03  0.70059763474E+03 0.  0.
        4    1    3    3  502    0 -0.55517627266E+02  0.13783578238E+03 -0.10391493427E+03  0.18133073734E+03  0.12699999809E+01 0.  1.
       -4    1    3    3    0  502  0.55517627266E+02 -0.13783578238E+03  0.77397354430E+03  0.78811012557E+03  0.12699999809E+01 0. -1.
</event>
<event>
 5   0  0.1884172E-02  0.7131019E+03  0.7818609E-02  0.9695085E-01
        1   -1    0    0  501    0  0.00000000000E+00  0.00000000000E+00  0.93693861804E+03  0.93693861806E+03  0.50400001928E-02 0. -1.
       -1   -1    0    0    0  501  0.00000000000E+00  0.00000000000E+00 -0.13568504963E+03  0.13568504973E+03  0.50400001928E-02 0.  1.
    10030    2    1    2    0    0  0.00000000000E+00  0.00000000000E+00  0.80125356841E+03  0.10726236678E+04  0.71310185234E+03 0.  0.
        3    1    3    3  502    0  0.88327808810E+02 -0.26341461603E+03  0.73676498164E+03  0.78740822330E+03  0.10100000352E+00 0. -1.
       -3    1    3    3    0  502 -0.88327808810E+02  0.26341461603E+03  0.64488586765E+02  0.28521544448E+03  0.10100000352E+00 0.  1.
</event>
<event>
 5   0  0.2933851E-02  0.7128537E+03  0.7818609E-02  0.9695500E-01
       -2   -1    0    0    0  501  0.00000000000E+00  0.00000000000E+00  0.81229734436E+02  0.81229734476E+02  0.25500000920E-02 0.  1.
        2   -1    0    0  501    0  0.00000000000E+00  0.00000000000E+00 -0.15639604374E+04  0.15639604374E+04  0.25500000920E-02 0. -1.
    10030    2    1    2    0    0  0.00000000000E+00  0.00000000000E+00 -0.14827307030E+04  0.16451901719E+04  0.71285367652E+03 0.  0.
        2    1    3    3  502    0 -0.27557527792E+03 -0.49936143720E+02 -0.12501746264E+04  0.12811603915E+04  0.25500000920E-02 0. -1.
       -2    1    3    3    0  502  0.27557527792E+03  0.49936143720E+02 -0.23255607656E+03  0.36402978038E+03  0.25500000920E-02 0.  1.
</event>
<event>
 5   0  0.3290656E-02  0.6997357E+03  0.7818609E-02  0.9717684E-01
        2   -1    0    0  501    0  0.00000000000E+00  0.00000000000E+00  0.91426722925E+03  0.91426722926E+03  0.25500000920E-02 0. -1.
       -2   -1    0    0    0  501  0.00000000000E+00  0.00000000000E+00 -0.13388593538E+03  0.13388593540E+03  0.25500000920E-02 0.  1.
    10030    2    1    2    0    0  0.00000000000E+00  0.00000000000E+00  0.78038129387E+03  0.10481531647E+04  0.69973573066E+03 0.  0.
        1    1    3    3  502    0  0.34444176175E+03 -0.55114748587E+02  0.34972552540E+03  0.49394909241E+03  0.50400001928E-02 0.  1.
       -1    1    3    3    0  502 -0.34444176175E+03  0.55114748587E+02  0.43065576847E+03  0.55420407224E+03  0.50400001928E-02 0. -1.
</event>
<event>
 5   0  0.1951465E-02  0.6972984E+03  0.7818609E-02  0.9721863E-01
       -1   -1    0    0    0  501  0.00000000000E+00  0.00000000000E+00  0.69874034097E+03  0.69874034099E+03  0.50400001928E-02 0. -1.
        1   -1    0    0  501    0  0.00000000000E+00  0.00000000000E+00 -0.17396484998E+03  0.17396485005E+03  0.50400001928E-02 0.  1.
    10030    2    1    2    0    0  0.00000000000E+00  0.00000000000E+00  0.52477549099E+03  0.87270519104E+03  0.69729838271E+03 0.  0.
        4    1    3    3  502    0  0.85997522349E+02 -0.17838347047E+03  0.62151646560E+03  0.65230404437E+03  0.12699999809E+01 0. -1.
       -4    1    3    3    0  502 -0.85997522349E+02  0.17838347047E+03 -0.96740974607E+02  0.22040114667E+03  0.12699999809E+01 0.  1.
</event>
<event>
 5   0  0.3290656E-02  0.7081594E+03  0.7818609E-02  0.9703379E-01
       -2   -1    0    0    0  501  0.00000000000E+00  0.00000000000E+00  0.23474084464E+03  0.23474084466E+03  0.25500000920E-02 0.  1.
        2   -1    0    0  501    0  0.00000000000E+00  0.00000000000E+00 -0.53408866892E+03  0.53408866893E+03  0.25500000920E-02 0. -1.
    10030    2    1    2    0    0  0.00000000000E+00  0.00000000000E+00 -0.29934782428E+03  0.76882951358E+03  0.70815937546E+03 0.  0.
        1    1    3    3  502    0 -0.21934028171E+03  0.13163810972E+03 -0.41546137309E+03  0.48790050591E+03  0.50400001928E-02 0. -1.
       -1    1    3    3    0  502  0.21934028171E+03 -0.13163810972E+03  0.11611354881E+03  0.28092900768E+03  0.50400001928E-02 0.  1.
</event>
<event>
 5   0  0.1233912E-02  0.6988974E+03  0.7818609E-02  0.9719120E-01
        4   -1    0    0  501    0  0.00000000000E+00  0.00000000000E+00  0.41282453369E+03  0.41282648718E+03  0.12699999809E+01 0. -1.
       -4   -1    0    0    0  501  0.00000000000E+00  0.00000000000E+00 -0.29579815374E+03  0.29580088008E+03  0.12699999809E+01 0.  1.
    10030    2    1    2    0    0  0.00000000000E+00  0.00000000000E+00  0.11702637994E+03  0.70862736726E+03  0.69889739735E+03 0.  0.
        3    1    3    3  502    0 -0.13235762986E+03 -0.29998763242E+03 -0.64013138950E+02  0.33407905344E+03  0.10100000352E+00 0.  1.
       -3    1    3    3    0  502  0.13235762986E+03  0.29998763242E+03  0.18103951889E+03  0.37454831382E+03  0.10100000352E+00 0. -1.
</event>
<event>
 5   0  0.3183963E-02  0.7168303E+03  0.7818609E-02  0.9688875E-01
       -2   -1    0    0    0  501  0.00000000000E+00  0.00000000000E+00  0.50775649573E+03  0.50775649574E+03  0.25500000920E-02 0.  1.
        2   -1    0    0  501    0  0.00000000000E+00  0.00000000000E+00 -0.25299811296E+03  0.25299811298E+03  0.25500000920E-02 0. -1.
    10030    2    1    2    0    0  0.00000000000E+00  0.00000000000E+00  0.25475838277E+03  0.76075460872E+03  0.71683034331E+03 0.  0.
        4    1    3    3  502    0  0.70598800883E+02  0.10167256461E+03 -0.22959192434E+03  0.26083628141E+03  0.12699999809E+01 0. -1.
       -4    1    3    3    0  502 -0.70598800883E+02 -0.10167256461E+03  0.48435030711E+03  0.49991832731E+03  0.12699999809E+01 0.  1.
</event>
<event>
 5   0  0.3184443E-02  0.6979873E+03  0.7818609E-02  0.9720680E-01
       -2   -1    0    0    0  501  0.00000000000E+00  0.00000000000E+00  0.89005669952E+02  0.89005669989E+02  0.25500000920E-02 0. -1.
        2   -1    0    0  501    0  0.00000000000E+00  0.00000000000E+00 -0.13684136454E+04  0.13684136454E+04  0.25500000920E-02 0.  1.
    10030    2    1    2    0    0  0.00000000000E+00  0.00000000000E+00 -0.12794079755E+04  0.14574193154E+04  0.69798731596E+03 0.  0.
        3    1    3    3  502    0 -0.12812746439E+02 -0.25083959681E+03 -0.13376280322E+03  0.28456487402E+03  0.10100000352E+00 0. -1.
       -3    1    3    3    0  502  0.12812746439E+02  0.25083959681E+03 -0.11456451723E+04  0.11728544414E+04  0.10100000352E+00 0.  1.
</event>
<event>
 5   0  0.1858013E-02  0.6998566E+03  0.7818609E-02  0.9717477E-01
        1   -1    0    0  501    0  0.00000000000E+00  0.00000000000E+00  0.12613594550E+04  0.12613594550E+04  0.50400001928E-02 0. -1.
       -1   -1    0    0    0  501  0.00000000000E+00  0.00000000000E+00 -0.97077646255E+02  0.97077646386E+02  0.50400001928E-02 0.  1.
    10030    2    1    2    0    0  0.00000000000E+00  0.00000000000E+00  0.11642818087E+04  0.13584371014E+04  0.69985657692E+03 0.  0.
        2    1    3    3  502    0 -0.12150615384E+02 -0.10819302207E+03 -0.63366248694E+02  0.12597082583E+03  0.25500000920E-02 0.  1.
       -2    1    3    3    0  502  0.12150615384E+02  0.10819302207E+03  0.12276480574E+04  0.12324662755E+04  0.25500000920E-02 0. -1.
</event>
<event>
 5   0  0.1951465E-02  0.6971964E+03  0.7818609E-02  0.9722039E-01
        1   -1    0    0  501    0  0.00000000000E+00  0.00000000000E+00  0.54994930990E+03  0.54994930992E+03  0.50400001928E-02 0. -1.
       -1   -1    0    0    0  501  0.00000000000E+00  0.00000000000E+00 -0.22096708256E+03  0.22096708262E+03  0.50400001928E-02 0.  1.
    10030    2    1    2    0    0  0.00000000000E+00  0.00000000000E+00  0.32898222734E+03  0.77091639254E+03  0.69719637003E+03 0.  0.
        4    1    3    3  502    0 -0.18496081854E+03  0.27117773655E+03  0.29425034168E+03  0.44083187915E+03  0.12699999809E+01 0. -1.
       -4    1    3    3    0  502  0.18496081854E+03 -0.27117773655E+03  0.34731885659E+02  0.33008451339E+03  0.12699999809E+01 0.  1.
</event>
<event>
 5   0  0.1884172E-02  0.6998040E+03  0.7818609E-02  0.9717567E-01
       -1   -1    0    0    0  501  0.00000000000E+00  0.00000000000E+00  0.26512996375E+03  0.26512996380E+03  0.50400001928E-02 0. -1.
        1   -1    0    0  501    0  0.00000000000E+00  0.00000000000E+00 -0.46177882430E+03  0.46177882433E+03  0.50400001928E-02 0.  1.
    10030    2    1    2    0    0  0.00000000000E+00  0.00000000000E+00 -0.19664886055E+03  0.72690878812E+03  0.69980398105E+03 0.  0.
        3    1    3    3  502    0  0.15630706544E+03  0.21548995713E+03  0.13754682045E+03  0.29964472021E+03  0.10100000352E+00 0. -1.
       -3    1    3    3    0  502 -0.15630706544E+03 -0.21548995713E+03 -0.33419568100E+03  0.42726406792E+03  0.10100000352E+00 0.  1.
</event>
<event>
 5   0  0.1884172E-02  0.6915190E+03  0.7818609E-02  0.9731847E-01
       -1   -1    0    0    0  501  0.00000000000E+00  0.00000000000E+00  0.21307179119E+03  0.21307179125E+03  0.50400001928E-02 0.  1.
        1   -1    0    0  501    0  0.00000000000E+00  0.00000000000E+00 -0.56107682818E+03  0.56107682820E+03  0.50400001928E-02 0. -1.
    10030    2    1    2    0    0  0.00000000000E+00  0.00000000000E+00 -0.34800503698E+03  0.77414861945E+03  0.69151903751E+03 0.  0.
        3    1    3    3  502    0  0.73505090511E+02 -0.32972530639E+03 -0.25647982426E+03  0.42415054693E+03  0.10100000352E+00 0. -1.
       -3    1    3    3    0  502 -0.73505090511E+02  0.32972530639E+03 -0.91525212723E+02  0.34999807252E+03  0.10100000352E+00 0.  1.
</event>
<event>
 5   0  0.3184443E-02  0.7069710E+03  0.7818609E-02  0.9705385E-01
        2   -1    0    0  501    0  0.00000000000E+00  0.00000000000E+00  0.91017935977E+03  0.91017935977E+03  0.25500000920E-02 0.  1.
       -2   -1    0    0    0  501  0.00000000000E+00  0.00000000000E+00 -0.13728282847E+03  0.13728282849E+03  0.25500000920E-02 0. -1.
    10030    2    1    2    0    0  0.00000000000E+00  0.00000000000E+00  0.77289653130E+03  0.10474621883E+04  0.70697099498E+03 0.  0.
        3    1    3    3  502    0 -0.14942638034E+03  0.17478751510E+03 -0.11313709470E+02  0.23023233656E+03  0.10100000352E+00 0. -1.
       -3    1    3    3    0  502  0.14942638034E+03 -0.17478751510E+03  0.78421024077E+03  0.81722985170E+03  0.10100000352E+00 0.  1.
</event>
<event>
 5   0  0.3113940E-02  0.7484771E+03  0.7818609E-02  0.9637743E-01
       -2   -1    0    0    0  501  0.00000000000E+00  0.00000000000E+00  0.10568154680E+03  0.10568154683E+03  0.25500000920E-02 0.  1.
        2   -1    0    0  501    0  0.00000000000E+00  0.00000000000E+00 -0.13252501669E+04  0.13252501669E+04  0.25500000920E-02 0. -1.
    10030    2    1    2    0    0  0.00000000000E+00  0.00000000000E+00 -0.12195686201E+04  0.14309317137E+04  0.74847708731E+03 0.  0.
        5    1    3    3  502    0  0.27212610395E+03  0.19135071106E+03 -0.93739124243E+03  0.99468193030E+03  0.46999998093E+01 0. -1.
       -5    1    3    3    0  502 -0.27212610395E+03 -0.19135071106E+03 -0.28217737764E+03  0.43624978341E+03  0.46999998093E+01 0.  1.
</event>
<event>
 5   0  0.2933851E-02  0.6928460E+03  0.7818609E-02  0.9729545E-01
       -2   -1    0    0    0  501  0.00000000000E+00  0.00000000000E+00  0.10926968362E+03  0.10926968365E+03  0.25500000920E-02 0. -1.
        2   -1    0    0  501    0  0.00000000000E+00  0.00000000000E+00 -0.10982818542E+04  0.10982818542E+04  0.25500000920E-02 0.  1.
    10030    2    1    2    0    0  0.00000000000E+00  0.00000000000E+00 -0.98901217055E+03  0.12075515378E+04  0.69284604568E+03 0.  0.
        2    1    3    3  502    0  0.88791536677E+02  0.21331619971E+03 -0.44648477701E+02  0.23533215805E+03  0.25500000920E-02 0. -1.
       -2    1    3    3    0  502 -0.88791536677E+02 -0.21331619971E+03 -0.94436369285E+03  0.97221937978E+03  0.25500000920E-02 0.  1.
</event>
<event>
 5   0  0.1969818E-02  0.6924062E+03  0.7818609E-02  0.9730307E-01
       -1   -1    0    0    0  501  0.00000000000E+00  0.00000000000E+00  0.15398274339E+03  0.15398274347E+03  0.50400001928E-02 0.  1.
        1   -1    0    0  501    0  0.00000000000E+00  0.00000000000E+00 -0.77837681119E+03  0.77837681120E+03  0.50400001928E-02 0. -1.
    10030    2    1    2    0    0  0.00000000000E+00  0.00000000000E+00 -0.62439406780E+03  0.93235955467E+03  0.69240622996E+03 0.  0.
        1    1    3    3  502    0  0.17897755703E+03  0.28592697337E+03 -0.41710180095E+03  0.53643369805E+03  0.50400001928E-02 0.  1.
       -1    1    3    3    0  502 -0.17897755703E+03 -0.28592697337E+03 -0.20729226685E+03  0.39592585662E+03  0.50400001928E-02 0. -1.
</event>
<event>
 5   0  0.2933851E-02  0.7006642E+03  0.7818609E-02  0.9716097E-01
       -2   -1    0    0    0  501  0.00000000000E+00  0.00000000000E+00  0.67406232562E+03  0.67406232563E+03  0.25500000920E-02 0. -1.
        2   -1    0    0  501    0  0.00000000000E+00  0.00000000000E+00 -0.18207896340E+03  0.18207896342E+03  0.25500000920E-02 0.  1.
    10030    2    1    2    0    0  0.00000000000E+00  0.00000000000E+00  0.49198336223E+03  0.85614128904E+03  0.70066416927E+03 0.  0.
        2    1    3    3  502    0 -0.29974228593E+03  0.39910438053E+02  0.46214806883E+03  0.55228535973E+03  0.25500000920E-02 0.  1.
       -2    1    3    3    0  502  0.29974228593E+03 -0.39910438053E+02  0.29835293393E+02  0.30385592931E+03  0.25500000920E-02 0. -1.
</event>
<event>
 5   0  0.1969818E-02  0.6992980E+03  0.7818609E-02  0.9718433E-01
       -1   -1    0    0    0  501  0.00000000000E+00  0.00000000000E+00  0.18495779686E+03  0.18495779693E+03  0.50400001928E-02 0. -1.
        1   -1    0    0  501    0  0.00000000000E+00  0.00000000000E+00 -0.66098550501E+03  0.66098550503E+03  0.50400001928E-02 0.  1.
    10030    2    1    2    0    0  0.00000000000E+00  0.00000000000E+00 -0.47602770815E+03  0.84594330196E+03  0.69929799885E+03 0.  0.
        1    1    3    3  502    0  0.15154042542E+03  0.24020641542E+03  0.86909513279E+01  0.28414636229E+03  0.50400001928E-02 0. -1.
       -1    1    3    3    0  502 -0.15154042542E+03 -0.24020641542E+03 -0.48471865947E+03  0.56179693966E+03  0.50400001928E-02 0.  1.
</event>
<event>
 5   0  0.1839038E-02  0.7238105E+03  0.7818609E-02  0.9677358E-01
        1   -1    0    0  501    0  0.00000000000E+00  0.00000000000E+00  0.85133804388E+03  0.85133804389E+03  0.50400001928E-02 0.  1.
       -1   -1    0    0    0  501  0.00000000000E+00  0.00000000000E+00 -0.15384652142E+03  0.15384652150E+03  0.50400001928E-02 0. -1.
    10030    2    1    2    0    0  0.00000000000E+00  0.00000000000E+00  0.69749152246E+03  0.10051845654E+04  0.72381046317E+03 0.  0.
        5    1    3    3  502    0  0.88998477418E+02  0.27913245111E+03  0.64372686853E+03  0.70727789836E+03  0.46999998093E+01 0.  1.
       -5    1    3    3    0  502 -0.88998477418E+02 -0.27913245111E+03  0.53764653930E+02  0.29790666703E+03  0.46999998093E+01 0. -1.
</event>
<event>
 5   0  0.3183963E-02  0.7018573E+03  0.7818609E-02  0.9714061E-01
        2   -1    0    0  501    0  0.00000000000E+00  0.00000000000E+00  0.52752355174E+03  0.52752355174E+03  0.25500000920E-02 0.  1.
       -2   -1    0    0    0  501  0.00000000000E+00  0.00000000000E+00 -0.23345100485E+03  0.23345100486E+03  0.25500000920E-02 0. -1.
    10030    2    1    2    0    0  0.00000000000E+00  0.00000000000E+00  0.29407254689E+03  0.76097455661E+03  0.70185725968E+03 0.  0.
        4    1    3    3  502    0  0.29412363171E+03 -0.11539275498E+03  0.31262585926E+03  0.44447805279E+03  0.12699999809E+01 0.  1.
       -4    1    3    3    0  502 -0.29412363171E+03  0.11539275498E+03 -0.18553312370E+02  0.31649650382E+03  0.12699999809E+01 0. -1.
</event>
<event>
 5   0  0.1969818E-02  0.6789237E+03  0.7818609E-02  0.9753970E-01
       -1   -1    0    0    0  501  0.00000000000E+00  0.00000000000E+00  0.66504707402E+02  0.66504707593E+02  0.50400001928E-02 0. -1.
        1   -1    0    0  501    0  0.00000000000E+00  0.00000000000E+00 -0.17327246610E+04  0.17327246610E+04  0.50400001928E-02 0.  1.
    10030    2    1    2    0    0  0.00000000000E+00  0.00000000000E+00 -0.16662199536E+04  0.17992293686E+04  0.67892369753E+03 0.  0.
        1    1    3    3  502    0 -0.32089025312E+03  0.25350608221E+02 -0.11187966021E+04  0.11641817061E+04  0.50400001928E-02 0. -1.
       -1    1    3    3    0  502  0.32089025312E+03 -0.25350608221E+02 -0.54742335155E+03  0.63504766257E+03  0.50400001928E-02 0.  1.
</event>
<event>
 5   0  0.1233912E-02  0.7048017E+03  0.7818609E-02  0.9709056E-01
        3   -1    0    0  501    0  0.00000000000E+00  0.00000000000E+00  0.18653210363E+03  0.18653213098E+03  0.10100000352E+00 0.  1.
       -3   -1    0    0    0  501  0.00000000000E+00  0.00000000000E+00 -0.66576400127E+03  0.66576400893E+03  0.10100000352E+00 0. -1.
    10030    2    1    2    0    0  0.00000000000E+00  0.00000000000E+00 -0.47923189764E+03  0.85229613991E+03  0.70480174403E+03 0.  0.
        2    1    3    3  502    0 -0.16074828025E+03  0.11462741277E+02  0.13936065261E+03  0.21305585076E+03  0.25500000920E-02 0.  1.
       -2    1    3    3    0  502  0.16074828025E+03 -0.11462741277E+02 -0.61859255025E+03  0.63924028915E+03  0.25500000920E-02 0. -1.
</event>
<event>
 5   0  0.1969818E-02  0.6971197E+03  0.7818609E-02  0.9722171E-01
       -1   -1    0    0    0  501  0.00000000000E+00  0.00000000000E+00  0.12229215999E+03  0.12229216009E+03  0.50400001928E-02 0. -1.
        1   -1    0    0  501    0  0.00000000000E+00  0.00000000000E+00 -0.99347311255E+03  0.99347311257E+03  0.50400001928E-02 0.  1.
    10030    2    1    2    0    0  0.00000000000E+00  0.00000000000E+00 -0.87118095256E+03  0.11157652727E+04  0.69711971107E+03 0.  0.
        1    1    3    3  502    0 -0.20426301043E+03  0.24875182603E+02 -0.88588423999E+03  0.90946854746E+03  0.50400001928E-02 0.  1.
       -1    1    3    3    0  502  0.20426301043E+03 -0.24875182603E+02  0.14703287424E+02  0.20629672520E+03  0.50400001928E-02 0. -1.
</event>
<event>
 5   0  0.1858013E-02  0.7047184E+03  0.7818609E-02  0.9709197E-01
        1   -1    0    0  501    0  0.00000000000E+00  0.00000000000E+00  0.28604713342E+03  0.28604713347E+03  0.50400001928E-02 0. -1.
       -1   -1    0    0    0  501  0.00000000000E+00  0.00000000000E+00 -0.43404393138E+03  0.43404393141E+03  0.50400001928E-02 0.  1.
    10030    2    1    2    0    0  0.00000000000E+00  0.00000000000E+00 -0.14799679796E+03  0.72009106488E+03  0.70471844698E+03 0.  0.
        2    1    3    3  502    0 -0.24170929468E+02  0.62984018818E+02  0.27938643385E+03  0.28741607450E+03  0.25500000920E-02 0. -1.
       -2    1    3    3    0  502  0.24170929468E+02 -0.62984018818E+02 -0.42738323181E+03  0.43267499037E+03  0.25500000920E-02 0.  1.
</event>
<event>
 5   0  0.1858013E-02  0.7684862E+03  0.7818609E-02  0.9606787E-01
       -1   -1    0    0    0  501  0.00000000000E+00  0.00000000000E+00  0.11763816824E+04  0.11763816824E+04  0.50400001928E-02 0. -1.
        1   -1    0    0  501    0  0.00000000000E+00  0.00000000000E+00 -0.12550584277E+03  0.12550584287E+03  0.50400001928E-02 0.  1.
    10030    2    1    2    0    0  0.00000000000E+00  0.00000000000E+00  0.10508758396E+04  0.13018875253E+04  0.76848623811E+03 0.  0.
        2    1    3    3  502    0  0.21742715900E+03  0.18250240925E+03  0.86732874893E+02  0.29682366895E+03  0.25500000920E-02 0.  1.
       -2    1    3    3    0  502 -0.21742715900E+03 -0.18250240925E+03  0.96414296471E+03  0.10050638563E+04  0.25500000920E-02 0. -1.
</event>
<event>
 5   0  0.1839038E-02  0.6978177E+03  0.7818609E-02  0.9720972E-01
        1   -1    0    0  501    0  0.00000000000E+00  0.00000000000E+00  0.43755011159E+03  0.43755011162E+03  0.50400001928E-02 0. -1.
       -1   -1    0    0    0  501  0.00000000000E+00  0.00000000000E+00 -0.27822500864E+03  0.27822500868E+03  0.50400001928E-02 0.  1.
    10030    2    1    2    0    0  0.00000000000E+00  0.00000000000E+00  0.15932510295E+03  0.71577512030E+03  0.69781769425E+03 0.  0.
        5    1    3    3  502    0 -0.18557244953E+03 -0.90776666777E+02 -0.20870867389E+03  0.29369871946E+03  0.46999998093E+01 0.  1.
       -5    1    3    3    0  502  0.18557244953E+03  0.90776666777E+02  0.36803377684E+03  0.42207640084E+03  0.46999998093E+01 0. -1.
</event>
<event>
 5   0  0.3290656E-02  0.7089469E+03  0.7818609E-02  0.9702053E-01
        2   -1    0    0  501    0  0.00000000000E+00  0.00000000000E+00  0.91871297444E+03  0.91871297445E+03  0.25500000920E-02 0. -1.
       -2   -1    0    0    0  501  0.00000000000E+00  0.00000000000E+00 -0.13676895588E+03  0.13676895590E+03  0.25500000920E-02 0.  1.
    10030    2    1    2    0    0  0.00000000000E+00  0.00000000000E+00  0.78194401856E+03  0.10554819303E+04  0.70894686481E+03 0.  0.
        1    1    3    3  502    0 -0.25153748399E+03  0.15324313088E+03  0.68459789470E+03  0.74527098458E+03  0.50400001928E-02 0. -1.
       -1    1    3    3    0  502  0.25153748399E+03 -0.15324313088E+03  0.97346123869E+02  0.31021094576E+03  0.50400001928E-02 0.  1.
</event>
<event>
 5   0  0.1858013E-02  0.7020793E+03  0.7818609E-02  0.9713683E-01
       -1   -1    0    0    0  501  0.00000000000E+00  0.00000000000E+00  0.73245144702E+03  0.73245144704E+03  0.50400001928E-02 0. -1.
        1   -1    0    0  501    0  0.00000000000E+00  0.00000000000E+00 -0.16824162956E+03  0.16824162964E+03  0.50400001928E-02 0.  1.
    10030    2    1    2    0    0  0.00000000000E+00  0.00000000000E+00  0.56420981745E+03  0.90069307667E+03  0.70207926921E+03 0.  0.
        2    1    3    3  502    0 -0.16934658572E+03  0.30530062354E+03  0.32910310691E+03  0.47978702756E+03  0.25500000920E-02 0. -1.
       -2    1    3    3    0  502  0.16934658572E+03 -0.30530062354E+03  0.23510671055E+03  0.42090604911E+03  0.25500000920E-02 0.  1.
</event>
<event>
 5   0  0.3184443E-02  0.7058573E+03  0.7818609E-02  0.9707268E-01
       -2   -1    0    0    0  501  0.00000000000E+00  0.00000000000E+00  0.78163729465E+02  0.78163729507E+02  0.25500000920E-02 0. -1.
        2   -1    0    0  501    0  0.00000000000E+00  0.00000000000E+00 -0.15935605897E+04  0.15935605897E+04  0.25500000920E-02 0.  1.
    10030    2    1    2    0    0  0.00000000000E+00  0.00000000000E+00 -0.15153968602E+04  0.16717243192E+04  0.70585731944E+03 0.  0.
        3    1    3    3  502    0  0.29217476270E+03  0.63244887323E+02 -0.12019955966E+04  0.12386118973E+04  0.10100000352E+00 0.  1.
       -3    1    3    3    0  502 -0.29217476270E+03 -0.63244887323E+02 -0.31340126357E+03  0.43311242182E+03  0.10100000352E+00 0. -1.
</event>
<event>
 5   0  0.1951465E-02  0.7469685E+03  0.7818609E-02  0.9640118E-01
        1   -1    0    0  501    0  0.00000000000E+00  0.00000000000E+00  0.51018965161E+03  0.51018965163E+03  0.50400001928E-02 0. -1.
       -1   -1    0    0    0  501  0.00000000000E+00  0.00000000000E+00 -0.27340905280E+03  0.27340905285E+03  0.50400001928E-02 0.  1.
    10030    2    1    2    0    0  0.00000000000E+00  0.00000000000E+00  0.23678059881E+03  0.78359870448E+03  0.74696845830E+03 0.  0.
        4    1    3    3  502    0  0.33275125872E+03  0.16960373563E+03  0.11856958518E+03  0.39185352716E+03  0.12699999809E+01 0.  1.
       -4    1    3    3    0  502 -0.33275125872E+03 -0.16960373563E+03  0.11821101363E+03  0.39174517733E+03  0.12699999809E+01 0. -1.
</event>
<event>
 5   0  0.3290656E-02  0.6925799E+03  0.7818609E-02  0.9730006E-01
       -2   -1    0    0    0  501  0.00000000000E+00  0.00000000000E+00  0.46330661204E+02  0.46330661274E+02  0.25500000920E-02 0. -1.
        2   -1    0    0  501    0  0.00000000000E+00  0.00000000000E+00 -0.25882799974E+04  0.25882799974E+04  0.25500000920E-02 0.  1.
    10030    2    1    2    0    0  0.00000000000E+00  0.00000000000E+00 -0.25419493362E+04  0.26346106586E+04  0.69257988349E+03 0.  0.
        1    1    3    3  502    0 -0.52534286703E+02 -0.14831363508E+02 -0.25718101236E+04  0.25723893819E+04  0.50400001928E-02 0.  1.
       -1    1    3    3    0  502  0.52534286703E+02  0.14831363508E+02  0.29860787413E+02  0.62221276692E+02  0.50400001928E-02 0. -1.
</event>
<event>
 5   0  0.1884172E-02  0.7195665E+03  0.7818609E-02  0.9684344E-01
        1   -1    0    0  501    0  0.00000000000E+00  0.00000000000E+00  0.41204921386E+03  0.41204921389E+03  0.50400001928E-02 0. -1.
       -1   -1    0    0    0  501  0.00000000000E+00  0.00000000000E+00 -0.31414690715E+03  0.31414690719E+03  0.50400001928E-02 0.  1.
    10030    2    1    2    0    0  0.00000000000E+00  0.00000000000E+00  0.97902306707E+02  0.72619612108E+03  0.71956649770E+03 0.  0.
        3    1    3    3  502    0 -0.70473730373E+02  0.32660665031E+03  0.18361790511E+03  0.38125319144E+03  0.10100000352E+00 0. -1.
       -3    1    3    3    0  502  0.70473730373E+02 -0.32660665031E+03 -0.85715598408E+02  0.34494292964E+03  0.10100000352E+00 0.  1.
</event>
<event>
 5   0  0.3183963E-02  0.7006576E+03  0.7818609E-02  0.9716108E-01
        2   -1    0    0  501    0  0.00000000000E+00  0.00000000000E+00  0.43072177282E+03  0.43072177283E+03  0.25500000920E-02 0.  1.
       -2   -1    0    0    0  501  0.00000000000E+00  0.00000000000E+00 -0.28494093221E+03  0.28494093222E+03  0.25500000920E-02 0. -1.
    10030    2    1    2    0    0  0.00000000000E+00  0.00000000000E+00  0.14578084061E+03  0.71566270504E+03  0.70065758677E+03 0.  0.
        4    1    3    3  502    0 -0.18428559291E+03 -0.86018288481E+02  0.36425063223E+03  0.41718156920E+03  0.12699999809E+01 0.  1.
       -4    1    3    3    0  502  0.18428559291E+03  0.86018288481E+02 -0.21846979161E+03  0.29848113584E+03  0.12699999809E+01 0. -1.
</event>
<event>
 5   0  0.1233912E-02  0.6685353E+03  0.7818609E-02  0.9772607E-01
        3   -1    0    0  501    0  0.00000000000E+00  0.00000000000E+00  0.51319285625E+03  0.51319286618E+03  0.10100000352E+00 0. -1.
       -3   -1    0    0    0  501  0.00000000000E+00  0.00000000000E+00 -0.21772488186E+03  0.21772490529E+03  0.10100000352E+00 0.  1.
    10030    2    1    2    0    0  0.00000000000E+00  0.00000000000E+00  0.29546797438E+03  0.73091777148E+03  0.66853531303E+03 0.  0.
        1    1    3    3  502    0  0.17662466195E+03 -0.18919739419E+03  0.37899713503E+03  0.45894526206E+03  0.50400001928E-02 0. -1.
       -1    1    3    3    0  502 -0.17662466195E+03  0.18919739419E+03 -0.83529160654E+02  0.27197250942E+03  0.50400001928E-02 0.  1.
</event>
<event>
 5   0  0.2933851E-02  0.6955112E+03  0.7818609E-02  0.9724940E-01
        2   -1    0    0  501    0  0.00000000000E+00  0.00000000000E+00  0.19400217658E+03  0.19400217659E+03  0.25500000920E-02 0. -1.
       -2   -1    0    0    0  501  0.00000000000E+00  0.00000000000E+00 -0.62336395746E+03  0.62336395746E+03  0.25500000920E-02 0.  1.
    10030    2    1    2    0    0  0.00000000000E+00  0.00000000000E+00 -0.42936178088E+03  0.81736613406E+03  0.69551122077E+03 0.  0.
        2    1    3    3  502    0 -0.19376552429E+03  0.35853524356E+02  0.12205786210E+03  0.23179446783E+03  0.25500000920E-02 0. -1.
       -2    1    3    3    0  502  0.19376552429E+03 -0.35853524356E+02 -0.55141964298E+03  0.58557166622E+03  0.25500000920E-02 0.  1.
</event>
<event>
 5   0  0.3113940E-02  0.7000338E+03  0.7818609E-02  0.9717174E-01
        2   -1    0    0  501    0  0.00000000000E+00  0.00000000000E+00  0.52878602983E+03  0.52878602984E+03  0.25500000920E-02 0. -1.
       -2   -1    0    0    0  501  0.00000000000E+00  0.00000000000E+00 -0.23168507514E+03  0.23168507516E+03  0.25500000920E-02 0.  1.
    10030    2    1    2    0    0  0.00000000000E+00  0.00000000000E+00  0.29710095469E+03  0.76047110499E+03  0.70003380222E+03 0.  0.
        5    1    3    3  502    0  0.19063313565E+03 -0.19212550745E+03 -0.92499702873E+02  0.28606203532E+03  0.46999998093E+01 0.  1.
       -5    1    3    3    0  502 -0.19063313565E+03  0.19212550745E+03  0.38960065756E+03  0.47440906967E+03  0.46999998093E+01 0. -1.
</event>
<event>
 5   0  0.2933851E-02  0.6965263E+03  0.7818609E-02  0.9723191E-01
        2   -1    0    0  501    0  0.00000000000E+00  0.00000000000E+00  0.34644362529E+03  0.34644362530E+03  0.25500000920E-02 0.  1.
       -2   -1    0    0    0  501  0.00000000000E+00  0.00000000000E+00 -0.35009227298E+03  0.35009227299E+03  0.25500000920E-02 0. -1.
    10030    2    1    2    0    0  0.00000000000E+00  0.00000000000E+00 -0.36486476896E+01  0.69653589829E+03  0.69652634191E+03 0.  0.
        2    1    3    3  502    0 -0.71247806961E+02  0.29231225538E+03 -0.17722493895E+03  0.34918674608E+03  0.25500000920E-02 0. -1.
       -2    1    3    3    0  502  0.71247806961E+02 -0.29231225538E+03  0.17357629126E+03  0.34734915221E+03  0.25500000920E-02 0.  1.
</event>
<event>
 5   0  0.3184443E-02  0.6943674E+03  0.7818609E-02  0.9726914E-01
        2   -1    0    0  501    0  0.00000000000E+00  0.00000000000E+00  0.15043140737E+04  0.15043140737E+04  0.25500000920E-02 0. -1.
       -2   -1    0    0    0  501  0.00000000000E+00  0.00000000000E+00 -0.80127223243E+02  0.80127223284E+02  0.25500000920E-02 0.  1.
    10030    2    1    2    0    0  0.00000000000E+00  0.00000000000E+00  0.14241868505E+04  0.15844412970E+04  0.69436736573E+03 0.  0.
        3    1    3    3  502    0 -0.34276426258E+03 -0.12475525786E+02  0.58934945364E+03  0.68189131623E+03  0.10100000352E+00 0. -1.
       -3    1    3    3    0  502  0.34276426258E+03  0.12475525786E+02  0.83483739686E+03  0.90254998080E+03  0.10100000352E+00 0.  1.
</event>
<event>
 5   0  0.3184443E-02  0.7511271E+03  0.7818609E-02  0.9633584E-01
        2   -1    0    0  501    0  0.00000000000E+00  0.00000000000E+00  0.24864142797E+03  0.24864142798E+03  0.25500000920E-02 0. -1.
       -2   -1    0    0    0  501  0.00000000000E+00  0.00000000000E+00 -0.56727459356E+03  0.56727459356E+03  0.25500000920E-02 0.  1.
    10030    2    1    2    0    0  0.00000000000E+00  0.00000000000E+00 -0.31863316559E+03  0.81591602154E+03  0.75112705982E+03 0.  0.
        3    1    3    3  502    0 -0.11178956102E+03  0.31536598053E+03 -0.34460310295E+03  0.48031647524E+03  0.10100000352E+00 0.  1.
       -3    1    3    3    0  502  0.11178956102E+03 -0.31536598053E+03  0.25969937363E+02  0.33559954630E+03  0.10100000352E+00 0. -1.
</event>
<event>
 5   0  0.2933851E-02  0.7035703E+03  0.7818609E-02  0.9711146E-01
       -2   -1    0    0    0  501  0.00000000000E+00  0.00000000000E+00  0.89569223381E+02  0.89569223417E+02  0.25500000920E-02 0.  1.
        2   -1    0    0  501    0  0.00000000000E+00  0.00000000000E+00 -0.13816441980E+04  0.13816441980E+04  0.25500000920E-02 0. -1.
    10030    2    1    2    0    0  0.00000000000E+00  0.00000000000E+00 -0.12920749746E+04  0.14712134214E+04  0.70357031725E+03 0.  0.
        2    1    3    3  502    0 -0.12185166412E+03  0.29616242917E+03 -0.95044978193E+03  0.10029530400E+04  0.25500000920E-02 0. -1.
       -2    1    3    3    0  502  0.12185166412E+03 -0.29616242917E+03 -0.34162519268E+03  0.46826038139E+03  0.25500000920E-02 0.  1.
</event>
<event>
 5   0  0.1233912E-02  0.7033088E+03  0.7818609E-02  0.9711590E-01
       -3   -1    0    0    0  501  0.00000000000E+00  0.00000000000E+00  0.80856738257E+02  0.80856801338E+02  0.10100000352E+00 0.  1.
        3   -1    0    0  501    0  0.00000000000E+00  0.00000000000E+00 -0.15293811532E+04  0.15293811566E+04  0.10100000352E+00 0. -1.
    10030    2    1    2    0    0  0.00000000000E+00  0.00000000000E+00 -0.14485244150E+04  0.16102379579E+04  0.70330882285E+03 0.  0.
        4    1    3    3  502    0  0.31889420674E+03  0.41203511168E+02 -0.39831362501E+03  0.51190487515E+03  0.12699999809E+01 0.  1.
       -4    1    3    3    0  502 -0.31889420674E+03 -0.41203511168E+02 -0.10502107900E+04  0.10983330827E+04  0.12699999809E+01 0. -1.
</event>
<event>
 5   0  0.1233912E-02  0.7029076E+03  0.7818609E-02  0.9712273E-01
        4   -1    0    0  501    0  0.00000000000E+00  0.00000000000E+00  0.35678983968E+03  0.35679209997E+03  0.12699999809E+01 0. -1.
       -4   -1    0    0    0  501  0.00000000000E+00  0.00000000000E+00 -0.34619304581E+03  0.34619537528E+03  0.12699999809E+01 0.  1.
    10030    2    1    2    0    0  0.00000000000E+00  0.00000000000E+00  0.10596793872E+02  0.70298747525E+03  0.70290760297E+03 0.  0.
        4    1    3    3  502    0  0.31111432405E+03  0.35682920087E+02  0.16485576296E+03  0.35389889643E+03  0.12699999809E+01 0. -1.
       -4    1    3    3    0  502 -0.31111432405E+03 -0.35682920087E+02 -0.15425896909E+03  0.34908857881E+03  0.12699999809E+01 0.  1.
</event>
<event>
 5   0  0.3184443E-02  0.7121058E+03  0.7818609E-02  0.9696751E-01
       -2   -1    0    0    0  501  0.00000000000E+00  0.00000000000E+00  0.88441724928E+02  0.88441724965E+02  0.25500000920E-02 0. -1.
        2   -1    0    0  501    0  0.00000000000E+00  0.00000000000E+00 -0.14334147668E+04  0.14334147668E+04  0.25500000920E-02 0.  1.
    10030    2    1    2    0    0  0.00000000000E+00  0.00000000000E+00 -0.13449730419E+04  0.15218564918E+04  0.71210581950E+03 0.  0.
        3    1    3    3  502    0  0.11845371615E+03  0.32523910400E+03 -0.49416930880E+03  0.60333661715E+03  0.10100000352E+00 0. -1.
       -3    1    3    3    0  502 -0.11845371615E+03 -0.32523910400E+03 -0.85080373307E+03  0.91851987460E+03  0.10100000352E+00 0.  1.
</event>
<event>
 5   0  0.1951465E-02  0.7021191E+03  0.7818609E-02  0.9713615E-01
        1   -1    0    0  501    0  0.00000000000E+00  0.00000000000E+00  0.37758164941E+03  0.37758164944E+03  0.50400001928E-02 0. -1.
       -1   -1    0    0    0  501  0.00000000000E+00  0.00000000000E+00 -0.32640040802E+03  0.32640040805E+03  0.50400001928E-02 0.  1.
    10030    2    1    2    0    0  0.00000000000E+00  0.00000000000E+00  0.51181241390E+02  0.70398205749E+03  0.70211909090E+03 0.  0.
        4    1    3    3  502    0 -0.20146246418E+03 -0.25060118837E+03  0.16686555012E+03  0.36226206646E+03  0.12699999809E+01 0. -1.
       -4    1    3    3    0  502  0.20146246418E+03  0.25060118837E+03 -0.11568430873E+03  0.34171999103E+03  0.12699999809E+01 0.  1.
</event>
<event>
 5   0  0.3290656E-02  0.7020097E+03  0.7818609E-02  0.9713801E-01
       -2   -1    0    0    0  501  0.00000000000E+00  0.00000000000E+00  0.18551791099E+03  0.18551791101E+03  0.25500000920E-02 0. -1.
        2   -1    0    0  501    0  0.00000000000E+00  0.00000000000E+00 -0.66411060148E+03  0.66411060149E+03  0.25500000920E-02 0.  1.
    10030    2    1    2    0    0  0.00000000000E+00  0.00000000000E+00 -0.47859269049E+03  0.84962851249E+03  0.70200971920E+03 0.  0.
        1    1    3    3  502    0  0.20657770532E+03  0.20711526719E+03 -0.45103039859E+01  0.29256012220E+03  0.50400001928E-02 0. -1.
       -1    1    3    3    0  502 -0.20657770532E+03 -0.20711526719E+03 -0.47408238651E+03  0.55706839029E+03  0.50400001928E-02 0.  1.
</event>
<event>
 5   0  0.2933851E-02  0.7019484E+03  0.7818609E-02  0.9713906E-01
        2   -1    0    0  501    0  0.00000000000E+00  0.00000000000E+00  0.11465965607E+04  0.11465965607E+04  0.25500000920E-02 0. -1.
       -2   -1    0    0    0  501  0.00000000000E+00  0.00000000000E+00 -0.10743350455E+03  0.10743350458E+03  0.25500000920E-02 0.  1.
    10030    2    1    2    0    0  0.00000000000E+00  0.00000000000E+00  0.10391630562E+04  0.12540300653E+04  0.70194839366E+03 0.  0.
        2    1    3    3  502    0  0.33357667187E+03 -0.52531164457E+02  0.69046991172E+03  0.76862319654E+03  0.25500000920E-02 0. -1.
       -2    1    3    3    0  502 -0.33357667187E+03  0.52531164457E+02  0.34869314448E+03  0.48540686879E+03  0.25500000920E-02 0.  1.
</event>
<event>
 5   0  0.1858013E-02  0.6962077E+03  0.7818609E-02  0.9723740E-01
       -1   -1    0    0    0  501  0.00000000000E+00  0.00000000000E+00  0.21548753944E+03  0.21548753950E+03  0.50400001928E-02 0. -1.
        1   -1    0    0  501    0  0.00000000000E+00  0.00000000000E+00 -0.56233556312E+03  0.56233556314E+03  0.50400001928E-02 0.  1.
    10030    2    1    2    0    0  0.00000000000E+00  0.00000000000E+00 -0.34684802368E+03  0.77782310264E+03  0.69620774735E+03 0.  0.
        2    1    3    3  502    0 -0.12101442778E+03  0.17932067082E+03 -0.47811396846E+03  0.52477934559E+03  0.25500000920E-02 0.  1.
       -2    1    3    3    0  502  0.12101442778E+03 -0.17932067082E+03  0.13126594478E+03  0.25304375705E+03  0.25500000920E-02 0. -1.
</event>
<event>
 5   0  0.3113940E-02  0.7086734E+03  0.7818609E-02  0.9702513E-01
       -2   -1    0    0    0  501  0.00000000000E+00  0.00000000000E+00  0.96626066144E+02  0.96626066178E+02  0.25500000920E-02 0.  1.
        2   -1    0    0  501    0  0.00000000000E+00  0.00000000000E+00 -0.12993855340E+04  0.12993855340E+04  0.25500000920E-02 0. -1.
    10030    2    1    2    0    0  0.00000000000E+00  0.00000000000E+00 -0.12027594679E+04  0.13960116002E+04  0.70867344407E+03 0.  0.
        5    1    3    3  502    0  0.24415882641E+03  0.12873644575E+02 -0.11065074291E+04  0.11332078555E+04  0.46999998093E+01 0. -1.
       -5    1    3    3    0  502 -0.24415882641E+03 -0.12873644575E+02 -0.96252038800E+02  0.26280374467E+03  0.46999998093E+01 0.  1.
</event>
<event>
 5   0  0.1884172E-02  0.6880739E+03  0.7818609E-02  0.9737848E-01
        1   -1    0    0  501    0  0.00000000000E+00  0.00000000000E+00  0.81849813219E+03  0.81849813220E+03  0.50400001928E-02 0.  1.
       -1   -1    0    0    0  501  0.00000000000E+00  0.00000000000E+00 -0.14460805839E+03  0.14460805847E+03  0.50400001928E-02 0. -1.
    10030    2    1    2    0    0  0.00000000000E+00  0.00000000000E+00  0.67389007380E+03  0.96310619068E+03  0.68807390806E+03 0.  0.
        3    1    3    3  502    0  0.16170317056E+03  0.21306891138E+03  0.34091782934E+02  0.26964520435E+03  0.10100000352E+00 0. -1.
       -3    1    3    3    0  502 -0.16170317056E+03 -0.21306891138E+03  0.63979829087E+03  0.69346098633E+03  0.10100000352E+00 0.  1.
</event>
<event>
 5   0  0.1884172E-02  0.6959556E+03  0.7818609E-02  0.9724174E-01
       -1   -1    0    0    0  501  0.00000000000E+00  0.00000000000E+00  0.25218490282E+03  0.25218490287E+03  0.50400001928E-02 0. -1.
        1   -1    0    0  501    0  0.00000000000E+00  0.00000000000E+00 -0.48015786857E+03  0.48015786859E+03  0.50400001928E-02 0.  1.
    10030    2    1    2    0    0  0.00000000000E+00  0.00000000000E+00 -0.22797296575E+03  0.73234277146E+03  0.69595564643E+03 0.  0.
        3    1    3    3  502    0 -0.29668238155E+03  0.31357249575E+02 -0.30247408663E+03  0.42484620265E+03  0.10100000352E+00 0.  1.
       -3    1    3    3    0  502  0.29668238155E+03 -0.31357249575E+02  0.74501120877E+02  0.30749656882E+03  0.10100000352E+00 0. -1.
</event>
<event>
 5   0  0.1951465E-02  0.7010695E+03  0.7818609E-02  0.9715405E-01
       -1   -1    0    0    0  501  0.00000000000E+00  0.00000000000E+00  0.46405630745E+03  0.46405630748E+03  0.50400001928E-02 0. -1.
        1   -1    0    0  501    0  0.00000000000E+00  0.00000000000E+00 -0.26478384798E+03  0.26478384803E+03  0.50400001928E-02 0.  1.
    10030    2    1    2    0    0  0.00000000000E+00  0.00000000000E+00  0.19927245947E+03  0.72884015550E+03  0.70106951094E+03 0.  0.
        4    1    3    3  502    0  0.15259202801E+03 -0.28709201512E+03  0.23584858882E+03  0.40166194979E+03  0.12699999809E+01 0.  1.
       -4    1    3    3    0  502 -0.15259202801E+03  0.28709201512E+03 -0.36576129350E+02  0.32717820572E+03  0.12699999809E+01 0. -1.
</event>
<event>
 5   0  0.3183963E-02  0.7687009E+03  0.7818609E-02  0.9606460E-01
       -2   -1    0    0    0  501  0.00000000000E+00  0.00000000000E+00  0.68444136093E+02  0.68444136140E+02  0.25500000920E-02 0. -1.
        2   -1    0    0  501    0  0.00000000000E+00  0.00000000000E+00 -0.21583335829E+04  0.21583335829E+04  0.25500000920E-02 0.  1.
    10030    2    1    2    0    0  0.00000000000E+00  0.00000000000E+00 -0.20898894468E+04  0.22267777191E+04  0.76870092374E+03 0.  0.
        4    1    3    3  502    0 -0.26681287468E+03 -0.18650975227E+03 -0.45305504028E+03  0.55788482701E+03  0.12699999809E+01 0. -1.
       -4    1    3    3    0  502  0.26681287468E+03  0.18650975227E+03 -0.16368344066E+04  0.16688928921E+04  0.12699999809E+01 0.  1.
</event>
<event>
 5   0  0.2933851E-02  0.6519853E+03  0.7818609E-02  0.9803061E-01
       -2   -1    0    0    0  501  0.00000000000E+00  0.00000000000E+00  0.16229822696E+03  0.16229822698E+03  0.25500000920E-02 0.  1.
        2   -1    0    0  501    0  0.00000000000E+00  0.00000000000E+00 -0.65478965617E+03  0.65478965618E+03  0.25500000920E-02 0. -1.
    10030    2    1    2    0    0  0.00000000000E+00  0.00000000000E+00 -0.49249142922E+03  0.81708788315E+03  0.65198527663E+03 0.  0.
        2    1    3    3  502    0  0.13163825451E+03  0.16152800602E+03  0.67941148753E+02  0.21917099826E+03  0.25500000920E-02 0.  1.
       -2    1    3    3    0  502 -0.13163825451E+03 -0.16152800602E+03 -0.56043257797E+03  0.59791688489E+03  0.25500000920E-02 0. -1.
</event>
<event>
 5   0  0.3183963E-02  0.6858517E+03  0.7818609E-02  0.9741738E-01
        2   -1    0    0  501    0  0.00000000000E+00  0.00000000000E+00  0.46501116725E+03  0.46501116726E+03  0.25500000920E-02 0.  1.
       -2   -1    0    0    0  501  0.00000000000E+00  0.00000000000E+00 -0.25289311512E+03  0.25289311513E+03  0.25500000920E-02 0. -1.
    10030    2    1    2    0    0  0.00000000000E+00  0.00000000000E+00  0.21211805213E+03  0.71790428239E+03  0.68585165352E+03 0.  0.
        4    1    3    3  502    0  0.47853280904E+02 -0.23738895299E+03  0.36020868063E+03  0.43404534094E+03  0.12699999809E+01 0.  1.
       -4    1    3    3    0  502 -0.47853280904E+02  0.23738895299E+03 -0.14809062850E+03  0.28385894145E+03  0.12699999809E+01 0. -1.
</event>
<event>
 5   0  0.3290656E-02  0.7130363E+03  0.7818609E-02  0.9695195E-01
       -2   -1    0    0    0  501  0.00000000000E+00  0.00000000000E+00  0.41054355107E+03  0.41054355108E+03  0.25500000920E-02 0.  1.
        2   -1    0    0  501    0  0.00000000000E+00  0.00000000000E+00 -0.30960217277E+03  0.30960217278E+03  0.25500000920E-02 0. -1.
    10030    2    1    2    0    0  0.00000000000E+00  0.00000000000E+00  0.10094137830E+03  0.72014572385E+03  0.71303625555E+03 0.  0.
        1    1    3    3  502    0 -0.20405604944E+03 -0.22190640273E+03  0.24269401710E+03  0.38701641935E+03  0.50400001928E-02 0. -1.
       -1    1    3    3    0  502  0.20405604944E+03  0.22190640273E+03 -0.14175263880E+03  0.33312930450E+03  0.50400001928E-02 0.  1.
</event>
<event>
 5   0  0.3184443E-02  0.7006395E+03  0.7818609E-02  0.9716139E-01
        2   -1    0    0  501    0  0.00000000000E+00  0.00000000000E+00  0.69418759235E+03  0.69418759235E+03  0.25500000920E-02 0.  1.
       -2   -1    0    0    0  501  0.00000000000E+00  0.00000000000E+00 -0.17678785518E+03  0.17678785520E+03  0.25500000920E-02 0. -1.
    10030    2    1    2    0    0  0.00000000000E+00  0.00000000000E+00  0.51739973716E+03  0.87097544755E+03  0.70063952374E+03 0.  0.
        3    1    3    3  502    0  0.19373717511E+03  0.71094944869E+02 -0.93203419705E+02  0.22644087937E+03  0.10100000352E+00 0. -1.
       -3    1    3    3    0  502 -0.19373717511E+03 -0.71094944869E+02  0.61060315687E+03  0.64453456818E+03  0.10100000352E+00 0.  1.
</event>
<event>
 5   0  0.1969818E-02  0.6925384E+03  0.7818609E-02  0.9730078E-01
       -1   -1    0    0    0  501  0.00000000000E+00  0.00000000000E+00  0.89153181945E+02  0.89153182087E+02  0.50400001928E-02 0. -1.
        1   -1    0    0  501    0  0.00000000000E+00  0.00000000000E+00 -0.13449028578E+04  0.13449028578E+04  0.50400001928E-02 0.  1.
    10030    2    1    2    0    0  0.00000000000E+00  0.00000000000E+00 -0.12557496759E+04  0.14340560399E+04  0.69253843009E+03 0.  0.
        1    1    3    3  502    0  0.23069672780E+03  0.20321070064E+03 -0.29794147988E+03  0.42811761764E+03  0.50400001928E-02 0. -1.
       -1    1    3    3    0  502 -0.23069672780E+03 -0.20321070064E+03 -0.95780819597E+03  0.10059384223E+04  0.50400001928E-02 0.  1.
</event>
<event>
 5   0  0.2933851E-02  0.6929822E+03  0.7818609E-02  0.9729309E-01
       -2   -1    0    0    0  501  0.00000000000E+00  0.00000000000E+00  0.62279846559E+02  0.62279846611E+02  0.25500000920E-02 0.  1.
        2   -1    0    0  501    0  0.00000000000E+00  0.00000000000E+00 -0.19276874232E+04  0.19276874232E+04  0.25500000920E-02 0. -1.
    10030    2    1    2    0    0  0.00000000000E+00  0.00000000000E+00 -0.18654075766E+04  0.19899672698E+04  0.69298218443E+03 0.  0.
        2    1    3    3  502    0 -0.82545973827E+02  0.64565061986E+02  0.15679016927E+02  0.10596375136E+03  0.25500000920E-02 0.  1.
       -2    1    3    3    0  502  0.82545973827E+02 -0.64565061986E+02 -0.18810865936E+04  0.18840035184E+04  0.25500000920E-02 0. -1.
</event>
<event>
 5   0  0.1858013E-02  0.7003664E+03  0.7818609E-02  0.9716606E-01
        1   -1    0    0  501    0  0.00000000000E+00  0.00000000000E+00  0.41928471765E+03  0.41928471769E+03  0.50400001928E-02 0.  1.
       -1   -1    0    0    0  501  0.00000000000E+00  0.00000000000E+00 -0.29247016107E+03  0.29247016111E+03  0.50400001928E-02 0. -1.
    10030    2    1    2    0    0  0.00000000000E+00  0.00000000000E+00  0.12681455659E+03  0.71175487879E+03  0.70036638678E+03 0.  0.
        2    1    3    3  502    0  0.74657101037E+02  0.28183660505E+03 -0.13371250827E+03  0.32075627750E+03  0.25500000920E-02 0.  1.
       -2    1    3    3    0  502 -0.74657101037E+02 -0.28183660505E+03  0.26052706486E+03  0.39099860129E+03  0.25500000920E-02 0. -1.
</event>
<event>
 5   0  0.2933851E-02  0.7037438E+03  0.7818609E-02  0.9710851E-01
       -2   -1    0    0    0  501  0.00000000000E+00  0.00000000000E+00  0.24752256536E+03  0.24752256537E+03  0.25500000920E-02 0.  1.
        2   -1    0    0  501    0  0.00000000000E+00  0.00000000000E+00 -0.50021224288E+03  0.50021224289E+03  0.25500000920E-02 0. -1.
    10030    2    1    2    0    0  0.00000000000E+00  0.00000000000E+00 -0.25268967753E+03  0.74773480826E+03  0.70374375334E+03 0.  0.
        2    1    3    3  502    0 -0.48800785530E+02  0.28172084615E+03  0.91575080169E+02  0.30022349531E+03  0.25500000920E-02 0.  1.
       -2    1    3    3    0  502  0.48800785530E+02 -0.28172084615E+03 -0.34426475769E+03  0.44751131295E+03  0.25500000920E-02 0. -1.
</event>
<event>
 5   0  0.3183963E-02  0.7003537E+03  0.7818609E-02  0.9716628E-01
        2   -1    0    0  501    0  0.00000000000E+00  0.00000000000E+00  0.94018997638E+03  0.94018997639E+03  0.25500000920E-02 0. -1.
       -2   -1    0    0    0  501  0.00000000000E+00  0.00000000000E+00 -0.13042451546E+03  0.13042451548E+03  0.25500000920E-02 0.  1.
    10030    2    1    2    0    0  0.00000000000E+00  0.00000000000E+00  0.80976546093E+03  0.10706144919E+04  0.70035368813E+03 0.  0.
        4    1    3    3  502    0  0.34669527020E+03  0.48969860618E+02  0.41275973305E+03  0.54126506238E+03  0.12699999809E+01 0. -1.
       -4    1    3    3    0  502 -0.34669527020E+03 -0.48969860618E+02  0.39700572788E+03  0.52934942949E+03  0.12699999809E+01 0.  1.
</event>
<event>
 5   0  0.1969818E-02  0.6958614E+03  0.7818609E-02  0.9724336E-01
       -1   -1    0    0    0  501  0.00000000000E+00  0.00000000000E+00  0.20272089989E+03  0.20272089995E+03  0.50400001928E-02 0.  1.
        1   -1    0    0  501    0  0.00000000000E+00  0.00000000000E+00 -0.59715483879E+03  0.59715483881E+03  0.50400001928E-02 0. -1.
    10030    2    1    2    0    0  0.00000000000E+00  0.00000000000E+00 -0.39443393890E+03  0.79987573876E+03  0.69586138368E+03 0.  0.
        1    1    3    3  502    0  0.26010117692E+03  0.23012946740E+03 -0.17300768267E+03  0.38799980965E+03  0.50400001928E-02 0.  1.
       -1    1    3    3    0  502 -0.26010117692E+03 -0.23012946740E+03 -0.22142625623E+03  0.41187592910E+03  0.50400001928E-02 0. -1.
</event>
<event>
 5   0  0.1884172E-02  0.7060266E+03  0.7818609E-02  0.9706981E-01
       -1   -1    0    0    0  501  0.00000000000E+00  0.00000000000E+00  0.10750682205E+03  0.10750682216E+03  0.50400001928E-02 0. -1.
        1   -1    0    0  501    0  0.00000000000E+00  0.00000000000E+00 -0.11591671507E+04  0.11591671507E+04  0.50400001928E-02 0.  1.
    10030    2    1    2    0    0  0.00000000000E+00  0.00000000000E+00 -0.10516603287E+04  0.12666739729E+04  0.70602656231E+03 0.  0.
        3    1    3    3  502    0 -0.62296225870E+02  0.11158298783E+03 -0.11162100239E+04  0.11235018517E+04  0.10100000352E+00 0.  1.
       -3    1    3    3    0  502  0.62296225870E+02 -0.11158298783E+03  0.64549695285E+02  0.14317212122E+03  0.10100000352E+00 0. -1.
</event>
<event>
 5   0  0.3184443E-02  0.7071411E+03  0.7818609E-02  0.9705097E-01
        2   -1    0    0  501    0  0.00000000000E+00  0.00000000000E+00  0.12089824456E+04  0.12089824456E+04  0.25500000920E-02 0. -1.
       -2   -1    0    0    0  501  0.00000000000E+00  0.00000000000E+00 -0.10340278355E+03  0.10340278358E+03  0.25500000920E-02 0.  1.
    10030    2    1    2    0    0  0.00000000000E+00  0.00000000000E+00  0.11055796620E+04  0.13123852291E+04  0.70714114617E+03 0.  0.
        3    1    3    3  502    0  0.52324286519E+02 -0.27153098924E+03  0.96170056506E+03  0.10006672255E+04  0.10100000352E+00 0. -1.
       -3    1    3    3    0  502 -0.52324286519E+02  0.27153098924E+03  0.14387909695E+03  0.31171800367E+03  0.10100000352E+00 0.  1.
</event>
<event>
 5   0  0.1839038E-02  0.7010810E+03  0.7818609E-02  0.9715385E-01
        1   -1    0    0  501    0  0.00000000000E+00  0.00000000000E+00  0.48339886920E+03  0.48339886923E+03  0.50400001928E-02 0. -1.
       -1   -1    0    0    0  501  0.00000000000E+00  0.00000000000E+00 -0.25419719561E+03  0.25419719566E+03  0.50400001928E-02 0.  1.
    10030    2    1    2    0    0  0.00000000000E+00  0.00000000000E+00  0.22920167359E+03  0.73759606489E+03  0.70108098517E+03 0.  0.
        5    1    3    3  502    0 -0.10353285541E+03  0.16916764694E+02 -0.23726001971E+03  0.25946027833E+03  0.46999998093E+01 0.  1.
       -5    1    3    3    0  502  0.10353285541E+03 -0.16916764694E+02  0.46646169330E+03  0.47813578656E+03  0.46999998093E+01 0. -1.
</event>
<event>
 5   0  0.1951465E-02  0.6989191E+03  0.7818609E-02  0.9719083E-01
       -1   -1    0    0    0  501  0.00000000000E+00  0.00000000000E+00  0.18505200334E+03  0.18505200341E+03  0.50400001928E-02 0.  1.
        1   -1    0    0  501    0  0.00000000000E+00  0.00000000000E+00 -0.65993320761E+03  0.65993320763E+03  0.50400001928E-02 0. -1.
    10030    2    1    2    0    0  0.00000000000E+00  0.00000000000E+00 -0.47488120427E+03  0.84498521104E+03  0.69891905734E+03 0.  0.
        4    1    3    3  502    0 -0.92644728143E+02 -0.33600955956E+03 -0.20697793806E+03  0.40537260577E+03  0.12699999809E+01 0. -1.
       -4    1    3    3    0  502  0.92644728143E+02  0.33600955956E+03 -0.26790326621E+03  0.43961260527E+03  0.12699999809E+01 0.  1.
</event>
<event>
 5   0  0.3183963E-02  0.7002403E+03  0.7818609E-02  0.9716821E-01
       -2   -1    0    0    0  501  0.00000000000E+00  0.00000000000E+00  0.32870031154E+03  0.32870031155E+03  0.25500000920E-02 0.  1.
        2   -1    0    0  501    0  0.00000000000E+00  0.00000000000E+00 -0.37293576853E+03  0.37293576854E+03  0.25500000920E-02 0. -1.
    10030    2    1    2    0    0  0.00000000000E+00  0.00000000000E+00 -0.44235456995E+02  0.70163608009E+03  0.70024025394E+03 0.  0.
        4    1    3    3  502    0  0.31257282918E+03 -0.67180037198E+02 -0.16511716862E+03  0.35983360490E+03  0.12699999809E+01 0. -1.
       -4    1    3    3    0  502 -0.31257282918E+03  0.67180037198E+02  0.12088171163E+03  0.34180247519E+03  0.12699999809E+01 0.  1.
</event>
<event>
 5   0  0.3290656E-02  0.7133890E+03  0.7818609E-02  0.9694605E-01
       -2   -1    0    0    0  501  0.00000000000E+00  0.00000000000E+00  0.16005237749E+03  0.16005237751E+03  0.25500000920E-02 0.  1.
        2   -1    0    0  501    0  0.00000000000E+00  0.00000000000E+00 -0.79493337978E+03  0.79493337979E+03  0.25500000920E-02 0. -1.
    10030    2    1    2    0    0  0.00000000000E+00  0.00000000000E+00 -0.63488100229E+03  0.95498575730E+03  0.71338903102E+03 0.  0.
        1    1    3    3  502    0  0.99325012471E+02 -0.70435052437E+02  0.13136912874E+03  0.17912119564E+03  0.50400001928E-02 0.  1.
       -1    1    3    3    0  502 -0.99325012471E+02  0.70435052437E+02 -0.76625013103E+03  0.77586456166E+03  0.50400001928E-02 0. -1.
</event>
<event>
 5   0  0.1858013E-02  0.7022315E+03  0.7818609E-02  0.9713424E-01
        1   -1    0    0  501    0  0.00000000000E+00  0.00000000000E+00  0.20623811344E+04  0.20623811344E+04  0.50400001928E-02 0.  1.
       -1   -1    0    0    0  501  0.00000000000E+00  0.00000000000E+00 -0.59776659065E+02  0.59776659277E+02  0.50400001928E-02 0. -1.
    10030    2    1    2    0    0  0.00000000000E+00  0.00000000000E+00  0.20026044753E+04  0.21221577936E+04  0.70223145518E+03 0.  0.
        2    1    3    3  502    0  0.17422567216E+03 -0.24445473758E+03  0.45091647947E+03  0.54169952467E+03  0.25500000920E-02 0. -1.
       -2    1    3    3    0  502 -0.17422567216E+03  0.24445473758E+03  0.15516879958E+04  0.15804582690E+04  0.25500000920E-02 0.  1.
</event>
<event>
 5   0  0.2933851E-02  0.6985394E+03  0.7818609E-02  0.9719733E-01
       -2   -1    0    0    0  501  0.00000000000E+00  0.00000000000E+00  0.13704215912E+03  0.13704215914E+03  0.25500000920E-02 0. -1.
        2   -1    0    0  501    0  0.00000000000E+00  0.00000000000E+00 -0.89015908967E+03  0.89015908968E+03  0.25500000920E-02 0.  1.
    10030    2    1    2    0    0  0.00000000000E+00  0.00000000000E+00 -0.75311693056E+03  0.10272012488E+04  0.69853940081E+03 0.  0.
        2    1    3    3  502    0 -0.17819849336E+03 -0.19335424184E+03 -0.71460930807E+03  0.76145060842E+03  0.25500000920E-02 0.  1.
       -2    1    3    3    0  502  0.17819849336E+03  0.19335424184E+03 -0.38507622481E+02  0.26575064039E+03  0.25500000920E-02 0. -1.
</event>
<event>
 5   0  0.1233912E-02  0.6978213E+03  0.7818609E-02  0.9720965E-01
       -3   -1    0    0    0  501  0.00000000000E+00  0.00000000000E+00  0.91626042935E+02  0.91626098601E+02  0.10100000352E+00 0. -1.
        3   -1    0    0  501    0  0.00000000000E+00  0.00000000000E+00 -0.13286461356E+04  0.13286461395E+04  0.10100000352E+00 0.  1.
    10030    2    1    2    0    0  0.00000000000E+00  0.00000000000E+00 -0.12370200927E+04  0.14202722381E+04  0.69782126688E+03 0.  0.
        3    1    3    3  502    0  0.30900384129E+03 -0.13540295372E+02 -0.94714502880E+03  0.99636862120E+03  0.10100000352E+00 0.  1.
       -3    1    3    3    0  502 -0.30900384129E+03  0.13540295372E+02 -0.28987506390E+03  0.42390361688E+03  0.10100000352E+00 0. -1.
</event>
<event>
 5   0  0.3290656E-02  0.6886550E+03  0.7818609E-02  0.9736833E-01
        2   -1    0    0  501    0  0.00000000000E+00  0.00000000000E+00  0.28464144318E+03  0.28464144319E+03  0.25500000920E-02 0. -1.
       -2   -1    0    0    0  501  0.00000000000E+00  0.00000000000E+00 -0.41652904169E+03  0.41652904170E+03  0.25500000920E-02 0.  1.
    10030    2    1    2    0    0  0.00000000000E+00  0.00000000000E+00 -0.13188759851E+03  0.70117048489E+03  0.68865500089E+03 0.  0.
        1    1    3    3  502    0 -0.18721490149E+02 -0.33644117578E+03 -0.13807096583E+03  0.36415209814E+03  0.50400001928E-02 0.  1.
       -1    1    3    3    0  502  0.18721490149E+02  0.33644117578E+03  0.61833673217E+01  0.33701838675E+03  0.50400001928E-02 0. -1.
</event>
<event>
 5   0  0.3184443E-02  0.7017889E+03  0.7818609E-02  0.9714178E-01
        2   -1    0    0  501    0  0.00000000000E+00  0.00000000000E+00  0.56294376950E+03  0.56294376950E+03  0.25500000920E-02 0. -1.
       -2   -1    0    0    0  501  0.00000000000E+00  0.00000000000E+00 -0.21871976558E+03  0.21871976560E+03  0.25500000920E-02 0.  1.
    10030    2    1    2    0    0  0.00000000000E+00  0.00000000000E+00  0.34422400391E+03  0.78166353510E+03  0.70178894066E+03 0.  0.
        3    1    3    3  502    0  0.91563578440E+02  0.32565768792E+03  0.27594269009E+03  0.43655606400E+03  0.10100000352E+00 0. -1.
       -3    1    3    3    0  502 -0.91563578440E+02 -0.32565768792E+03  0.68281313824E+02  0.34510747111E+03  0.10100000352E+00 0.  1.
</event>
<event>
 5   0  0.2933851E-02  0.6991651E+03  0.7818609E-02  0.9718661E-01
       -2   -1    0    0    0  501  0.00000000000E+00  0.00000000000E+00  0.39199342126E+03  0.39199342126E+03  0.25500000920E-02 0. -1.
        2   -1    0    0  501    0  0.00000000000E+00  0.00000000000E+00 -0.31176024802E+03  0.31176024804E+03  0.25500000920E-02 0.  1.
    10030    2    1    2    0    0  0.00000000000E+00  0.00000000000E+00  0.80233173232E+02  0.70375366930E+03  0.69916511996E+03 0.  0.
        2    1    3    3  502    0 -0.83280982953E+01 -0.34698003749E+03 -0.19122370948E+01  0.34708523492E+03  0.25500000920E-02 0.  1.
       -2    1    3    3    0  502  0.83280982953E+01  0.34698003749E+03  0.82145410327E+02  0.35666843438E+03  0.25500000920E-02 0. -1.
</event>
<event>
 5   0  0.1839038E-02  0.6978269E+03  0.7818609E-02  0.9720956E-01
        1   -1    0    0  501    0  0.00000000000E+00  0.00000000000E+00  0.48657032732E+03  0.48657032735E+03  0.50400001928E-02 0. -1.
       -1   -1    0    0    0  501  0.00000000000E+00  0.00000000000E+00 -0.25020141365E+03  0.25020141370E+03  0.50400001928E-02 0.  1.
    10030    2    1    2    0    0  0.00000000000E+00  0.00000000000E+00  0.23636891367E+03  0.73677174105E+03  0.69782686610E+03 0.  0.
        5    1    3    3  502    0 -0.10357626763E+03 -0.32682518148E+03  0.49958036269E+02  0.34649767366E+03  0.46999998093E+01 0. -1.
       -5    1    3    3    0  502  0.10357626763E+03  0.32682518148E+03  0.18641087740E+03  0.39027406739E+03  0.46999998093E+01 0.  1.
</event>
<event>
 5   0  0.3183963E-02  0.6914102E+03  0.7818609E-02  0.9732036E-01
        2   -1    0    0  501    0  0.00000000000E+00  0.00000000000E+00  0.10816152820E+04  0.10816152820E+04  0.25500000920E-02 0. -1.
       -2   -1    0    0    0  501  0.00000000000E+00  0.00000000000E+00 -0.11049401549E+03  0.11049401552E+03  0.25500000920E-02 0.  1.
    10030    2    1    2    0    0  0.00000000000E+00  0.00000000000E+00  0.97112126652E+03  0.11921092975E+04  0.69141019877E+03 0.  0.
        4    1    3    3  502    0 -0.14866989124E+03 -0.17140461761E+03  0.93526234327E+03  0.96239261382E+03  0.12699999809E+01 0. -1.
       -4    1    3    3    0  502  0.14866989124E+03  0.17140461761E+03  0.35858923251E+02  0.22971668371E+03  0.12699999809E+01 0.  1.
</event>
<event>
 5   0  0.1884172E-02  0.6590522E+03  0.7818609E-02  0.9789940E-01
        1   -1    0    0  501    0  0.00000000000E+00  0.00000000000E+00  0.80537992430E+03  0.80537992432E+03  0.50400001928E-02 0. -1.
       -1   -1    0    0    0  501  0.00000000000E+00  0.00000000000E+00 -0.13482759466E+03  0.13482759475E+03  0.50400001928E-02 0.  1.
    10030    2    1    2    0    0  0.00000000000E+00  0.00000000000E+00  0.67055232965E+03  0.94020751907E+03  0.65905216191E+03 0.  0.
        3    1    3    3  502    0 -0.83008009010E+02 -0.13629433129E+03 -0.76024289597E+02  0.17676588220E+03  0.10100000352E+00 0.  1.
       -3    1    3    3    0  502  0.83008009010E+02  0.13629433129E+03  0.74657661924E+03  0.76344163687E+03  0.10100000352E+00 0. -1.
</event>
<event>
 5   0  0.1969818E-02  0.7007635E+03  0.7818609E-02  0.9715927E-01
        1   -1    0    0  501    0  0.00000000000E+00  0.00000000000E+00  0.43420420046E+03  0.43420420048E+03  0.50400001928E-02 0. -1.
       -1   -1    0    0    0  501  0.00000000000E+00  0.00000000000E+00 -0.28274111183E+03  0.28274111187E+03  0.50400001928E-02 0.  1.
    10030    2    1    2    0    0  0.00000000000E+00  0.00000000000E+00  0.15146308863E+03  0.71694531236E+03  0.70076352195E+03 0.  0.
        1    1    3    3  502    0 -0.14491371037E+02  0.13135487487E+03  0.40772955605E+03  0.42861112198E+03  0.50400001928E-02 0. -1.
       -1    1    3    3    0  502  0.14491371037E+02 -0.13135487487E+03 -0.25626646742E+03  0.28833419037E+03  0.50400001928E-02 0.  1.
</event>
<event>
 5   0  0.3184443E-02  0.7009971E+03  0.7818609E-02  0.9715529E-01
       -2   -1    0    0    0  501  0.00000000000E+00  0.00000000000E+00  0.19789543362E+03  0.19789543364E+03  0.25500000920E-02 0.  1.
        2   -1    0    0  501    0  0.00000000000E+00  0.00000000000E+00 -0.62077851787E+03  0.62077851788E+03  0.25500000920E-02 0. -1.
    10030    2    1    2    0    0  0.00000000000E+00  0.00000000000E+00 -0.42288308425E+03  0.81867395152E+03  0.70099710124E+03 0.  0.
        3    1    3    3  502    0  0.24440208007E+03 -0.24887043161E+03 -0.25156525644E+03  0.43006273603E+03  0.10100000352E+00 0. -1.
       -3    1    3    3    0  502 -0.24440208007E+03  0.24887043161E+03 -0.17131782781E+03  0.38861121548E+03  0.10100000352E+00 0.  1.
</event>
<event>
 5   0  0.1233912E-02  0.6990269E+03  0.7818609E-02  0.9718898E-01
        3   -1    0    0  501    0  0.00000000000E+00  0.00000000000E+00  0.52502921519E+03  0.52502922491E+03  0.10100000352E+00 0.  1.
       -3   -1    0    0    0  501  0.00000000000E+00  0.00000000000E+00 -0.23267204769E+03  0.23267206961E+03  0.10100000352E+00 0. -1.
    10030    2    1    2    0    0  0.00000000000E+00  0.00000000000E+00  0.29235716750E+03  0.75770129452E+03  0.69902685093E+03 0.  0.
        2    1    3    3  502    0 -0.32088211624E+03  0.12523704358E+03  0.81960580264E+02  0.35407228970E+03  0.25500000920E-02 0. -1.
       -2    1    3    3    0  502  0.32088211624E+03 -0.12523704358E+03  0.21039658724E+03  0.40362900482E+03  0.25500000920E-02 0.  1.
</event>
<event>
 5   0  0.1884172E-02  0.7050192E+03  0.7818609E-02  0.9708687E-01
        1   -1    0    0  501    0  0.00000000000E+00  0.00000000000E+00  0.69047599032E+03  0.69047599033E+03  0.50400001928E-02 0.  1.
       -1   -1    0    0    0  501  0.00000000000E+00  0.00000000000E+00 -0.17996720105E+03  0.17996720112E+03  0.50400001928E-02 0. -1.
    10030    2    1    2    0    0  0.00000000000E+00  0.00000000000E+00  0.51050878927E+03  0.87044319145E+03  0.70501923777E+03 0.  0.
        3    1    3    3  502    0  0.78549505738E+02 -0.26739898550E+03  0.52174963106E+03  0.59151917129E+03  0.10100000352E+00 0. -1.
       -3    1    3    3    0  502 -0.78549505738E+02  0.26739898550E+03 -0.11240841787E+02  0.27892402016E+03  0.10100000352E+00 0.  1.
</event>
<event>
 5   0  0.1951465E-02  0.7015960E+03  0.7818609E-02  0.9714507E-01
        1   -1    0    0  501    0  0.00000000000E+00  0.00000000000E+00  0.12422424882E+04  0.12422424882E+04  0.50400001928E-02 0. -1.
       -1   -1    0    0    0  501  0.00000000000E+00  0.00000000000E+00 -0.99062175444E+02  0.99062175573E+02  0.50400001928E-02 0.  1.
    10030    2    1    2    0    0  0.00000000000E+00  0.00000000000E+00  0.11431803128E+04  0.13413046638E+04  0.70159601882E+03 0.  0.
        4    1    3    3  502    0 -0.25536624175E+02  0.34047722179E+03  0.72549550610E+03  0.80182429497E+03  0.12699999809E+01 0. -1.
       -4    1    3    3    0  502  0.25536624175E+02 -0.34047722179E+03  0.41768480668E+03  0.53948036884E+03  0.12699999809E+01 0.  1.
</event>
<event>
 5   0  0.1839038E-02  0.6983464E+03  0.7818609E-02  0.9720064E-01
        1   -1    0    0  501    0  0.00000000000E+00  0.00000000000E+00  0.88369828469E+03  0.88369828470E+03  0.50400001928E-02 0. -1.
       -1   -1    0    0    0  501  0.00000000000E+00  0.00000000000E+00 -0.13796783393E+03  0.13796783402E+03  0.50400001928E-02 0.  1.
    10030    2    1    2    0    0  0.00000000000E+00  0.00000000000E+00  0.74573045076E+03  0.10216661187E+04  0.69834644193E+03 0.  0.
        5    1    3    3  502    0 -0.80785525122E+00 -0.11750913381E+03 -0.10812076862E+03  0.15975368466E+03  0.46999998093E+01 0.  1.
       -5    1    3    3    0  502  0.80785525122E+00  0.11750913381E+03  0.85385121938E+03  0.86191243406E+03  0.46999998093E+01 0. -1.
</event>
<event>
 5   0  0.1951465E-02  0.6825958E+03  0.7818609E-02  0.9747467E-01
       -1   -1    0    0    0  501  0.00000000000E+00  0.00000000000E+00  0.16988726654E+03  0.16988726661E+03  0.50400001928E-02 0. -1.
        1   -1    0    0  501    0  0.00000000000E+00  0.00000000000E+00 -0.68565617726E+03  0.68565617728E+03  0.50400001928E-02 0.  1.
    10030    2    1    2    0    0  0.00000000000E+00  0.00000000000E+00 -0.51576891072E+03  0.85554344389E+03  0.68259579190E+03 0.  0.
        4    1    3    3  502    0  0.33755370692E+03  0.19695690789E+02 -0.31603065665E+03  0.46282546833E+03  0.12699999809E+01 0.  1.
       -4    1    3    3    0  502 -0.33755370692E+03 -0.19695690789E+02 -0.19973825407E+03  0.39271797556E+03  0.12699999809E+01 0. -1.
</event>
<event>
 5   0  0.3184443E-02  0.6976815E+03  0.7818609E-02  0.9721205E-01
       -2   -1    0    0    0  501  0.00000000000E+00  0.00000000000E+00  0.17219796965E+03  0.17219796967E+03  0.25500000920E-02 0.  1.
        2   -1    0    0  501    0  0.00000000000E+00  0.00000000000E+00 -0.70668584558E+03  0.70668584559E+03  0.25500000920E-02 0. -1.
    10030    2    1    2    0    0  0.00000000000E+00  0.00000000000E+00 -0.53448787594E+03  0.87888381526E+03  0.69768149696E+03 0.  0.
        3    1    3    3  502    0  0.12370942620E+03  0.31475125699E+03 -0.37500331792E+03  0.50497512272E+03  0.10100000352E+00 0. -1.
       -3    1    3    3    0  502 -0.12370942620E+03 -0.31475125699E+03 -0.15948455802E+03  0.37390869254E+03  0.10100000352E+00 0.  1.
</event>
<event>
 5   0  0.1951465E-02  0.8290579E+03  0.7818609E-02  0.9518884E-01
       -1   -1    0    0    0  501  0.00000000000E+00  0.00000000000E+00  0.14961119752E+03  0.14961119760E+03  0.50400001928E-02 0. -1.
        1   -1    0    0  501    0  0.00000000000E+00  0.00000000000E+00 -0.11485387364E+04  0.11485387364E+04  0.50400001928E-02 0.  1.
    10030    2    1    2    0    0  0.00000000000E+00  0.00000000000E+00 -0.99892753890E+03  0.12981499340E+04  0.82905791308E+03 0.  0.
        4    1    3    3  502    0 -0.23728784645E+03  0.18469846337E+02  0.31958571491E+02  0.24014499888E+03  0.12699999809E+01 0. -1.
       -4    1    3    3    0  502  0.23728784645E+03 -0.18469846337E+02 -0.10308861104E+04  0.10580049351E+04  0.12699999809E+01 0.  1.
</event>
<event>
 5   0  0.3184443E-02  0.7031740E+03  0.7818609E-02  0.9711820E-01
        2   -1    0    0  501    0  0.00000000000E+00  0.00000000000E+00  0.75758361306E+03  0.75758361306E+03  0.25500000920E-02 0.  1.
       -2   -1    0    0    0  501  0.00000000000E+00  0.00000000000E+00 -0.16316800166E+03  0.16316800168E+03  0.25500000920E-02 0. -1.
    10030    2    1    2    0    0  0.00000000000E+00  0.00000000000E+00  0.59441561140E+03  0.92075161474E+03  0.70317395926E+03 0.  0.
        3    1    3    3  502    0  0.21159027660E+03  0.17978902419E+03  0.14788603709E+02  0.27805260540E+03  0.10100000352E+00 0.  1.
       -3    1    3    3    0  502 -0.21159027660E+03 -0.17978902419E+03  0.57962700769E+03  0.64269900934E+03  0.10100000352E+00 0. -1.
</event>
<event>
 5   0  0.3183963E-02  0.6070389E+03  0.7818609E-02  0.9890909E-01
        2   -1    0    0  501    0  0.00000000000E+00  0.00000000000E+00  0.44849744119E+03  0.44849744120E+03  0.25500000920E-02 0.  1.
       -2   -1    0    0    0  501  0.00000000000E+00  0.00000000000E+00 -0.20540596512E+03  0.20540596513E+03  0.25500000920E-02 0. -1.
    10030    2    1    2    0    0  0.00000000000E+00  0.00000000000E+00  0.24309147607E+03  0.65390340633E+03  0.60703887773E+03 0.  0.
        4    1    3    3  502    0 -0.14923752251E+03  0.17401087912E+03  0.33582718891E+03  0.40661177786E+03  0.12699999809E+01 0.  1.
       -4    1    3    3    0  502  0.14923752251E+03 -0.17401087912E+03 -0.92735712836E+02  0.24729162848E+03  0.12699999809E+01 0. -1.
</event>
<event>
 5   0  0.1951465E-02  0.6976786E+03  0.7818609E-02  0.9721210E-01
       -1   -1    0    0    0  501  0.00000000000E+00  0.00000000000E+00  0.16907112164E+03  0.16907112171E+03  0.50400001928E-02 0.  1.
        1   -1    0    0  501    0  0.00000000000E+00  0.00000000000E+00 -0.71974943317E+03  0.71974943319E+03  0.50400001928E-02 0. -1.
    10030    2    1    2    0    0  0.00000000000E+00  0.00000000000E+00 -0.55067831153E+03  0.88882055490E+03  0.69767856210E+03 0.  0.
        4    1    3    3  502    0  0.26887938373E+03 -0.64196027727E+02 -0.54639816933E+03  0.61234779767E+03  0.12699999809E+01 0. -1.
       -4    1    3    3    0  502 -0.26887938373E+03  0.64196027727E+02 -0.42801422084E+01  0.27647275723E+03  0.12699999809E+01 0.  1.
</event>
<event>
 5   0  0.1969818E-02  0.7216737E+03  0.7818609E-02  0.9680869E-01
        1   -1    0    0  501    0  0.00000000000E+00  0.00000000000E+00  0.75866968538E+03  0.75866968540E+03  0.50400001928E-02 0. -1.
       -1   -1    0    0    0  501  0.00000000000E+00  0.00000000000E+00 -0.17162044698E+03  0.17162044705E+03  0.50400001928E-02 0.  1.
    10030    2    1    2    0    0  0.00000000000E+00  0.00000000000E+00  0.58704923841E+03  0.93029013245E+03  0.72167369511E+03 0.  0.
        1    1    3    3  502    0 -0.21666410104E+03  0.28692516560E+03  0.33291729198E+03  0.49000337413E+03  0.50400001928E-02 0. -1.
       -1    1    3    3    0  502  0.21666410104E+03 -0.28692516560E+03  0.25413194643E+03  0.44028675832E+03  0.50400001928E-02 0.  1.
</event>
<event>
 5   0  0.2933851E-02  0.6939717E+03  0.7818609E-02  0.9727597E-01
        2   -1    0    0  501    0  0.00000000000E+00  0.00000000000E+00  0.41998041343E+03  0.41998041344E+03  0.25500000920E-02 0.  1.
       -2   -1    0    0    0  501  0.00000000000E+00  0.00000000000E+00 -0.28667806945E+03  0.28667806947E+03  0.25500000920E-02 0. -1.
    10030    2    1    2    0    0  0.00000000000E+00  0.00000000000E+00  0.13330234398E+03  0.70665848291E+03  0.69397168282E+03 0.  0.
        2    1    3    3  502    0 -0.11814300607E+03  0.47720817353E+02 -0.26199374378E+03  0.29133446085E+03  0.25500000920E-02 0. -1.
       -2    1    3    3    0  502  0.11814300607E+03 -0.47720817353E+02  0.39529608776E+03  0.41532402206E+03  0.25500000920E-02 0.  1.
</event>
<event>
 5   0  0.3184443E-02  0.7010295E+03  0.7818609E-02  0.9715473E-01
        2   -1    0    0  501    0  0.00000000000E+00  0.00000000000E+00  0.26573732083E+03  0.26573732085E+03  0.25500000920E-02 0. -1.
       -2   -1    0    0    0  501  0.00000000000E+00  0.00000000000E+00 -0.46233850128E+03  0.46233850128E+03  0.25500000920E-02 0.  1.
    10030    2    1    2    0    0  0.00000000000E+00  0.00000000000E+00 -0.19660118044E+03  0.72807582213E+03  0.70102951337E+03 0.  0.
        3    1    3    3  502    0  0.33440303064E+02 -0.24171908677E+03  0.16303040110E+03  0.29347111044E+03  0.10100000352E+00 0. -1.
       -3    1    3    3    0  502 -0.33440303064E+02  0.24171908677E+03 -0.35963158154E+03  0.43460471169E+03  0.10100000352E+00 0.  1.
</event>
<event>
 5   0  0.1951465E-02  0.7033943E+03  0.7818609E-02  0.9711445E-01
        1   -1    0    0  501    0  0.00000000000E+00  0.00000000000E+00  0.30898644581E+03  0.30898644585E+03  0.50400001928E-02 0. -1.
       -1   -1    0    0    0  501  0.00000000000E+00  0.00000000000E+00 -0.40031166879E+03  0.40031166882E+03  0.50400001928E-02 0.  1.
    10030    2    1    2    0    0  0.00000000000E+00  0.00000000000E+00 -0.91325222982E+02  0.70929811467E+03  0.70339428426E+03 0.  0.
        4    1    3    3  502    0  0.12123032352E+03 -0.19942360117E+03 -0.31097299465E+03  0.38880892524E+03  0.12699999809E+01 0.  1.
       -4    1    3    3    0  502 -0.12123032352E+03  0.19942360117E+03  0.21964777167E+03  0.32048918943E+03  0.12699999809E+01 0. -1.
</event>
<event>
 5   0  0.1858013E-02  0.7013122E+03  0.7818609E-02  0.9714991E-01
        1   -1    0    0  501    0  0.00000000000E+00  0.00000000000E+00  0.12133413029E+04  0.12133413029E+04  0.50400001928E-02 0.  1.
       -1   -1    0    0    0  501  0.00000000000E+00  0.00000000000E+00 -0.10133976016E+03  0.10133976029E+03  0.50400001928E-02 0. -1.
    10030    2    1    2    0    0  0.00000000000E+00  0.00000000000E+00  0.11120015427E+04  0.13146810632E+04  0.70131224635E+03 0.  0.
        2    1    3    3  502    0 -0.22306347621E+03 -0.18329240742E+03  0.92907143302E+03  0.97289626821E+03  0.25500000920E-02 0.  1.
       -2    1    3    3    0  502  0.22306347621E+03  0.18329240742E+03  0.18293010970E+03  0.34178479497E+03  0.25500000920E-02 0. -1.
</event>
<event>
 5   0  0.1969818E-02  0.7022009E+03  0.7818609E-02  0.9713476E-01
        1   -1    0    0  501    0  0.00000000000E+00  0.00000000000E+00  0.40583930866E+03  0.40583930869E+03  0.50400001928E-02 0. -1.
       -1   -1    0    0    0  501  0.00000000000E+00  0.00000000000E+00 -0.30374469302E+03  0.30374469306E+03  0.50400001928E-02 0.  1.
    10030    2    1    2    0    0  0.00000000000E+00  0.00000000000E+00  0.10209461564E+03  0.70958400175E+03  0.70220092922E+03 0.  0.
        1    1    3    3  502    0 -0.11588447840E+03 -0.18335911139E+03  0.33003298157E+03  0.39493232966E+03  0.50400001928E-02 0. -1.
       -1    1    3    3    0  502  0.11588447840E+03  0.18335911139E+03 -0.22793836593E+03  0.31465167209E+03  0.50400001928E-02 0.  1.
</event>
<event>
 5   0  0.2933851E-02  0.6997358E+03  0.7818609E-02  0.9717684E-01
       -2   -1    0    0    0  501  0.00000000000E+00  0.00000000000E+00  0.23693011505E+03  0.23693011507E+03  0.25500000920E-02 0.  1.
        2   -1    0    0  501    0  0.00000000000E+00  0.00000000000E+00 -0.51663981667E+03  0.51663981667E+03  0.25500000920E-02 0. -1.
    10030    2    1    2    0    0  0.00000000000E+00  0.00000000000E+00 -0.27970970162E+03  0.75356993174E+03  0.69973575358E+03 0.  0.
        2    1    3    3  502    0  0.45365763143E+02 -0.32949107007E+03 -0.25676612145E+03  0.42018003148E+03  0.25500000920E-02 0. -1.
       -2    1    3    3    0  502 -0.45365763143E+02  0.32949107007E+03 -0.22943580169E+02  0.33338990026E+03  0.25500000920E-02 0.  1.
</event>
<event>
 5   0  0.1233912E-02  0.7029458E+03  0.7818609E-02  0.9712208E-01
        3   -1    0    0  501    0  0.00000000000E+00  0.00000000000E+00  0.55728716316E+03  0.55728717231E+03  0.10100000352E+00 0. -1.
       -3   -1    0    0    0  501  0.00000000000E+00  0.00000000000E+00 -0.22166882395E+03  0.22166884696E+03  0.10100000352E+00 0.  1.
    10030    2    1    2    0    0  0.00000000000E+00  0.00000000000E+00  0.33561833921E+03  0.77895601927E+03  0.70294580896E+03 0.  0.
        5    1    3    3  502    0 -0.16698693586E+03 -0.30873336893E+03  0.14829276048E+03  0.38106923602E+03  0.46999998093E+01 0. -1.
       -5    1    3    3    0  502  0.16698693586E+03  0.30873336893E+03  0.18732557873E+03  0.39788678324E+03  0.46999998093E+01 0.  1.
</event>
<event>
 5   0  0.1839038E-02  0.6938922E+03  0.7818609E-02  0.9727735E-01
       -1   -1    0    0    0  501  0.00000000000E+00  0.00000000000E+00  0.42315818203E+03  0.42315818206E+03  0.50400001928E-02 0.  1.
        1   -1    0    0  501    0  0.00000000000E+00  0.00000000000E+00 -0.28446001552E+03  0.28446001556E+03  0.50400001928E-02 0. -1.
    10030    2    1    2    0    0  0.00000000000E+00  0.00000000000E+00  0.13869816651E+03  0.70761819762E+03  0.69389216180E+03 0.  0.
        5    1    3    3  502    0  0.18854551145E+03  0.15608291468E+03 -0.18135580207E+03  0.30466916989E+03  0.46999998093E+01 0.  1.
       -5    1    3    3    0  502 -0.18854551145E+03 -0.15608291468E+03  0.32005396858E+03  0.40294902772E+03  0.46999998093E+01 0. -1.
</event>
<event>
 5   0  0.1884172E-02  0.6919570E+03  0.7818609E-02  0.9731086E-01
       -1   -1    0    0    0  501  0.00000000000E+00  0.00000000000E+00  0.13016729744E+03  0.13016729754E+03  0.50400001928E-02 0.  1.
        1   -1    0    0  501    0  0.00000000000E+00  0.00000000000E+00 -0.91959453848E+03  0.91959453849E+03  0.50400001928E-02 0. -1.
    10030    2    1    2    0    0  0.00000000000E+00  0.00000000000E+00 -0.78942724103E+03  0.10497618360E+04  0.69195703877E+03 0.  0.
        3    1    3    3  502    0  0.73905661040E+02  0.28865521738E+03 -0.66146829480E+03  0.72548204422E+03  0.10100000352E+00 0. -1.
       -3    1    3    3    0  502 -0.73905661040E+02 -0.28865521738E+03 -0.12795894624E+03  0.32427979181E+03  0.10100000352E+00 0.  1.
</event>
<event>
 5   0  0.3184443E-02  0.7289856E+03  0.7818609E-02  0.9668908E-01
        2   -1    0    0  501    0  0.00000000000E+00  0.00000000000E+00  0.87939987116E+03  0.87939987116E+03  0.25500000920E-02 0.  1.
       -2   -1    0    0    0  501  0.00000000000E+00  0.00000000000E+00 -0.15107462787E+03  0.15107462789E+03  0.25500000920E-02 0. -1.
    10030    2    1    2    0    0  0.00000000000E+00  0.00000000000E+00  0.72832524329E+03  0.10304744991E+04  0.72898561932E+03 0.  0.
        3    1    3    3  502    0 -0.60762051546E+02  0.32416279731E+03  0.58352372539E+03  0.67027866918E+03  0.10100000352E+00 0. -1.
       -3    1    3    3    0  502  0.60762051546E+02 -0.32416279731E+03  0.14480151790E+03  0.36019582987E+03  0.10100000352E+00 0.  1.
</event>
<event>
 5   0  0.3184443E-02  0.6924674E+03  0.7818609E-02  0.9730201E-01
        2   -1    0    0  501    0  0.00000000000E+00  0.00000000000E+00  0.64906838939E+03  0.64906838939E+03  0.25500000920E-02 0.  1.
       -2   -1    0    0    0  501  0.00000000000E+00  0.00000000000E+00 -0.18469206693E+03  0.18469206695E+03  0.25500000920E-02 0. -1.
    10030    2    1    2    0    0  0.00000000000E+00  0.00000000000E+00  0.46437632245E+03  0.83376045634E+03  0.69246742140E+03 0.  0.
        3    1    3    3  502    0  0.20456915028E+03 -0.18792948476E+03 -0.16649206545E+02  0.27828624610E+03  0.10100000352E+00 0.  1.
       -3    1    3    3    0  502 -0.20456915028E+03  0.18792948476E+03  0.48102552900E+03  0.55547421024E+03  0.10100000352E+00 0. -1.
</event>
<event>
 5   0  0.1969818E-02  0.7024180E+03  0.7818609E-02  0.9713106E-01
       -1   -1    0    0    0  501  0.00000000000E+00  0.00000000000E+00  0.18749737229E+04  0.18749737229E+04  0.50400001928E-02 0.  1.
        1   -1    0    0  501    0  0.00000000000E+00  0.00000000000E+00 -0.65786387669E+02  0.65786387862E+02  0.50400001928E-02 0. -1.
    10030    2    1    2    0    0  0.00000000000E+00  0.00000000000E+00  0.18091873353E+04  0.19407601108E+04  0.70241796218E+03 0.  0.
        1    1    3    3  502    0 -0.25960937813E+03 -0.12699826873E+03  0.35322935961E+03  0.45639519058E+03  0.50400001928E-02 0. -1.
       -1    1    3    3    0  502  0.25960937813E+03  0.12699826873E+03  0.14559579757E+04  0.14843649202E+04  0.50400001928E-02 0.  1.
</event>
<event>
 5   0  0.3290656E-02  0.6859501E+03  0.7818609E-02  0.9741566E-01
        2   -1    0    0  501    0  0.00000000000E+00  0.00000000000E+00  0.14064759150E+04  0.14064759150E+04  0.25500000920E-02 0.  1.
       -2   -1    0    0    0  501  0.00000000000E+00  0.00000000000E+00 -0.83635907254E+02  0.83635907293E+02  0.25500000920E-02 0. -1.
    10030    2    1    2    0    0  0.00000000000E+00  0.00000000000E+00  0.13228400077E+04  0.14901118223E+04  0.68595011250E+03 0.  0.
        1    1    3    3  502    0  0.90893724340E+02  0.32243695457E+03  0.50171838151E+03  0.60328152066E+03  0.50400001928E-02 0. -1.
       -1    1    3    3    0  502 -0.90893724340E+02 -0.32243695457E+03  0.82112162619E+03  0.88683030159E+03  0.50400001928E-02 0.  1.
</event>
<event>
 5   0  0.1858013E-02  0.7008364E+03  0.7818609E-02  0.9715803E-01
       -1   -1    0    0    0  501  0.00000000000E+00  0.00000000000E+00  0.24148498709E+03  0.24148498714E+03  0.50400001928E-02 0.  1.
        1   -1    0    0  501    0  0.00000000000E+00  0.00000000000E+00 -0.50849089043E+03  0.50849089045E+03  0.50400001928E-02 0. -1.
    10030    2    1    2    0    0  0.00000000000E+00  0.00000000000E+00 -0.26700590334E+03  0.74997587760E+03  0.70083640357E+03 0.  0.
        2    1    3    3  502    0  0.31193271380E+03  0.15575997941E+03 -0.95976716274E+02  0.36162787392E+03  0.25500000920E-02 0. -1.
       -2    1    3    3    0  502 -0.31193271380E+03 -0.15575997941E+03 -0.17102918706E+03  0.38834800368E+03  0.25500000920E-02 0.  1.
</event>
<event>
 5   0  0.1969818E-02  0.6966899E+03  0.7818609E-02  0.9722910E-01
       -1   -1    0    0    0  501  0.00000000000E+00  0.00000000000E+00  0.11276233714E+03  0.11276233725E+03  0.50400001928E-02 0. -1.
        1   -1    0    0  501    0  0.00000000000E+00  0.00000000000E+00 -0.10761058991E+04  0.10761058991E+04  0.50400001928E-02 0.  1.
    10030    2    1    2    0    0  0.00000000000E+00  0.00000000000E+00 -0.96334356194E+03  0.11888682363E+04  0.69668993465E+03 0.  0.
        1    1    3    3  502    0 -0.47960021250E+02 -0.55943819463E+02  0.99310348752E+02  0.12366252451E+03  0.50400001928E-02 0. -1.
       -1    1    3    3    0  502  0.47960021250E+02  0.55943819463E+02 -0.10626539107E+04  0.10652057118E+04  0.50400001928E-02 0.  1.
</event>
<event>
 5   0  0.1233912E-02  0.6941773E+03  0.7818609E-02  0.9727242E-01
       -4   -1    0    0    0  501  0.00000000000E+00  0.00000000000E+00  0.97784781040E+02  0.97793027886E+02  0.12699999809E+01 0. -1.
        4   -1    0    0  501    0  0.00000000000E+00  0.00000000000E+00 -0.12319363239E+04  0.12319369786E+04  0.12699999809E+01 0.  1.
    10030    2    1    2    0    0  0.00000000000E+00  0.00000000000E+00 -0.11341515429E+04  0.13297300065E+04  0.69417733165E+03 0.  0.
        4    1    3    3  502    0 -0.23689558845E+03  0.68030366293E+02 -0.10351961953E+04  0.10641336505E+04  0.12699999809E+01 0.  1.
       -4    1    3    3    0  502  0.23689558845E+03 -0.68030366293E+02 -0.98955347650E+02  0.26559635595E+03  0.12699999809E+01 0. -1.
</event>
<event>
 5   0  0.3290656E-02  0.7097584E+03  0.7818609E-02  0.9700688E-01
       -2   -1    0    0    0  501  0.00000000000E+00  0.00000000000E+00  0.85726231922E+02  0.85726231960E+02  0.25500000920E-02 0. -1.
        2   -1    0    0  501    0  0.00000000000E+00  0.00000000000E+00 -0.14690865587E+04  0.14690865587E+04  0.25500000920E-02 0.  1.
    10030    2    1    2    0    0  0.00000000000E+00  0.00000000000E+00 -0.13833603268E+04  0.15548127907E+04  0.70975842390E+03 0.  0.
        1    1    3    3  502    0  0.31441513489E+03 -0.26521732068E+02 -0.10474724373E+04  0.10939647098E+04  0.50400001928E-02 0.  1.
       -1    1    3    3    0  502 -0.31441513489E+03  0.26521732068E+02 -0.33588788944E+03  0.46084808084E+03  0.50400001928E-02 0. -1.
</event>
<event>
 5   0  0.1858013E-02  0.6925545E+03  0.7818609E-02  0.9730050E-01
       -1   -1    0    0    0  501  0.00000000000E+00  0.00000000000E+00  0.46701471188E+03  0.46701471190E+03  0.50400001928E-02 0.  1.
        1   -1    0    0  501    0  0.00000000000E+00  0.00000000000E+00 -0.25675404568E+03  0.25675404573E+03  0.50400001928E-02 0. -1.
    10030    2    1    2    0    0  0.00000000000E+00  0.00000000000E+00  0.21026066620E+03  0.72376875763E+03  0.69255445040E+03 0.  0.
        2    1    3    3  502    0  0.22340879245E+03  0.17462750806E+03 -0.10257784189E+03  0.30154347741E+03  0.25500000920E-02 0. -1.
       -2    1    3    3    0  502 -0.22340879245E+03 -0.17462750806E+03  0.31283850808E+03  0.42222528022E+03  0.25500000920E-02 0.  1.
</event>
<event>
 5   0  0.1858013E-02  0.7014319E+03  0.7818609E-02  0.9714787E-01
       -1   -1    0    0    0  501  0.00000000000E+00  0.00000000000E+00  0.45601932666E+03  0.45601932668E+03  0.50400001928E-02 0.  1.
        1   -1    0    0  501    0  0.00000000000E+00  0.00000000000E+00 -0.26972908765E+03  0.26972908770E+03  0.50400001928E-02 0. -1.
    10030    2    1    2    0    0  0.00000000000E+00  0.00000000000E+00  0.18629023900E+03  0.72574841439E+03  0.70143189822E+03 0.  0.
        2    1    3    3  502    0 -0.32788200852E+03  0.37875461033E+02  0.21583286787E+03  0.39436656668E+03  0.25500000920E-02 0.  1.
       -2    1    3    3    0  502  0.32788200852E+03 -0.37875461033E+02 -0.29542628866E+02  0.33138184770E+03  0.25500000920E-02 0. -1.
</event>
<event>
 5   0  0.2933851E-02  0.6949418E+03  0.7818609E-02  0.9725922E-01
        2   -1    0    0  501    0  0.00000000000E+00  0.00000000000E+00  0.76411263071E+03  0.76411263072E+03  0.25500000920E-02 0.  1.
       -2   -1    0    0    0  501  0.00000000000E+00  0.00000000000E+00 -0.15800816974E+03  0.15800816976E+03  0.25500000920E-02 0. -1.
    10030    2    1    2    0    0  0.00000000000E+00  0.00000000000E+00  0.60610446098E+03  0.92212080047E+03  0.69494183429E+03 0.  0.
        2    1    3    3  502    0  0.45482341790E+02 -0.34414075739E+03  0.32337309657E+03  0.47441718340E+03  0.25500000920E-02 0. -1.
       -2    1    3    3    0  502 -0.45482341790E+02  0.34414075739E+03  0.28273136441E+03  0.44770361707E+03  0.25500000920E-02 0.  1.
</event>
<event>
 5   0  0.1233912E-02  0.6491036E+03  0.7818609E-02  0.9808463E-01
        3   -1    0    0  501    0  0.00000000000E+00  0.00000000000E+00  0.14558336778E+03  0.14558340281E+03  0.10100000352E+00 0.  1.
       -3   -1    0    0    0  501  0.00000000000E+00  0.00000000000E+00 -0.72352937321E+03  0.72352938026E+03  0.10100000352E+00 0. -1.
    10030    2    1    2    0    0  0.00000000000E+00  0.00000000000E+00 -0.57794600544E+03  0.86911278307E+03  0.64910356994E+03 0.  0.
        1    1    3    3  502    0 -0.11216121931E+03  0.77720835788E+01  0.11867596889E+03  0.16347638979E+03  0.50400001928E-02 0.  1.
       -1    1    3    3    0  502  0.11216121931E+03 -0.77720835788E+01 -0.69662197432E+03  0.70563639329E+03  0.50400001928E-02 0. -1.
</event>
<event>
 5   0  0.1884172E-02  0.7393416E+03  0.7818609E-02  0.9652222E-01
        1   -1    0    0  501    0  0.00000000000E+00  0.00000000000E+00  0.31638435414E+03  0.31638435418E+03  0.50400001928E-02 0. -1.
       -1   -1    0    0    0  501  0.00000000000E+00  0.00000000000E+00 -0.43193191485E+03  0.43193191488E+03  0.50400001928E-02 0.  1.
    10030    2    1    2    0    0  0.00000000000E+00  0.00000000000E+00 -0.11554756071E+03  0.74831626905E+03  0.73934159882E+03 0.  0.
        3    1    3    3  502    0 -0.17284793123E+03 -0.19708970271E+03 -0.32158251628E+03  0.41489285752E+03  0.10100000352E+00 0.  1.
       -3    1    3    3    0  502  0.17284793123E+03  0.19708970271E+03  0.20603495556E+03  0.33342341153E+03  0.10100000352E+00 0. -1.
</event>
<event>
 5   0  0.3113940E-02  0.7016541E+03  0.7818609E-02  0.9714408E-01
        2   -1    0    0  501    0  0.00000000000E+00  0.00000000000E+00  0.13501655755E+04  0.13501655755E+04  0.25500000920E-02 0.  1.
       -2   -1    0    0    0  501  0.00000000000E+00  0.00000000000E+00 -0.91158914288E+02  0.91158914324E+02  0.25500000920E-02 0. -1.
    10030    2    1    2    0    0  0.00000000000E+00  0.00000000000E+00  0.12590066612E+04  0.14413244898E+04  0.70165412561E+03 0.  0.
        5    1    3    3  502    0 -0.22819605243E+03 -0.44179459782E+02  0.11692186877E+04  0.11921072489E+04  0.46999998093E+01 0.  1.
       -5    1    3    3    0  502  0.22819605243E+03  0.44179459782E+02  0.89787973443E+02  0.24921724094E+03  0.46999998093E+01 0. -1.
</event>
<event>
 5   0  0.1884172E-02  0.7208774E+03  0.7818609E-02  0.9682180E-01
       -1   -1    0    0    0  501  0.00000000000E+00  0.00000000000E+00  0.29962843609E+03  0.29962843614E+03  0.50400001928E-02 0. -1.
        1   -1    0    0  501    0  0.00000000000E+00  0.00000000000E+00 -0.43359051052E+03  0.43359051055E+03  0.50400001928E-02 0.  1.
    10030    2    1    2    0    0  0.00000000000E+00  0.00000000000E+00 -0.13396207442E+03  0.73321894668E+03  0.72087737264E+03 0.  0.
        3    1    3    3  502    0  0.16138971472E+03 -0.31236971717E+03  0.13715489383E+02  0.35186589075E+03  0.10100000352E+00 0. -1.
       -3    1    3    3    0  502 -0.16138971472E+03  0.31236971717E+03 -0.14767756381E+03  0.38135305594E+03  0.10100000352E+00 0.  1.
</event>
<event>
 5   0  0.2933851E-02  0.7042812E+03  0.7818609E-02  0.9709939E-01
       -2   -1    0    0    0  501  0.00000000000E+00  0.00000000000E+00  0.10891545377E+03  0.10891545380E+03  0.25500000920E-02 0.  1.
        2   -1    0    0  501    0  0.00000000000E+00  0.00000000000E+00 -0.11385252449E+04  0.11385252449E+04  0.25500000920E-02 0. -1.
    10030    2    1    2    0    0  0.00000000000E+00  0.00000000000E+00 -0.10296097911E+04  0.12474406987E+04  0.70428117594E+03 0.  0.
        2    1    3    3  502    0  0.24823706574E+03 -0.24905540297E+03 -0.54807184371E+03  0.65117814800E+03  0.25500000920E-02 0.  1.
       -2    1    3    3    0  502 -0.24823706574E+03  0.24905540297E+03 -0.48153794740E+03  0.59626255069E+03  0.25500000920E-02 0. -1.
</event>
<event>
 5   0  0.2933851E-02  0.7113152E+03  0.7818609E-02  0.9698075E-01
        2   -1    0    0  501    0  0.00000000000E+00  0.00000000000E+00  0.82125255622E+03  0.82125255622E+03  0.25500000920E-02 0.  1.
       -2   -1    0    0    0  501  0.00000000000E+00  0.00000000000E+00 -0.15402364911E+03  0.15402364913E+03  0.25500000920E-02 0. -1.
    10030    2    1    2    0    0  0.00000000000E+00  0.00000000000E+00  0.66722890710E+03  0.97527620535E+03  0.71131516380E+03 0.  0.
        2    1    3    3  502    0  0.17474493563E+03  0.25282702420E+03  0.57901642844E+03  0.65552827636E+03  0.25500000920E-02 0.  1.
       -2    1    3    3    0  502 -0.17474493563E+03 -0.25282702420E+03  0.88212478660E+02  0.31974792899E+03  0.25500000920E-02 0. -1.
</event>
<event>
 5   0  0.1969818E-02  0.7488938E+03  0.7818609E-02  0.9637087E-01
       -1   -1    0    0    0  501  0.00000000000E+00  0.00000000000E+00  0.77101006604E+03  0.77101006606E+03  0.50400001928E-02 0. -1.
        1   -1    0    0  501    0  0.00000000000E+00  0.00000000000E+00 -0.18185296711E+03  0.18185296718E+03  0.50400001928E-02 0.  1.
    10030    2    1    2    0    0  0.00000000000E+00  0.00000000000E+00  0.58915709893E+03  0.95286303324E+03  0.74889376609E+03 0.  0.
        1    1    3    3  502    0  0.97045785107E+01  0.75978250228E+02 -0.17177871457E+03  0.18808189747E+03  0.50400001928E-02 0.  1.
       -1    1    3    3    0  502 -0.97045785107E+01 -0.75978250228E+02  0.76093581349E+03  0.76478113577E+03  0.50400001928E-02 0. -1.
</event>
<event>
 5   0  0.3184443E-02  0.6821895E+03  0.7818609E-02  0.9748185E-01
        2   -1    0    0  501    0  0.00000000000E+00  0.00000000000E+00  0.29985512660E+03  0.29985512661E+03  0.25500000920E-02 0. -1.
       -2   -1    0    0    0  501  0.00000000000E+00  0.00000000000E+00 -0.38800612158E+03  0.38800612158E+03  0.25500000920E-02 0.  1.
    10030    2    1    2    0    0  0.00000000000E+00  0.00000000000E+00 -0.88150994973E+02  0.68786124820E+03  0.68218948897E+03 0.  0.
        3    1    3    3  502    0 -0.31253881729E+03  0.10439097481E+03 -0.13294238902E+03  0.35531911986E+03  0.10100000352E+00 0.  1.
       -3    1    3    3    0  502  0.31253881729E+03 -0.10439097481E+03  0.44791394050E+02  0.33254212834E+03  0.10100000352E+00 0. -1.
</event>
<event>
 5   0  0.2933851E-02  0.6981952E+03  0.7818609E-02  0.9720324E-01
        2   -1    0    0  501    0  0.00000000000E+00  0.00000000000E+00  0.10031523168E+04  0.10031523168E+04  0.25500000920E-02 0. -1.
       -2   -1    0    0    0  501  0.00000000000E+00  0.00000000000E+00 -0.12148617646E+03  0.12148617648E+03  0.25500000920E-02 0.  1.
    10030    2    1    2    0    0  0.00000000000E+00  0.00000000000E+00  0.88166614039E+03  0.11246384933E+04  0.69819521452E+03 0.  0.
        2    1    3    3  502    0 -0.89144706891E+02 -0.95685100261E+02  0.96220513107E+03  0.97105155962E+03  0.25500000920E-02 0. -1.
       -2    1    3    3    0  502  0.89144706891E+02  0.95685100261E+02 -0.80538990687E+02  0.15358693371E+03  0.25500000920E-02 0.  1.
</event>
<event>
 5   0  0.1884172E-02  0.7063927E+03  0.7818609E-02  0.9706362E-01
       -1   -1    0    0    0  501  0.00000000000E+00  0.00000000000E+00  0.15484701371E+03  0.15484701379E+03  0.50400001928E-02 0.  1.
        1   -1    0    0  501    0  0.00000000000E+00  0.00000000000E+00 -0.80561875733E+03  0.80561875735E+03  0.50400001928E-02 0. -1.
    10030    2    1    2    0    0  0.00000000000E+00  0.00000000000E+00 -0.65077174362E+03  0.96046577114E+03  0.70639269195E+03 0.  0.
        3    1    3    3  502    0  0.33163940849E+03  0.11998341339E+03 -0.35143111429E+03  0.49788006090E+03  0.10100000352E+00 0. -1.
       -3    1    3    3    0  502 -0.33163940849E+03 -0.11998341339E+03 -0.29934062934E+03  0.46258571024E+03  0.10100000352E+00 0.  1.
</event>
<event>
 5   0  0.1884172E-02  0.6958810E+03  0.7818609E-02  0.9724302E-01
        1   -1    0    0  501    0  0.00000000000E+00  0.00000000000E+00  0.10881425575E+04  0.10881425575E+04  0.50400001928E-02 0. -1.
       -1   -1    0    0    0  501  0.00000000000E+00  0.00000000000E+00 -0.11125619495E+03  0.11125619507E+03  0.50400001928E-02 0.  1.
    10030    2    1    2    0    0  0.00000000000E+00  0.00000000000E+00  0.97688636252E+03  0.11993987526E+04  0.69588102599E+03 0.  0.
        3    1    3    3  502    0 -0.12297713807E+03  0.11064227678E+03  0.10160283769E+04  0.10294069957E+04  0.10100000352E+00 0. -1.
       -3    1    3    3    0  502  0.12297713807E+03 -0.11064227678E+03 -0.39142014408E+02  0.16999175684E+03  0.10100000352E+00 0.  1.
</event>
<event>
 5   0  0.1951465E-02  0.7068373E+03  0.7818609E-02  0.9705610E-01
        1   -1    0    0  501    0  0.00000000000E+00  0.00000000000E+00  0.16561136307E+03  0.16561136315E+03  0.50400001928E-02 0.  1.
       -1   -1    0    0    0  501  0.00000000000E+00  0.00000000000E+00 -0.75420396322E+03  0.75420396324E+03  0.50400001928E-02 0. -1.
    10030    2    1    2    0    0  0.00000000000E+00  0.00000000000E+00 -0.58859260015E+03  0.91981532639E+03  0.70683731205E+03 0.  0.
        4    1    3    3  502    0 -0.28169402608E+03  0.19666004773E+03 -0.40220658533E+03  0.52895978003E+03  0.12699999809E+01 0. -1.
       -4    1    3    3    0  502  0.28169402608E+03 -0.19666004773E+03 -0.18638601482E+03  0.39085554636E+03  0.12699999809E+01 0.  1.
</event>
<event>
 5   0  0.3184443E-02  0.7013708E+03  0.7818609E-02  0.9714891E-01
        2   -1    0    0  501    0  0.00000000000E+00  0.00000000000E+00  0.21214208514E+04  0.21214208514E+04  0.25500000920E-02 0.  1.
       -2   -1    0    0    0  501  0.00000000000E+00  0.00000000000E+00 -0.57970704478E+02  0.57970704534E+02  0.25500000920E-02 0. -1.
    10030    2    1    2    0    0  0.00000000000E+00  0.00000000000E+00  0.20634501470E+04  0.21793915560E+04  0.70137083291E+03 0.  0.
        3    1    3    3  502    0  0.25068349706E+02 -0.34639262192E+03  0.11828059520E+04  0.12327393078E+04  0.10100000352E+00 0.  1.
       -3    1    3    3    0  502 -0.25068349706E+02  0.34639262192E+03  0.88064419493E+03  0.94665224816E+03  0.10100000352E+00 0. -1.
</event>
<event>
 5   0  0.2933851E-02  0.6854118E+03  0.7818609E-02  0.9742510E-01
        2   -1    0    0  501    0  0.00000000000E+00  0.00000000000E+00  0.91358924711E+03  0.91358924712E+03  0.25500000920E-02 0. -1.
       -2   -1    0    0    0  501  0.00000000000E+00  0.00000000000E+00 -0.12855593627E+03  0.12855593629E+03  0.25500000920E-02 0.  1.
    10030    2    1    2    0    0  0.00000000000E+00  0.00000000000E+00  0.78503331085E+03  0.10421451834E+04  0.68541176250E+03 0.  0.
        2    1    3    3  502    0 -0.28747732808E+03 -0.18304308851E+03  0.44732380031E+03  0.56235804319E+03  0.25500000920E-02 0. -1.
       -2    1    3    3    0  502  0.28747732808E+03  0.18304308851E+03  0.33770951054E+03  0.47978714022E+03  0.25500000920E-02 0.  1.
</event>
<event>
 5   0  0.3183963E-02  0.6678364E+03  0.7818609E-02  0.9773874E-01
       -2   -1    0    0    0  501  0.00000000000E+00  0.00000000000E+00  0.30325440992E+03  0.30325440993E+03  0.25500000920E-02 0.  1.
        2   -1    0    0  501    0  0.00000000000E+00  0.00000000000E+00 -0.36768262289E+03  0.36768262290E+03  0.25500000920E-02 0. -1.
    10030    2    1    2    0    0  0.00000000000E+00  0.00000000000E+00 -0.64428212974E+02  0.67093703282E+03  0.66783643760E+03 0.  0.
        4    1    3    3  502    0 -0.27128053308E+03  0.64383181217E+02 -0.21681004809E+03  0.35319475011E+03  0.12699999809E+01 0.  1.
       -4    1    3    3    0  502  0.27128053308E+03 -0.64383181217E+02  0.15238183512E+03  0.31774228271E+03  0.12699999809E+01 0. -1.
</event>
<event>
 5   0  0.1858013E-02  0.7014255E+03  0.7818609E-02  0.9714798E-01
        1   -1    0    0  501    0  0.00000000000E+00  0.00000000000E+00  0.17165548002E+04  0.17165548002E+04  0.50400001928E-02 0. -1.
       -1   -1    0    0    0  501  0.00000000000E+00  0.00000000000E+00 -0.71654815101E+02  0.71654815278E+02  0.50400001928E-02 0.  1.
    10030    2    1    2    0    0  0.00000000000E+00  0.00000000000E+00  0.16448999851E+04  0.17882096155E+04  0.70142545430E+03 0.  0.
        2    1    3    3  502    0 -0.12043654452E+03 -0.57613568900E+02  0.16492366081E+04  0.16546315826E+04  0.25500000920E-02 0. -1.
       -2    1    3    3    0  502  0.12043654452E+03  0.57613568900E+02 -0.43366229659E+01  0.13357803294E+03  0.25500000920E-02 0.  1.
</event>
<event>
 5   0  0.1233912E-02  0.6913348E+03  0.7818609E-02  0.9732167E-01
        3   -1    0    0  501    0  0.00000000000E+00  0.00000000000E+00  0.23152338463E+03  0.23152340666E+03  0.10100000352E+00 0. -1.
       -3   -1    0    0    0  501  0.00000000000E+00  0.00000000000E+00 -0.51608578713E+03  0.51608579701E+03  0.10100000352E+00 0.  1.
    10030    2    1    2    0    0  0.00000000000E+00  0.00000000000E+00 -0.28456240250E+03  0.74760920367E+03  0.69133476732E+03 0.  0.
        2    1    3    3  502    0 -0.20762247316E+03  0.62806857943E+02  0.14876230732E+03  0.26302474570E+03  0.25500000920E-02 0. -1.
       -2    1    3    3    0  502  0.20762247316E+03 -0.62806857943E+02 -0.43332470982E+03  0.48458445797E+03  0.25500000920E-02 0.  1.
</event>
<event>
 5   0  0.3184443E-02  0.7033120E+03  0.7818609E-02  0.9711585E-01
       -2   -1    0    0    0  501  0.00000000000E+00  0.00000000000E+00  0.34877789630E+03  0.34877789631E+03  0.25500000920E-02 0. -1.
        2   -1    0    0  501    0  0.00000000000E+00  0.00000000000E+00 -0.35455785802E+03  0.35455785803E+03  0.25500000920E-02 0.  1.
    10030    2    1    2    0    0  0.00000000000E+00  0.00000000000E+00 -0.57799617251E+01  0.70333575434E+03  0.70331200429E+03 0.  0.
        3    1    3    3  502    0 -0.11824855695E+03  0.20234636635E+03  0.25929278506E+03  0.34951327840E+03  0.10100000352E+00 0. -1.
       -3    1    3    3    0  502  0.11824855695E+03 -0.20234636635E+03 -0.26507274678E+03  0.35382247594E+03  0.10100000352E+00 0.  1.
</event>
<event>
 5   0  0.2933851E-02  0.6956941E+03  0.7818609E-02  0.9724624E-01
        2   -1    0    0  501    0  0.00000000000E+00  0.00000000000E+00  0.33963450652E+04  0.33963450652E+04  0.25500000920E-02 0. -1.
       -2   -1    0    0    0  501  0.00000000000E+00  0.00000000000E+00 -0.35625817108E+02  0.35625817199E+02  0.25500000920E-02 0.  1.
    10030    2    1    2    0    0  0.00000000000E+00  0.00000000000E+00  0.33607192481E+04  0.34319708824E+04  0.69569409452E+03 0.  0.
        2    1    3    3  502    0 -0.68038234036E+02  0.14486494593E+03  0.32039199719E+04  0.32079149365E+04  0.25500000920E-02 0. -1.
       -2    1    3    3    0  502  0.68038234036E+02 -0.14486494593E+03  0.15679927622E+03  0.22405594586E+03  0.25500000920E-02 0.  1.
</event>
<event>
 5   0  0.1969818E-02  0.6997727E+03  0.7818609E-02  0.9717621E-01
       -1   -1    0    0    0  501  0.00000000000E+00  0.00000000000E+00  0.13573942448E+03  0.13573942457E+03  0.50400001928E-02 0.  1.
        1   -1    0    0  501    0  0.00000000000E+00  0.00000000000E+00 -0.90187832437E+03  0.90187832439E+03  0.50400001928E-02 0. -1.
    10030    2    1    2    0    0  0.00000000000E+00  0.00000000000E+00 -0.76613889989E+03  0.10376177490E+04  0.69977266239E+03 0.  0.
        1    1    3    3  502    0  0.33892379170E+03  0.34093031170E+02 -0.26455012711E+03  0.43129855220E+03  0.50400001928E-02 0.  1.
       -1    1    3    3    0  502 -0.33892379170E+03 -0.34093031170E+02 -0.50158877279E+03  0.60631919676E+03  0.50400001928E-02 0. -1.
</event>
<event>
 5   0  0.1884172E-02  0.6978689E+03  0.7818609E-02  0.9720884E-01
        1   -1    0    0  501    0  0.00000000000E+00  0.00000000000E+00  0.22625919093E+03  0.22625919098E+03  0.50400001928E-02 0.  1.
       -1   -1    0    0    0  501  0.00000000000E+00  0.00000000000E+00 -0.53812291969E+03  0.53812291972E+03  0.50400001928E-02 0. -1.
    10030    2    1    2    0    0  0.00000000000E+00  0.00000000000E+00 -0.31186372877E+03  0.76438211070E+03  0.69786891738E+03 0.  0.
        3    1    3    3  502    0  0.15809551628E+03 -0.52384661895E+01 -0.49659517462E+03  0.52117982641E+03  0.10100000352E+00 0. -1.
       -3    1    3    3    0  502 -0.15809551628E+03  0.52384661895E+01  0.18473144586E+03  0.24320228429E+03  0.10100000352E+00 0.  1.
</event>
<event>
 5   0  0.1951465E-02  0.6616210E+03  0.7818609E-02  0.9785214E-01
       -1   -1    0    0    0  501  0.00000000000E+00  0.00000000000E+00  0.24330943805E+03  0.24330943811E+03  0.50400001928E-02 0. -1.
        1   -1    0    0  501    0  0.00000000000E+00  0.00000000000E+00 -0.44977939774E+03  0.44977939777E+03  0.50400001928E-02 0.  1.
    10030    2    1    2    0    0  0.00000000000E+00  0.00000000000E+00 -0.20646995969E+03  0.69308883588E+03  0.66162095656E+03 0.  0.
        4    1    3    3  502    0  0.30561618220E+03 -0.47925797539E+02 -0.22600916281E+03  0.38311863367E+03  0.12699999809E+01 0.  1.
       -4    1    3    3    0  502 -0.30561618220E+03  0.47925797539E+02  0.19539203124E+02  0.30997020220E+03  0.12699999809E+01 0. -1.
</event>
<event>
 5   0  0.1233912E-02  0.6993840E+03  0.7818609E-02  0.9718286E-01
        3   -1    0    0  501    0  0.00000000000E+00  0.00000000000E+00  0.65588605642E+03  0.65588606419E+03  0.10100000352E+00 0. -1.
       -3   -1    0    0    0  501  0.00000000000E+00  0.00000000000E+00 -0.18644164797E+03  0.18644167533E+03  0.10100000352E+00 0.  1.
    10030    2    1    2    0    0  0.00000000000E+00  0.00000000000E+00  0.46944440845E+03  0.84232773952E+03  0.69938399191E+03 0.  0.
        1    1    3    3  502    0 -0.74935387931E+02  0.21907283553E+03  0.55034529815E+03  0.59706630021E+03  0.50400001928E-02 0. -1.
       -1    1    3    3    0  502  0.74935387931E+02 -0.21907283553E+03 -0.80900889702E+02  0.24526143931E+03  0.50400001928E-02 0.  1.
</event>
<event>
 5   0  0.1969818E-02  0.6810143E+03  0.7818609E-02  0.9750263E-01
       -1   -1    0    0    0  501  0.00000000000E+00  0.00000000000E+00  0.20318688494E+03  0.20318688500E+03  0.50400001928E-02 0.  1.
        1   -1    0    0  501    0  0.00000000000E+00  0.00000000000E+00 -0.57063287669E+03  0.57063287672E+03  0.50400001928E-02 0. -1.
    10030    2    1    2    0    0  0.00000000000E+00  0.00000000000E+00 -0.36744599175E+03  0.77381976172E+03  0.68101429263E+03 0.  0.
        1    1    3    3  502    0 -0.54626690673E+02  0.28756183403E+03  0.13966820307E+02  0.29303746488E+03  0.50400001928E-02 0.  1.
       -1    1    3    3    0  502  0.54626690673E+02 -0.28756183403E+03 -0.38141281206E+03  0.48078229684E+03  0.50400001928E-02 0. -1.
</event>
<event>
 5   0  0.3184443E-02  0.6930783E+03  0.7818609E-02  0.9729143E-01
        2   -1    0    0  501    0  0.00000000000E+00  0.00000000000E+00  0.13659227890E+03  0.13659227892E+03  0.25500000920E-02 0.  1.
       -2   -1    0    0    0  501  0.00000000000E+00  0.00000000000E+00 -0.87918122186E+03  0.87918122187E+03  0.25500000920E-02 0. -1.
    10030    2    1    2    0    0  0.00000000000E+00  0.00000000000E+00 -0.74258894296E+03  0.10157735008E+04  0.69307825438E+03 0.  0.
        3    1    3    3  502    0 -0.16615961676E+03 -0.51849320313E+01  0.74337332413E+02  0.18210423102E+03  0.10100000352E+00 0.  1.
       -3    1    3    3    0  502  0.16615961676E+03  0.51849320313E+01 -0.81692627537E+03  0.83366926977E+03  0.10100000352E+00 0. -1.
</event>
<event>
 5   0  0.1858013E-02  0.6991766E+03  0.7818609E-02  0.9718641E-01
       -1   -1    0    0    0  501  0.00000000000E+00  0.00000000000E+00  0.19731979838E+03  0.19731979844E+03  0.50400001928E-02 0.  1.
        1   -1    0    0  501    0  0.00000000000E+00  0.00000000000E+00 -0.61935998266E+03  0.61935998268E+03  0.50400001928E-02 0. -1.
    10030    2    1    2    0    0  0.00000000000E+00  0.00000000000E+00 -0.42204018429E+03  0.81667978113E+03  0.69917662128E+03 0.  0.
        2    1    3    3  502    0 -0.58620310734E+02 -0.65133966414E+02 -0.60632356224E+03  0.61262307869E+03  0.25500000920E-02 0. -1.
       -2    1    3    3    0  502  0.58620310734E+02  0.65133966414E+02  0.18428337796E+03  0.20405670243E+03  0.25500000920E-02 0.  1.
</event>
<event>
 5   0  0.3290656E-02  0.6904568E+03  0.7818609E-02  0.9733693E-01
       -2   -1    0    0    0  501  0.00000000000E+00  0.00000000000E+00  0.11385976535E+03  0.11385976538E+03  0.25500000920E-02 0.  1.
        2   -1    0    0  501    0  0.00000000000E+00  0.00000000000E+00 -0.10467495520E+04  0.10467495520E+04  0.25500000920E-02 0. -1.
    10030    2    1    2    0    0  0.00000000000E+00  0.00000000000E+00 -0.93288978664E+03  0.11606093174E+04  0.69045682960E+03 0.  0.
        1    1    3    3  502    0 -0.32859631777E+03  0.92361270698E+02 -0.37948193972E+03  0.51040443471E+03  0.50400001928E-02 0.  1.
       -1    1    3    3    0  502  0.32859631777E+03 -0.92361270698E+02 -0.55340784692E+03  0.65020488266E+03  0.50400001928E-02 0. -1.
</event>
<event>
 5   0  0.1858013E-02  0.7061604E+03  0.7818609E-02  0.9706755E-01
        1   -1    0    0  501    0  0.00000000000E+00  0.00000000000E+00  0.37913873414E+03  0.37913873417E+03  0.50400001928E-02 0. -1.
       -1   -1    0    0    0  501  0.00000000000E+00  0.00000000000E+00 -0.32881273208E+03  0.32881273212E+03  0.50400001928E-02 0.  1.
    10030    2    1    2    0    0  0.00000000000E+00  0.00000000000E+00  0.50326002057E+02  0.70795146629E+03  0.70616044362E+03 0.  0.
        2    1    3    3  502    0  0.18559269003E+03 -0.10807071013E+03 -0.25580075343E+03  0.33400291981E+03  0.25500000920E-02 0.  1.
       -2    1    3    3    0  502 -0.18559269003E+03  0.10807071013E+03  0.30612675549E+03  0.37394854648E+03  0.25500000920E-02 0. -1.
</event>
<event>
 5   0  0.1884172E-02  0.7081064E+03  0.7818609E-02  0.9703469E-01
        1   -1    0    0  501    0  0.00000000000E+00  0.00000000000E+00  0.28986717581E+03  0.28986717586E+03  0.50400001928E-02 0. -1.
       -1   -1    0    0    0  501  0.00000000000E+00  0.00000000000E+00 -0.43245213966E+03  0.43245213969E+03  0.50400001928E-02 0.  1.
    10030    2    1    2    0    0  0.00000000000E+00  0.00000000000E+00 -0.14258496385E+03  0.72231931555E+03  0.70810643388E+03 0.  0.
        3    1    3    3  502    0  0.28870909494E+03  0.20415945785E+03 -0.89529939873E+02  0.36475971003E+03  0.10100000352E+00 0.  1.
       -3    1    3    3    0  502 -0.28870909494E+03 -0.20415945785E+03 -0.53055023978E+02  0.35755960552E+03  0.10100000352E+00 0. -1.
</event>
<event>
 5   0  0.3183963E-02  0.6889057E+03  0.7818609E-02  0.9736395E-01
       -2   -1    0    0    0  501  0.00000000000E+00  0.00000000000E+00  0.52009487872E+03  0.52009487872E+03  0.25500000920E-02 0.  1.
        2   -1    0    0  501    0  0.00000000000E+00  0.00000000000E+00 -0.22812715520E+03  0.22812715522E+03  0.25500000920E-02 0. -1.
    10030    2    1    2    0    0  0.00000000000E+00  0.00000000000E+00  0.29196772352E+03  0.74822203394E+03  0.68890569783E+03 0.  0.
        4    1    3    3  502    0  0.30681644369E+03 -0.12616275616E+03  0.45305163915E+02  0.33482464356E+03  0.12699999809E+01 0. -1.
       -4    1    3    3    0  502 -0.30681644369E+03  0.12616275616E+03  0.24666255960E+03  0.41339739038E+03  0.12699999809E+01 0.  1.
</event>
<event>
 5   0  0.1951465E-02  0.6985552E+03  0.7818609E-02  0.9719706E-01
        1   -1    0    0  501    0  0.00000000000E+00  0.00000000000E+00  0.11162659845E+04  0.11162659845E+04  0.50400001928E-02 0.  1.
       -1   -1    0    0    0  501  0.00000000000E+00  0.00000000000E+00 -0.10928833497E+03  0.10928833508E+03  0.50400001928E-02 0. -1.
    10030    2    1    2    0    0  0.00000000000E+00  0.00000000000E+00  0.10069776495E+04  0.12255543196E+04  0.69855522589E+03 0.  0.
        4    1    3    3  502    0  0.16626906603E+03 -0.25210133600E+03  0.81135081436E+03  0.86573220039E+03  0.12699999809E+01 0.  1.
       -4    1    3    3    0  502 -0.16626906603E+03  0.25210133600E+03  0.19562683519E+03  0.35982211922E+03  0.12699999809E+01 0. -1.
</event>
<event>
 5   0  0.2933851E-02  0.7025199E+03  0.7818609E-02  0.9712932E-01
       -2   -1    0    0    0  501  0.00000000000E+00  0.00000000000E+00  0.15826350080E+03  0.15826350082E+03  0.25500000920E-02 0. -1.
        2   -1    0    0  501    0  0.00000000000E+00  0.00000000000E+00 -0.77960842408E+03  0.77960842408E+03  0.25500000920E-02 0.  1.
    10030    2    1    2    0    0  0.00000000000E+00  0.00000000000E+00 -0.62134492328E+03  0.93787192490E+03  0.70251991703E+03 0.  0.
        2    1    3    3  502    0  0.57276773252E+02  0.72953027903E+02 -0.76296506992E+03  0.76858211725E+03  0.25500000920E-02 0.  1.
       -2    1    3    3    0  502 -0.57276773252E+02 -0.72953027903E+02  0.14162014664E+03  0.16928980765E+03  0.25500000920E-02 0. -1.
</event>
<event>
 5   0  0.1839038E-02  0.6961247E+03  0.7818609E-02  0.9723882E-01
       -1   -1    0    0    0  501  0.00000000000E+00  0.00000000000E+00  0.20956854000E+03  0.20956854006E+03  0.50400001928E-02 0.  1.
        1   -1    0    0  501    0  0.00000000000E+00  0.00000000000E+00 -0.57808010112E+03  0.57808010114E+03  0.50400001928E-02 0. -1.
    10030    2    1    2    0    0  0.00000000000E+00  0.00000000000E+00 -0.36851156112E+03  0.78764864120E+03  0.69612470959E+03 0.  0.
        5    1    3    3  502    0  0.19586839013E+03 -0.28665029853E+03 -0.21179724717E+03  0.40670995047E+03  0.46999998093E+01 0. -1.
       -5    1    3    3    0  502 -0.19586839013E+03  0.28665029853E+03 -0.15671431395E+03  0.38093869073E+03  0.46999998093E+01 0.  1.
</event>
<event>
 5   0  0.3184443E-02  0.7143271E+03  0.7818609E-02  0.9693040E-01
       -2   -1    0    0    0  501  0.00000000000E+00  0.00000000000E+00  0.11236313021E+03  0.11236313023E+03  0.25500000920E-02 0.  1.
        2   -1    0    0  501    0  0.00000000000E+00  0.00000000000E+00 -0.11352993930E+04  0.11352993930E+04  0.25500000920E-02 0. -1.
    10030    2    1    2    0    0  0.00000000000E+00  0.00000000000E+00 -0.10229362628E+04  0.12476625232E+04  0.71432707784E+03 0.  0.
        3    1    3    3  502    0  0.17796585534E+02  0.54493541408E+02 -0.11272115783E+04  0.11286683379E+04  0.10100000352E+00 0. -1.
       -3    1    3    3    0  502 -0.17796585534E+02 -0.54493541408E+02  0.10427531552E+03  0.11899418532E+03  0.10100000352E+00 0.  1.
</event>
<event>
 5   0  0.1858013E-02  0.6993108E+03  0.7818609E-02  0.9718411E-01
       -1   -1    0    0    0  501  0.00000000000E+00  0.00000000000E+00  0.18826786510E+03  0.18826786517E+03  0.50400001928E-02 0.  1.
        1   -1    0    0  501    0  0.00000000000E+00  0.00000000000E+00 -0.64938812371E+03  0.64938812373E+03  0.50400001928E-02 0. -1.
    10030    2    1    2    0    0  0.00000000000E+00  0.00000000000E+00 -0.46112025861E+03  0.83765598890E+03  0.69931084850E+03 0.  0.
        2    1    3    3  502    0 -0.19798057837E+03 -0.19575937481E+03 -0.48392573637E+03  0.55830292903E+03  0.25500000920E-02 0. -1.
       -2    1    3    3    0  502  0.19798057837E+03  0.19575937481E+03  0.22805477756E+02  0.27935305987E+03  0.25500000920E-02 0.  1.
</event>
<event>
 5   0  0.2933851E-02  0.7020623E+03  0.7818609E-02  0.9713712E-01
        2   -1    0    0  501    0  0.00000000000E+00  0.00000000000E+00  0.29274706117E+03  0.29274706118E+03  0.25500000920E-02 0. -1.
       -2   -1    0    0    0  501  0.00000000000E+00  0.00000000000E+00 -0.42091921982E+03  0.42091921983E+03  0.25500000920E-02 0.  1.
    10030    2    1    2    0    0  0.00000000000E+00  0.00000000000E+00 -0.12817215865E+03  0.71366628101E+03  0.70206228954E+03 0.  0.
        2    1    3    3  502    0  0.10164372550E+03  0.20788226881E+03  0.20423965174E+03  0.30864270600E+03  0.25500000920E-02 0. -1.
       -2    1    3    3    0  502 -0.10164372550E+03 -0.20788226881E+03 -0.33241181039E+03  0.40502357501E+03  0.25500000920E-02 0.  1.
</event>
<event>
 5   0  0.3290656E-02  0.6921430E+03  0.7818609E-02  0.9730764E-01
       -2   -1    0    0    0  501  0.00000000000E+00  0.00000000000E+00  0.15370253032E+03  0.15370253034E+03  0.25500000920E-02 0. -1.
        2   -1    0    0  501    0  0.00000000000E+00  0.00000000000E+00 -0.77920300792E+03  0.77920300792E+03  0.25500000920E-02 0.  1.
    10030    2    1    2    0    0  0.00000000000E+00  0.00000000000E+00 -0.62550047760E+03  0.93290553826E+03  0.69214297355E+03 0.  0.
        1    1    3    3  502    0 -0.12609049448E+03 -0.16247358613E+03 -0.68790098766E+03  0.71798624488E+03  0.50400001928E-02 0.  1.
       -1    1    3    3    0  502  0.12609049448E+03  0.16247358613E+03  0.62400510061E+02  0.21491929338E+03  0.50400001928E-02 0. -1.
</event>
<event>
 5   0  0.1884172E-02  0.6986990E+03  0.7818609E-02  0.9719460E-01
        1   -1    0    0  501    0  0.00000000000E+00  0.00000000000E+00  0.45847107780E+03  0.45847107783E+03  0.50400001928E-02 0.  1.
       -1   -1    0    0    0  501  0.00000000000E+00  0.00000000000E+00 -0.26620018336E+03  0.26620018341E+03  0.50400001928E-02 0. -1.
    10030    2    1    2    0    0  0.00000000000E+00  0.00000000000E+00  0.19227089443E+03  0.72467126124E+03  0.69869903393E+03 0.  0.
        3    1    3    3  502    0 -0.55427148097E+02  0.54897836944E+00  0.45388111286E+03  0.45725326126E+03  0.10100000352E+00 0.  1.
       -3    1    3    3    0  502  0.55427148097E+02 -0.54897836944E+00 -0.26161021843E+03  0.26741799997E+03  0.10100000352E+00 0. -1.
</event>
<event>
 5   0  0.1858013E-02  0.6761351E+03  0.7818609E-02  0.9758938E-01
       -1   -1    0    0    0  501  0.00000000000E+00  0.00000000000E+00  0.17263836891E+03  0.17263836898E+03  0.50400001928E-02 0. -1.
        1   -1    0    0  501    0  0.00000000000E+00  0.00000000000E+00 -0.66201770662E+03  0.66201770664E+03  0.50400001928E-02 0.  1.
    10030    2    1    2    0    0  0.00000000000E+00  0.00000000000E+00 -0.48937933771E+03  0.83465607562E+03  0.67613506667E+03 0.  0.
        2    1    3    3  502    0  0.32746880592E+03 -0.74923000795E+02 -0.29154003296E+03  0.44479755589E+03  0.25500000920E-02 0.  1.
       -2    1    3    3    0  502 -0.32746880592E+03  0.74923000795E+02 -0.19783930475E+03  0.38985851973E+03  0.25500000920E-02 0. -1.
</event>
<event>
 5   0  0.2933851E-02  0.7068769E+03  0.7818609E-02  0.9705544E-01
        2   -1    0    0  501    0  0.00000000000E+00  0.00000000000E+00  0.51019989711E+03  0.51019989711E+03  0.25500000920E-02 0. -1.
       -2   -1    0    0    0  501  0.00000000000E+00  0.00000000000E+00 -0.24484272844E+03  0.24484272846E+03  0.25500000920E-02 0.  1.
    10030    2    1    2    0    0  0.00000000000E+00  0.00000000000E+00  0.26535716866E+03  0.75504262557E+03  0.70687689131E+03 0.  0.
        2    1    3    3  502    0 -0.10987854218E+03 -0.11593808633E+03  0.46944531553E+03  0.49587683771E+03  0.25500000920E-02 0. -1.
       -2    1    3    3    0  502  0.10987854218E+03  0.11593808633E+03 -0.20408814687E+03  0.25916578786E+03  0.25500000920E-02 0.  1.
</event>
<event>
 5   0  0.3183963E-02  0.7136091E+03  0.7818609E-02  0.9694238E-01
       -2   -1    0    0    0  501  0.00000000000E+00  0.00000000000E+00  0.71811219918E+02  0.71811219964E+02  0.25500000920E-02 0. -1.
        2   -1    0    0  501    0  0.00000000000E+00  0.00000000000E+00 -0.17728356150E+04  0.17728356150E+04  0.25500000920E-02 0.  1.
    10030    2    1    2    0    0  0.00000000000E+00  0.00000000000E+00 -0.17010243951E+04  0.18446468349E+04  0.71360910384E+03 0.  0.
        4    1    3    3  502    0  0.31181196574E+03  0.14762716557E+03 -0.10858338157E+04  0.11393231193E+04  0.12699999809E+01 0.  1.
       -4    1    3    3    0  502 -0.31181196574E+03 -0.14762716557E+03 -0.61519057934E+03  0.70532371561E+03  0.12699999809E+01 0. -1.
</event>
<event>
 5   0  0.3184443E-02  0.7022748E+03  0.7818609E-02  0.9713350E-01
        2   -1    0    0  501    0  0.00000000000E+00  0.00000000000E+00  0.35284590480E+03  0.35284590481E+03  0.25500000920E-02 0.  1.
       -2   -1    0    0    0  501  0.00000000000E+00  0.00000000000E+00 -0.34943718483E+03  0.34943718484E+03  0.25500000920E-02 0. -1.
    10030    2    1    2    0    0  0.00000000000E+00  0.00000000000E+00  0.34087199713E+01  0.70228308966E+03  0.70227481704E+03 0.  0.
        3    1    3    3  502    0  0.27121693355E+03  0.97059823527E+02  0.20250073684E+03  0.35211616408E+03  0.10100000352E+00 0.  1.
       -3    1    3    3    0  502 -0.27121693355E+03 -0.97059823527E+02 -0.19909201687E+03  0.35016692557E+03  0.10100000352E+00 0. -1.
</event>
<event>
 5   0  0.3113940E-02  0.6804010E+03  0.7818609E-02  0.9751349E-01
        2   -1    0    0  501    0  0.00000000000E+00  0.00000000000E+00  0.93279589050E+03  0.93279589050E+03  0.25500000920E-02 0. -1.
       -2   -1    0    0    0  501  0.00000000000E+00  0.00000000000E+00 -0.12407471261E+03  0.12407471264E+03  0.25500000920E-02 0.  1.
    10030    2    1    2    0    0  0.00000000000E+00  0.00000000000E+00  0.80872117789E+03  0.10568706031E+04  0.68040100545E+03 0.  0.
        5    1    3    3  502    0  0.15442775529E+03 -0.25054655751E+03  0.66930179261E+03  0.73116926130E+03  0.46999998093E+01 0. -1.
       -5    1    3    3    0  502 -0.15442775529E+03  0.25054655751E+03  0.13941938527E+03  0.32570134183E+03  0.46999998093E+01 0.  1.
</event>
<event>
 5   0  0.1951465E-02  0.6857215E+03  0.7818609E-02  0.9741967E-01
       -1   -1    0    0    0  501  0.00000000000E+00  0.00000000000E+00  0.12273125113E+03  0.12273125123E+03  0.50400001928E-02 0. -1.
        1   -1    0    0  501    0  0.00000000000E+00  0.00000000000E+00 -0.95781223711E+03  0.95781223713E+03  0.50400001928E-02 0.  1.
    10030    2    1    2    0    0  0.00000000000E+00  0.00000000000E+00 -0.83508098598E+03  0.10805434884E+04  0.68572150111E+03 0.  0.
        4    1    3    3  502    0 -0.20724323509E+01  0.33493758553E+03 -0.53295358284E+03  0.62946692966E+03  0.12699999809E+01 0.  1.
       -4    1    3    3    0  502  0.20724323509E+01 -0.33493758553E+03 -0.30212740315E+03  0.45107655870E+03  0.12699999809E+01 0. -1.
</event>
<event>
 5   0  0.1839038E-02  0.7017993E+03  0.7818609E-02  0.9714160E-01
       -1   -1    0    0    0  501  0.00000000000E+00  0.00000000000E+00  0.10697183053E+04  0.10697183053E+04  0.50400001928E-02 0.  1.
        1   -1    0    0  501    0  0.00000000000E+00  0.00000000000E+00 -0.11510560870E+03  0.11510560881E+03  0.50400001928E-02 0. -1.
    10030    2    1    2    0    0  0.00000000000E+00  0.00000000000E+00  0.95461269658E+03  0.11848239141E+04  0.70179933526E+03 0.  0.
        5    1    3    3  502    0  0.17242165164E+03  0.55371651438E+02 -0.30054058200E+02  0.18363164800E+03  0.46999998093E+01 0. -1.
       -5    1    3    3    0  502 -0.17242165164E+03 -0.55371651438E+02  0.98466675478E+03  0.10011922661E+04  0.46999998093E+01 0.  1.
</event>
<event>
 5   0  0.1969818E-02  0.7014045E+03  0.7818609E-02  0.9714833E-01
       -1   -1    0    0    0  501  0.00000000000E+00  0.00000000000E+00  0.10617370709E+03  0.10617370721E+03  0.50400001928E-02 0.  1.
        1   -1    0    0  501    0  0.00000000000E+00  0.00000000000E+00 -0.11584041511E+04  0.11584041511E+04  0.50400001928E-02 0. -1.
    10030    2    1    2    0    0  0.00000000000E+00  0.00000000000E+00 -0.10522304440E+04  0.12645778584E+04  0.70140448563E+03 0.  0.
        1    1    3    3  502    0 -0.98758314147E+02 -0.28203790044E+03 -0.19517467788E+03  0.35691979045E+03  0.50400001928E-02 0.  1.
       -1    1    3    3    0  502  0.98758314147E+02  0.28203790044E+03 -0.85705576616E+03  0.90765806791E+03  0.50400001928E-02 0. -1.
</event>
<event>
 5   0  0.3183963E-02  0.7003466E+03  0.7818609E-02  0.9716640E-01
       -2   -1    0    0    0  501  0.00000000000E+00  0.00000000000E+00  0.19251723901E+03  0.19251723903E+03  0.25500000920E-02 0.  1.
        2   -1    0    0  501    0  0.00000000000E+00  0.00000000000E+00 -0.63693686632E+03  0.63693686632E+03  0.25500000920E-02 0. -1.
    10030    2    1    2    0    0  0.00000000000E+00  0.00000000000E+00 -0.44441962730E+03  0.82945410536E+03  0.70034656261E+03 0.  0.
        4    1    3    3  502    0 -0.25172042564E+03 -0.13336093363E+03  0.18977090077E+02  0.28549965700E+03  0.12699999809E+01 0.  1.
       -4    1    3    3    0  502  0.25172042564E+03  0.13336093363E+03 -0.46339671738E+03  0.54395444835E+03  0.12699999809E+01 0. -1.
</event>
<event>
 5   0  0.3183963E-02  0.6972803E+03  0.7818609E-02  0.9721895E-01
        2   -1    0    0  501    0  0.00000000000E+00  0.00000000000E+00  0.23352812118E+04  0.23352812118E+04  0.25500000920E-02 0.  1.
       -2   -1    0    0    0  501  0.00000000000E+00  0.00000000000E+00 -0.52049381322E+02  0.52049381384E+02  0.25500000920E-02 0. -1.
    10030    2    1    2    0    0  0.00000000000E+00  0.00000000000E+00  0.22832318305E+04  0.23873305932E+04  0.69728026607E+03 0.  0.
        4    1    3    3  502    0  0.18530292739E+03 -0.25676196908E+03  0.64211491477E+03  0.71594487241E+03  0.12699999809E+01 0. -1.
       -4    1    3    3    0  502 -0.18530292739E+03  0.25676196908E+03  0.16411169157E+04  0.16713857208E+04  0.12699999809E+01 0.  1.
</event>
<event>
 5   0  0.1839038E-02  0.7023160E+03  0.7818609E-02  0.9713280E-01
        1   -1    0    0  501    0  0.00000000000E+00  0.00000000000E+00  0.10161313427E+04  0.10161313427E+04  0.50400001928E-02 0.  1.
       -1   -1    0    0    0  501  0.00000000000E+00  0.00000000000E+00 -0.12135433033E+03  0.12135433043E+03  0.50400001928E-02 0. -1.
    10030    2    1    2    0    0  0.00000000000E+00  0.00000000000E+00  0.89477701234E+03  0.11374856731E+04  0.70231599350E+03 0.  0.
        5    1    3    3  502    0  0.29048132860E+03 -0.43210600815E+02  0.75911100928E+03  0.81395219312E+03  0.46999998093E+01 0.  1.
       -5    1    3    3    0  502 -0.29048132860E+03  0.43210600815E+02  0.13566600306E+03  0.32353347999E+03  0.46999998093E+01 0. -1.
</event>
<event>
 5   0  0.2933851E-02  0.7018737E+03  0.7818609E-02  0.9714033E-01
       -2   -1    0    0    0  501  0.00000000000E+00  0.00000000000E+00  0.39451264660E+03  0.39451264661E+03  0.25500000920E-02 0.  1.
        2   -1    0    0  501    0  0.00000000000E+00  0.00000000000E+00 -0.31217421016E+03  0.31217421017E+03  0.25500000920E-02 0. -1.
    10030    2    1    2    0    0  0.00000000000E+00  0.00000000000E+00  0.82338436436E+02  0.70668685678E+03  0.70187370333E+03 0.  0.
        2    1    3    3  502    0  0.27395739822E+03 -0.10399751996E+03  0.23559582450E+03  0.37599671904E+03  0.25500000920E-02 0.  1.
       -2    1    3    3    0  502 -0.27395739822E+03  0.10399751996E+03 -0.15325738807E+03  0.33069013774E+03  0.25500000920E-02 0. -1.
</event>
<event>
 5   0  0.1858013E-02  0.6996704E+03  0.7818609E-02  0.9717796E-01
        1   -1    0    0  501    0  0.00000000000E+00  0.00000000000E+00  0.68289897440E+03  0.68289897442E+03  0.50400001928E-02 0. -1.
       -1   -1    0    0    0  501  0.00000000000E+00  0.00000000000E+00 -0.17921345115E+03  0.17921345122E+03  0.50400001928E-02 0.  1.
    10030    2    1    2    0    0  0.00000000000E+00  0.00000000000E+00  0.50368552325E+03  0.86211242564E+03  0.69967044250E+03 0.  0.
        2    1    3    3  502    0  0.16160926225E+03 -0.15461910536E+03  0.58329414663E+03  0.62470527682E+03  0.25500000920E-02 0. -1.
       -2    1    3    3    0  502 -0.16160926225E+03  0.15461910536E+03 -0.79608623384E+02  0.23740714882E+03  0.25500000920E-02 0.  1.
</event>
<event>
 5   0  0.1884172E-02  0.6977077E+03  0.7818609E-02  0.9721160E-01
       -1   -1    0    0    0  501  0.00000000000E+00  0.00000000000E+00  0.50738466267E+03  0.50738466270E+03  0.50400001928E-02 0. -1.
        1   -1    0    0  501    0  0.00000000000E+00  0.00000000000E+00 -0.23985552215E+03  0.23985552220E+03  0.50400001928E-02 0.  1.
    10030    2    1    2    0    0  0.00000000000E+00  0.00000000000E+00  0.26752914053E+03  0.74724018490E+03  0.69770771308E+03 0.  0.
        3    1    3    3  502    0  0.15957227151E+03  0.30184037537E+03  0.21045905475E+03  0.40107847856E+03  0.10100000352E+00 0.  1.
       -3    1    3    3    0  502 -0.15957227151E+03 -0.30184037537E+03  0.57070085779E+02  0.34616170634E+03  0.10100000352E+00 0. -1.
</event>
<event>
 5   0  0.3113940E-02  0.6997775E+03  0.7818609E-02  0.9717613E-01
       -2   -1    0    0    0  501  0.00000000000E+00  0.00000000000E+00  0.13815510984E+03  0.13815510986E+03  0.25500000920E-02 0.  1.
        2   -1    0    0  501    0  0.00000000000E+00  0.00000000000E+00 -0.88612095007E+03  0.88612095008E+03  0.25500000920E-02 0. -1.
    10030    2    1    2    0    0  0.00000000000E+00  0.00000000000E+00 -0.74796584023E+03  0.10242760599E+04  0.69977749950E+03 0.  0.
        5    1    3    3  502    0  0.49990924714E+02  0.11506946323E+03  0.10404997541E+03  0.16305999296E+03  0.46999998093E+01 0.  1.
       -5    1    3    3    0  502 -0.49990924714E+02 -0.11506946323E+03 -0.85201581565E+03  0.86121606698E+03  0.46999998093E+01 0. -1.
</event>
<event>
 5   0  0.3290656E-02  0.7035239E+03  0.7818609E-02  0.9711225E-01
       -2   -1    0    0    0  501  0.00000000000E+00  0.00000000000E+00  0.86687448561E+02  0.86687448599E+02  0.25500000920E-02 0.  1.
        2   -1    0    0  501    0  0.00000000000E+00  0.00000000000E+00 -0.14273862426E+04  0.14273862426E+04  0.25500000920E-02 0. -1.
    10030    2    1    2    0    0  0.00000000000E+00  0.00000000000E+00 -0.13406987940E+04  0.15140736912E+04  0.70352390581E+03 0.  0.
        1    1    3    3  502    0 -0.81803033506E+01  0.24682583462E+03 -0.13125710849E+03  0.27967541643E+03  0.50400001928E-02 0.  1.
       -1    1    3    3    0  502  0.81803033506E+01 -0.24682583462E+03 -0.12094416855E+04  0.12343982747E+04  0.50400001928E-02 0. -1.
</event>
<event>
 5   0  0.1951465E-02  0.7012341E+03  0.7818609E-02  0.9715124E-01
        1   -1    0    0  501    0  0.00000000000E+00  0.00000000000E+00  0.16594036071E+04  0.16594036071E+04  0.50400001928E-02 0. -1.
       -1   -1    0    0    0  501  0.00000000000E+00  0.00000000000E+00 -0.74082219014E+02  0.74082219186E+02  0.50400001928E-02 0.  1.
    10030    2    1    2    0    0  0.00000000000E+00  0.00000000000E+00  0.15853213881E+04  0.17334858263E+04  0.70123405967E+03 0.  0.
        4    1    3    3  502    0 -0.15894499139E+03 -0.30987942437E+03  0.89282970646E+03  0.95835028334E+03  0.12699999809E+01 0. -1.
       -4    1    3    3    0  502  0.15894499139E+03  0.30987942437E+03  0.69249168164E+03  0.77513554297E+03  0.12699999809E+01 0.  1.
</event>
<event>
 5   0  0.1951465E-02  0.7113224E+03  0.7818609E-02  0.9698063E-01
        1   -1    0    0  501    0  0.00000000000E+00  0.00000000000E+00  0.31920370862E+03  0.31920370866E+03  0.50400001928E-02 0. -1.
       -1   -1    0    0    0  501  0.00000000000E+00  0.00000000000E+00 -0.39628262355E+03  0.39628262359E+03  0.50400001928E-02 0.  1.
    10030    2    1    2    0    0  0.00000000000E+00  0.00000000000E+00 -0.77078914934E+02  0.71548633224E+03  0.71132238296E+03 0.  0.
        4    1    3    3  502    0  0.12344735597E+03 -0.26601938763E+03 -0.24093290690E+03  0.37954689146E+03  0.12699999809E+01 0.  1.
       -4    1    3    3    0  502 -0.12344735597E+03  0.26601938763E+03  0.16385399197E+03  0.33593944078E+03  0.12699999809E+01 0. -1.
</event>
<event>
 5   0  0.1884172E-02  0.6997678E+03  0.7818609E-02  0.9717629E-01
       -1   -1    0    0    0  501  0.00000000000E+00  0.00000000000E+00  0.52267155560E+03  0.52267155562E+03  0.50400001928E-02 0. -1.
        1   -1    0    0  501    0  0.00000000000E+00  0.00000000000E+00 -0.23421736089E+03  0.23421736094E+03  0.50400001928E-02 0.  1.
    10030    2    1    2    0    0  0.00000000000E+00  0.00000000000E+00  0.28845419471E+03  0.75688891656E+03  0.69976782548E+03 0.  0.
        3    1    3    3  502    0  0.29519348039E+03 -0.35347451409E+02  0.34375785224E+03  0.45448663826E+03  0.10100000352E+00 0. -1.
       -3    1    3    3    0  502 -0.29519348039E+03  0.35347451409E+02 -0.55303657522E+02  0.30240227830E+03  0.10100000352E+00 0.  1.
</event>
<event>
 5   0  0.3183963E-02  0.6999668E+03  0.7818609E-02  0.9717289E-01
        2   -1    0    0  501    0  0.00000000000E+00  0.00000000000E+00  0.10287132011E+04  0.10287132011E+04  0.25500000920E-02 0. -1.
       -2   -1    0    0    0  501  0.00000000000E+00  0.00000000000E+00 -0.11906952684E+03  0.11906952686E+03  0.25500000920E-02 0.  1.
    10030    2    1    2    0    0  0.00000000000E+00  0.00000000000E+00  0.90964367428E+03  0.11477827280E+04  0.69996683957E+03 0.  0.
        4    1    3    3  502    0 -0.19859845170E+02 -0.82982994316E+02 -0.10174859023E+03  0.13279675941E+03  0.12699999809E+01 0.  1.
       -4    1    3    3    0  502  0.19859845170E+02  0.82982994316E+02  0.10113922645E+04  0.10149859686E+04  0.12699999809E+01 0. -1.
</event>
<event>
 5   0  0.1839038E-02  0.6966609E+03  0.7818609E-02  0.9722960E-01
       -1   -1    0    0    0  501  0.00000000000E+00  0.00000000000E+00  0.32457847076E+03  0.32457847080E+03  0.50400001928E-02 0.  1.
        1   -1    0    0  501    0  0.00000000000E+00  0.00000000000E+00 -0.37382052974E+03  0.37382052978E+03  0.50400001928E-02 0. -1.
    10030    2    1    2    0    0  0.00000000000E+00  0.00000000000E+00 -0.49242058981E+02  0.69839900058E+03  0.69666088138E+03 0.  0.
        5    1    3    3  502    0 -0.20284025229E+03  0.27029928565E+03 -0.10912923602E+03  0.35515792533E+03  0.46999998093E+01 0. -1.
       -5    1    3    3    0  502  0.20284025229E+03 -0.27029928565E+03  0.59887177037E+02  0.34324107525E+03  0.46999998093E+01 0.  1.
</event>
<event>
 5   0  0.3184443E-02  0.7002039E+03  0.7818609E-02  0.9716884E-01
       -2   -1    0    0    0  501  0.00000000000E+00  0.00000000000E+00  0.76034404974E+03  0.76034404975E+03  0.25500000920E-02 0. -1.
        2   -1    0    0  501    0  0.00000000000E+00  0.00000000000E+00 -0.16120514691E+03  0.16120514693E+03  0.25500000920E-02 0.  1.
    10030    2    1    2    0    0  0.00000000000E+00  0.00000000000E+00  0.59913890283E+03  0.92154919668E+03  0.70020389674E+03 0.  0.
        3    1    3    3  502    0 -0.58738402107E+02  0.19843915189E+03  0.67122487042E+03  0.70240382527E+03  0.10100000352E+00 0. -1.
       -3    1    3    3    0  502  0.58738402107E+02 -0.19843915189E+03 -0.72085967587E+02  0.21914537140E+03  0.10100000352E+00 0.  1.
</event>
<event>
 5   0  0.3184443E-02  0.6997036E+03  0.7818609E-02  0.9717739E-01
       -2   -1    0    0    0  501  0.00000000000E+00  0.00000000000E+00  0.89745724794E+02  0.89745724830E+02  0.25500000920E-02 0.  1.
        2   -1    0    0  501    0  0.00000000000E+00  0.00000000000E+00 -0.13638119112E+04  0.13638119112E+04  0.25500000920E-02 0. -1.
    10030    2    1    2    0    0  0.00000000000E+00  0.00000000000E+00 -0.12740661864E+04  0.14535576360E+04  0.69970361863E+03 0.  0.
        3    1    3    3  502    0 -0.30741102385E+03 -0.11151739364E+03 -0.89532058803E+03  0.95317187968E+03  0.10100000352E+00 0. -1.
       -3    1    3    3    0  502  0.30741102385E+03  0.11151739364E+03 -0.37874559839E+03  0.50038575636E+03  0.10100000352E+00 0.  1.
</event>
<event>
 5   0  0.1233912E-02  0.6478307E+03  0.7818609E-02  0.9810858E-01
        3   -1    0    0  501    0  0.00000000000E+00  0.00000000000E+00  0.86996638387E+02  0.86996697016E+02  0.10100000352E+00 0. -1.
       -3   -1    0    0    0  501  0.00000000000E+00  0.00000000000E+00 -0.12060363205E+04  0.12060363248E+04  0.10100000352E+00 0.  1.
    10030    2    1    2    0    0  0.00000000000E+00  0.00000000000E+00 -0.11190396822E+04  0.12930330218E+04  0.64783067633E+03 0.  0.
        2    1    3    3  502    0 -0.23823415971E+03  0.81848489833E+02 -0.96595995790E+03  0.99826516037E+03  0.25500000920E-02 0.  1.
       -2    1    3    3    0  502  0.23823415971E+03 -0.81848489833E+02 -0.15307972425E+03  0.29476786142E+03  0.25500000920E-02 0. -1.
</event>
<event>
 5   0  0.1233912E-02  0.6966685E+03  0.7818609E-02  0.9722947E-01
        3   -1    0    0  501    0  0.00000000000E+00  0.00000000000E+00  0.32237129683E+03  0.32237131265E+03  0.10100000352E+00 0. -1.
       -3   -1    0    0    0  501  0.00000000000E+00  0.00000000000E+00 -0.37638815482E+03  0.37638816837E+03  0.10100000352E+00 0.  1.
    10030    2    1    2    0    0  0.00000000000E+00  0.00000000000E+00 -0.54016857991E+02  0.69875948102E+03  0.69666849460E+03 0.  0.
        3    1    3    3  502    0 -0.55515755453E+00 -0.33747339325E+03  0.59553197538E+02  0.34268818610E+03  0.10100000352E+00 0. -1.
       -3    1    3    3    0  502  0.55515755453E+00  0.33747339325E+03 -0.11357005553E+03  0.35607129492E+03  0.10100000352E+00 0.  1.
</event>
<event>
 5   0  0.1839038E-02  0.7009842E+03  0.7818609E-02  0.9715551E-01
       -1   -1    0    0    0  501  0.00000000000E+00  0.00000000000E+00  0.95029292896E+02  0.95029293030E+02  0.50400001928E-02 0.  1.
        1   -1    0    0  501    0  0.00000000000E+00  0.00000000000E+00 -0.12927036816E+04  0.12927036816E+04  0.50400001928E-02 0. -1.
    10030    2    1    2    0    0  0.00000000000E+00  0.00000000000E+00 -0.11976743887E+04  0.13877329746E+04  0.70098421347E+03 0.  0.
        5    1    3    3  502    0 -0.34666069529E+03  0.32164143048E+02 -0.51929255285E+03  0.62521597484E+03  0.46999998093E+01 0.  1.
       -5    1    3    3    0  502  0.34666069529E+03 -0.32164143048E+02 -0.67838183582E+03  0.76251699976E+03  0.46999998093E+01 0. -1.
</event>
<event>
 5   0  0.3184443E-02  0.6997946E+03  0.7818609E-02  0.9717584E-01
       -2   -1    0    0    0  501  0.00000000000E+00  0.00000000000E+00  0.13968804519E+03  0.13968804522E+03  0.25500000920E-02 0. -1.
        2   -1    0    0  501    0  0.00000000000E+00  0.00000000000E+00 -0.87643937530E+03  0.87643937530E+03  0.25500000920E-02 0.  1.
    10030    2    1    2    0    0  0.00000000000E+00  0.00000000000E+00 -0.73675133011E+03  0.10161274205E+04  0.69979455008E+03 0.  0.
        3    1    3    3  502    0  0.30387605053E+02 -0.18349979252E+02 -0.87381789134E+03  0.87453864735E+03  0.10100000352E+00 0.  1.
       -3    1    3    3    0  502 -0.30387605053E+02  0.18349979252E+02  0.13706656123E+03  0.14158877317E+03  0.10100000352E+00 0. -1.
</event>
<event>
 5   0  0.1233912E-02  0.7008242E+03  0.7818609E-02  0.9715824E-01
       -3   -1    0    0    0  501  0.00000000000E+00  0.00000000000E+00  0.45522868448E+03  0.45522869568E+03  0.10100000352E+00 0. -1.
        3   -1    0    0  501    0  0.00000000000E+00  0.00000000000E+00 -0.26972954548E+03  0.26972956439E+03  0.10100000352E+00 0.  1.
    10030    2    1    2    0    0  0.00000000000E+00  0.00000000000E+00  0.18549913899E+03  0.72495826008E+03  0.70082419214E+03 0.  0.
        4    1    3    3  502    0 -0.12185859950E+03 -0.32688379216E+03  0.12681525701E+03  0.37119570870E+03  0.12699999809E+01 0.  1.
       -4    1    3    3    0  502  0.12185859950E+03  0.32688379216E+03  0.58683881985E+02  0.35376255137E+03  0.12699999809E+01 0. -1.
</event>
<event>
 5   0  0.2933851E-02  0.7040598E+03  0.7818609E-02  0.9710315E-01
       -2   -1    0    0    0  501  0.00000000000E+00  0.00000000000E+00  0.53030787422E+02  0.53030787483E+02  0.25500000920E-02 0. -1.
        2   -1    0    0  501    0  0.00000000000E+00  0.00000000000E+00 -0.23368509537E+04  0.23368509537E+04  0.25500000920E-02 0.  1.
    10030    2    1    2    0    0  0.00000000000E+00  0.00000000000E+00 -0.22838201663E+04  0.23898817412E+04  0.70405978791E+03 0.  0.
        2    1    3    3  502    0 -0.24508747221E+02  0.22395806238E+03 -0.20600840004E+04  0.20723667584E+04  0.25500000920E-02 0.  1.
       -2    1    3    3    0  502  0.24508747221E+02 -0.22395806238E+03 -0.22373616587E+03  0.31751498283E+03  0.25500000920E-02 0. -1.
</event>
<event>
 5   0  0.3290656E-02  0.6978779E+03  0.7818609E-02  0.9720868E-01
        2   -1    0    0  501    0  0.00000000000E+00  0.00000000000E+00  0.58669815909E+03  0.58669815909E+03  0.25500000920E-02 0. -1.
       -2   -1    0    0    0  501  0.00000000000E+00  0.00000000000E+00 -0.20753158685E+03  0.20753158687E+03  0.25500000920E-02 0.  1.
    10030    2    1    2    0    0  0.00000000000E+00  0.00000000000E+00  0.37916657224E+03  0.79422974596E+03  0.69787792619E+03 0.  0.
        1    1    3    3  502    0 -0.31961597455E+03 -0.10633616085E+03  0.29324492297E+03  0.44660310698E+03  0.50400001928E-02 0. -1.
       -1    1    3    3    0  502  0.31961597455E+03  0.10633616085E+03  0.85921649268E+02  0.34762663898E+03  0.50400001928E-02 0.  1.
</event>
<event>
 5   0  0.1969818E-02  0.6929735E+03  0.7818609E-02  0.9729325E-01
        1   -1    0    0  501    0  0.00000000000E+00  0.00000000000E+00  0.23400261551E+03  0.23400261556E+03  0.50400001928E-02 0.  1.
       -1   -1    0    0    0  501  0.00000000000E+00  0.00000000000E+00 -0.51304149395E+03  0.51304149398E+03  0.50400001928E-02 0. -1.
    10030    2    1    2    0    0  0.00000000000E+00  0.00000000000E+00 -0.27903887845E+03  0.74704410954E+03  0.69297345253E+03 0.  0.
        1    1    3    3  502    0  0.30735655617E+03 -0.12590336287E+03 -0.24587510760E+03  0.41324844581E+03  0.50400001928E-02 0. -1.
       -1    1    3    3    0  502 -0.30735655617E+03  0.12590336287E+03 -0.33163770849E+02  0.33379566373E+03  0.50400001928E-02 0.  1.
</event>
<event>
 5   0  0.3183963E-02  0.6960988E+03  0.7818609E-02  0.9723927E-01
        2   -1    0    0  501    0  0.00000000000E+00  0.00000000000E+00  0.26864917070E+03  0.26864917072E+03  0.25500000920E-02 0.  1.
       -2   -1    0    0    0  501  0.00000000000E+00  0.00000000000E+00 -0.45091660180E+03  0.45091660181E+03  0.25500000920E-02 0. -1.
    10030    2    1    2    0    0  0.00000000000E+00  0.00000000000E+00 -0.18226743110E+03  0.71956577252E+03  0.69609876063E+03 0.  0.
        4    1    3    3  502    0  0.10240329789E+03 -0.17632699143E+03  0.20043747362E+03  0.28592732828E+03  0.12699999809E+01 0.  1.
       -4    1    3    3    0  502 -0.10240329789E+03  0.17632699143E+03 -0.38270490472E+03  0.43363844424E+03  0.12699999809E+01 0. -1.
</event>
<event>
 5   0  0.3183963E-02  0.6989338E+03  0.7818609E-02  0.9719057E-01
       -2   -1    0    0    0  501  0.00000000000E+00  0.00000000000E+00  0.14859035197E+03  0.14859035200E+03  0.25500000920E-02 0. -1.
        2   -1    0    0  501    0  0.00000000000E+00  0.00000000000E+00 -0.82190462541E+03  0.82190462541E+03  0.25500000920E-02 0.  1.
    10030    2    1    2    0    0  0.00000000000E+00  0.00000000000E+00 -0.67331427344E+03  0.97049497741E+03  0.69893375249E+03 0.  0.
        4    1    3    3  502    0  0.13339623184E+03  0.22786299954E+03 -0.18778161817E+02  0.26470801554E+03  0.12699999809E+01 0. -1.
       -4    1    3    3    0  502 -0.13339623184E+03 -0.22786299954E+03 -0.65453611162E+03  0.70578696187E+03  0.12699999809E+01 0.  1.
</event>
<event>
 5   0  0.3113940E-02  0.7016225E+03  0.7818609E-02  0.9714461E-01
       -2   -1    0    0    0  501  0.00000000000E+00  0.00000000000E+00  0.50333140539E+03  0.50333140540E+03  0.25500000920E-02 0. -1.
        2   -1    0    0  501    0  0.00000000000E+00  0.00000000000E+00 -0.24450797000E+03  0.24450797001E+03  0.25500000920E-02 0.  1.
    10030    2    1    2    0    0  0.00000000000E+00  0.00000000000E+00  0.25882343539E+03  0.74783937541E+03  0.70162252009E+03 0.  0.
        5    1    3    3  502    0 -0.18024132550E+03 -0.14173616449E+03  0.41236067466E+03  0.47184689439E+03  0.46999998093E+01 0. -1.
       -5    1    3    3    0  502  0.18024132550E+03  0.14173616449E+03 -0.15353723926E+03  0.27599248102E+03  0.46999998093E+01 0.  1.
</event>
<event>
 5   0  0.1951465E-02  0.6994390E+03  0.7818609E-02  0.9718192E-01
       -1   -1    0    0    0  501  0.00000000000E+00  0.00000000000E+00  0.36442276364E+03  0.36442276367E+03  0.50400001928E-02 0. -1.
        1   -1    0    0  501    0  0.00000000000E+00  0.00000000000E+00 -0.33560949811E+03  0.33560949815E+03  0.50400001928E-02 0.  1.
    10030    2    1    2    0    0  0.00000000000E+00  0.00000000000E+00  0.28813265526E+02  0.70003226182E+03  0.69943903474E+03 0.  0.
        4    1    3    3  502    0  0.13990246322E+03  0.31841489247E+03 -0.22249353355E+02  0.34850737379E+03  0.12699999809E+01 0.  1.
       -4    1    3    3    0  502 -0.13990246322E+03 -0.31841489247E+03  0.51062618881E+02  0.35152488803E+03  0.12699999809E+01 0. -1.
</event>
<event>
 5   0  0.1858013E-02  0.7076076E+03  0.7818609E-02  0.9704310E-01
        1   -1    0    0  501    0  0.00000000000E+00  0.00000000000E+00  0.27854291793E+03  0.27854291797E+03  0.50400001928E-02 0.  1.
       -1   -1    0    0    0  501  0.00000000000E+00  0.00000000000E+00 -0.44939973938E+03  0.44939973941E+03  0.50400001928E-02 0. -1.
    10030    2    1    2    0    0  0.00000000000E+00  0.00000000000E+00 -0.17085682145E+03  0.72794265738E+03  0.70760756002E+03 0.  0.
        2    1    3    3  502    0 -0.89781302048E+02  0.13631189383E+03 -0.40835296454E+03  0.43976557192E+03  0.25500000920E-02 0. -1.
       -2    1    3    3    0  502  0.89781302048E+02 -0.13631189383E+03  0.23749614308E+03  0.28817708546E+03  0.25500000920E-02 0.  1.
</event>
<event>
 5   0  0.3184443E-02  0.6786757E+03  0.7818609E-02  0.9754411E-01
       -2   -1    0    0    0  501  0.00000000000E+00  0.00000000000E+00  0.13777224043E+03  0.13777224045E+03  0.25500000920E-02 0.  1.
        2   -1    0    0  501    0  0.00000000000E+00  0.00000000000E+00 -0.83580093013E+03  0.83580093014E+03  0.25500000920E-02 0. -1.
    10030    2    1    2    0    0  0.00000000000E+00  0.00000000000E+00 -0.69802868970E+03  0.97357317059E+03  0.67867567132E+03 0.  0.
        3    1    3    3  502    0 -0.78377099862E+02  0.71249470654E+02  0.11344998559E+03  0.15521071574E+03  0.10100000352E+00 0.  1.
       -3    1    3    3    0  502  0.78377099862E+02 -0.71249470654E+02 -0.81147867529E+03  0.81836245485E+03  0.10100000352E+00 0. -1.
</event>
<event>
 5   0  0.3183963E-02  0.6946325E+03  0.7818609E-02  0.9726456E-01
        2   -1    0    0  501    0  0.00000000000E+00  0.00000000000E+00  0.10159740217E+04  0.10159740217E+04  0.25500000920E-02 0. -1.
       -2   -1    0    0    0  501  0.00000000000E+00  0.00000000000E+00 -0.11873194870E+03  0.11873194872E+03  0.25500000920E-02 0.  1.
    10030    2    1    2    0    0  0.00000000000E+00  0.00000000000E+00  0.89724207297E+03  0.11347059704E+04  0.69463249401E+03 0.  0.
        4    1    3    3  502    0 -0.16964877045E+03  0.80160395374E+02  0.92605078120E+03  0.94486933306E+03  0.12699999809E+01 0. -1.
       -4    1    3    3    0  502  0.16964877045E+03 -0.80160395374E+02 -0.28808708229E+02  0.18983663733E+03  0.12699999809E+01 0.  1.
</event>
<event>
 5   0  0.3183963E-02  0.7059615E+03  0.7818609E-02  0.9707091E-01
       -2   -1    0    0    0  501  0.00000000000E+00  0.00000000000E+00  0.13751957254E+03  0.13751957256E+03  0.25500000920E-02 0. -1.
        2   -1    0    0  501    0  0.00000000000E+00  0.00000000000E+00 -0.90601943968E+03  0.90601943969E+03  0.25500000920E-02 0.  1.
    10030    2    1    2    0    0  0.00000000000E+00  0.00000000000E+00 -0.76849986715E+03  0.10435390122E+04  0.70596148923E+03 0.  0.
        4    1    3    3  502    0  0.91906793424E+02  0.21063506893E+03  0.11780724780E+02  0.23011820727E+03  0.12699999809E+01 0. -1.
       -4    1    3    3    0  502 -0.91906793424E+02 -0.21063506893E+03 -0.78028059193E+03  0.81342080498E+03  0.12699999809E+01 0.  1.
</event>
<event>
 5   0  0.1884172E-02  0.6938260E+03  0.7818609E-02  0.9727849E-01
       -1   -1    0    0    0  501  0.00000000000E+00  0.00000000000E+00  0.46798309848E+03  0.46798309851E+03  0.50400001928E-02 0. -1.
        1   -1    0    0  501    0  0.00000000000E+00  0.00000000000E+00 -0.25716448896E+03  0.25716448901E+03  0.50400001928E-02 0.  1.
    10030    2    1    2    0    0  0.00000000000E+00  0.00000000000E+00  0.21081860952E+03  0.72514758752E+03  0.69382601390E+03 0.  0.
        3    1    3    3  502    0  0.13508611515E+03  0.10215931109E+03 -0.21101865634E+03  0.27058024110E+03  0.10100000352E+00 0.  1.
       -3    1    3    3    0  502 -0.13508611515E+03 -0.10215931109E+03  0.42183726587E+03  0.45456734641E+03  0.10100000352E+00 0. -1.
</event>
<event>
 5   0  0.1969818E-02  0.6978699E+03  0.7818609E-02  0.9720882E-01
        1   -1    0    0  501    0  0.00000000000E+00  0.00000000000E+00  0.54780360509E+03  0.54780360511E+03  0.50400001928E-02 0.  1.
       -1   -1    0    0    0  501  0.00000000000E+00  0.00000000000E+00 -0.22226139722E+03  0.22226139728E+03  0.50400001928E-02 0. -1.
    10030    2    1    2    0    0  0.00000000000E+00  0.00000000000E+00  0.32554220787E+03  0.77006500239E+03  0.69786988672E+03 0.  0.
        1    1    3    3  502    0 -0.26814139194E+02  0.33595014673E+02 -0.21932882383E+03  0.22350113212E+03  0.50400001928E-02 0. -1.
       -1    1    3    3    0  502  0.26814139194E+02 -0.33595014673E+02  0.54487103170E+03  0.54656387026E+03  0.50400001928E-02 0.  1.
</event>
<event>
 5   0  0.1858013E-02  0.7052912E+03  0.7818609E-02  0.9708226E-01
        1   -1    0    0  501    0  0.00000000000E+00  0.00000000000E+00  0.13552304920E+04  0.13552304920E+04  0.50400001928E-02 0.  1.
       -1   -1    0    0    0  501  0.00000000000E+00  0.00000000000E+00 -0.91762180964E+02  0.91762181103E+02  0.50400001928E-02 0. -1.
    10030    2    1    2    0    0  0.00000000000E+00  0.00000000000E+00  0.12634683111E+04  0.14469926731E+04  0.70529116190E+03 0.  0.
        2    1    3    3  502    0  0.14101053660E+03 -0.10399180407E+03  0.38544460698E+01  0.17525160058E+03  0.25500000920E-02 0. -1.
       -2    1    3    3    0  502 -0.14101053660E+03  0.10399180407E+03  0.12596138650E+04  0.12717410726E+04  0.25500000920E-02 0.  1.
</event>
<event>
 5   0  0.3290656E-02  0.6986390E+03  0.7818609E-02  0.9719562E-01
        2   -1    0    0  501    0  0.00000000000E+00  0.00000000000E+00  0.11955693765E+04  0.11955693765E+04  0.25500000920E-02 0. -1.
       -2   -1    0    0    0  501  0.00000000000E+00  0.00000000000E+00 -0.10206360782E+03  0.10206360785E+03  0.25500000920E-02 0.  1.
    10030    2    1    2    0    0  0.00000000000E+00  0.00000000000E+00  0.10935057687E+04  0.12976329843E+04  0.69863903120E+03 0.  0.
        1    1    3    3  502    0 -0.75081121915E+02 -0.29733117985E+03  0.23605981372E+03  0.38699772746E+03  0.50400001928E-02 0.  1.
       -1    1    3    3    0  502  0.75081121915E+02  0.29733117985E+03  0.85744595494E+03  0.91063525686E+03  0.50400001928E-02 0. -1.
</event>
<event>
 5   0  0.3183963E-02  0.7285024E+03  0.7818609E-02  0.9669694E-01
        2   -1    0    0  501    0  0.00000000000E+00  0.00000000000E+00  0.19855250252E+03  0.19855250254E+03  0.25500000920E-02 0.  1.
       -2   -1    0    0    0  501  0.00000000000E+00  0.00000000000E+00 -0.66823095240E+03  0.66823095241E+03  0.25500000920E-02 0. -1.
    10030    2    1    2    0    0  0.00000000000E+00  0.00000000000E+00 -0.46967844988E+03  0.86678345495E+03  0.72850237576E+03 0.  0.
        4    1    3    3  502    0  0.10815956688E+03  0.34034503639E+03 -0.32017545774E+03  0.47963233037E+03  0.12699999809E+01 0. -1.
       -4    1    3    3    0  502 -0.10815956688E+03 -0.34034503639E+03 -0.14950299214E+03  0.38715112458E+03  0.12699999809E+01 0.  1.
</event>
<event>
 5   0  0.1839038E-02  0.7036036E+03  0.7818609E-02  0.9711089E-01
       -1   -1    0    0    0  501  0.00000000000E+00  0.00000000000E+00  0.16814561798E+03  0.16814561806E+03  0.50400001928E-02 0.  1.
        1   -1    0    0  501    0  0.00000000000E+00  0.00000000000E+00 -0.73605555932E+03  0.73605555934E+03  0.50400001928E-02 0. -1.
    10030    2    1    2    0    0  0.00000000000E+00  0.00000000000E+00 -0.56790994134E+03  0.90420117740E+03  0.70360362971E+03 0.  0.
        5    1    3    3  502    0  0.11717299958E+03 -0.18022209318E+03  0.73877745885E+02  0.22735330663E+03  0.46999998093E+01 0.  1.
       -5    1    3    3    0  502 -0.11717299958E+03  0.18022209318E+03 -0.64178768722E+03  0.67684787077E+03  0.46999998093E+01 0. -1.
</event>
<event>
 5   0  0.3290656E-02  0.6936346E+03  0.7818609E-02  0.9728180E-01
        2   -1    0    0  501    0  0.00000000000E+00  0.00000000000E+00  0.18841016412E+03  0.18841016414E+03  0.25500000920E-02 0. -1.
       -2   -1    0    0    0  501  0.00000000000E+00  0.00000000000E+00 -0.63840630239E+03  0.63840630239E+03  0.25500000920E-02 0.  1.
    10030    2    1    2    0    0  0.00000000000E+00  0.00000000000E+00 -0.44999613827E+03  0.82681646653E+03  0.69363459031E+03 0.  0.
        1    1    3    3  502    0 -0.18985286195E+03 -0.14234978209E+03  0.76498510925E+02  0.24931825415E+03  0.50400001928E-02 0. -1.
       -1    1    3    3    0  502  0.18985286195E+03  0.14234978209E+03 -0.52649464919E+03  0.57749821238E+03  0.50400001928E-02 0.  1.
</event>
<event>
 5   0  0.1884172E-02  0.7028318E+03  0.7818609E-02  0.9712402E-01
        1   -1    0    0  501    0  0.00000000000E+00  0.00000000000E+00  0.84167981305E+03  0.84167981307E+03  0.50400001928E-02 0. -1.
       -1   -1    0    0    0  501  0.00000000000E+00  0.00000000000E+00 -0.14672222647E+03  0.14672222656E+03  0.50400001928E-02 0.  1.
    10030    2    1    2    0    0  0.00000000000E+00  0.00000000000E+00  0.69495758658E+03  0.98840203963E+03  0.70283180406E+03 0.  0.
        3    1    3    3  502    0 -0.68348233931E+01 -0.34729447515E+02 -0.14420895785E+03  0.14848933653E+03  0.10100000352E+00 0.  1.
       -3    1    3    3    0  502  0.68348233931E+01  0.34729447515E+02  0.83916654443E+03  0.83991270310E+03  0.10100000352E+00 0. -1.
</event>
<event>
 5   0  0.1839038E-02  0.6910452E+03  0.7818609E-02  0.9732670E-01
        1   -1    0    0  501    0  0.00000000000E+00  0.00000000000E+00  0.99391225128E+03  0.99391225129E+03  0.50400001928E-02 0. -1.
       -1   -1    0    0    0  501  0.00000000000E+00  0.00000000000E+00 -0.12011712378E+03  0.12011712388E+03  0.50400001928E-02 0.  1.
    10030    2    1    2    0    0  0.00000000000E+00  0.00000000000E+00  0.87379512750E+03  0.11140293752E+04  0.69104524013E+03 0.  0.
        5    1    3    3  502    0 -0.29502895377E+03  0.33924404636E+02  0.15227820824E+03  0.33377191538E+03  0.46999998093E+01 0.  1.
       -5    1    3    3    0  502  0.29502895377E+03 -0.33924404636E+02  0.72151691926E+03  0.78025745980E+03  0.46999998093E+01 0. -1.
</event>
<event>
 5   0  0.1839038E-02  0.6037381E+03  0.7818609E-02  0.9897681E-01
       -1   -1    0    0    0  501  0.00000000000E+00  0.00000000000E+00  0.20530153415E+03  0.20530153421E+03  0.50400001928E-02 0. -1.
        1   -1    0    0  501    0  0.00000000000E+00  0.00000000000E+00 -0.44385899880E+03  0.44385899883E+03  0.50400001928E-02 0.  1.
    10030    2    1    2    0    0  0.00000000000E+00  0.00000000000E+00 -0.23855746465E+03  0.64916053303E+03  0.60373813339E+03 0.  0.
        5    1    3    3  502    0 -0.98288266230E+02  0.18440442873E+03  0.11490856237E+03  0.23851969378E+03  0.46999998093E+01 0. -1.
       -5    1    3    3    0  502  0.98288266230E+02 -0.18440442873E+03 -0.35346602702E+03  0.41064083926E+03  0.46999998093E+01 0.  1.
</event>
<event>
 5   0  0.1233912E-02  0.6978115E+03  0.7818609E-02  0.9720982E-01
        4   -1    0    0  501    0  0.00000000000E+00  0.00000000000E+00  0.16435059610E+03  0.16435550291E+03  0.12699999809E+01 0. -1.
       -4   -1    0    0    0  501  0.00000000000E+00  0.00000000000E+00 -0.74068796210E+03  0.74068905088E+03  0.12699999809E+01 0.  1.
    10030    2    1    2    0    0  0.00000000000E+00  0.00000000000E+00 -0.57633736600E+03  0.90504455379E+03  0.69781149668E+03 0.  0.
        4    1    3    3  502    0 -0.75920517402E+02  0.33885705295E+03 -0.33206668417E+03  0.48047676628E+03  0.12699999809E+01 0.  1.
       -4    1    3    3    0  502  0.75920517402E+02 -0.33885705295E+03 -0.24427068183E+03  0.42456778752E+03  0.12699999809E+01 0. -1.
</event>
<event>
 5   0  0.3113940E-02  0.7015253E+03  0.7818609E-02  0.9714627E-01
        2   -1    0    0  501    0  0.00000000000E+00  0.00000000000E+00  0.60379980185E+03  0.60379980185E+03  0.25500000920E-02 0.  1.
       -2   -1    0    0    0  501  0.00000000000E+00  0.00000000000E+00 -0.20376695415E+03  0.20376695416E+03  0.25500000920E-02 0. -1.
    10030    2    1    2    0    0  0.00000000000E+00  0.00000000000E+00  0.40003284770E+03  0.80756675602E+03  0.70152532825E+03 0.  0.
        5    1    3    3  502    0 -0.74587619489E+02 -0.52541681180E+02 -0.18983116540E+03  0.21067012745E+03  0.46999998093E+01 0. -1.
       -5    1    3    3    0  502  0.74587619489E+02  0.52541681180E+02  0.58986401310E+03  0.59689662857E+03  0.46999998093E+01 0.  1.
</event>
<event>
 5   0  0.2933851E-02  0.7005770E+03  0.7818609E-02  0.9716246E-01
        2   -1    0    0  501    0  0.00000000000E+00  0.00000000000E+00  0.45532825345E+03  0.45532825345E+03  0.25500000920E-02 0. -1.
       -2   -1    0    0    0  501  0.00000000000E+00  0.00000000000E+00 -0.26948042063E+03  0.26948042065E+03  0.25500000920E-02 0.  1.
    10030    2    1    2    0    0  0.00000000000E+00  0.00000000000E+00  0.18584783281E+03  0.72480867410E+03  0.70057704579E+03 0.  0.
        2    1    3    3  502    0 -0.16441746766E+03 -0.30491884755E+02  0.41136736123E+03  0.44405626287E+03  0.25500000920E-02 0. -1.
       -2    1    3    3    0  502  0.16441746766E+03  0.30491884755E+02 -0.22551952841E+03  0.28075241123E+03  0.25500000920E-02 0.  1.
</event>
<event>
 5   0  0.1969818E-02  0.7236726E+03  0.7818609E-02  0.9677584E-01
       -1   -1    0    0    0  501  0.00000000000E+00  0.00000000000E+00  0.89688164260E+03  0.89688164261E+03  0.50400001928E-02 0. -1.
        1   -1    0    0  501    0  0.00000000000E+00  0.00000000000E+00 -0.14597856205E+03  0.14597856213E+03  0.50400001928E-02 0.  1.
    10030    2    1    2    0    0  0.00000000000E+00  0.00000000000E+00  0.75090308055E+03  0.10428602047E+04  0.72367255735E+03 0.  0.
        1    1    3    3  502    0  0.26955393049E+03  0.11001382713E+03  0.68507339662E+03  0.74437082317E+03  0.50400001928E-02 0. -1.
       -1    1    3    3    0  502 -0.26955393049E+03 -0.11001382713E+03  0.65829683926E+02  0.29848938157E+03  0.50400001928E-02 0.  1.
</event>
<event>
 5   0  0.3113940E-02  0.7093991E+03  0.7818609E-02  0.9701292E-01
       -2   -1    0    0    0  501  0.00000000000E+00  0.00000000000E+00  0.12064499680E+03  0.12064499683E+03  0.25500000920E-02 0. -1.
        2   -1    0    0  501    0  0.00000000000E+00  0.00000000000E+00 -0.10428263242E+04  0.10428263242E+04  0.25500000920E-02 0.  1.
    10030    2    1    2    0    0  0.00000000000E+00  0.00000000000E+00 -0.92218132742E+03  0.11634713210E+04  0.70939912197E+03 0.  0.
        5    1    3    3  502    0  0.21463220008E+03 -0.17529523961E+03 -0.82411668303E+03  0.86947443872E+03  0.46999998093E+01 0.  1.
       -5    1    3    3    0  502 -0.21463220008E+03  0.17529523961E+03 -0.98064644393E+02  0.29399688233E+03  0.46999998093E+01 0. -1.
</event>
<event>
 5   0  0.1839038E-02  0.6802618E+03  0.7818609E-02  0.9751595E-01
       -1   -1    0    0    0  501  0.00000000000E+00  0.00000000000E+00  0.12983702395E+03  0.12983702405E+03  0.50400001928E-02 0.  1.
        1   -1    0    0  501    0  0.00000000000E+00  0.00000000000E+00 -0.89103269970E+03  0.89103269971E+03  0.50400001928E-02 0. -1.
    10030    2    1    2    0    0  0.00000000000E+00  0.00000000000E+00 -0.76119567574E+03  0.10208697238E+04  0.68026181440E+03 0.  0.
        5    1    3    3  502    0  0.14511064249E+03 -0.12590567039E+03  0.40555734235E+02  0.19640823297E+03  0.46999998093E+01 0.  1.
       -5    1    3    3    0  502 -0.14511064249E+03  0.12590567039E+03 -0.80175140998E+03  0.82446149079E+03  0.46999998093E+01 0. -1.
</event>
<event>
 5   0  0.3184443E-02  0.6945261E+03  0.7818609E-02  0.9726639E-01
        2   -1    0    0  501    0  0.00000000000E+00  0.00000000000E+00  0.99958770903E+03  0.99958770903E+03  0.25500000920E-02 0.  1.
       -2   -1    0    0    0  501  0.00000000000E+00  0.00000000000E+00 -0.12064137043E+03  0.12064137045E+03  0.25500000920E-02 0. -1.
    10030    2    1    2    0    0  0.00000000000E+00  0.00000000000E+00  0.87894633860E+03  0.11202290795E+04  0.69452611498E+03 0.  0.
        3    1    3    3  502    0 -0.54094227866E+01 -0.30956683730E+03  0.69312426920E+03  0.75913249921E+03  0.10100000352E+00 0. -1.
       -3    1    3    3    0  502  0.54094227866E+01  0.30956683730E+03  0.18582206941E+03  0.36109658028E+03  0.10100000352E+00 0.  1.
</event>
<event>
 5   0  0.3113940E-02  0.6948194E+03  0.7818609E-02  0.9726133E-01
        2   -1    0    0  501    0  0.00000000000E+00  0.00000000000E+00  0.30544263630E+03  0.30544263631E+03  0.25500000920E-02 0.  1.
       -2   -1    0    0    0  501  0.00000000000E+00  0.00000000000E+00 -0.39514293414E+03  0.39514293415E+03  0.25500000920E-02 0. -1.
    10030    2    1    2    0    0  0.00000000000E+00  0.00000000000E+00 -0.89700297842E+02  0.70058557046E+03  0.69481939963E+03 0.  0.
        5    1    3    3  502    0 -0.21243533519E+03  0.17225140055E+03  0.17110498356E+03  0.32264271575E+03  0.46999998093E+01 0.  1.
       -5    1    3    3    0  502  0.21243533519E+03 -0.17225140055E+03 -0.26080528140E+03  0.37794285472E+03  0.46999998093E+01 0. -1.
</event>
<event>
 5   0  0.1951465E-02  0.6997434E+03  0.7818609E-02  0.9717671E-01
        1   -1    0    0  501    0  0.00000000000E+00  0.00000000000E+00  0.50390976820E+03  0.50390976823E+03  0.50400001928E-02 0.  1.
       -1   -1    0    0    0  501  0.00000000000E+00  0.00000000000E+00 -0.24292088893E+03  0.24292088898E+03  0.50400001928E-02 0. -1.
    10030    2    1    2    0    0  0.00000000000E+00  0.00000000000E+00  0.26098887927E+03  0.74683065721E+03  0.69974340686E+03 0.  0.
        4    1    3    3  502    0 -0.10487346998E+03  0.86404423190E+02  0.47459384867E+03  0.49366497055E+03  0.12699999809E+01 0.  1.
       -4    1    3    3    0  502  0.10487346998E+03 -0.86404423190E+02 -0.21360496939E+03  0.25316568666E+03  0.12699999809E+01 0. -1.
</event>
<event>
 5   0  0.3184443E-02  0.7057752E+03  0.7818609E-02  0.9707406E-01
        2   -1    0    0  501    0  0.00000000000E+00  0.00000000000E+00  0.80303700676E+03  0.80303700676E+03  0.25500000920E-02 0.  1.
       -2   -1    0    0    0  501  0.00000000000E+00  0.00000000000E+00 -0.15507338504E+03  0.15507338506E+03  0.25500000920E-02 0. -1.
    10030    2    1    2    0    0  0.00000000000E+00  0.00000000000E+00  0.64796362172E+03  0.95811039183E+03  0.70577522474E+03 0.  0.
        3    1    3    3  502    0 -0.28357474633E+03 -0.20267922560E+03  0.39878340650E+03  0.52964301255E+03  0.10100000352E+00 0.  1.
       -3    1    3    3    0  502  0.28357474633E+03  0.20267922560E+03  0.24918021522E+03  0.42846737928E+03  0.10100000352E+00 0. -1.
</event>
<event>
 5   0  0.2933851E-02  0.6963105E+03  0.7818609E-02  0.9723563E-01
       -2   -1    0    0    0  501  0.00000000000E+00  0.00000000000E+00  0.22213138295E+03  0.22213138297E+03  0.25500000920E-02 0. -1.
        2   -1    0    0  501    0  0.00000000000E+00  0.00000000000E+00 -0.54567736751E+03  0.54567736752E+03  0.25500000920E-02 0.  1.
    10030    2    1    2    0    0  0.00000000000E+00  0.00000000000E+00 -0.32354598456E+03  0.76780875049E+03  0.69631047185E+03 0.  0.
        2    1    3    3  502    0 -0.30490167632E+03 -0.27758237741E+02 -0.34455395692E+03  0.46092622102E+03  0.25500000920E-02 0.  1.
       -2    1    3    3    0  502  0.30490167632E+03  0.27758237741E+02  0.21007972357E+02  0.30688252947E+03  0.25500000920E-02 0. -1.
</event>
<event>
 5   0  0.3183963E-02  0.6863153E+03  0.7818609E-02  0.9740925E-01
       -2   -1    0    0    0  501  0.00000000000E+00  0.00000000000E+00  0.80642915109E+02  0.80642915150E+02  0.25500000920E-02 0.  1.
        2   -1    0    0  501    0  0.00000000000E+00  0.00000000000E+00 -0.14602294412E+04  0.14602294412E+04  0.25500000920E-02 0. -1.
    10030    2    1    2    0    0  0.00000000000E+00  0.00000000000E+00 -0.13795865261E+04  0.15408723564E+04  0.68631525963E+03 0.  0.
        4    1    3    3  502    0  0.17215807560E+03 -0.15269319666E+03 -0.12613205648E+04  0.12821407081E+04  0.12699999809E+01 0. -1.
       -4    1    3    3    0  502 -0.17215807560E+03  0.15269319666E+03 -0.11826596128E+03  0.25873164823E+03  0.12699999809E+01 0.  1.
</event>
<event>
 5   0  0.3113940E-02  0.6616608E+03  0.7818609E-02  0.9785141E-01
       -2   -1    0    0    0  501  0.00000000000E+00  0.00000000000E+00  0.50829663538E+02  0.50829663602E+02  0.25500000920E-02 0. -1.
        2   -1    0    0  501    0  0.00000000000E+00  0.00000000000E+00 -0.21532453687E+04  0.21532453687E+04  0.25500000920E-02 0.  1.
    10030    2    1    2    0    0  0.00000000000E+00  0.00000000000E+00 -0.21024157052E+04  0.22040750323E+04  0.66166075198E+03 0.  0.
        5    1    3    3  502    0 -0.10230584725E+03  0.27464336292E+03 -0.54021727118E+03  0.61461553288E+03  0.46999998093E+01 0. -1.
       -5    1    3    3    0  502  0.10230584725E+03 -0.27464336292E+03 -0.15621984340E+04  0.15894594994E+04  0.46999998093E+01 0.  1.
</event>
<event>
 5   0  0.3290656E-02  0.7014022E+03  0.7818609E-02  0.9714837E-01
       -2   -1    0    0    0  501  0.00000000000E+00  0.00000000000E+00  0.73601346720E+03  0.73601346720E+03  0.25500000920E-02 0.  1.
        2   -1    0    0  501    0  0.00000000000E+00  0.00000000000E+00 -0.16710464515E+03  0.16710464517E+03  0.25500000920E-02 0. -1.
    10030    2    1    2    0    0  0.00000000000E+00  0.00000000000E+00  0.56890882205E+03  0.90311811237E+03  0.70140222204E+03 0.  0.
        1    1    3    3  502    0 -0.15412023982E+03 -0.20735701512E+02  0.68919244915E+03  0.70651910776E+03  0.50400001928E-02 0.  1.
       -1    1    3    3    0  502  0.15412023982E+03  0.20735701512E+02 -0.12028362710E+03  0.19659900461E+03  0.50400001928E-02 0. -1.
</event>
<event>
 5   0  0.3290656E-02  0.6940495E+03  0.7818609E-02  0.9727463E-01
        2   -1    0    0  501    0  0.00000000000E+00  0.00000000000E+00  0.70206095500E+03  0.70206095501E+03  0.25500000920E-02 0. -1.
       -2   -1    0    0    0  501  0.00000000000E+00  0.00000000000E+00 -0.17153234374E+03  0.17153234376E+03  0.25500000920E-02 0.  1.
    10030    2    1    2    0    0  0.00000000000E+00  0.00000000000E+00  0.53052861127E+03  0.87359329876E+03  0.69404945377E+03 0.  0.
        1    1    3    3  502    0 -0.12803521505E+03  0.30852281265E+03  0.14687500804E+03  0.36489945222E+03  0.50400001928E-02 0.  1.
       -1    1    3    3    0  502  0.12803521505E+03 -0.30852281265E+03  0.38365360323E+03  0.50869384655E+03  0.50400001928E-02 0. -1.
</event>
<event>
 5   0  0.1969818E-02  0.6969055E+03  0.7818609E-02  0.9722539E-01
        1   -1    0    0  501    0  0.00000000000E+00  0.00000000000E+00  0.68484232675E+03  0.68484232676E+03  0.50400001928E-02 0.  1.
       -1   -1    0    0    0  501  0.00000000000E+00  0.00000000000E+00 -0.17729529603E+03  0.17729529610E+03  0.50400001928E-02 0. -1.
    10030    2    1    2    0    0  0.00000000000E+00  0.00000000000E+00  0.50754703072E+03  0.86213762286E+03  0.69690551179E+03 0.  0.
        1    1    3    3  502    0 -0.21250425415E+03 -0.64759723270E+02  0.58587610019E+03  0.62658015017E+03  0.50400001928E-02 0.  1.
       -1    1    3    3    0  502  0.21250425415E+03  0.64759723270E+02 -0.78329069472E+02  0.23555747269E+03  0.50400001928E-02 0. -1.
</event>
<event>
 5   0  0.1858013E-02  0.6986887E+03  0.7818609E-02  0.9719477E-01
        1   -1    0    0  501    0  0.00000000000E+00  0.00000000000E+00  0.35315399586E+03  0.35315399589E+03  0.50400001928E-02 0.  1.
       -1   -1    0    0    0  501  0.00000000000E+00  0.00000000000E+00 -0.34557575502E+03  0.34557575505E+03  0.50400001928E-02 0. -1.
    10030    2    1    2    0    0  0.00000000000E+00  0.00000000000E+00  0.75782408374E+01  0.69872975095E+03  0.69868865392E+03 0.  0.
        2    1    3    3  502    0 -0.32933524330E+02  0.26969263328E+03 -0.21582052967E+03  0.34698304642E+03  0.25500000920E-02 0. -1.
       -2    1    3    3    0  502  0.32933524330E+02 -0.26969263328E+03  0.22339877051E+03  0.35174670452E+03  0.25500000920E-02 0.  1.
</event>
<event>
 5   0  0.3290656E-02  0.6926764E+03  0.7818609E-02  0.9729839E-01
        2   -1    0    0  501    0  0.00000000000E+00  0.00000000000E+00  0.20163907820E+04  0.20163907820E+04  0.25500000920E-02 0. -1.
       -2   -1    0    0    0  501  0.00000000000E+00  0.00000000000E+00 -0.59487558569E+02  0.59487558623E+02  0.25500000920E-02 0.  1.
    10030    2    1    2    0    0  0.00000000000E+00  0.00000000000E+00  0.19569032234E+04  0.20758783406E+04  0.69267644626E+03 0.  0.
        1    1    3    3  502    0 -0.76091282398E+02 -0.25705893404E+03  0.32131122382E+03  0.41846156502E+03  0.50400001928E-02 0.  1.
       -1    1    3    3    0  502  0.76091282398E+02  0.25705893404E+03  0.16355919996E+04  0.16574167756E+04  0.50400001928E-02 0. -1.
</event>
<event>
 5   0  0.1884172E-02  0.7037602E+03  0.7818609E-02  0.9710823E-01
       -1   -1    0    0    0  501  0.00000000000E+00  0.00000000000E+00  0.89451779756E+02  0.89451779898E+02  0.50400001928E-02 0.  1.
        1   -1    0    0  501    0  0.00000000000E+00  0.00000000000E+00 -0.13842051931E+04  0.13842051931E+04  0.50400001928E-02 0. -1.
    10030    2    1    2    0    0  0.00000000000E+00  0.00000000000E+00 -0.12947534133E+04  0.14736569730E+04  0.70376023809E+03 0.  0.
        3    1    3    3  502    0 -0.27143613876E+03  0.33162233133E+02 -0.11110980426E+04  0.11442535478E+04  0.10100000352E+00 0. -1.
       -3    1    3    3    0  502  0.27143613876E+03 -0.33162233133E+02 -0.18365537069E+03  0.32940342518E+03  0.10100000352E+00 0.  1.
</event>
<event>
 5   0  0.3113940E-02  0.6972636E+03  0.7818609E-02  0.9721923E-01
        2   -1    0    0  501    0  0.00000000000E+00  0.00000000000E+00  0.12446798834E+04  0.12446798834E+04  0.25500000920E-02 0. -1.
       -2   -1    0    0    0  501  0.00000000000E+00  0.00000000000E+00 -0.97650909492E+02  0.97650909526E+02  0.25500000920E-02 0.  1.
    10030    2    1    2    0    0  0.00000000000E+00  0.00000000000E+00  0.11470289739E+04  0.13423307929E+04  0.69726357331E+03 0.  0.
        5    1    3    3  502    0 -0.94071262170E+02 -0.17007506845E+03  0.11306328431E+04  0.11472260662E+04  0.46999998093E+01 0. -1.
       -5    1    3    3    0  502  0.94071262170E+02  0.17007506845E+03  0.16396130865E+02  0.19510472670E+03  0.46999998093E+01 0.  1.
</event>
<event>
 5   0  0.1884172E-02  0.6983921E+03  0.7818609E-02  0.9719986E-01
        1   -1    0    0  501    0  0.00000000000E+00  0.00000000000E+00  0.14978993000E+03  0.14978993009E+03  0.50400001928E-02 0. -1.
       -1   -1    0    0    0  501  0.00000000000E+00  0.00000000000E+00 -0.81405915802E+03  0.81405915803E+03  0.50400001928E-02 0.  1.
    10030    2    1    2    0    0  0.00000000000E+00  0.00000000000E+00 -0.66426922801E+03  0.96384908812E+03  0.69839205135E+03 0.  0.
        3    1    3    3  502    0 -0.75074403874E+02  0.98681558178E+02  0.11838559036E+03  0.17143329387E+03  0.10100000352E+00 0. -1.
       -3    1    3    3    0  502  0.75074403874E+02 -0.98681558178E+02 -0.78265481838E+03  0.79241579425E+03  0.10100000352E+00 0.  1.
</event>
<event>
 5   0  0.2933851E-02  0.7028031E+03  0.7818609E-02  0.9712450E-01
        2   -1    0    0  501    0  0.00000000000E+00  0.00000000000E+00  0.19983124923E+04  0.19983124923E+04  0.25500000920E-02 0.  1.
       -2   -1    0    0    0  501  0.00000000000E+00  0.00000000000E+00 -0.61793665184E+02  0.61793665237E+02  0.25500000920E-02 0. -1.
    10030    2    1    2    0    0  0.00000000000E+00  0.00000000000E+00  0.19365188271E+04  0.20601061576E+04  0.70280311081E+03 0.  0.
        2    1    3    3  502    0  0.19709804689E+03 -0.22506346666E+03  0.15086147292E+04  0.15379920693E+04  0.25500000920E-02 0.  1.
       -2    1    3    3    0  502 -0.19709804689E+03  0.22506346666E+03  0.42790409797E+03  0.52211408828E+03  0.25500000920E-02 0. -1.
</event>
<event>
 5   0  0.1951465E-02  0.6999555E+03  0.7818609E-02  0.9717308E-01
       -1   -1    0    0    0  501  0.00000000000E+00  0.00000000000E+00  0.49254736700E+03  0.49254736703E+03  0.50400001928E-02 0.  1.
        1   -1    0    0  501    0  0.00000000000E+00  0.00000000000E+00 -0.24867539893E+03  0.24867539898E+03  0.50400001928E-02 0. -1.
    10030    2    1    2    0    0  0.00000000000E+00  0.00000000000E+00  0.24387196808E+03  0.74122276601E+03  0.69995546432E+03 0.  0.
        4    1    3    3  502    0  0.19776078070E+03  0.25408165320E+03 -0.23322613376E+02  0.32281940783E+03  0.12699999809E+01 0. -1.
       -4    1    3    3    0  502 -0.19776078070E+03 -0.25408165320E+03  0.26719458145E+03  0.41840335818E+03  0.12699999809E+01 0.  1.
</event>
<event>
 5   0  0.1839038E-02  0.6891251E+03  0.7818609E-02  0.9736013E-01
        1   -1    0    0  501    0  0.00000000000E+00  0.00000000000E+00  0.44676492516E+03  0.44676492519E+03  0.50400001928E-02 0. -1.
       -1   -1    0    0    0  501  0.00000000000E+00  0.00000000000E+00 -0.26574010944E+03  0.26574010949E+03  0.50400001928E-02 0.  1.
    10030    2    1    2    0    0  0.00000000000E+00  0.00000000000E+00  0.18102481572E+03  0.71250503468E+03  0.68912512691E+03 0.  0.
        5    1    3    3  502    0 -0.95106056447E+02  0.19773309571E+03  0.36515137380E+03  0.42602952351E+03  0.46999998093E+01 0. -1.
       -5    1    3    3    0  502  0.95106056447E+02 -0.19773309571E+03 -0.18412655808E+03  0.28647551117E+03  0.46999998093E+01 0.  1.
</event>
<event>
 5   0  0.1969818E-02  0.6952876E+03  0.7818609E-02  0.9725325E-01
       -1   -1    0    0    0  501  0.00000000000E+00  0.00000000000E+00  0.26087409900E+03  0.26087409905E+03  0.50400001928E-02 0. -1.
        1   -1    0    0  501    0  0.00000000000E+00  0.00000000000E+00 -0.46327402682E+03  0.46327402684E+03  0.50400001928E-02 0.  1.
    10030    2    1    2    0    0  0.00000000000E+00  0.00000000000E+00 -0.20239992781E+03  0.72414812590E+03  0.69528755020E+03 0.  0.
        1    1    3    3  502    0 -0.25970264353E+03  0.10130832706E+03 -0.31754156663E+03  0.42254169824E+03  0.50400001928E-02 0.  1.
       -1    1    3    3    0  502  0.25970264353E+03 -0.10130832706E+03  0.11514163882E+03  0.30160642766E+03  0.50400001928E-02 0. -1.
</event>
<event>
 5   0  0.1858013E-02  0.7034833E+03  0.7818609E-02  0.9711294E-01
        1   -1    0    0  501    0  0.00000000000E+00  0.00000000000E+00  0.12144669015E+04  0.12144669015E+04  0.50400001928E-02 0.  1.
       -1   -1    0    0    0  501  0.00000000000E+00  0.00000000000E+00 -0.10187364995E+03  0.10187365007E+03  0.50400001928E-02 0. -1.
    10030    2    1    2    0    0  0.00000000000E+00  0.00000000000E+00  0.11125932516E+04  0.13163405516E+04  0.70348326515E+03 0.  0.
        2    1    3    3  502    0 -0.11901160863E+02  0.23332753853E+03  0.64284956804E+02  0.24231370894E+03  0.25500000920E-02 0. -1.
       -2    1    3    3    0  502  0.11901160863E+02 -0.23332753853E+03  0.10483082948E+04  0.10740268427E+04  0.25500000920E-02 0.  1.
</event>
<event>
 5   0  0.3184443E-02  0.7076533E+03  0.7818609E-02  0.9704233E-01
       -2   -1    0    0    0  501  0.00000000000E+00  0.00000000000E+00  0.37926731349E+03  0.37926731350E+03  0.25500000920E-02 0.  1.
        2   -1    0    0  501    0  0.00000000000E+00  0.00000000000E+00 -0.33009254041E+03  0.33009254042E+03  0.25500000920E-02 0. -1.
    10030    2    1    2    0    0  0.00000000000E+00  0.00000000000E+00  0.49174773075E+02  0.70935985392E+03  0.70765333606E+03 0.  0.
        3    1    3    3  502    0 -0.20137018179E+03 -0.26513136824E+03 -0.95487573434E+02  0.34635600099E+03  0.10100000352E+00 0. -1.
       -3    1    3    3    0  502  0.20137018179E+03  0.26513136824E+03  0.14466234651E+03  0.36300385293E+03  0.10100000352E+00 0.  1.
</event>
<event>
 5   0  0.3290656E-02  0.6938663E+03  0.7818609E-02  0.9727780E-01
        2   -1    0    0  501    0  0.00000000000E+00  0.00000000000E+00  0.15602230232E+04  0.15602230232E+04  0.25500000920E-02 0. -1.
       -2   -1    0    0    0  501  0.00000000000E+00  0.00000000000E+00 -0.77144480868E+02  0.77144480910E+02  0.25500000920E-02 0.  1.
    10030    2    1    2    0    0  0.00000000000E+00  0.00000000000E+00  0.14830785423E+04  0.16373675041E+04  0.69386625569E+03 0.  0.
        1    1    3    3  502    0  0.15811794903E+02 -0.76193123463E+02  0.15393634143E+04  0.15413290130E+04  0.50400001928E-02 0. -1.
       -1    1    3    3    0  502 -0.15811794903E+02  0.76193123463E+02 -0.56284872038E+02  0.96038491069E+02  0.50400001928E-02 0.  1.
</event>
<event>
 5   0  0.1858013E-02  0.7066608E+03  0.7818609E-02  0.9705909E-01
       -1   -1    0    0    0  501  0.00000000000E+00  0.00000000000E+00  0.52130713120E+03  0.52130713123E+03  0.50400001928E-02 0. -1.
        1   -1    0    0  501    0  0.00000000000E+00  0.00000000000E+00 -0.23947953318E+03  0.23947953323E+03  0.50400001928E-02 0.  1.
    10030    2    1    2    0    0  0.00000000000E+00  0.00000000000E+00  0.28182759802E+03  0.76078666446E+03  0.70666084780E+03 0.  0.
        2    1    3    3  502    0  0.15079720642E+03 -0.17093767778E+03  0.43156002468E+03  0.48806100240E+03  0.25500000920E-02 0. -1.
       -2    1    3    3    0  502 -0.15079720642E+03  0.17093767778E+03 -0.14973242666E+03  0.27272566207E+03  0.25500000920E-02 0.  1.
</event>
<event>
 5   0  0.1951465E-02  0.6993776E+03  0.7818609E-02  0.9718297E-01
       -1   -1    0    0    0  501  0.00000000000E+00  0.00000000000E+00  0.12490141199E+03  0.12490141209E+03  0.50400001928E-02 0.  1.
        1   -1    0    0  501    0  0.00000000000E+00  0.00000000000E+00 -0.97903031164E+03  0.97903031165E+03  0.50400001928E-02 0. -1.
    10030    2    1    2    0    0  0.00000000000E+00  0.00000000000E+00 -0.85412889965E+03  0.11039317237E+04  0.69937763296E+03 0.  0.
        4    1    3    3  502    0  0.13881708467E+03  0.15841999518E+03  0.13527997606E+02  0.21107273033E+03  0.12699999809E+01 0.  1.
       -4    1    3    3    0  502 -0.13881708467E+03 -0.15841999518E+03 -0.86765689725E+03  0.89285899341E+03  0.12699999809E+01 0. -1.
</event>
<event>
 5   0  0.1884172E-02  0.8042933E+03  0.7818609E-02  0.9553824E-01
       -1   -1    0    0    0  501  0.00000000000E+00  0.00000000000E+00  0.87994897959E+02  0.87994898103E+02  0.50400001928E-02 0.  1.
        1   -1    0    0  501    0  0.00000000000E+00  0.00000000000E+00 -0.18378555507E+04  0.18378555507E+04  0.50400001928E-02 0. -1.
    10030    2    1    2    0    0  0.00000000000E+00  0.00000000000E+00 -0.17498606527E+04  0.19258504488E+04  0.80429325942E+03 0.  0.
        3    1    3    3  502    0 -0.15961762325E+03 -0.76548225261E+02 -0.17395419869E+04  0.17485261653E+04  0.10100000352E+00 0. -1.
       -3    1    3    3    0  502  0.15961762325E+03  0.76548225261E+02 -0.10318665830E+02  0.17732428347E+03  0.10100000352E+00 0.  1.
</event>
<event>
 5   0  0.1951465E-02  0.6974135E+03  0.7818609E-02  0.9721666E-01
       -1   -1    0    0    0  501  0.00000000000E+00  0.00000000000E+00  0.27506739049E+03  0.27506739054E+03  0.50400001928E-02 0. -1.
        1   -1    0    0  501    0  0.00000000000E+00  0.00000000000E+00 -0.44206035805E+03  0.44206035808E+03  0.50400001928E-02 0.  1.
    10030    2    1    2    0    0  0.00000000000E+00  0.00000000000E+00 -0.16699296756E+03  0.71712774861E+03  0.69741347608E+03 0.  0.
        4    1    3    3  502    0 -0.15231489063E+03  0.18535185588E+03  0.17671750080E+03  0.29796950243E+03  0.12699999809E+01 0. -1.
       -4    1    3    3    0  502  0.15231489063E+03 -0.18535185588E+03 -0.34371046836E+03  0.41915824619E+03  0.12699999809E+01 0.  1.
</event>
<event>
 5   0  0.2933851E-02  0.7017952E+03  0.7818609E-02  0.9714167E-01
        2   -1    0    0  501    0  0.00000000000E+00  0.00000000000E+00  0.12355746140E+04  0.12355746140E+04  0.25500000920E-02 0. -1.
       -2   -1    0    0    0  501  0.00000000000E+00  0.00000000000E+00 -0.99653343856E+02  0.99653343889E+02  0.25500000920E-02 0.  1.
    10030    2    1    2    0    0  0.00000000000E+00  0.00000000000E+00  0.11359212701E+04  0.13352279578E+04  0.70179524617E+03 0.  0.
        2    1    3    3  502    0 -0.82594534298E+02  0.12757402201E+03  0.11697088420E+04  0.11795404882E+04  0.25500000920E-02 0. -1.
       -2    1    3    3    0  502  0.82594534298E+02 -0.12757402201E+03 -0.33787571913E+02  0.15568746966E+03  0.25500000920E-02 0.  1.
</event>
<event>
 5   0  0.3290656E-02  0.7059105E+03  0.7818609E-02  0.9707177E-01
       -2   -1    0    0    0  501  0.00000000000E+00  0.00000000000E+00  0.15174443018E+03  0.15174443020E+03  0.25500000920E-02 0. -1.
        2   -1    0    0  501    0  0.00000000000E+00  0.00000000000E+00 -0.82096861454E+03  0.82096861455E+03  0.25500000920E-02 0.  1.
    10030    2    1    2    0    0  0.00000000000E+00  0.00000000000E+00 -0.66922418437E+03  0.97271304474E+03  0.70591051733E+03 0.  0.
        1    1    3    3  502    0  0.25255766532E+03  0.55445779823E+02 -0.66565934927E+03  0.71411622171E+03  0.50400001928E-02 0.  1.
       -1    1    3    3    0  502 -0.25255766532E+03 -0.55445779823E+02 -0.35648350988E+01  0.25859682304E+03  0.50400001928E-02 0. -1.
</event>
<event>
 5   0  0.1233912E-02  0.6987752E+03  0.7818609E-02  0.9719329E-01
        3   -1    0    0  501    0  0.00000000000E+00  0.00000000000E+00  0.14602306832E+03  0.14602310324E+03  0.10100000352E+00 0. -1.
       -3   -1    0    0    0  501  0.00000000000E+00  0.00000000000E+00 -0.83597532427E+03  0.83597533037E+03  0.10100000352E+00 0.  1.
    10030    2    1    2    0    0  0.00000000000E+00  0.00000000000E+00 -0.68995225595E+03  0.98199843362E+03  0.69877522003E+03 0.  0.
        1    1    3    3  502    0 -0.17089107868E+03  0.76891617181E+01 -0.77309849733E+03  0.79179806174E+03  0.50400001928E-02 0.  1.
       -1    1    3    3    0  502  0.17089107868E+03 -0.76891617181E+01  0.83146241375E+02  0.19020037187E+03  0.50400001928E-02 0. -1.
</event>
<event>
 5   0  0.1969818E-02  0.7024556E+03  0.7818609E-02  0.9713042E-01
       -1   -1    0    0    0  501  0.00000000000E+00  0.00000000000E+00  0.25070012001E+03  0.25070012006E+03  0.50400001928E-02 0. -1.
        1   -1    0    0  501    0  0.00000000000E+00  0.00000000000E+00 -0.49206579956E+03  0.49206579959E+03  0.50400001928E-02 0.  1.
    10030    2    1    2    0    0  0.00000000000E+00  0.00000000000E+00 -0.24136567955E+03  0.74276591965E+03  0.70245556452E+03 0.  0.
        1    1    3    3  502    0  0.31077641432E+03  0.11195235313E+03 -0.24688714921E+03  0.41239371180E+03  0.50400001928E-02 0.  1.
       -1    1    3    3    0  502 -0.31077641432E+03 -0.11195235313E+03  0.55214696522E+01  0.33037220785E+03  0.50400001928E-02 0. -1.
</event>
<event>
 5   0  0.2933851E-02  0.7001486E+03  0.7818609E-02  0.9716978E-01
       -2   -1    0    0    0  501  0.00000000000E+00  0.00000000000E+00  0.16790731294E+03  0.16790731296E+03  0.25500000920E-02 0.  1.
        2   -1    0    0  501    0  0.00000000000E+00  0.00000000000E+00 -0.72987904552E+03  0.72987904552E+03  0.25500000920E-02 0. -1.
    10030    2    1    2    0    0  0.00000000000E+00  0.00000000000E+00 -0.56197173258E+03  0.89778635848E+03  0.70014863941E+03 0.  0.
        2    1    3    3  502    0 -0.20742451964E+03  0.11479120615E+03 -0.61128198354E+03  0.65564290263E+03  0.25500000920E-02 0. -1.
       -2    1    3    3    0  502  0.20742451964E+03 -0.11479120615E+03  0.49310250970E+02  0.24214345585E+03  0.25500000920E-02 0.  1.
</event>
<event>
 5   0  0.1884172E-02  0.6948173E+03  0.7818609E-02  0.9726136E-01
        1   -1    0    0  501    0  0.00000000000E+00  0.00000000000E+00  0.13929407095E+03  0.13929407104E+03  0.50400001928E-02 0. -1.
       -1   -1    0    0    0  501  0.00000000000E+00  0.00000000000E+00 -0.86646031556E+03  0.86646031558E+03  0.50400001928E-02 0.  1.
    10030    2    1    2    0    0  0.00000000000E+00  0.00000000000E+00 -0.72716624461E+03  0.10057543866E+04  0.69481734212E+03 0.  0.
        3    1    3    3  502    0 -0.16391768767E+03  0.98826908579E+02 -0.78325343682E+03  0.80630126050E+03  0.10100000352E+00 0.  1.
       -3    1    3    3    0  502  0.16391768767E+03 -0.98826908579E+02  0.56087192209E+02  0.19945312613E+03  0.10100000352E+00 0. -1.
</event>
<event>
 5   0  0.3290656E-02  0.6904395E+03  0.7818609E-02  0.9733723E-01
       -2   -1    0    0    0  501  0.00000000000E+00  0.00000000000E+00  0.24901538982E+03  0.24901538984E+03  0.25500000920E-02 0. -1.
        2   -1    0    0  501    0  0.00000000000E+00  0.00000000000E+00 -0.47859160944E+03  0.47859160945E+03  0.25500000920E-02 0.  1.
    10030    2    1    2    0    0  0.00000000000E+00  0.00000000000E+00 -0.22957621962E+03  0.72760699928E+03  0.69043950118E+03 0.  0.
        1    1    3    3  502    0 -0.94343965162E+02 -0.21200399540E+03  0.15456886538E+03  0.27881537260E+03  0.50400001928E-02 0. -1.
       -1    1    3    3    0  502  0.94343965162E+02  0.21200399540E+03 -0.38414508499E+03  0.44879162668E+03  0.50400001928E-02 0.  1.
</event>
<event>
 5   0  0.1884172E-02  0.7074513E+03  0.7818609E-02  0.9704574E-01
        1   -1    0    0  501    0  0.00000000000E+00  0.00000000000E+00  0.10085719999E+04  0.10085719999E+04  0.50400001928E-02 0. -1.
       -1   -1    0    0    0  501  0.00000000000E+00  0.00000000000E+00 -0.12405842404E+03  0.12405842415E+03  0.50400001928E-02 0.  1.
    10030    2    1    2    0    0  0.00000000000E+00  0.00000000000E+00  0.88451357586E+03  0.11326304241E+04  0.70745134930E+03 0.  0.
        3    1    3    3  502    0  0.17791679730E+03  0.64229149069E+02 -0.36284765431E+02  0.19260416598E+03  0.10100000352E+00 0.  1.
       -3    1    3    3    0  502 -0.17791679730E+03 -0.64229149069E+02  0.92079834129E+03  0.94002625808E+03  0.10100000352E+00 0. -1.
</event>
<event>
 5   0  0.3113940E-02  0.6890267E+03  0.7818609E-02  0.9736184E-01
        2   -1    0    0  501    0  0.00000000000E+00  0.00000000000E+00  0.16178989335E+04  0.16178989335E+04  0.25500000920E-02 0. -1.
       -2   -1    0    0    0  501  0.00000000000E+00  0.00000000000E+00 -0.73360244424E+02  0.73360244468E+02  0.25500000920E-02 0.  1.
    10030    2    1    2    0    0  0.00000000000E+00  0.00000000000E+00  0.15445386891E+04  0.16912591780E+04  0.68902673753E+03 0.  0.
        5    1    3    3  502    0  0.22424638662E+03  0.10755356344E+03  0.13573268643E+04  0.13799320698E+04  0.46999998093E+01 0. -1.
       -5    1    3    3    0  502 -0.22424638662E+03 -0.10755356344E+03  0.18721182486E+03  0.31132710817E+03  0.46999998093E+01 0.  1.
</event>
<event>
 5   0  0.3290656E-02  0.6970499E+03  0.7818609E-02  0.9722291E-01
        2   -1    0    0  501    0  0.00000000000E+00  0.00000000000E+00  0.17846900409E+03  0.17846900411E+03  0.25500000920E-02 0.  1.
       -2   -1    0    0    0  501  0.00000000000E+00  0.00000000000E+00 -0.68062035436E+03  0.68062035436E+03  0.25500000920E-02 0. -1.
    10030    2    1    2    0    0  0.00000000000E+00  0.00000000000E+00 -0.50215135027E+03  0.85908935847E+03  0.69704988865E+03 0.  0.
        1    1    3    3  502    0  0.13998794218E+03  0.29865597152E+03 -0.38984497669E+03  0.51065753608E+03  0.50400001928E-02 0. -1.
       -1    1    3    3    0  502 -0.13998794218E+03 -0.29865597152E+03 -0.11230637358E+03  0.34843182239E+03  0.50400001928E-02 0.  1.
</event>
<event>
 5   0  0.1858013E-02  0.6962263E+03  0.7818609E-02  0.9723708E-01
        1   -1    0    0  501    0  0.00000000000E+00  0.00000000000E+00  0.57053055095E+03  0.57053055097E+03  0.50400001928E-02 0. -1.
       -1   -1    0    0    0  501  0.00000000000E+00  0.00000000000E+00 -0.21240366030E+03  0.21240366036E+03  0.50400001928E-02 0.  1.
    10030    2    1    2    0    0  0.00000000000E+00  0.00000000000E+00  0.35812689065E+03  0.78293421133E+03  0.69622633494E+03 0.  0.
        2    1    3    3  502    0  0.75048415211E+02 -0.28342893165E+03 -0.31974515062E+02  0.29493489712E+03  0.25500000920E-02 0.  1.
       -2    1    3    3    0  502 -0.75048415211E+02  0.28342893165E+03  0.39010140571E+03  0.48799931420E+03  0.25500000920E-02 0. -1.
</event>
<event>
 5   0  0.2933851E-02  0.6941515E+03  0.7818609E-02  0.9727287E-01
        2   -1    0    0  501    0  0.00000000000E+00  0.00000000000E+00  0.71140271142E+03  0.71140271142E+03  0.25500000920E-02 0.  1.
       -2   -1    0    0    0  501  0.00000000000E+00  0.00000000000E+00 -0.16932963241E+03  0.16932963243E+03  0.25500000920E-02 0. -1.
    10030    2    1    2    0    0  0.00000000000E+00  0.00000000000E+00  0.54207307901E+03  0.88073234386E+03  0.69415145216E+03 0.  0.
        2    1    3    3  502    0  0.27474759646E+03  0.11992721015E+03  0.49115133125E+02  0.30377800086E+03  0.25500000920E-02 0. -1.
       -2    1    3    3    0  502 -0.27474759646E+03 -0.11992721015E+03  0.49295794588E+03  0.57695434300E+03  0.25500000920E-02 0.  1.
</event>
<event>
 5   0  0.3290656E-02  0.7052145E+03  0.7818609E-02  0.9708356E-01
       -2   -1    0    0    0  501  0.00000000000E+00  0.00000000000E+00  0.10772658045E+03  0.10772658048E+03  0.25500000920E-02 0. -1.
        2   -1    0    0  501    0  0.00000000000E+00  0.00000000000E+00 -0.11541429066E+04  0.11541429066E+04  0.25500000920E-02 0.  1.
    10030    2    1    2    0    0  0.00000000000E+00  0.00000000000E+00 -0.10464163262E+04  0.12618694871E+04  0.70521448851E+03 0.  0.
        1    1    3    3  502    0 -0.26127501264E+03 -0.22239476625E+03 -0.66866086788E+03  0.75155267317E+03  0.50400001928E-02 0.  1.
       -1    1    3    3    0  502  0.26127501264E+03  0.22239476625E+03 -0.37775545830E+03  0.51031681394E+03  0.50400001928E-02 0. -1.
</event>
<event>
 5   0  0.1858013E-02  0.7034658E+03  0.7818609E-02  0.9711323E-01
       -1   -1    0    0    0  501  0.00000000000E+00  0.00000000000E+00  0.18033965832E+03  0.18033965839E+03  0.50400001928E-02 0.  1.
        1   -1    0    0  501    0  0.00000000000E+00  0.00000000000E+00 -0.68601687390E+03  0.68601687392E+03  0.50400001928E-02 0. -1.
    10030    2    1    2    0    0  0.00000000000E+00  0.00000000000E+00 -0.50567721557E+03  0.86635653231E+03  0.70346584474E+03 0.  0.
        2    1    3    3  502    0  0.18776239926E+03 -0.22879427526E+03 -0.18796231004E+02  0.29657180795E+03  0.25500000920E-02 0.  1.
       -2    1    3    3    0  502 -0.18776239926E+03  0.22879427526E+03 -0.48688098457E+03  0.56978472436E+03  0.25500000920E-02 0. -1.
</event>
<event>
 5   0  0.1951465E-02  0.6944369E+03  0.7818609E-02  0.9726793E-01
        1   -1    0    0  501    0  0.00000000000E+00  0.00000000000E+00  0.46284126978E+03  0.46284126981E+03  0.50400001928E-02 0. -1.
       -1   -1    0    0    0  501  0.00000000000E+00  0.00000000000E+00 -0.26047944630E+03  0.26047944635E+03  0.50400001928E-02 0.  1.
    10030    2    1    2    0    0  0.00000000000E+00  0.00000000000E+00  0.20236182348E+03  0.72332071615E+03  0.69443685877E+03 0.  0.
        4    1    3    3  502    0  0.22937110956E+03  0.16609929521E+02  0.37213938664E+03  0.43746580626E+03  0.12699999809E+01 0. -1.
       -4    1    3    3    0  502 -0.22937110956E+03 -0.16609929521E+02 -0.16977756316E+03  0.28585490989E+03  0.12699999809E+01 0.  1.
</event>
<event>
 5   0  0.3113940E-02  0.6991468E+03  0.7818609E-02  0.9718692E-01
        2   -1    0    0  501    0  0.00000000000E+00  0.00000000000E+00  0.60151906847E+03  0.60151906847E+03  0.25500000920E-02 0. -1.
       -2   -1    0    0    0  501  0.00000000000E+00  0.00000000000E+00 -0.20315490685E+03  0.20315490686E+03  0.25500000920E-02 0.  1.
    10030    2    1    2    0    0  0.00000000000E+00  0.00000000000E+00  0.39836416162E+03  0.80467397534E+03  0.69914676665E+03 0.  0.
        5    1    3    3  502    0  0.10116158828E+03 -0.16548745595E+03  0.53386481390E+03  0.56802596291E+03  0.46999998093E+01 0. -1.
       -5    1    3    3    0  502 -0.10116158828E+03  0.16548745595E+03 -0.13550065228E+03  0.23664801243E+03  0.46999998093E+01 0.  1.
</event>
<event>
 5   0  0.1884172E-02  0.6836848E+03  0.7818609E-02  0.9745548E-01
       -1   -1    0    0    0  501  0.00000000000E+00  0.00000000000E+00  0.27506824997E+03  0.27506825002E+03  0.50400001928E-02 0. -1.
        1   -1    0    0  501    0  0.00000000000E+00  0.00000000000E+00 -0.42482624229E+03  0.42482624232E+03  0.50400001928E-02 0.  1.
    10030    2    1    2    0    0  0.00000000000E+00  0.00000000000E+00 -0.14975799232E+03  0.69989449233E+03  0.68368475494E+03 0.  0.
        3    1    3    3  502    0 -0.13657200947E+03 -0.72038213529E+02 -0.38709320815E+03  0.41675242048E+03  0.10100000352E+00 0.  1.
       -3    1    3    3    0  502  0.13657200947E+03  0.72038213529E+02  0.23733521583E+03  0.28314207185E+03  0.10100000352E+00 0. -1.
</event>
<event>
 5   0  0.1884172E-02  0.6959801E+03  0.7818609E-02  0.9724132E-01
       -1   -1    0    0    0  501  0.00000000000E+00  0.00000000000E+00  0.22401263129E+03  0.22401263134E+03  0.50400001928E-02 0. -1.
        1   -1    0    0  501    0  0.00000000000E+00  0.00000000000E+00 -0.54058144153E+03  0.54058144155E+03  0.50400001928E-02 0.  1.
    10030    2    1    2    0    0  0.00000000000E+00  0.00000000000E+00 -0.31656881024E+03  0.76459407290E+03  0.69598008929E+03 0.  0.
        3    1    3    3  502    0  0.17051083425E+03  0.16245947748E+03 -0.43972414978E+03  0.49882297914E+03  0.10100000352E+00 0.  1.
       -3    1    3    3    0  502 -0.17051083425E+03 -0.16245947748E+03  0.12315533953E+03  0.26577109376E+03  0.10100000352E+00 0. -1.
</event>
<event>
 5   0  0.3184443E-02  0.6975224E+03  0.7818609E-02  0.9721479E-01
        2   -1    0    0  501    0  0.00000000000E+00  0.00000000000E+00  0.65151547230E+03  0.65151547231E+03  0.25500000920E-02 0. -1.
       -2   -1    0    0    0  501  0.00000000000E+00  0.00000000000E+00 -0.18669454764E+03  0.18669454765E+03  0.25500000920E-02 0.  1.
    10030    2    1    2    0    0  0.00000000000E+00  0.00000000000E+00  0.46482092467E+03  0.83821001996E+03  0.69752243373E+03 0.  0.
        3    1    3    3  502    0  0.55688254520E+01  0.24558784645E+03  0.52991211788E+03  0.58408155682E+03  0.10100000352E+00 0. -1.
       -3    1    3    3    0  502 -0.55688254520E+01 -0.24558784645E+03 -0.65091193212E+02  0.25412846314E+03  0.10100000352E+00 0.  1.
</event>
<event>
 5   0  0.3113940E-02  0.5731362E+03  0.7818609E-02  0.9962763E-01
       -2   -1    0    0    0  501  0.00000000000E+00  0.00000000000E+00  0.21871817878E+03  0.21871817880E+03  0.25500000920E-02 0. -1.
        2   -1    0    0  501    0  0.00000000000E+00  0.00000000000E+00 -0.37546620391E+03  0.37546620392E+03  0.25500000920E-02 0.  1.
    10030    2    1    2    0    0  0.00000000000E+00  0.00000000000E+00 -0.15674802513E+03  0.59418438271E+03  0.57313622925E+03 0.  0.
        5    1    3    3  502    0  0.44982547715E+02 -0.24561747239E+03  0.67313716096E+02  0.25865923280E+03  0.46999998093E+01 0.  1.
       -5    1    3    3    0  502 -0.44982547715E+02  0.24561747239E+03 -0.22406174122E+03  0.33552514991E+03  0.46999998093E+01 0. -1.
</event>
<event>
 5   0  0.1839038E-02  0.7046878E+03  0.7818609E-02  0.9709249E-01
        1   -1    0    0  501    0  0.00000000000E+00  0.00000000000E+00  0.80743504135E+03  0.80743504137E+03  0.50400001928E-02 0. -1.
       -1   -1    0    0    0  501  0.00000000000E+00  0.00000000000E+00 -0.15375381758E+03  0.15375381766E+03  0.50400001928E-02 0.  1.
    10030    2    1    2    0    0  0.00000000000E+00  0.00000000000E+00  0.65368122378E+03  0.96118885903E+03  0.70468778931E+03 0.  0.
        5    1    3    3  502    0  0.11059531872E+03 -0.25818131646E+03  0.36738891755E+02  0.28330328777E+03  0.46999998093E+01 0.  1.
       -5    1    3    3    0  502 -0.11059531872E+03  0.25818131646E+03  0.61694233202E+03  0.67788557127E+03  0.46999998093E+01 0. -1.
</event>
<event>
 5   0  0.1858013E-02  0.6939209E+03  0.7818609E-02  0.9727685E-01
       -1   -1    0    0    0  501  0.00000000000E+00  0.00000000000E+00  0.31210128859E+03  0.31210128863E+03  0.50400001928E-02 0. -1.
        1   -1    0    0  501    0  0.00000000000E+00  0.00000000000E+00 -0.38571307325E+03  0.38571307328E+03  0.50400001928E-02 0.  1.
    10030    2    1    2    0    0  0.00000000000E+00  0.00000000000E+00 -0.73611784662E+02  0.69781436191E+03  0.69392088083E+03 0.  0.
        2    1    3    3  502    0 -0.88820309712E+02  0.93487440819E+02 -0.36071968265E+03  0.38307654388E+03  0.25500000920E-02 0.  1.
       -2    1    3    3    0  502  0.88820309712E+02 -0.93487440819E+02  0.28710789799E+03  0.31473781804E+03  0.25500000920E-02 0. -1.
</event>
<event>
 5   0  0.3183963E-02  0.7038103E+03  0.7818609E-02  0.9710738E-01
       -2   -1    0    0    0  501  0.00000000000E+00  0.00000000000E+00  0.74635895371E+02  0.74635895415E+02  0.25500000920E-02 0.  1.
        2   -1    0    0  501    0  0.00000000000E+00  0.00000000000E+00 -0.16592180236E+04  0.16592180236E+04  0.25500000920E-02 0. -1.
    10030    2    1    2    0    0  0.00000000000E+00  0.00000000000E+00 -0.15845821283E+04  0.17338539191E+04  0.70381026662E+03 0.  0.
        4    1    3    3  502    0  0.27010863011E+03  0.17789392222E+03 -0.11339197607E+04  0.11791439930E+04  0.12699999809E+01 0. -1.
       -4    1    3    3    0  502 -0.27010863011E+03 -0.17789392222E+03 -0.45066236757E+03  0.55470992606E+03  0.12699999809E+01 0.  1.
</event>
<event>
 5   0  0.3113940E-02  0.7050574E+03  0.7818609E-02  0.9708622E-01
        2   -1    0    0  501    0  0.00000000000E+00  0.00000000000E+00  0.85289295442E+03  0.85289295442E+03  0.25500000920E-02 0.  1.
       -2   -1    0    0    0  501  0.00000000000E+00  0.00000000000E+00 -0.14571168621E+03  0.14571168623E+03  0.25500000920E-02 0. -1.
    10030    2    1    2    0    0  0.00000000000E+00  0.00000000000E+00  0.70718126821E+03  0.99860464065E+03  0.70505736094E+03 0.  0.
        5    1    3    3  502    0  0.22493341184E+03 -0.12165284229E+03  0.99701957313E+01  0.25596083411E+03  0.46999998093E+01 0. -1.
       -5    1    3    3    0  502 -0.22493341184E+03  0.12165284229E+03  0.69721107248E+03  0.74264380653E+03  0.46999998093E+01 0.  1.
</event>
<event>
 5   0  0.1969818E-02  0.6994214E+03  0.7818609E-02  0.9718222E-01
        1   -1    0    0  501    0  0.00000000000E+00  0.00000000000E+00  0.82790395739E+03  0.82790395740E+03  0.50400001928E-02 0.  1.
       -1   -1    0    0    0  501  0.00000000000E+00  0.00000000000E+00 -0.14771953906E+03  0.14771953915E+03  0.50400001928E-02 0. -1.
    10030    2    1    2    0    0  0.00000000000E+00  0.00000000000E+00  0.68018441832E+03  0.97562349655E+03  0.69942144955E+03 0.  0.
        1    1    3    3  502    0  0.21141951631E+03 -0.25444323652E+02 -0.46856286667E+02  0.21803930175E+03  0.50400001928E-02 0. -1.
       -1    1    3    3    0  502 -0.21141951631E+03  0.25444323652E+02  0.72704070499E+03  0.75758419481E+03  0.50400001928E-02 0.  1.
</event>
<event>
 5   0  0.2933851E-02  0.6947515E+03  0.7818609E-02  0.9726250E-01
       -2   -1    0    0    0  501  0.00000000000E+00  0.00000000000E+00  0.14468922409E+03  0.14468922411E+03  0.25500000920E-02 0. -1.
        2   -1    0    0  501    0  0.00000000000E+00  0.00000000000E+00 -0.83399378121E+03  0.83399378122E+03  0.25500000920E-02 0.  1.
    10030    2    1    2    0    0  0.00000000000E+00  0.00000000000E+00 -0.68930455712E+03  0.97868300533E+03  0.69475150410E+03 0.  0.
        2    1    3    3  502    0 -0.13223784065E+02 -0.20913689495E+03 -0.73492751217E+03  0.76421957411E+03  0.25500000920E-02 0.  1.
       -2    1    3    3    0  502  0.13223784065E+02  0.20913689495E+03  0.45622955051E+02  0.21446343122E+03  0.25500000920E-02 0. -1.
</event>
<event>
 5   0  0.1233912E-02  0.7007785E+03  0.7818609E-02  0.9715902E-01
        3   -1    0    0  501    0  0.00000000000E+00  0.00000000000E+00  0.25770425151E+03  0.25770427130E+03  0.10100000352E+00 0. -1.
       -3   -1    0    0    0  501  0.00000000000E+00  0.00000000000E+00 -0.47640895137E+03  0.47640896208E+03  0.10100000352E+00 0.  1.
    10030    2    1    2    0    0  0.00000000000E+00  0.00000000000E+00 -0.21870469986E+03  0.73411323338E+03  0.70077849117E+03 0.  0.
        5    1    3    3  502    0 -0.14667777380E+03  0.13825550445E+03  0.19084782182E+03  0.27762192804E+03  0.46999998093E+01 0. -1.
       -5    1    3    3    0  502  0.14667777380E+03 -0.13825550445E+03 -0.40955252168E+03  0.45649130534E+03  0.46999998093E+01 0.  1.
</event>
<event>
 5   0  0.1858013E-02  0.6988189E+03  0.7818609E-02  0.9719254E-01
        1   -1    0    0  501    0  0.00000000000E+00  0.00000000000E+00  0.95877724734E+03  0.95877724736E+03  0.50400001928E-02 0. -1.
       -1   -1    0    0    0  501  0.00000000000E+00  0.00000000000E+00 -0.12733611277E+03  0.12733611287E+03  0.50400001928E-02 0.  1.
    10030    2    1    2    0    0  0.00000000000E+00  0.00000000000E+00  0.83144113457E+03  0.10861133602E+04  0.69881891145E+03 0.  0.
        2    1    3    3  502    0 -0.33053112471E+03  0.50108628202E+02  0.25779182081E+03  0.42215911918E+03  0.25500000920E-02 0. -1.
       -2    1    3    3    0  502  0.33053112471E+03 -0.50108628202E+02  0.57364931376E+03  0.66395424105E+03  0.25500000920E-02 0.  1.
</event>
<event>
 5   0  0.3290656E-02  0.6571440E+03  0.7818609E-02  0.9793466E-01
       -2   -1    0    0    0  501  0.00000000000E+00  0.00000000000E+00  0.94283937461E+02  0.94283937496E+02  0.25500000920E-02 0. -1.
        2   -1    0    0  501    0  0.00000000000E+00  0.00000000000E+00 -0.11450472886E+04  0.11450472886E+04  0.25500000920E-02 0.  1.
    10030    2    1    2    0    0  0.00000000000E+00  0.00000000000E+00 -0.10507633511E+04  0.12393312261E+04  0.65714402370E+03 0.  0.
        1    1    3    3  502    0  0.17837522833E+03 -0.27479459385E+03 -0.47805348498E+03  0.57953854524E+03  0.50400001928E-02 0. -1.
       -1    1    3    3    0  502 -0.17837522833E+03  0.27479459385E+03 -0.57270986617E+03  0.65979268087E+03  0.50400001928E-02 0.  1.
</event>
<event>
 5   0  0.1884172E-02  0.7053628E+03  0.7818609E-02  0.9708105E-01
        1   -1    0    0  501    0  0.00000000000E+00  0.00000000000E+00  0.77948976459E+03  0.77948976460E+03  0.50400001928E-02 0.  1.
       -1   -1    0    0    0  501  0.00000000000E+00  0.00000000000E+00 -0.15957127859E+03  0.15957127867E+03  0.50400001928E-02 0. -1.
    10030    2    1    2    0    0  0.00000000000E+00  0.00000000000E+00  0.61991848600E+03  0.93906104327E+03  0.70536282416E+03 0.  0.
        3    1    3    3  502    0 -0.79127387591E+02 -0.15244996587E+03 -0.10012515613E+03  0.19881446791E+03  0.10100000352E+00 0. -1.
       -3    1    3    3    0  502  0.79127387591E+02  0.15244996587E+03  0.72004364213E+03  0.74024657536E+03  0.10100000352E+00 0.  1.
</event>
<event>
 5   0  0.1884172E-02  0.6960473E+03  0.7818609E-02  0.9724016E-01
        1   -1    0    0  501    0  0.00000000000E+00  0.00000000000E+00  0.15091620910E+04  0.15091620910E+04  0.50400001928E-02 0. -1.
       -1   -1    0    0    0  501  0.00000000000E+00  0.00000000000E+00 -0.80256765150E+02  0.80256765308E+02  0.50400001928E-02 0.  1.
    10030    2    1    2    0    0  0.00000000000E+00  0.00000000000E+00  0.14289053258E+04  0.15894188563E+04  0.69604731920E+03 0.  0.
        3    1    3    3  502    0 -0.21743303793E+02 -0.53936735262E+02  0.14979885136E+04  0.14991169200E+04  0.10100000352E+00 0. -1.
       -3    1    3    3    0  502  0.21743303793E+02  0.53936735262E+02 -0.69083187769E+02  0.90301936324E+02  0.10100000352E+00 0.  1.
</event>
<event>
 5   0  0.3183963E-02  0.6960479E+03  0.7818609E-02  0.9724015E-01
        2   -1    0    0  501    0  0.00000000000E+00  0.00000000000E+00  0.81884050357E+03  0.81884050358E+03  0.25500000920E-02 0. -1.
       -2   -1    0    0    0  501  0.00000000000E+00  0.00000000000E+00 -0.14791730617E+03  0.14791730619E+03  0.25500000920E-02 0.  1.
    10030    2    1    2    0    0  0.00000000000E+00  0.00000000000E+00  0.67092319740E+03  0.96675780977E+03  0.69604793365E+03 0.  0.
        4    1    3    3  502    0  0.52651156109E+02  0.31095804617E+03  0.13108661798E+03  0.34154408943E+03  0.12699999809E+01 0.  1.
       -4    1    3    3    0  502 -0.52651156109E+02 -0.31095804617E+03  0.53983657942E+03  0.62521372034E+03  0.12699999809E+01 0. -1.
</event>
<event>
 5   0  0.3290656E-02  0.7020256E+03  0.7818609E-02  0.9713774E-01
        2   -1    0    0  501    0  0.00000000000E+00  0.00000000000E+00  0.47808599695E+03  0.47808599695E+03  0.25500000920E-02 0.  1.
       -2   -1    0    0    0  501  0.00000000000E+00  0.00000000000E+00 -0.25771510948E+03  0.25771510949E+03  0.25500000920E-02 0. -1.
    10030    2    1    2    0    0  0.00000000000E+00  0.00000000000E+00  0.22037088747E+03  0.73580110644E+03  0.70202559796E+03 0.  0.
        1    1    3    3  502    0  0.13951570112E+03 -0.24576837014E+03  0.32839224705E+03  0.43325303296E+03  0.50400001928E-02 0.  1.
       -1    1    3    3    0  502 -0.13951570112E+03  0.24576837014E+03 -0.10802135958E+03  0.30254807349E+03  0.50400001928E-02 0. -1.
</event>
<event>
 5   0  0.1233912E-02  0.7044332E+03  0.7818609E-02  0.9709681E-01
       -4   -1    0    0    0  501  0.00000000000E+00  0.00000000000E+00  0.12217746517E+03  0.12218406564E+03  0.12699999809E+01 0.  1.
        4   -1    0    0  501    0  0.00000000000E+00  0.00000000000E+00 -0.10153454376E+04  0.10153462319E+04  0.12699999809E+01 0. -1.
    10030    2    1    2    0    0  0.00000000000E+00  0.00000000000E+00 -0.89316797246E+03  0.11375302975E+04  0.70443321242E+03 0.  0.
        1    1    3    3  502    0  0.31963365147E+03  0.27801593764E+02 -0.68124930136E+03  0.75302005975E+03  0.50400001928E-02 0. -1.
       -1    1    3    3    0  502 -0.31963365147E+03 -0.27801593764E+02 -0.21191867111E+03  0.38451023778E+03  0.50400001928E-02 0.  1.
</event>
<event>
 5   0  0.1951465E-02  0.6771346E+03  0.7818609E-02  0.9757154E-01
       -1   -1    0    0    0  501  0.00000000000E+00  0.00000000000E+00  0.40104613671E+03  0.40104613674E+03  0.50400001928E-02 0. -1.
        1   -1    0    0  501    0  0.00000000000E+00  0.00000000000E+00 -0.28582205759E+03  0.28582205763E+03  0.50400001928E-02 0.  1.
    10030    2    1    2    0    0  0.00000000000E+00  0.00000000000E+00  0.11522407912E+03  0.68686819438E+03  0.67713464543E+03 0.  0.
        4    1    3    3  502    0 -0.29564034363E+03  0.14923886736E+03  0.12898514720E+03  0.35540713753E+03  0.12699999809E+01 0. -1.
       -4    1    3    3    0  502  0.29564034363E+03 -0.14923886736E+03 -0.13761068084E+02  0.33146105684E+03  0.12699999809E+01 0.  1.
</event>
<event>
 5   0  0.1839038E-02  0.6982303E+03  0.7818609E-02  0.9720263E-01
       -1   -1    0    0    0  501  0.00000000000E+00  0.00000000000E+00  0.39624935387E+03  0.39624935390E+03  0.50400001928E-02 0.  1.
        1   -1    0    0  501    0  0.00000000000E+00  0.00000000000E+00 -0.30758763711E+03  0.30758763715E+03  0.50400001928E-02 0. -1.
    10030    2    1    2    0    0  0.00000000000E+00  0.00000000000E+00  0.88661716756E+02  0.70383699106E+03  0.69823034162E+03 0.  0.
        5    1    3    3  502    0 -0.32093216617E+03  0.17695941204E+02  0.18161811816E+03  0.36921244895E+03  0.46999998093E+01 0. -1.
       -5    1    3    3    0  502  0.32093216617E+03 -0.17695941204E+02 -0.92956401402E+02  0.33462454211E+03  0.46999998093E+01 0.  1.
</event>
<event>
 5   0  0.2933851E-02  0.7004737E+03  0.7818609E-02  0.9716422E-01
       -2   -1    0    0    0  501  0.00000000000E+00  0.00000000000E+00  0.27366940479E+03  0.27366940481E+03  0.25500000920E-02 0. -1.
        2   -1    0    0  501    0  0.00000000000E+00  0.00000000000E+00 -0.44822637171E+03  0.44822637172E+03  0.25500000920E-02 0.  1.
    10030    2    1    2    0    0  0.00000000000E+00  0.00000000000E+00 -0.17455696691E+03  0.72189577652E+03  0.70047368078E+03 0.  0.
        2    1    3    3  502    0  0.30825852780E+03 -0.14061362039E+03 -0.17870649300E+03  0.38305550622E+03  0.25500000920E-02 0.  1.
       -2    1    3    3    0  502 -0.30825852780E+03  0.14061362039E+03  0.41495260842E+01  0.33884027030E+03  0.25500000920E-02 0. -1.
</event>
<event>
 5   0  0.1951465E-02  0.6962033E+03  0.7818609E-02  0.9723747E-01
        1   -1    0    0  501    0  0.00000000000E+00  0.00000000000E+00  0.19970171341E+03  0.19970171347E+03  0.50400001928E-02 0. -1.
       -1   -1    0    0    0  501  0.00000000000E+00  0.00000000000E+00 -0.60677884067E+03  0.60677884069E+03  0.50400001928E-02 0.  1.
    10030    2    1    2    0    0  0.00000000000E+00  0.00000000000E+00 -0.40707712726E+03  0.80648055416E+03  0.69620334436E+03 0.  0.
        4    1    3    3  502    0 -0.23064100976E+03 -0.78321651750E+02 -0.49161331315E+03  0.54864817423E+03  0.12699999809E+01 0. -1.
       -4    1    3    3    0  502  0.23064100976E+03  0.78321651750E+02  0.84536185885E+02  0.25783237993E+03  0.12699999809E+01 0.  1.
</event>
<event>
 5   0  0.3113940E-02  0.7047674E+03  0.7818609E-02  0.9709114E-01
       -2   -1    0    0    0  501  0.00000000000E+00  0.00000000000E+00  0.55306462233E+03  0.55306462234E+03  0.25500000920E-02 0. -1.
        2   -1    0    0  501    0  0.00000000000E+00  0.00000000000E+00 -0.22452035168E+03  0.22452035170E+03  0.25500000920E-02 0.  1.
    10030    2    1    2    0    0  0.00000000000E+00  0.00000000000E+00  0.32854427065E+03  0.77758497404E+03  0.70476737586E+03 0.  0.
        5    1    3    3  502    0  0.21582356217E+02  0.16776076934E+03 -0.17676433282E+03  0.24469816751E+03  0.46999998093E+01 0.  1.
       -5    1    3    3    0  502 -0.21582356217E+02 -0.16776076934E+03  0.50530860347E+03  0.53288680652E+03  0.46999998093E+01 0. -1.
</event>
<event>
 5   0  0.1839038E-02  0.7000174E+03  0.7818609E-02  0.9717202E-01
        1   -1    0    0  501    0  0.00000000000E+00  0.00000000000E+00  0.95193317663E+03  0.95193317664E+03  0.50400001928E-02 0. -1.
       -1   -1    0    0    0  501  0.00000000000E+00  0.00000000000E+00 -0.12869188930E+03  0.12869188940E+03  0.50400001928E-02 0.  1.
    10030    2    1    2    0    0  0.00000000000E+00  0.00000000000E+00  0.82324128733E+03  0.10806250660E+04  0.70001736849E+03 0.  0.
        5    1    3    3  502    0  0.59503961385E+02  0.12565130996E+03 -0.84184920991E+02  0.16259816738E+03  0.46999998093E+01 0.  1.
       -5    1    3    3    0  502 -0.59503961385E+02 -0.12565130996E+03  0.90742620832E+03  0.91802689866E+03  0.46999998093E+01 0. -1.
</event>
<event>
 5   0  0.1969818E-02  0.7149060E+03  0.7818609E-02  0.9692075E-01
       -1   -1    0    0    0  501  0.00000000000E+00  0.00000000000E+00  0.12919823895E+03  0.12919823905E+03  0.50400001928E-02 0.  1.
        1   -1    0    0  501    0  0.00000000000E+00  0.00000000000E+00 -0.98896580599E+03  0.98896580601E+03  0.50400001928E-02 0. -1.
    10030    2    1    2    0    0  0.00000000000E+00  0.00000000000E+00 -0.85976756705E+03  0.11181640451E+04  0.71490598145E+03 0.  0.
        1    1    3    3  502    0 -0.56928450068E+02  0.35276676734E+03 -0.44450596864E+03  0.57032516755E+03  0.50400001928E-02 0.  1.
       -1    1    3    3    0  502  0.56928450068E+02 -0.35276676734E+03 -0.41526159841E+03  0.54783887750E+03  0.50400001928E-02 0. -1.
</event>
<event>
 5   0  0.2933851E-02  0.8294237E+03  0.7818609E-02  0.9518378E-01
        2   -1    0    0  501    0  0.00000000000E+00  0.00000000000E+00  0.74763760316E+03  0.74763760317E+03  0.25500000920E-02 0.  1.
       -2   -1    0    0    0  501  0.00000000000E+00  0.00000000000E+00 -0.23003914876E+03  0.23003914877E+03  0.25500000920E-02 0. -1.
    10030    2    1    2    0    0  0.00000000000E+00  0.00000000000E+00  0.51759845441E+03  0.97767675194E+03  0.82942369829E+03 0.  0.
        2    1    3    3  502    0  0.24897503636E+03 -0.33101129542E+03  0.28321004811E+03  0.50176187359E+03  0.25500000920E-02 0. -1.
       -2    1    3    3    0  502 -0.24897503636E+03  0.33101129542E+03  0.23438840629E+03  0.47591487835E+03  0.25500000920E-02 0.  1.
</event>
<event>
 5   0  0.1839038E-02  0.7001472E+03  0.7818609E-02  0.9716981E-01
        1   -1    0    0  501    0  0.00000000000E+00  0.00000000000E+00  0.17544755299E+04  0.17544755299E+04  0.50400001928E-02 0. -1.
       -1   -1    0    0    0  501  0.00000000000E+00  0.00000000000E+00 -0.69850794627E+02  0.69850794809E+02  0.50400001928E-02 0.  1.
    10030    2    1    2    0    0  0.00000000000E+00  0.00000000000E+00  0.16846247353E+04  0.18243263248E+04  0.70014715622E+03 0.  0.
        5    1    3    3  502    0  0.67296364971E+02 -0.53378248559E+02 -0.41882058727E+02  0.95677766482E+02  0.46999998093E+01 0.  1.
       -5    1    3    3    0  502 -0.67296364971E+02  0.53378248559E+02  0.17265067940E+04  0.17286485583E+04  0.46999998093E+01 0. -1.
</event>
<event>
 5   0  0.3290656E-02  0.6967920E+03  0.7818609E-02  0.9722734E-01
       -2   -1    0    0    0  501  0.00000000000E+00  0.00000000000E+00  0.11029524077E+04  0.11029524077E+04  0.25500000920E-02 0.  1.
        2   -1    0    0  501    0  0.00000000000E+00  0.00000000000E+00 -0.11004987369E+03  0.11004987372E+03  0.25500000920E-02 0. -1.
    10030    2    1    2    0    0  0.00000000000E+00  0.00000000000E+00  0.99290253398E+03  0.12130022814E+04  0.69679200101E+03 0.  0.
        1    1    3    3  502    0  0.20711290692E+03 -0.10584796463E+03  0.94799745453E+03  0.97611409254E+03  0.50400001928E-02 0.  1.
       -1    1    3    3    0  502 -0.20711290692E+03  0.10584796463E+03  0.44905079446E+02  0.23688818885E+03  0.50400001928E-02 0. -1.
</event>
<event>
 5   0  0.1969818E-02  0.6991125E+03  0.7818609E-02  0.9718751E-01
        1   -1    0    0  501    0  0.00000000000E+00  0.00000000000E+00  0.10632767234E+04  0.10632767234E+04  0.50400001928E-02 0.  1.
       -1   -1    0    0    0  501  0.00000000000E+00  0.00000000000E+00 -0.11491794445E+03  0.11491794457E+03  0.50400001928E-02 0. -1.
    10030    2    1    2    0    0  0.00000000000E+00  0.00000000000E+00  0.94835877894E+03  0.11781946680E+04  0.69911251029E+03 0.  0.
        1    1    3    3  502    0  0.18063846192E+03 -0.14886663605E+03  0.36663698721E+02  0.23692985477E+03  0.50400001928E-02 0. -1.
       -1    1    3    3    0  502 -0.18063846192E+03  0.14886663605E+03  0.91169508022E+03  0.94126481320E+03  0.50400001928E-02 0.  1.
</event>
<event>
 5   0  0.1858013E-02  0.6989549E+03  0.7818609E-02  0.9719021E-01
        1   -1    0    0  501    0  0.00000000000E+00  0.00000000000E+00  0.23920472465E+03  0.23920472470E+03  0.50400001928E-02 0. -1.
       -1   -1    0    0    0  501  0.00000000000E+00  0.00000000000E+00 -0.51058562283E+03  0.51058562286E+03  0.50400001928E-02 0.  1.
    10030    2    1    2    0    0  0.00000000000E+00  0.00000000000E+00 -0.27138089819E+03  0.74979034756E+03  0.69895491514E+03 0.  0.
        2    1    3    3  502    0 -0.29176669774E+03 -0.18791665728E+03 -0.17984237061E+03  0.39087562506E+03  0.25500000920E-02 0. -1.
       -2    1    3    3    0  502  0.29176669774E+03  0.18791665728E+03 -0.91538527580E+02  0.35891472250E+03  0.25500000920E-02 0.  1.
</event>
<event>
 5   0  0.3183963E-02  0.6873242E+03  0.7818609E-02  0.9739158E-01
        2   -1    0    0  501    0  0.00000000000E+00  0.00000000000E+00  0.24741751533E+03  0.24741751534E+03  0.25500000920E-02 0.  1.
       -2   -1    0    0    0  501  0.00000000000E+00  0.00000000000E+00 -0.47734553591E+03  0.47734553592E+03  0.25500000920E-02 0. -1.
    10030    2    1    2    0    0  0.00000000000E+00  0.00000000000E+00 -0.22992802058E+03  0.72476305126E+03  0.68732422176E+03 0.  0.
        4    1    3    3  502    0  0.32827456645E+03 -0.94639856281E+02 -0.15415202621E+03  0.37481375836E+03  0.12699999809E+01 0. -1.
       -4    1    3    3    0  502 -0.32827456645E+03  0.94639856281E+02 -0.75775994371E+02  0.34994929289E+03  0.12699999809E+01 0.  1.
</event>
<event>
 5   0  0.2933851E-02  0.7019044E+03  0.7818609E-02  0.9713981E-01
       -2   -1    0    0    0  501  0.00000000000E+00  0.00000000000E+00  0.25673930356E+03  0.25673930357E+03  0.25500000920E-02 0. -1.
        2   -1    0    0  501    0  0.00000000000E+00  0.00000000000E+00 -0.47973743143E+03  0.47973743144E+03  0.25500000920E-02 0.  1.
    10030    2    1    2    0    0  0.00000000000E+00  0.00000000000E+00 -0.22299812787E+03  0.73647673501E+03  0.70190442097E+03 0.  0.
        2    1    3    3  502    0 -0.56316659784E+02  0.23271568437E+02  0.25114618172E+03  0.25843284749E+03  0.25500000920E-02 0. -1.
       -2    1    3    3    0  502  0.56316659784E+02 -0.23271568437E+02 -0.47414430959E+03  0.47804388751E+03  0.25500000920E-02 0.  1.
</event>
<event>
 5   0  0.3183963E-02  0.6965866E+03  0.7818609E-02  0.9723087E-01
       -2   -1    0    0    0  501  0.00000000000E+00  0.00000000000E+00  0.10246534593E+03  0.10246534596E+03  0.25500000920E-02 0. -1.
        2   -1    0    0  501    0  0.00000000000E+00  0.00000000000E+00 -0.11838951739E+04  0.11838951739E+04  0.25500000920E-02 0.  1.
    10030    2    1    2    0    0  0.00000000000E+00  0.00000000000E+00 -0.10814298280E+04  0.12863605199E+04  0.69658661646E+03 0.  0.
        4    1    3    3  502    0 -0.12031992215E+03  0.32682571485E+03 -0.54779129708E+03  0.64912930115E+03  0.12699999809E+01 0. -1.
       -4    1    3    3    0  502  0.12031992215E+03 -0.32682571485E+03 -0.53363853092E+03  0.63723121874E+03  0.12699999809E+01 0.  1.
</event>
<event>
 5   0  0.1858013E-02  0.7189705E+03  0.7818609E-02  0.9685329E-01
        1   -1    0    0  501    0  0.00000000000E+00  0.00000000000E+00  0.50497994919E+03  0.50497994921E+03  0.50400001928E-02 0.  1.
       -1   -1    0    0    0  501  0.00000000000E+00  0.00000000000E+00 -0.25591046988E+03  0.25591046993E+03  0.50400001928E-02 0. -1.
    10030    2    1    2    0    0  0.00000000000E+00  0.00000000000E+00  0.24906947931E+03  0.76089041914E+03  0.71897053098E+03 0.  0.
        2    1    3    3  502    0  0.13259853627E+03 -0.23227966758E+03  0.37873397756E+03  0.46365465765E+03  0.25500000920E-02 0.  1.
       -2    1    3    3    0  502 -0.13259853627E+03  0.23227966758E+03 -0.12966449826E+03  0.29723576149E+03  0.25500000920E-02 0. -1.
</event>
<event>
 5   0  0.3290656E-02  0.6751488E+03  0.7818609E-02  0.9760701E-01
        2   -1    0    0  501    0  0.00000000000E+00  0.00000000000E+00  0.72275162107E+03  0.72275162107E+03  0.25500000920E-02 0.  1.
       -2   -1    0    0    0  501  0.00000000000E+00  0.00000000000E+00 -0.15767033583E+03  0.15767033585E+03  0.25500000920E-02 0. -1.
    10030    2    1    2    0    0  0.00000000000E+00  0.00000000000E+00  0.56508128524E+03  0.88042195692E+03  0.67514884529E+03 0.  0.
        1    1    3    3  502    0  0.15728169785E+03  0.28173294057E+03  0.41193353226E+03  0.52325922573E+03  0.50400001928E-02 0.  1.
       -1    1    3    3    0  502 -0.15728169785E+03 -0.28173294057E+03  0.15314775299E+03  0.35716273119E+03  0.50400001928E-02 0. -1.
</event>
<event>
 5   0  0.1951465E-02  0.6952069E+03  0.7818609E-02  0.9725464E-01
       -1   -1    0    0    0  501  0.00000000000E+00  0.00000000000E+00  0.20650961785E+03  0.20650961791E+03  0.50400001928E-02 0. -1.
        1   -1    0    0  501    0  0.00000000000E+00  0.00000000000E+00 -0.58509693931E+03  0.58509693934E+03  0.50400001928E-02 0.  1.
    10030    2    1    2    0    0  0.00000000000E+00  0.00000000000E+00 -0.37858732147E+03  0.79160655725E+03  0.69520686238E+03 0.  0.
        4    1    3    3  502    0  0.39047795104E+02 -0.34197795282E+03 -0.24452624988E+03  0.42221836803E+03  0.12699999809E+01 0. -1.
       -4    1    3    3    0  502 -0.39047795104E+02  0.34197795282E+03 -0.13406107159E+03  0.36938818922E+03  0.12699999809E+01 0.  1.
</event>
<event>
 5   0  0.1858013E-02  0.6912079E+03  0.7818609E-02  0.9732387E-01
       -1   -1    0    0    0  501  0.00000000000E+00  0.00000000000E+00  0.32483103147E+03  0.32483103151E+03  0.50400001928E-02 0. -1.
        1   -1    0    0  501    0  0.00000000000E+00  0.00000000000E+00 -0.36770524267E+03  0.36770524270E+03  0.50400001928E-02 0.  1.
    10030    2    1    2    0    0  0.00000000000E+00  0.00000000000E+00 -0.42874211193E+02  0.69253627422E+03  0.69120785088E+03 0.  0.
        2    1    3    3  502    0 -0.19994589371E+03 -0.16256261575E+02 -0.30340193340E+03  0.36372429071E+03  0.25500000920E-02 0.  1.
       -2    1    3    3    0  502  0.19994589371E+03  0.16256261575E+02  0.26052772221E+03  0.32881198351E+03  0.25500000920E-02 0. -1.
</event>
<event>
 5   0  0.1969818E-02  0.6963339E+03  0.7818609E-02  0.9723522E-01
       -1   -1    0    0    0  501  0.00000000000E+00  0.00000000000E+00  0.97878926328E+02  0.97878926457E+02  0.50400001928E-02 0.  1.
        1   -1    0    0  501    0  0.00000000000E+00  0.00000000000E+00 -0.12384712820E+04  0.12384712820E+04  0.50400001928E-02 0. -1.
    10030    2    1    2    0    0  0.00000000000E+00  0.00000000000E+00 -0.11405923557E+04  0.13363502085E+04  0.69633394133E+03 0.  0.
        1    1    3    3  502    0  0.22168638173E+03 -0.18687561232E+03 -0.94020870611E+03  0.98390027818E+03  0.50400001928E-02 0. -1.
       -1    1    3    3    0  502 -0.22168638173E+03  0.18687561232E+03 -0.20038364955E+03  0.35244993028E+03  0.50400001928E-02 0.  1.
</event>
<event>
 5   0  0.3290656E-02  0.7007388E+03  0.7818609E-02  0.9715970E-01
        2   -1    0    0  501    0  0.00000000000E+00  0.00000000000E+00  0.53496524270E+03  0.53496524270E+03  0.25500000920E-02 0. -1.
       -2   -1    0    0    0  501  0.00000000000E+00  0.00000000000E+00 -0.22947046530E+03  0.22947046531E+03  0.25500000920E-02 0.  1.
    10030    2    1    2    0    0  0.00000000000E+00  0.00000000000E+00  0.30549477740E+03  0.76443570801E+03  0.70073881915E+03 0.  0.
        1    1    3    3  502    0  0.19366357363E+03  0.27944921064E+03  0.60430708521E+02  0.34532493631E+03  0.50400001928E-02 0.  1.
       -1    1    3    3    0  502 -0.19366357363E+03 -0.27944921064E+03  0.24506406888E+03  0.41911077171E+03  0.50400001928E-02 0. -1.
</event>
<event>
 5   0  0.1884172E-02  0.7079784E+03  0.7818609E-02  0.9703685E-01
       -1   -1    0    0    0  501  0.00000000000E+00  0.00000000000E+00  0.18215562912E+03  0.18215562919E+03  0.50400001928E-02 0. -1.
        1   -1    0    0  501    0  0.00000000000E+00  0.00000000000E+00 -0.68791919341E+03  0.68791919343E+03  0.50400001928E-02 0.  1.
    10030    2    1    2    0    0  0.00000000000E+00  0.00000000000E+00 -0.50576356429E+03  0.87007482262E+03  0.70797839938E+03 0.  0.
        3    1    3    3  502    0 -0.19478546203E+03 -0.28766462418E+03 -0.16938476594E+03  0.38650164470E+03  0.10100000352E+00 0. -1.
       -3    1    3    3    0  502  0.19478546203E+03  0.28766462418E+03 -0.33637879835E+03  0.48357317792E+03  0.10100000352E+00 0.  1.
</event>
<event>
 5   0  0.1839038E-02  0.7081365E+03  0.7818609E-02  0.9703418E-01
       -1   -1    0    0    0  501  0.00000000000E+00  0.00000000000E+00  0.88256908304E+02  0.88256908448E+02  0.50400001928E-02 0.  1.
        1   -1    0    0  501    0  0.00000000000E+00  0.00000000000E+00 -0.14204478206E+04  0.14204478206E+04  0.50400001928E-02 0. -1.
    10030    2    1    2    0    0  0.00000000000E+00  0.00000000000E+00 -0.13321909123E+04  0.15087047290E+04  0.70813652120E+03 0.  0.
        5    1    3    3  502    0 -0.11692246413E+03  0.33073923533E+03 -0.76789231790E+03  0.84423930630E+03  0.46999998093E+01 0. -1.
       -5    1    3    3    0  502  0.11692246413E+03 -0.33073923533E+03 -0.56429859436E+03  0.66446542273E+03  0.46999998093E+01 0.  1.
</event>
<event>
 5   0  0.1884172E-02  0.7045713E+03  0.7818609E-02  0.9709446E-01
       -1   -1    0    0    0  501  0.00000000000E+00  0.00000000000E+00  0.11973165639E+03  0.11973165649E+03  0.50400001928E-02 0.  1.
        1   -1    0    0  501    0  0.00000000000E+00  0.00000000000E+00 -0.10365277372E+04  0.10365277372E+04  0.50400001928E-02 0. -1.
    10030    2    1    2    0    0  0.00000000000E+00  0.00000000000E+00 -0.91679608083E+03  0.11562593937E+04  0.70457131062E+03 0.  0.
        3    1    3    3  502    0  0.10236910015E+03  0.26945051732E+03 -0.12601445018E+03  0.31458332092E+03  0.10100000352E+00 0.  1.
       -3    1    3    3    0  502 -0.10236910015E+03 -0.26945051732E+03 -0.79078163065E+03  0.84167607280E+03  0.10100000352E+00 0. -1.
</event>
<event>
 5   0  0.2933851E-02  0.7015338E+03  0.7818609E-02  0.9714613E-01
       -2   -1    0    0    0  501  0.00000000000E+00  0.00000000000E+00  0.19434171619E+03  0.19434171621E+03  0.25500000920E-02 0.  1.
        2   -1    0    0  501    0  0.00000000000E+00  0.00000000000E+00 -0.63309833060E+03  0.63309833061E+03  0.25500000920E-02 0. -1.
    10030    2    1    2    0    0  0.00000000000E+00  0.00000000000E+00 -0.43875661441E+03  0.82744004682E+03  0.70153379419E+03 0.  0.
        2    1    3    3  502    0  0.18194655525E+02 -0.69678793283E+02  0.18552843756E+03  0.19901502675E+03  0.25500000920E-02 0.  1.
       -2    1    3    3    0  502 -0.18194655525E+02  0.69678793283E+02 -0.62428505197E+03  0.62842502006E+03  0.25500000920E-02 0. -1.
</event>
<event>
 5   0  0.2933851E-02  0.6884082E+03  0.7818609E-02  0.9737264E-01
       -2   -1    0    0    0  501  0.00000000000E+00  0.00000000000E+00  0.12175255172E+03  0.12175255175E+03  0.25500000920E-02 0.  1.
        2   -1    0    0  501    0  0.00000000000E+00  0.00000000000E+00 -0.97309224306E+03  0.97309224306E+03  0.25500000920E-02 0. -1.
    10030    2    1    2    0    0  0.00000000000E+00  0.00000000000E+00 -0.85133969134E+03  0.10948447948E+04  0.68840820353E+03 0.  0.
        2    1    3    3  502    0  0.91179562243E+02  0.29811146509E+03 -0.19360045334E+03  0.36696770120E+03  0.25500000920E-02 0.  1.
       -2    1    3    3    0  502 -0.91179562243E+02 -0.29811146509E+03 -0.65773923800E+03  0.72787709361E+03  0.25500000920E-02 0. -1.
</event>
<event>
 5   0  0.1233912E-02  0.7066189E+03  0.7818609E-02  0.9705979E-01
        3   -1    0    0  501    0  0.00000000000E+00  0.00000000000E+00  0.18284025644E+03  0.18284028433E+03  0.10100000352E+00 0. -1.
       -3   -1    0    0    0  501  0.00000000000E+00  0.00000000000E+00 -0.68271370309E+03  0.68271371056E+03  0.10100000352E+00 0.  1.
    10030    2    1    2    0    0  0.00000000000E+00  0.00000000000E+00 -0.49987344665E+03  0.86555399489E+03  0.70661888979E+03 0.  0.
        5    1    3    3  502    0  0.16952193617E+03  0.28513526107E+03 -0.10109129514E+03  0.34681600871E+03  0.46999998093E+01 0.  1.
       -5    1    3    3    0  502 -0.16952193617E+03 -0.28513526107E+03 -0.39878215151E+03  0.51873798618E+03  0.46999998093E+01 0. -1.
</event>
<event>
 5   0  0.3183963E-02  0.7056193E+03  0.7818609E-02  0.9707670E-01
        2   -1    0    0  501    0  0.00000000000E+00  0.00000000000E+00  0.10382411870E+04  0.10382411870E+04  0.25500000920E-02 0.  1.
       -2   -1    0    0    0  501  0.00000000000E+00  0.00000000000E+00 -0.11988991839E+03  0.11988991841E+03  0.25500000920E-02 0. -1.
    10030    2    1    2    0    0  0.00000000000E+00  0.00000000000E+00  0.91835126864E+03  0.11581311054E+04  0.70561930585E+03 0.  0.
        4    1    3    3  502    0 -0.57065674196E+01  0.33841232511E+03  0.62262752323E+03  0.70867630995E+03  0.12699999809E+01 0.  1.
       -4    1    3    3    0  502  0.57065674196E+01 -0.33841232511E+03  0.29572374541E+03  0.44945479550E+03  0.12699999809E+01 0. -1.
</event>
<event>
 5   0  0.1233912E-02  0.7113392E+03  0.7818609E-02  0.9698035E-01
        3   -1    0    0  501    0  0.00000000000E+00  0.00000000000E+00  0.41017614898E+03  0.41017616141E+03  0.10100000352E+00 0. -1.
       -3   -1    0    0    0  501  0.00000000000E+00  0.00000000000E+00 -0.30840613269E+03  0.30840614923E+03  0.10100000352E+00 0.  1.
    10030    2    1    2    0    0  0.00000000000E+00  0.00000000000E+00  0.10177001629E+03  0.71858231064E+03  0.71133916028E+03 0.  0.
        2    1    3    3  502    0  0.12110165810E+03 -0.12890233339E+03 -0.26083349785E+03  0.31514367637E+03  0.25500000920E-02 0.  1.
       -2    1    3    3    0  502 -0.12110165810E+03  0.12890233339E+03  0.36260351414E+03  0.40343863427E+03  0.25500000920E-02 0. -1.
</event>
<event>
 5   0  0.1884172E-02  0.6991374E+03  0.7818609E-02  0.9718708E-01
       -1   -1    0    0    0  501  0.00000000000E+00  0.00000000000E+00  0.10291656715E+03  0.10291656727E+03  0.50400001928E-02 0. -1.
        1   -1    0    0  501    0  0.00000000000E+00  0.00000000000E+00 -0.11873528908E+04  0.11873528908E+04  0.50400001928E-02 0.  1.
    10030    2    1    2    0    0  0.00000000000E+00  0.00000000000E+00 -0.10844363237E+04  0.12902694581E+04  0.69913742170E+03 0.  0.
        3    1    3    3  502    0 -0.74426042216E+02  0.33040863361E+03 -0.38250717796E+03  0.51090199874E+03  0.10100000352E+00 0. -1.
       -3    1    3    3    0  502  0.74426042216E+02 -0.33040863361E+03 -0.70192914572E+03  0.77936745937E+03  0.10100000352E+00 0.  1.
</event>
<event>
 5   0  0.1951465E-02  0.7035965E+03  0.7818609E-02  0.9711101E-01
       -1   -1    0    0    0  501  0.00000000000E+00  0.00000000000E+00  0.85116005343E+03  0.85116005345E+03  0.50400001928E-02 0.  1.
        1   -1    0    0  501    0  0.00000000000E+00  0.00000000000E+00 -0.14540393572E+03  0.14540393581E+03  0.50400001928E-02 0. -1.
    10030    2    1    2    0    0  0.00000000000E+00  0.00000000000E+00  0.70575611771E+03  0.99656398925E+03  0.70359653708E+03 0.  0.
        4    1    3    3  502    0 -0.14327559378E+03 -0.32120230339E+03  0.36399405741E+03  0.50615422769E+03  0.12699999809E+01 0. -1.
       -4    1    3    3    0  502  0.14327559378E+03  0.32120230339E+03  0.34176206031E+03  0.49040976157E+03  0.12699999809E+01 0.  1.
</event>
<event>
 5   0  0.3113940E-02  0.7015579E+03  0.7818609E-02  0.9714572E-01
        2   -1    0    0  501    0  0.00000000000E+00  0.00000000000E+00  0.11673774812E+04  0.11673774812E+04  0.25500000920E-02 0. -1.
       -2   -1    0    0    0  501  0.00000000000E+00  0.00000000000E+00 -0.10540365850E+03  0.10540365853E+03  0.25500000920E-02 0.  1.
    10030    2    1    2    0    0  0.00000000000E+00  0.00000000000E+00  0.10619738227E+04  0.12727811398E+04  0.70155785903E+03 0.  0.
        5    1    3    3  502    0 -0.12728956129E+01  0.43734017964E+02 -0.10037635721E+03  0.10959830143E+03  0.46999998093E+01 0.  1.
       -5    1    3    3    0  502  0.12728956129E+01 -0.43734017964E+02  0.11623501800E+04  0.11631828384E+04  0.46999998093E+01 0. -1.
</event>
<event>
 5   0  0.1884172E-02  0.6868638E+03  0.7818609E-02  0.9739964E-01
        1   -1    0    0  501    0  0.00000000000E+00  0.00000000000E+00  0.68028753648E+03  0.68028753650E+03  0.50400001928E-02 0. -1.
       -1   -1    0    0    0  501  0.00000000000E+00  0.00000000000E+00 -0.17337590874E+03  0.17337590882E+03  0.50400001928E-02 0.  1.
    10030    2    1    2    0    0  0.00000000000E+00  0.00000000000E+00  0.50691162774E+03  0.85366344532E+03  0.68686379984E+03 0.  0.
        3    1    3    3  502    0 -0.28820503943E+02 -0.19698357932E+03 -0.94345379482E+02  0.22030481792E+03  0.10100000352E+00 0.  1.
       -3    1    3    3    0  502  0.28820503943E+02  0.19698357932E+03  0.60125700722E+03  0.63335862740E+03  0.10100000352E+00 0. -1.
</event>
<event>
 5   0  0.1858013E-02  0.6876515E+03  0.7818609E-02  0.9738586E-01
       -1   -1    0    0    0  501  0.00000000000E+00  0.00000000000E+00  0.73013196950E+03  0.73013196952E+03  0.50400001928E-02 0.  1.
        1   -1    0    0  501    0  0.00000000000E+00  0.00000000000E+00 -0.16191065540E+03  0.16191065548E+03  0.50400001928E-02 0. -1.
    10030    2    1    2    0    0  0.00000000000E+00  0.00000000000E+00  0.56822131410E+03  0.89204262500E+03  0.68765149823E+03 0.  0.
        2    1    3    3  502    0 -0.85554952696E+02  0.19192824394E+03 -0.68917381105E+02  0.22114634562E+03  0.25500000920E-02 0. -1.
       -2    1    3    3    0  502  0.85554952696E+02 -0.19192824394E+03  0.63713869520E+03  0.67089627938E+03  0.25500000920E-02 0.  1.
</event>
<event>
 5   0  0.3113940E-02  0.6971499E+03  0.7818609E-02  0.9722119E-01
       -2   -1    0    0    0  501  0.00000000000E+00  0.00000000000E+00  0.30830265518E+03  0.30830265519E+03  0.25500000920E-02 0.  1.
        2   -1    0    0  501    0  0.00000000000E+00  0.00000000000E+00 -0.39410787941E+03  0.39410787942E+03  0.25500000920E-02 0. -1.
    10030    2    1    2    0    0  0.00000000000E+00  0.00000000000E+00 -0.85805224228E+02  0.70241053461E+03  0.69714992836E+03 0.  0.
        5    1    3    3  502    0  0.43535477285E+02 -0.10062165493E+03  0.29044491200E+03  0.31048412540E+03  0.46999998093E+01 0.  1.
       -5    1    3    3    0  502 -0.43535477285E+02  0.10062165493E+03 -0.37625013623E+03  0.39192640920E+03  0.46999998093E+01 0. -1.
</event>
<event>
 5   0  0.1884172E-02  0.6541125E+03  0.7818609E-02  0.9799093E-01
       -1   -1    0    0    0  501  0.00000000000E+00  0.00000000000E+00  0.70687961128E+02  0.70687961308E+02  0.50400001928E-02 0. -1.
        1   -1    0    0  501    0  0.00000000000E+00  0.00000000000E+00 -0.15132108304E+04  0.15132108304E+04  0.50400001928E-02 0.  1.
    10030    2    1    2    0    0  0.00000000000E+00  0.00000000000E+00 -0.14425228693E+04  0.15838987917E+04  0.65411249340E+03 0.  0.
        3    1    3    3  502    0 -0.67586751051E+02  0.17265902500E+03 -0.13736456150E+04  0.13861029521E+04  0.10100000352E+00 0.  1.
       -3    1    3    3    0  502  0.67586751051E+02 -0.17265902500E+03 -0.68877254247E+02  0.19779583966E+03  0.10100000352E+00 0. -1.
</event>
<event>
 5   0  0.1884172E-02  0.6776527E+03  0.7818609E-02  0.9756231E-01
        1   -1    0    0  501    0  0.00000000000E+00  0.00000000000E+00  0.34612227179E+03  0.34612227182E+03  0.50400001928E-02 0.  1.
       -1   -1    0    0    0  501  0.00000000000E+00  0.00000000000E+00 -0.33168423868E+03  0.33168423872E+03  0.50400001928E-02 0. -1.
    10030    2    1    2    0    0  0.00000000000E+00  0.00000000000E+00  0.14438033105E+02  0.67780651055E+03  0.67765272001E+03 0.  0.
        3    1    3    3  502    0  0.31726302869E+03 -0.59939189676E+02  0.10997867527E+03  0.34109215038E+03  0.10100000352E+00 0. -1.
       -3    1    3    3    0  502 -0.31726302869E+03  0.59939189676E+02 -0.95540642168E+02  0.33671436017E+03  0.10100000352E+00 0.  1.
</event>
<event>
 5   0  0.1884172E-02  0.6940783E+03  0.7818609E-02  0.9727413E-01
       -1   -1    0    0    0  501  0.00000000000E+00  0.00000000000E+00  0.34473699381E+03  0.34473699385E+03  0.50400001928E-02 0.  1.
        1   -1    0    0  501    0  0.00000000000E+00  0.00000000000E+00 -0.34935667411E+03  0.34935667415E+03  0.50400001928E-02 0. -1.
    10030    2    1    2    0    0  0.00000000000E+00  0.00000000000E+00 -0.46196803031E+01  0.69409366800E+03  0.69407829422E+03 0.  0.
        3    1    3    3  502    0  0.20162892015E+03 -0.23314106416E+03  0.15715272167E+03  0.34598549878E+03  0.10100000352E+00 0.  1.
       -3    1    3    3    0  502 -0.20162892015E+03  0.23314106416E+03 -0.16177240197E+03  0.34810816922E+03  0.10100000352E+00 0. -1.
</event>
<event>
 5   0  0.1233912E-02  0.6841290E+03  0.7818609E-02  0.9744765E-01
       -4   -1    0    0    0  501  0.00000000000E+00  0.00000000000E+00  0.22422725813E+03  0.22423085468E+03  0.12699999809E+01 0. -1.
        4   -1    0    0  501    0  0.00000000000E+00  0.00000000000E+00 -0.52181975951E+03  0.52182130496E+03  0.12699999809E+01 0.  1.
    10030    2    1    2    0    0  0.00000000000E+00  0.00000000000E+00 -0.29759250137E+03  0.74605215964E+03  0.68412902879E+03 0.  0.
        1    1    3    3  502    0 -0.19714953998E+03 -0.14111438169E+03  0.11434751799E+03  0.26806074820E+03  0.50400001928E-02 0. -1.
       -1    1    3    3    0  502  0.19714953998E+03  0.14111438169E+03 -0.41194001936E+03  0.47799141144E+03  0.50400001928E-02 0.  1.
</event>
<event>
 5   0  0.1951465E-02  0.6985305E+03  0.7818609E-02  0.9719748E-01
        1   -1    0    0  501    0  0.00000000000E+00  0.00000000000E+00  0.15816072970E+04  0.15816072970E+04  0.50400001928E-02 0.  1.
       -1   -1    0    0    0  501  0.00000000000E+00  0.00000000000E+00 -0.77128009626E+02  0.77128009791E+02  0.50400001928E-02 0. -1.
    10030    2    1    2    0    0  0.00000000000E+00  0.00000000000E+00  0.15044792873E+04  0.16587353068E+04  0.69853052322E+03 0.  0.
        4    1    3    3  502    0 -0.31705967097E+02 -0.53247382399E+02  0.15684416215E+04  0.15696659788E+04  0.12699999809E+01 0.  1.
       -4    1    3    3    0  502  0.31705967097E+02  0.53247382399E+02 -0.63962334190E+02  0.89069327924E+02  0.12699999809E+01 0. -1.
</event>
<event>
 5   0  0.1858013E-02  0.7195525E+03  0.7818609E-02  0.9684367E-01
       -1   -1    0    0    0  501  0.00000000000E+00  0.00000000000E+00  0.10335876506E+04  0.10335876506E+04  0.50400001928E-02 0. -1.
        1   -1    0    0  501    0  0.00000000000E+00  0.00000000000E+00 -0.12523269441E+03  0.12523269451E+03  0.50400001928E-02 0.  1.
    10030    2    1    2    0    0  0.00000000000E+00  0.00000000000E+00  0.90835495615E+03  0.11588203451E+04  0.71955254555E+03 0.  0.
        2    1    3    3  502    0  0.17853152476E+03 -0.29222336494E+03  0.63184830505E+03  0.71867953981E+03  0.25500000920E-02 0. -1.
       -2    1    3    3    0  502 -0.17853152476E+03  0.29222336494E+03  0.27650665110E+03  0.44014080527E+03  0.25500000920E-02 0.  1.
</event>
<event>
 5   0  0.3184443E-02  0.6965846E+03  0.7818609E-02  0.9723091E-01
       -2   -1    0    0    0  501  0.00000000000E+00  0.00000000000E+00  0.20401930812E+03  0.20401930814E+03  0.25500000920E-02 0. -1.
        2   -1    0    0  501    0  0.00000000000E+00  0.00000000000E+00 -0.59458841882E+03  0.59458841883E+03  0.25500000920E-02 0.  1.
    10030    2    1    2    0    0  0.00000000000E+00  0.00000000000E+00 -0.39056911070E+03  0.79860772696E+03  0.69658457586E+03 0.  0.
        3    1    3    3  502    0  0.26482957727E+03  0.22571296489E+03 -0.17803191721E+03  0.39086624472E+03  0.10100000352E+00 0. -1.
       -3    1    3    3    0  502 -0.26482957727E+03 -0.22571296489E+03 -0.21253719349E+03  0.40774148224E+03  0.10100000352E+00 0.  1.
</event>
<event>
 5   0  0.3183963E-02  0.7020993E+03  0.7818609E-02  0.9713649E-01
        2   -1    0    0  501    0  0.00000000000E+00  0.00000000000E+00  0.19214658279E+04  0.19214658279E+04  0.25500000920E-02 0.  1.
       -2   -1    0    0    0  501  0.00000000000E+00  0.00000000000E+00 -0.64136379588E+02  0.64136379638E+02  0.25500000920E-02 0. -1.
    10030    2    1    2    0    0  0.00000000000E+00  0.00000000000E+00  0.18573294483E+04  0.19856022075E+04  0.70209931421E+03 0.  0.
        4    1    3    3  502    0 -0.54532629589E+02  0.34480490738E+03  0.10333430284E+04  0.10907170389E+04  0.12699999809E+01 0. -1.
       -4    1    3    3    0  502  0.54532629589E+02 -0.34480490738E+03  0.82398641993E+03  0.89488516860E+03  0.12699999809E+01 0.  1.
</event>
<event>
 5   0  0.3183963E-02  0.6334949E+03  0.7818609E-02  0.9838252E-01
       -2   -1    0    0    0  501  0.00000000000E+00  0.00000000000E+00  0.64325423105E+02  0.64325423155E+02  0.25500000920E-02 0.  1.
        2   -1    0    0  501    0  0.00000000000E+00  0.00000000000E+00 -0.15597091123E+04  0.15597091123E+04  0.25500000920E-02 0. -1.
    10030    2    1    2    0    0  0.00000000000E+00  0.00000000000E+00 -0.14953836892E+04  0.16240345355E+04  0.63349490484E+03 0.  0.
        4    1    3    3  502    0  0.16358096911E+03 -0.52174357013E+02 -0.14300480514E+04  0.14403193879E+04  0.12699999809E+01 0. -1.
       -4    1    3    3    0  502 -0.16358096911E+03  0.52174357013E+02 -0.65335637854E+02  0.18371514760E+03  0.12699999809E+01 0.  1.
</event>
<event>
 5   0  0.1839038E-02  0.7208219E+03  0.7818609E-02  0.9682272E-01
       -1   -1    0    0    0  501  0.00000000000E+00  0.00000000000E+00  0.15736675884E+03  0.15736675892E+03  0.50400001928E-02 0. -1.
        1   -1    0    0  501    0  0.00000000000E+00  0.00000000000E+00 -0.82543517981E+03  0.82543517983E+03  0.50400001928E-02 0.  1.
    10030    2    1    2    0    0  0.00000000000E+00  0.00000000000E+00 -0.66806842098E+03  0.98280193875E+03  0.72082191677E+03 0.  0.
        5    1    3    3  502    0  0.18413819008E+03  0.42069300282E+02 -0.75249732144E+03  0.77585501728E+03  0.46999998093E+01 0.  1.
       -5    1    3    3    0  502 -0.18413819008E+03 -0.42069300282E+02  0.84428900463E+02  0.20694692146E+03  0.46999998093E+01 0. -1.
</event>
<event>
 5   0  0.1884172E-02  0.7012388E+03  0.7818609E-02  0.9715116E-01
        1   -1    0    0  501    0  0.00000000000E+00  0.00000000000E+00  0.93822966921E+03  0.93822966922E+03  0.50400001928E-02 0.  1.
       -1   -1    0    0    0  501  0.00000000000E+00  0.00000000000E+00 -0.13102758917E+03  0.13102758927E+03  0.50400001928E-02 0. -1.
    10030    2    1    2    0    0  0.00000000000E+00  0.00000000000E+00  0.80720208004E+03  0.10692572585E+04  0.70123882296E+03 0.  0.
        3    1    3    3  502    0  0.81913195849E+02 -0.26232949915E+03  0.73560207109E+03  0.78526234787E+03  0.10100000352E+00 0.  1.
       -3    1    3    3    0  502 -0.81913195849E+02  0.26232949915E+03  0.71600008945E+02  0.28399491063E+03  0.10100000352E+00 0. -1.
</event>
<event>
 5   0  0.3183963E-02  0.6884565E+03  0.7818609E-02  0.9737179E-01
        2   -1    0    0  501    0  0.00000000000E+00  0.00000000000E+00  0.16365540735E+03  0.16365540737E+03  0.25500000920E-02 0. -1.
       -2   -1    0    0    0  501  0.00000000000E+00  0.00000000000E+00 -0.72404013162E+03  0.72404013163E+03  0.25500000920E-02 0.  1.
    10030    2    1    2    0    0  0.00000000000E+00  0.00000000000E+00 -0.56038472427E+03  0.88769553900E+03  0.68845648430E+03 0.  0.
        4    1    3    3  502    0 -0.44843798172E+02 -0.34126903419E+03 -0.28534187350E+03  0.44709855468E+03  0.12699999809E+01 0.  1.
       -4    1    3    3    0  502  0.44843798172E+02  0.34126903419E+03 -0.27504285077E+03  0.44059698432E+03  0.12699999809E+01 0. -1.
</event>
<event>
 5   0  0.3113940E-02  0.7025139E+03  0.7818609E-02  0.9712943E-01
        2   -1    0    0  501    0  0.00000000000E+00  0.00000000000E+00  0.84984910200E+03  0.84984910200E+03  0.25500000920E-02 0. -1.
       -2   -1    0    0    0  501  0.00000000000E+00  0.00000000000E+00 -0.14518040293E+03  0.14518040295E+03  0.25500000920E-02 0.  1.
    10030    2    1    2    0    0  0.00000000000E+00  0.00000000000E+00  0.70466869908E+03  0.99502950495E+03  0.70251387194E+03 0.  0.
        5    1    3    3  502    0  0.82391452753E+01 -0.23530778309E+03 -0.16800761661E+02  0.23609742033E+03  0.46999998093E+01 0.  1.
       -5    1    3    3    0  502 -0.82391452753E+01  0.23530778309E+03  0.72146946074E+03  0.75893208462E+03  0.46999998093E+01 0. -1.
</event>
<event>
 5   0  0.1839038E-02  0.6855176E+03  0.7818609E-02  0.9742325E-01
       -1   -1    0    0    0  501  0.00000000000E+00  0.00000000000E+00  0.34324959321E+03  0.34324959325E+03  0.50400001928E-02 0.  1.
        1   -1    0    0  501    0  0.00000000000E+00  0.00000000000E+00 -0.34226868590E+03  0.34226868594E+03  0.50400001928E-02 0. -1.
    10030    2    1    2    0    0  0.00000000000E+00  0.00000000000E+00  0.98090731090E+00  0.68551827918E+03  0.68551757739E+03 0.  0.
        5    1    3    3  502    0 -0.71846644050E+02  0.30324009287E+03  0.14312651045E+03  0.34296323736E+03  0.46999998093E+01 0.  1.
       -5    1    3    3    0  502  0.71846644050E+02 -0.30324009287E+03 -0.14214560314E+03  0.34255504182E+03  0.46999998093E+01 0. -1.
</event>
<event>
 5   0  0.1884172E-02  0.6735770E+03  0.7818609E-02  0.9763517E-01
       -1   -1    0    0    0  501  0.00000000000E+00  0.00000000000E+00  0.82790754368E+02  0.82790754522E+02  0.50400001928E-02 0. -1.
        1   -1    0    0  501    0  0.00000000000E+00  0.00000000000E+00 -0.13700382827E+04  0.13700382827E+04  0.50400001928E-02 0.  1.
    10030    2    1    2    0    0  0.00000000000E+00  0.00000000000E+00 -0.12872475283E+04  0.14528290372E+04  0.67357702767E+03 0.  0.
        3    1    3    3  502    0  0.61234445132E+02 -0.12162046029E+03 -0.13080193065E+04  0.13150877195E+04  0.10100000352E+00 0.  1.
       -3    1    3    3    0  502 -0.61234445132E+02  0.12162046029E+03  0.20771778185E+02  0.13774131770E+03  0.10100000352E+00 0. -1.
</event>
<event>
 5   0  0.2933851E-02  0.7042040E+03  0.7818609E-02  0.9710070E-01
       -2   -1    0    0    0  501  0.00000000000E+00  0.00000000000E+00  0.15059985636E+03  0.15059985638E+03  0.25500000920E-02 0.  1.
        2   -1    0    0  501    0  0.00000000000E+00  0.00000000000E+00 -0.82321348502E+03  0.82321348503E+03  0.25500000920E-02 0. -1.
    10030    2    1    2    0    0  0.00000000000E+00  0.00000000000E+00 -0.67261362867E+03  0.97381334141E+03  0.70420404034E+03 0.  0.
        2    1    3    3  502    0 -0.12289356212E+03  0.24980839954E+03 -0.38209688111E+02  0.28101075489E+03  0.25500000920E-02 0.  1.
       -2    1    3    3    0  502  0.12289356212E+03 -0.24980839954E+03 -0.63440394055E+03  0.69280258652E+03  0.25500000920E-02 0. -1.
</event>
<event>
 5   0  0.3113940E-02  0.6946086E+03  0.7818609E-02  0.9726497E-01
        2   -1    0    0  501    0  0.00000000000E+00  0.00000000000E+00  0.10359572960E+04  0.10359572960E+04  0.25500000920E-02 0.  1.
       -2   -1    0    0    0  501  0.00000000000E+00  0.00000000000E+00 -0.11643364935E+03  0.11643364938E+03  0.25500000920E-02 0. -1.
    10030    2    1    2    0    0  0.00000000000E+00  0.00000000000E+00  0.91952364663E+03  0.11523909454E+04  0.69460863388E+03 0.  0.
        5    1    3    3  502    0 -0.10443791056E+03 -0.18314525554E+03  0.19457757580E+01  0.21089176805E+03  0.46999998093E+01 0. -1.
       -5    1    3    3    0  502  0.10443791056E+03  0.18314525554E+03  0.91757787088E+03  0.94149917733E+03  0.46999998093E+01 0.  1.
</event>
<event>
 5   0  0.3290656E-02  0.6963284E+03  0.7818609E-02  0.9723532E-01
       -2   -1    0    0    0  501  0.00000000000E+00  0.00000000000E+00  0.88242889380E+03  0.88242889381E+03  0.25500000920E-02 0.  1.
        2   -1    0    0  501    0  0.00000000000E+00  0.00000000000E+00 -0.13736892511E+03  0.13736892513E+03  0.25500000920E-02 0. -1.
    10030    2    1    2    0    0  0.00000000000E+00  0.00000000000E+00  0.74505996869E+03  0.10197978189E+04  0.69632839564E+03 0.  0.
        1    1    3    3  502    0 -0.12244078236E+03 -0.13561360875E+03 -0.61515300865E+02  0.19278726184E+03  0.50400001928E-02 0. -1.
       -1    1    3    3    0  502  0.12244078236E+03  0.13561360875E+03  0.80657526956E+03  0.82701055710E+03  0.50400001928E-02 0.  1.
</event>
<event>
 5   0  0.3183963E-02  0.7030710E+03  0.7818609E-02  0.9711995E-01
        2   -1    0    0  501    0  0.00000000000E+00  0.00000000000E+00  0.84362366885E+03  0.84362366886E+03  0.25500000920E-02 0. -1.
       -2   -1    0    0    0  501  0.00000000000E+00  0.00000000000E+00 -0.14648381652E+03  0.14648381654E+03  0.25500000920E-02 0.  1.
    10030    2    1    2    0    0  0.00000000000E+00  0.00000000000E+00  0.69713985233E+03  0.99010748540E+03  0.70307101983E+03 0.  0.
        4    1    3    3  502    0 -0.34184639043E+03  0.16875256196E+01  0.46395970175E+03  0.57630028643E+03  0.12699999809E+01 0. -1.
       -4    1    3    3    0  502  0.34184639043E+03 -0.16875256196E+01  0.23318015058E+03  0.41380719897E+03  0.12699999809E+01 0.  1.
</event>
<event>
 5   0  0.3113940E-02  0.6897561E+03  0.7818609E-02  0.9734913E-01
        2   -1    0    0  501    0  0.00000000000E+00  0.00000000000E+00  0.12960769382E+04  0.12960769382E+04  0.25500000920E-02 0.  1.
       -2   -1    0    0    0  501  0.00000000000E+00  0.00000000000E+00 -0.91769922033E+02  0.91769922068E+02  0.25500000920E-02 0. -1.
    10030    2    1    2    0    0  0.00000000000E+00  0.00000000000E+00  0.12043070162E+04  0.13878468603E+04  0.68975612964E+03 0.  0.
        5    1    3    3  502    0  0.37422013197E+02  0.23866681327E+03  0.10972917684E+04  0.11235806913E+04  0.46999998093E+01 0.  1.
       -5    1    3    3    0  502 -0.37422013197E+02 -0.23866681327E+03  0.10701524779E+03  0.26426616901E+03  0.46999998093E+01 0. -1.
</event>
<event>
 5   0  0.3184443E-02  0.6941868E+03  0.7818609E-02  0.9727225E-01
        2   -1    0    0  501    0  0.00000000000E+00  0.00000000000E+00  0.70812550719E+03  0.70812550720E+03  0.25500000920E-02 0.  1.
       -2   -1    0    0    0  501  0.00000000000E+00  0.00000000000E+00 -0.17013063751E+03  0.17013063753E+03  0.25500000920E-02 0. -1.
    10030    2    1    2    0    0  0.00000000000E+00  0.00000000000E+00  0.53799486968E+03  0.87825614473E+03  0.69418684513E+03 0.  0.
        3    1    3    3  502    0  0.23146993897E+03 -0.11987680247E+02  0.59586836377E+03  0.63935995673E+03  0.10100000352E+00 0.  1.
       -3    1    3    3    0  502 -0.23146993897E+03  0.11987680247E+02 -0.57873494092E+02  0.23889618800E+03  0.10100000352E+00 0. -1.
</event>
<event>
 5   0  0.1858013E-02  0.6960184E+03  0.7818609E-02  0.9724066E-01
       -1   -1    0    0    0  501  0.00000000000E+00  0.00000000000E+00  0.10393751332E+03  0.10393751344E+03  0.50400001928E-02 0. -1.
        1   -1    0    0  501    0  0.00000000000E+00  0.00000000000E+00 -0.11652230471E+04  0.11652230471E+04  0.50400001928E-02 0.  1.
    10030    2    1    2    0    0  0.00000000000E+00  0.00000000000E+00 -0.10612855338E+04  0.12691605605E+04  0.69601835050E+03 0.  0.
        2    1    3    3  502    0 -0.13907147985E+03  0.12369792677E+03  0.55542824533E+01  0.18620661550E+03  0.25500000920E-02 0. -1.
       -2    1    3    3    0  502  0.13907147985E+03 -0.12369792677E+03 -0.10668398162E+04  0.10829539450E+04  0.25500000920E-02 0.  1.
</event>
<event>
 5   0  0.3113940E-02  0.7010931E+03  0.7818609E-02  0.9715365E-01
       -2   -1    0    0    0  501  0.00000000000E+00  0.00000000000E+00  0.42337427143E+03  0.42337427144E+03  0.25500000920E-02 0.  1.
        2   -1    0    0  501    0  0.00000000000E+00  0.00000000000E+00 -0.29024647801E+03  0.29024647802E+03  0.25500000920E-02 0. -1.
    10030    2    1    2    0    0  0.00000000000E+00  0.00000000000E+00  0.13312779342E+03  0.71362074946E+03  0.70109312127E+03 0.  0.
        5    1    3    3  502    0 -0.16787898421E+03 -0.19546518156E+03 -0.17531822763E+03  0.31168663988E+03  0.46999998093E+01 0. -1.
       -5    1    3    3    0  502  0.16787898421E+03  0.19546518156E+03  0.30844602105E+03  0.40193410958E+03  0.46999998093E+01 0.  1.
</event>
<event>
 5   0  0.1839038E-02  0.6933596E+03  0.7818609E-02  0.9728656E-01
       -1   -1    0    0    0  501  0.00000000000E+00  0.00000000000E+00  0.63514116954E+02  0.63514117154E+02  0.50400001928E-02 0.  1.
        1   -1    0    0  501    0  0.00000000000E+00  0.00000000000E+00 -0.18922859579E+04  0.18922859579E+04  0.50400001928E-02 0. -1.
    10030    2    1    2    0    0  0.00000000000E+00  0.00000000000E+00 -0.18287718410E+04  0.19558000751E+04  0.69335956572E+03 0.  0.
        5    1    3    3  502    0  0.26256306001E+02  0.14493468149E+03 -0.17995350168E+04  0.18055591439E+04  0.46999998093E+01 0. -1.
       -5    1    3    3    0  502 -0.26256306001E+02 -0.14493468149E+03 -0.29236824139E+02  0.15024093113E+03  0.46999998093E+01 0.  1.
</event>
<event>
 5   0  0.1839038E-02  0.7031646E+03  0.7818609E-02  0.9711836E-01
       -1   -1    0    0    0  501  0.00000000000E+00  0.00000000000E+00  0.15859083230E+03  0.15859083238E+03  0.50400001928E-02 0. -1.
        1   -1    0    0  501    0  0.00000000000E+00  0.00000000000E+00 -0.77942786273E+03  0.77942786275E+03  0.50400001928E-02 0.  1.
    10030    2    1    2    0    0  0.00000000000E+00  0.00000000000E+00 -0.62083703044E+03  0.93801869513E+03  0.70316459954E+03 0.  0.
        5    1    3    3  502    0  0.11250524625E+02 -0.14524255546E+02  0.15790809211E+03  0.15904271079E+03  0.46999998093E+01 0. -1.
       -5    1    3    3    0  502 -0.11250524625E+02  0.14524255546E+02 -0.77874512254E+03  0.77897598434E+03  0.46999998093E+01 0.  1.
</event>
<event>
 5   0  0.1839038E-02  0.6996095E+03  0.7818609E-02  0.9717900E-01
       -1   -1    0    0    0  501  0.00000000000E+00  0.00000000000E+00  0.15663152286E+03  0.15663152294E+03  0.50400001928E-02 0.  1.
        1   -1    0    0  501    0  0.00000000000E+00  0.00000000000E+00 -0.78121796366E+03  0.78121796368E+03  0.50400001928E-02 0. -1.
    10030    2    1    2    0    0  0.00000000000E+00  0.00000000000E+00 -0.62458644080E+03  0.93784948662E+03  0.69960948931E+03 0.  0.
        5    1    3    3  502    0 -0.21566721474E+03  0.27125623569E+03 -0.24872062980E+03  0.42658684297E+03  0.46999998093E+01 0.  1.
       -5    1    3    3    0  502  0.21566721474E+03 -0.27125623569E+03 -0.37586581100E+03  0.51126264365E+03  0.46999998093E+01 0. -1.
</event>
<event>
 5   0  0.1951465E-02  0.6986248E+03  0.7818609E-02  0.9719587E-01
       -1   -1    0    0    0  501  0.00000000000E+00  0.00000000000E+00  0.93179568678E+03  0.93179568679E+03  0.50400001928E-02 0.  1.
        1   -1    0    0  501    0  0.00000000000E+00  0.00000000000E+00 -0.13095056043E+03  0.13095056052E+03  0.50400001928E-02 0. -1.
    10030    2    1    2    0    0  0.00000000000E+00  0.00000000000E+00  0.80084512635E+03  0.10627462473E+04  0.69862484194E+03 0.  0.
        4    1    3    3  502    0 -0.34751364184E+03 -0.26787005837E+02  0.43558426218E+03  0.55786964185E+03  0.12699999809E+01 0. -1.
       -4    1    3    3    0  502  0.34751364184E+03  0.26787005837E+02  0.36526086417E+03  0.50487660546E+03  0.12699999809E+01 0.  1.
</event>
<event>
 5   0  0.3184443E-02  0.7069056E+03  0.7818609E-02  0.9705495E-01
       -2   -1    0    0    0  501  0.00000000000E+00  0.00000000000E+00  0.42575709935E+03  0.42575709936E+03  0.25500000920E-02 0.  1.
        2   -1    0    0  501    0  0.00000000000E+00  0.00000000000E+00 -0.29342757304E+03  0.29342757305E+03  0.25500000920E-02 0. -1.
    10030    2    1    2    0    0  0.00000000000E+00  0.00000000000E+00  0.13232952631E+03  0.71918467240E+03  0.70690557325E+03 0.  0.
        3    1    3    3  502    0  0.21843783116E+03  0.14234014923E+03  0.30895853454E+03  0.40426623707E+03  0.10100000352E+00 0.  1.
       -3    1    3    3    0  502 -0.21843783116E+03 -0.14234014923E+03 -0.17662900823E+03  0.31491843534E+03  0.10100000352E+00 0. -1.
</event>
<event>
 5   0  0.1233912E-02  0.6846814E+03  0.7818609E-02  0.9743794E-01
       -4   -1    0    0    0  501  0.00000000000E+00  0.00000000000E+00  0.11644873634E+04  0.11644880559E+04  0.12699999809E+01 0. -1.
        4   -1    0    0  501    0  0.00000000000E+00  0.00000000000E+00 -0.10063797777E+03  0.10064599082E+03  0.12699999809E+01 0.  1.
    10030    2    1    2    0    0  0.00000000000E+00  0.00000000000E+00  0.10638493856E+04  0.12651340468E+04  0.68468141567E+03 0.  0.
        4    1    3    3  502    0  0.14281379608E+03  0.21238466703E+03  0.95203356805E+03  0.98583596746E+03  0.12699999809E+01 0. -1.
       -4    1    3    3    0  502 -0.14281379608E+03 -0.21238466703E+03  0.11181581757E+03  0.27929807929E+03  0.12699999809E+01 0.  1.
</event>
<event>
 5   0  0.1951465E-02  0.6960077E+03  0.7818609E-02  0.9724084E-01
       -1   -1    0    0    0  501  0.00000000000E+00  0.00000000000E+00  0.14603504646E+03  0.14603504655E+03  0.50400001928E-02 0. -1.
        1   -1    0    0  501    0  0.00000000000E+00  0.00000000000E+00 -0.82929877042E+03  0.82929877043E+03  0.50400001928E-02 0.  1.
    10030    2    1    2    0    0  0.00000000000E+00  0.00000000000E+00 -0.68326372395E+03  0.97533381698E+03  0.69600771410E+03 0.  0.
        4    1    3    3  502    0 -0.16483751737E+03  0.18055605897E+02  0.87109045489E+02  0.18731527099E+03  0.12699999809E+01 0. -1.
       -4    1    3    3    0  502  0.16483751737E+03 -0.18055605897E+02 -0.77037276944E+03  0.78801854600E+03  0.12699999809E+01 0.  1.
</event>
<event>
 5   0  0.2933851E-02  0.7024413E+03  0.7818609E-02  0.9713066E-01
        2   -1    0    0  501    0  0.00000000000E+00  0.00000000000E+00  0.27356071670E+04  0.27356071670E+04  0.25500000920E-02 0. -1.
       -2   -1    0    0    0  501  0.00000000000E+00  0.00000000000E+00 -0.45092712540E+02  0.45092712612E+02  0.25500000920E-02 0.  1.
    10030    2    1    2    0    0  0.00000000000E+00  0.00000000000E+00  0.26905144545E+04  0.27806998796E+04  0.70244130775E+03 0.  0.
        2    1    3    3  502    0  0.14507568026E+03  0.69962379109E+02  0.10972139894E+03  0.19488579447E+03  0.25500000920E-02 0.  1.
       -2    1    3    3    0  502 -0.14507568026E+03 -0.69962379109E+02  0.25807930555E+04  0.25858140852E+04  0.25500000920E-02 0. -1.
</event>
<event>
 5   0  0.2933851E-02  0.6989541E+03  0.7818609E-02  0.9719022E-01
        2   -1    0    0  501    0  0.00000000000E+00  0.00000000000E+00  0.36196523612E+03  0.36196523613E+03  0.25500000920E-02 0. -1.
       -2   -1    0    0    0  501  0.00000000000E+00  0.00000000000E+00 -0.33741976695E+03  0.33741976696E+03  0.25500000920E-02 0.  1.
    10030    2    1    2    0    0  0.00000000000E+00  0.00000000000E+00  0.24545469168E+02  0.69938500309E+03  0.69895414906E+03 0.  0.
        2    1    3    3  502    0 -0.38206573667E+02 -0.22160283755E+03  0.27995710869E+03  0.35908709611E+03  0.25500000920E-02 0. -1.
       -2    1    3    3    0  502  0.38206573667E+02  0.22160283755E+03 -0.25541163952E+03  0.34029790697E+03  0.25500000920E-02 0.  1.
</event>
<event>
 5   0  0.1951465E-02  0.6998854E+03  0.7818609E-02  0.9717428E-01
        1   -1    0    0  501    0  0.00000000000E+00  0.00000000000E+00  0.33839760543E+03  0.33839760547E+03  0.50400001928E-02 0.  1.
       -1   -1    0    0    0  501  0.00000000000E+00  0.00000000000E+00 -0.36188163094E+03  0.36188163097E+03  0.50400001928E-02 0. -1.
    10030    2    1    2    0    0  0.00000000000E+00  0.00000000000E+00 -0.23484025506E+02  0.70027923644E+03  0.69988535457E+03 0.  0.
        4    1    3    3  502    0 -0.30146556908E+03 -0.15576606257E+03 -0.97310366932E+02  0.35300917269E+03  0.12699999809E+01 0.  1.
       -4    1    3    3    0  502  0.30146556908E+03  0.15576606257E+03  0.73826341426E+02  0.34727006375E+03  0.12699999809E+01 0. -1.
</event>
<event>
 5   0  0.3113940E-02  0.7024504E+03  0.7818609E-02  0.9713051E-01
       -2   -1    0    0    0  501  0.00000000000E+00  0.00000000000E+00  0.30239313695E+03  0.30239313696E+03  0.25500000920E-02 0. -1.
        2   -1    0    0  501    0  0.00000000000E+00  0.00000000000E+00 -0.40794297998E+03  0.40794297998E+03  0.25500000920E-02 0.  1.
    10030    2    1    2    0    0  0.00000000000E+00  0.00000000000E+00 -0.10554984303E+03  0.71033611694E+03  0.70245044641E+03 0.  0.
        5    1    3    3  502    0  0.20252277371E+02  0.17047866977E+03  0.25703661414E+03  0.30913272650E+03  0.46999998093E+01 0. -1.
       -5    1    3    3    0  502 -0.20252277371E+02 -0.17047866977E+03 -0.36258645717E+03  0.40120339044E+03  0.46999998093E+01 0.  1.
</event>
<event>
 5   0  0.1884172E-02  0.6974076E+03  0.7818609E-02  0.9721676E-01
        1   -1    0    0  501    0  0.00000000000E+00  0.00000000000E+00  0.22848523748E+03  0.22848523754E+03  0.50400001928E-02 0.  1.
       -1   -1    0    0    0  501  0.00000000000E+00  0.00000000000E+00 -0.53217589735E+03  0.53217589737E+03  0.50400001928E-02 0. -1.
    10030    2    1    2    0    0  0.00000000000E+00  0.00000000000E+00 -0.30369065987E+03  0.76066113491E+03  0.69740758906E+03 0.  0.
        3    1    3    3  502    0  0.25466578284E+03  0.49143874333E+02 -0.40606116897E+03  0.48182513890E+03  0.10100000352E+00 0. -1.
       -3    1    3    3    0  502 -0.25466578284E+03 -0.49143874333E+02  0.10237050910E+03  0.27883599601E+03  0.10100000352E+00 0.  1.
</event>
<event>
 5   0  0.3183963E-02  0.6997913E+03  0.7818609E-02  0.9717589E-01
       -2   -1    0    0    0  501  0.00000000000E+00  0.00000000000E+00  0.84635270027E+02  0.84635270065E+02  0.25500000920E-02 0.  1.
        2   -1    0    0  501    0  0.00000000000E+00  0.00000000000E+00 -0.14465240591E+04  0.14465240591E+04  0.25500000920E-02 0. -1.
    10030    2    1    2    0    0  0.00000000000E+00  0.00000000000E+00 -0.13618887890E+04  0.15311593291E+04  0.69979126708E+03 0.  0.
        4    1    3    3  502    0  0.42104943373E+02  0.22086337756E+03 -0.12675299710E+04  0.12873178699E+04  0.12699999809E+01 0. -1.
       -4    1    3    3    0  502 -0.42104943373E+02 -0.22086337756E+03 -0.94358818006E+02  0.24384145923E+03  0.12699999809E+01 0.  1.
</event>
<event>
 5   0  0.1233912E-02  0.6985518E+03  0.7818609E-02  0.9719712E-01
       -3   -1    0    0    0  501  0.00000000000E+00  0.00000000000E+00  0.62877345166E+03  0.62877345977E+03  0.10100000352E+00 0.  1.
        3   -1    0    0  501    0  0.00000000000E+00  0.00000000000E+00 -0.19401845290E+03  0.19401847918E+03  0.10100000352E+00 0. -1.
    10030    2    1    2    0    0  0.00000000000E+00  0.00000000000E+00  0.43475499876E+03  0.82279193895E+03  0.69855183477E+03 0.  0.
        4    1    3    3  502    0 -0.16256136022E+03  0.13009671710E+03  0.54768244861E+03  0.58592578801E+03  0.12699999809E+01 0.  1.
       -4    1    3    3    0  502  0.16256136022E+03 -0.13009671710E+03 -0.11292744985E+03  0.23686615095E+03  0.12699999809E+01 0. -1.
</event>
<event>
 5   0  0.1233912E-02  0.7109166E+03  0.7818609E-02  0.9698743E-01
       -4   -1    0    0    0  501  0.00000000000E+00  0.00000000000E+00  0.19328450208E+03  0.19328867438E+03  0.12699999809E+01 0. -1.
        4   -1    0    0  501    0  0.00000000000E+00  0.00000000000E+00 -0.65369079833E+03  0.65369203202E+03  0.12699999809E+01 0.  1.
    10030    2    1    2    0    0  0.00000000000E+00  0.00000000000E+00 -0.46040629625E+03  0.84698070640E+03  0.71091656288E+03 0.  0.
        4    1    3    3  502    0  0.23725011133E+03  0.35340363108E+02  0.82324397889E+02  0.25360496047E+03  0.12699999809E+01 0. -1.
       -4    1    3    3    0  502 -0.23725011133E+03 -0.35340363108E+02 -0.54273069414E+03  0.59337574592E+03  0.12699999809E+01 0.  1.
</event>
<event>
 5   0  0.1969818E-02  0.6797343E+03  0.7818609E-02  0.9752531E-01
        1   -1    0    0  501    0  0.00000000000E+00  0.00000000000E+00  0.12750420111E+04  0.12750420112E+04  0.50400001928E-02 0.  1.
       -1   -1    0    0    0  501  0.00000000000E+00  0.00000000000E+00 -0.90592841198E+02  0.90592841338E+02  0.50400001928E-02 0. -1.
    10030    2    1    2    0    0  0.00000000000E+00  0.00000000000E+00  0.11844491699E+04  0.13656348525E+04  0.67973429673E+03 0.  0.
        1    1    3    3  502    0 -0.31005159925E+03 -0.13865372942E+03  0.61706142593E+03  0.70435903790E+03  0.50400001928E-02 0.  1.
       -1    1    3    3    0  502  0.31005159925E+03  0.13865372942E+03  0.56738774402E+03  0.66127581460E+03  0.50400001928E-02 0. -1.
</event>
<event>
 5   0  0.1969818E-02  0.6978998E+03  0.7818609E-02  0.9720831E-01
       -1   -1    0    0    0  501  0.00000000000E+00  0.00000000000E+00  0.98235057129E+02  0.98235057258E+02  0.50400001928E-02 0.  1.
        1   -1    0    0  501    0  0.00000000000E+00  0.00000000000E+00 -0.12395373386E+04  0.12395373386E+04  0.50400001928E-02 0. -1.
    10030    2    1    2    0    0  0.00000000000E+00  0.00000000000E+00 -0.11413022815E+04  0.13377723959E+04  0.69789976749E+03 0.  0.
        1    1    3    3  502    0  0.93222229612E+02 -0.26723617407E+03 -0.17940395139E+03  0.33509899228E+03  0.50400001928E-02 0.  1.
       -1    1    3    3    0  502 -0.93222229612E+02  0.26723617407E+03 -0.96189833010E+03  0.10026734036E+04  0.50400001928E-02 0. -1.
</event>
<event>
 5   0  0.1884172E-02  0.6808335E+03  0.7818609E-02  0.9750583E-01
        1   -1    0    0  501    0  0.00000000000E+00  0.00000000000E+00  0.14080544515E+04  0.14080544515E+04  0.50400001928E-02 0.  1.
       -1   -1    0    0    0  501  0.00000000000E+00  0.00000000000E+00 -0.82300489577E+02  0.82300489731E+02  0.50400001928E-02 0. -1.
    10030    2    1    2    0    0  0.00000000000E+00  0.00000000000E+00  0.13257539619E+04  0.14903549412E+04  0.68083352100E+03 0.  0.
        3    1    3    3  502    0  0.11264438057E+03  0.29088218500E+03  0.96127724292E+03  0.10106211704E+04  0.10100000352E+00 0. -1.
       -3    1    3    3    0  502 -0.11264438057E+03 -0.29088218500E+03  0.36447671899E+03  0.47973377086E+03  0.10100000352E+00 0.  1.
</event>
<event>
 5   0  0.3183963E-02  0.7087358E+03  0.7818609E-02  0.9702408E-01
       -2   -1    0    0    0  501  0.00000000000E+00  0.00000000000E+00  0.24197655699E+03  0.24197655700E+03  0.25500000920E-02 0. -1.
        2   -1    0    0  501    0  0.00000000000E+00  0.00000000000E+00 -0.51896182777E+03  0.51896182777E+03  0.25500000920E-02 0.  1.
    10030    2    1    2    0    0  0.00000000000E+00  0.00000000000E+00 -0.27698527078E+03  0.76093838477E+03  0.70873576543E+03 0.  0.
        4    1    3    3  502    0  0.18413165368E+03 -0.34143270248E+02 -0.46149138446E+03  0.49804230706E+03  0.12699999809E+01 0.  1.
       -4    1    3    3    0  502 -0.18413165368E+03  0.34143270248E+02  0.18450611369E+03  0.26289607771E+03  0.12699999809E+01 0. -1.
</event>
<event>
 5   0  0.3290656E-02  0.6997270E+03  0.7818609E-02  0.9717699E-01
        2   -1    0    0  501    0  0.00000000000E+00  0.00000000000E+00  0.12873036625E+04  0.12873036625E+04  0.25500000920E-02 0.  1.
       -2   -1    0    0    0  501  0.00000000000E+00  0.00000000000E+00 -0.95085927145E+02  0.95085927179E+02  0.25500000920E-02 0. -1.
    10030    2    1    2    0    0  0.00000000000E+00  0.00000000000E+00  0.11922177354E+04  0.13823895897E+04  0.69972698188E+03 0.  0.
        1    1    3    3  502    0  0.29432238613E+03  0.15116109111E+03  0.82074846605E+03  0.88493128942E+03  0.50400001928E-02 0.  1.
       -1    1    3    3    0  502 -0.29432238613E+03 -0.15116109111E+03  0.37146926933E+03  0.49745830029E+03  0.50400001928E-02 0. -1.
</event>
<event>
 5   0  0.1233912E-02  0.7168291E+03  0.7818609E-02  0.9688877E-01
        4   -1    0    0  501    0  0.00000000000E+00  0.00000000000E+00  0.70864084245E+03  0.70864198048E+03  0.12699999809E+01 0.  1.
       -4   -1    0    0    0  501  0.00000000000E+00  0.00000000000E+00 -0.18127450204E+03  0.18127895076E+03  0.12699999809E+01 0. -1.
    10030    2    1    2    0    0  0.00000000000E+00  0.00000000000E+00  0.52736634042E+03  0.88992093123E+03  0.71682913365E+03 0.  0.
        4    1    3    3  502    0 -0.29095668123E+03  0.60041178420E+02  0.51259270719E+03  0.59246403252E+03  0.12699999809E+01 0.  1.
       -4    1    3    3    0  502  0.29095668123E+03 -0.60041178420E+02  0.14773633225E+02  0.29745689872E+03  0.12699999809E+01 0. -1.
</event>
<event>
 5   0  0.1858013E-02  0.6896965E+03  0.7818609E-02  0.9735017E-01
        1   -1    0    0  501    0  0.00000000000E+00  0.00000000000E+00  0.68471141078E+03  0.68471141080E+03  0.50400001928E-02 0. -1.
       -1   -1    0    0    0  501  0.00000000000E+00  0.00000000000E+00 -0.17367945932E+03  0.17367945939E+03  0.50400001928E-02 0.  1.
    10030    2    1    2    0    0  0.00000000000E+00  0.00000000000E+00  0.51103195146E+03  0.85839087019E+03  0.68969647716E+03 0.  0.
        2    1    3    3  502    0 -0.29510543520E+03  0.62535822003E+01  0.47743756167E+03  0.56131359370E+03  0.25500000920E-02 0. -1.
       -2    1    3    3    0  502  0.29510543520E+03 -0.62535822003E+01  0.33594389787E+02  0.29707727648E+03  0.25500000920E-02 0.  1.
</event>
<event>
 5   0  0.1233912E-02  0.7006561E+03  0.7818609E-02  0.9716111E-01
        3   -1    0    0  501    0  0.00000000000E+00  0.00000000000E+00  0.53769942846E+03  0.53769943794E+03  0.10100000352E+00 0.  1.
       -3   -1    0    0    0  501  0.00000000000E+00  0.00000000000E+00 -0.22824969571E+03  0.22824971806E+03  0.10100000352E+00 0. -1.
    10030    2    1    2    0    0  0.00000000000E+00  0.00000000000E+00  0.30944973274E+03  0.76594915600E+03  0.70065610144E+03 0.  0.
        5    1    3    3  502    0 -0.26397946007E+03  0.18956277684E+03  0.11820207444E+02  0.32523992529E+03  0.46999998093E+01 0. -1.
       -5    1    3    3    0  502  0.26397946007E+03 -0.18956277684E+03  0.29762952530E+03  0.44070923071E+03  0.46999998093E+01 0.  1.
</event>
<event>
 5   0  0.1839038E-02  0.6813153E+03  0.7818609E-02  0.9749730E-01
       -1   -1    0    0    0  501  0.00000000000E+00  0.00000000000E+00  0.11173699635E+03  0.11173699646E+03  0.50400001928E-02 0. -1.
        1   -1    0    0  501    0  0.00000000000E+00  0.00000000000E+00 -0.10385785739E+04  0.10385785739E+04  0.50400001928E-02 0.  1.
    10030    2    1    2    0    0  0.00000000000E+00  0.00000000000E+00 -0.92684157751E+03  0.11503155703E+04  0.68131534664E+03 0.  0.
        5    1    3    3  502    0  0.27699957925E+03  0.19679842585E+03 -0.50363009948E+03  0.60755555665E+03  0.46999998093E+01 0. -1.
       -5    1    3    3    0  502 -0.27699957925E+03 -0.19679842585E+03 -0.42321147804E+03  0.54276001369E+03  0.46999998093E+01 0.  1.
</event>
<event>
 5   0  0.3183963E-02  0.7047863E+03  0.7818609E-02  0.9709082E-01
        2   -1    0    0  501    0  0.00000000000E+00  0.00000000000E+00  0.16265442824E+03  0.16265442826E+03  0.25500000920E-02 0.  1.
       -2   -1    0    0    0  501  0.00000000000E+00  0.00000000000E+00 -0.76346482195E+03  0.76346482196E+03  0.25500000920E-02 0. -1.
    10030    2    1    2    0    0  0.00000000000E+00  0.00000000000E+00 -0.60081039372E+03  0.92611925022E+03  0.70478630550E+03 0.  0.
        4    1    3    3  502    0 -0.29227889648E+03 -0.12712642304E+03 -0.49791083306E+03  0.59118938704E+03  0.12699999809E+01 0. -1.
       -4    1    3    3    0  502  0.29227889648E+03  0.12712642304E+03 -0.10289956066E+03  0.33492986318E+03  0.12699999809E+01 0.  1.
</event>
<event>
 5   0  0.1884172E-02  0.6935516E+03  0.7818609E-02  0.9728324E-01
        1   -1    0    0  501    0  0.00000000000E+00  0.00000000000E+00  0.24580604075E+04  0.24580604075E+04  0.50400001928E-02 0. -1.
       -1   -1    0    0    0  501  0.00000000000E+00  0.00000000000E+00 -0.48922091778E+02  0.48922092038E+02  0.50400001928E-02 0.  1.
    10030    2    1    2    0    0  0.00000000000E+00  0.00000000000E+00  0.24091383157E+04  0.25069824995E+04  0.69355160495E+03 0.  0.
        3    1    3    3  502    0  0.82053488260E+02  0.16318680228E+03  0.22700834224E+04  0.22774199134E+04  0.10100000352E+00 0. -1.
       -3    1    3    3    0  502 -0.82053488260E+02 -0.16318680228E+03  0.13905489334E+03  0.22956258610E+03  0.10100000352E+00 0.  1.
</event>
<event>
 5   0  0.3183963E-02  0.7015363E+03  0.7818609E-02  0.9714609E-01
       -2   -1    0    0    0  501  0.00000000000E+00  0.00000000000E+00  0.42319865090E+03  0.42319865091E+03  0.25500000920E-02 0. -1.
        2   -1    0    0  501    0  0.00000000000E+00  0.00000000000E+00 -0.29073414779E+03  0.29073414780E+03  0.25500000920E-02 0.  1.
    10030    2    1    2    0    0  0.00000000000E+00  0.00000000000E+00  0.13246450311E+03  0.71393279871E+03  0.70153631160E+03 0.  0.
        4    1    3    3  502    0 -0.96613332413E+02  0.30095046365E+03  0.22100975753E+03  0.38568412385E+03  0.12699999809E+01 0. -1.
       -4    1    3    3    0  502  0.96613332413E+02 -0.30095046365E+03 -0.88545254414E+02  0.32824867486E+03  0.12699999809E+01 0.  1.
</event>
<event>
 5   0  0.1969818E-02  0.6789248E+03  0.7818609E-02  0.9753968E-01
        1   -1    0    0  501    0  0.00000000000E+00  0.00000000000E+00  0.29949216688E+03  0.29949216692E+03  0.50400001928E-02 0. -1.
       -1   -1    0    0    0  501  0.00000000000E+00  0.00000000000E+00 -0.38476707021E+03  0.38476707024E+03  0.50400001928E-02 0.  1.
    10030    2    1    2    0    0  0.00000000000E+00  0.00000000000E+00 -0.85274903335E+02  0.68425923716E+03  0.67892480770E+03 0.  0.
        1    1    3    3  502    0 -0.10646056107E+03  0.32170047995E+03 -0.63036882694E+02  0.34467187072E+03  0.50400001928E-02 0.  1.
       -1    1    3    3    0  502  0.10646056107E+03 -0.32170047995E+03 -0.22238020640E+02  0.33958736644E+03  0.50400001928E-02 0. -1.
</event>
<event>
 5   0  0.1969818E-02  0.7015199E+03  0.7818609E-02  0.9714636E-01
        1   -1    0    0  501    0  0.00000000000E+00  0.00000000000E+00  0.68132503631E+02  0.68132503818E+02  0.50400001928E-02 0.  1.
       -1   -1    0    0    0  501  0.00000000000E+00  0.00000000000E+00 -0.18057836042E+04  0.18057836042E+04  0.50400001928E-02 0. -1.
    10030    2    1    2    0    0  0.00000000000E+00  0.00000000000E+00 -0.17376511006E+04  0.18739161080E+04  0.70151994456E+03 0.  0.
        1    1    3    3  502    0 -0.20446285375E+03  0.57830820723E+02 -0.16142982173E+04  0.16282224039E+04  0.50400001928E-02 0. -1.
       -1    1    3    3    0  502  0.20446285375E+03 -0.57830820723E+02 -0.12335288333E+03  0.24569370412E+03  0.50400001928E-02 0.  1.
</event>
<event>
 5   0  0.3183963E-02  0.6960397E+03  0.7818609E-02  0.9724029E-01
        2   -1    0    0  501    0  0.00000000000E+00  0.00000000000E+00  0.18942858265E+04  0.18942858266E+04  0.25500000920E-02 0.  1.
       -2   -1    0    0    0  501  0.00000000000E+00  0.00000000000E+00 -0.63938513691E+02  0.63938513742E+02  0.25500000920E-02 0. -1.
    10030    2    1    2    0    0  0.00000000000E+00  0.00000000000E+00  0.18303473129E+04  0.19582243403E+04  0.69603971239E+03 0.  0.
        4    1    3    3  502    0  0.84598046825E+02  0.13395991106E+03  0.43415581783E+02  0.16428211388E+03  0.12699999809E+01 0. -1.
       -4    1    3    3    0  502 -0.84598046825E+02 -0.13395991106E+03  0.17869317311E+04  0.17939422264E+04  0.12699999809E+01 0.  1.
</event>
<event>
 5   0  0.3290656E-02  0.6957177E+03  0.7818609E-02  0.9724584E-01
       -2   -1    0    0    0  501  0.00000000000E+00  0.00000000000E+00  0.24223719502E+03  0.24223719503E+03  0.25500000920E-02 0.  1.
        2   -1    0    0  501    0  0.00000000000E+00  0.00000000000E+00 -0.49953428142E+03  0.49953428143E+03  0.25500000920E-02 0. -1.
    10030    2    1    2    0    0  0.00000000000E+00  0.00000000000E+00 -0.25729708640E+03  0.74177147646E+03  0.69571771044E+03 0.  0.
        1    1    3    3  502    0 -0.51394398002E+02 -0.24015395994E+03  0.13401351119E+03  0.27977657126E+03  0.50400001928E-02 0.  1.
       -1    1    3    3    0  502  0.51394398002E+02  0.24015395994E+03 -0.39131059759E+03  0.46199490520E+03  0.50400001928E-02 0. -1.
</event>
<event>
 5   0  0.2933851E-02  0.6984624E+03  0.7818609E-02  0.9719865E-01
       -2   -1    0    0    0  501  0.00000000000E+00  0.00000000000E+00  0.27028717980E+03  0.27028717981E+03  0.25500000920E-02 0.  1.
        2   -1    0    0  501    0  0.00000000000E+00  0.00000000000E+00 -0.45123281265E+03  0.45123281266E+03  0.25500000920E-02 0. -1.
    10030    2    1    2    0    0  0.00000000000E+00  0.00000000000E+00 -0.18094563285E+03  0.72151999247E+03  0.69846243814E+03 0.  0.
        2    1    3    3  502    0  0.10275983253E+03 -0.95019469992E+02 -0.42099490820E+03  0.44364963158E+03  0.25500000920E-02 0. -1.
       -2    1    3    3    0  502 -0.10275983253E+03  0.95019469992E+02  0.24004927535E+03  0.27787036089E+03  0.25500000920E-02 0.  1.
</event>
<event>
 5   0  0.3183963E-02  0.7011524E+03  0.7818609E-02  0.9715263E-01
        2   -1    0    0  501    0  0.00000000000E+00  0.00000000000E+00  0.13964958620E+04  0.13964958620E+04  0.25500000920E-02 0.  1.
       -2   -1    0    0    0  501  0.00000000000E+00  0.00000000000E+00 -0.88008630341E+02  0.88008630378E+02  0.25500000920E-02 0. -1.
    10030    2    1    2    0    0  0.00000000000E+00  0.00000000000E+00  0.13084872316E+04  0.14845044924E+04  0.70115244596E+03 0.  0.
        4    1    3    3  502    0 -0.17477060717E+03  0.25799032703E+03  0.99431071563E+03  0.10419976901E+04  0.12699999809E+01 0.  1.
       -4    1    3    3    0  502  0.17477060717E+03 -0.25799032703E+03  0.31417651601E+03  0.44250680230E+03  0.12699999809E+01 0. -1.
</event>
<event>
 5   0  0.1969818E-02  0.7075317E+03  0.7818609E-02  0.9704438E-01
        1   -1    0    0  501    0  0.00000000000E+00  0.00000000000E+00  0.18931729852E+03  0.18931729859E+03  0.50400001928E-02 0. -1.
       -1   -1    0    0    0  501  0.00000000000E+00  0.00000000000E+00 -0.66106088153E+03  0.66106088155E+03  0.50400001928E-02 0.  1.
    10030    2    1    2    0    0  0.00000000000E+00  0.00000000000E+00 -0.47174358301E+03  0.85037818014E+03  0.70753165381E+03 0.  0.
        1    1    3    3  502    0  0.84110414672E+02  0.23114327657E+03  0.69722619198E+02  0.25566192484E+03  0.50400001928E-02 0. -1.
       -1    1    3    3    0  502 -0.84110414672E+02 -0.23114327657E+03 -0.54146620221E+03  0.59471625530E+03  0.50400001928E-02 0.  1.
</event>
<event>
 5   0  0.1884172E-02  0.7018417E+03  0.7818609E-02  0.9714088E-01
        1   -1    0    0  501    0  0.00000000000E+00  0.00000000000E+00  0.31501122737E+03  0.31501122741E+03  0.50400001928E-02 0.  1.
       -1   -1    0    0    0  501  0.00000000000E+00  0.00000000000E+00 -0.39092392759E+03  0.39092392762E+03  0.50400001928E-02 0. -1.
    10030    2    1    2    0    0  0.00000000000E+00  0.00000000000E+00 -0.75912700221E+02  0.70593515504E+03  0.70184165241E+03 0.  0.
        3    1    3    3  502    0 -0.20470021495E+03  0.31955897325E+02  0.24693061094E+03  0.32233227296E+03  0.10100000352E+00 0.  1.
       -3    1    3    3    0  502  0.20470021495E+03 -0.31955897325E+02 -0.32284331116E+03  0.38360288207E+03  0.10100000352E+00 0. -1.
</event>
<event>
 5   0  0.2933851E-02  0.7044449E+03  0.7818609E-02  0.9709661E-01
        2   -1    0    0  501    0  0.00000000000E+00  0.00000000000E+00  0.54444336898E+03  0.54444336899E+03  0.25500000920E-02 0.  1.
       -2   -1    0    0    0  501  0.00000000000E+00  0.00000000000E+00 -0.22786694220E+03  0.22786694221E+03  0.25500000920E-02 0. -1.
    10030    2    1    2    0    0  0.00000000000E+00  0.00000000000E+00  0.31657642678E+03  0.77231031120E+03  0.70444487562E+03 0.  0.
        2    1    3    3  502    0  0.29334371235E+03 -0.12145083924E+02  0.37161730670E+03  0.47360052712E+03  0.25500000920E-02 0.  1.
       -2    1    3    3    0  502 -0.29334371235E+03  0.12145083924E+02 -0.55040879919E+02  0.29870978408E+03  0.25500000920E-02 0. -1.
</event>
<event>
 5   0  0.1233912E-02  0.6257012E+03  0.7818609E-02  0.9853474E-01
        3   -1    0    0  501    0  0.00000000000E+00  0.00000000000E+00  0.41245506448E+03  0.41245507684E+03  0.10100000352E+00 0.  1.
       -3   -1    0    0    0  501  0.00000000000E+00  0.00000000000E+00 -0.23729972365E+03  0.23729974515E+03  0.10100000352E+00 0. -1.
    10030    2    1    2    0    0  0.00000000000E+00  0.00000000000E+00  0.17515534083E+03  0.64975482199E+03  0.62570115493E+03 0.  0.
        3    1    3    3  502    0  0.14322158830E+03  0.19846754206E+03  0.28993732359E+03  0.37942779342E+03  0.10100000352E+00 0. -1.
       -3    1    3    3    0  502 -0.14322158830E+03 -0.19846754206E+03 -0.11478198277E+03  0.27032702857E+03  0.10100000352E+00 0.  1.
</event>
<event>
 5   0  0.1858013E-02  0.7022669E+03  0.7818609E-02  0.9713363E-01
       -1   -1    0    0    0  501  0.00000000000E+00  0.00000000000E+00  0.19665496799E+03  0.19665496806E+03  0.50400001928E-02 0. -1.
        1   -1    0    0  501    0  0.00000000000E+00  0.00000000000E+00 -0.62695957767E+03  0.62695957769E+03  0.50400001928E-02 0.  1.
    10030    2    1    2    0    0  0.00000000000E+00  0.00000000000E+00 -0.43030460968E+03  0.82361454575E+03  0.70226694558E+03 0.  0.
        2    1    3    3  502    0 -0.72805735807E+02  0.73175839856E+02  0.17845832943E+03  0.20616196074E+03  0.25500000920E-02 0. -1.
       -2    1    3    3    0  502  0.72805735807E+02 -0.73175839856E+02 -0.60876293910E+03  0.61745258501E+03  0.25500000920E-02 0.  1.
</event>
<event>
 5   0  0.1858013E-02  0.7017046E+03  0.7818609E-02  0.9714321E-01
        1   -1    0    0  501    0  0.00000000000E+00  0.00000000000E+00  0.88073714835E+03  0.88073714836E+03  0.50400001928E-02 0.  1.
       -1   -1    0    0    0  501  0.00000000000E+00  0.00000000000E+00 -0.13976627809E+03  0.13976627818E+03  0.50400001928E-02 0. -1.
    10030    2    1    2    0    0  0.00000000000E+00  0.00000000000E+00  0.74097087025E+03  0.10205034265E+04  0.70170464800E+03 0.  0.
        2    1    3    3  502    0  0.24150723184E+03 -0.11817341459E+03  0.69829408755E+03  0.74826822174E+03  0.25500000920E-02 0.  1.
       -2    1    3    3    0  502 -0.24150723184E+03  0.11817341459E+03  0.42676782700E+02  0.27223520480E+03  0.25500000920E-02 0. -1.
</event>
<event>
 5   0  0.1951465E-02  0.6630905E+03  0.7818609E-02  0.9782521E-01
        1   -1    0    0  501    0  0.00000000000E+00  0.00000000000E+00  0.14427603130E+03  0.14427603139E+03  0.50400001928E-02 0. -1.
       -1   -1    0    0    0  501  0.00000000000E+00  0.00000000000E+00 -0.76188852405E+03  0.76188852407E+03  0.50400001928E-02 0.  1.
    10030    2    1    2    0    0  0.00000000000E+00  0.00000000000E+00 -0.61761249275E+03  0.90616455546E+03  0.66309049938E+03 0.  0.
        4    1    3    3  502    0 -0.19149691207E+03 -0.98485301055E+02 -0.65330907100E+03  0.68788427588E+03  0.12699999809E+01 0.  1.
       -4    1    3    3    0  502  0.19149691207E+03  0.98485301055E+02  0.35696578246E+02  0.21828027958E+03  0.12699999809E+01 0. -1.
</event>
<event>
 5   0  0.2933851E-02  0.7030211E+03  0.7818609E-02  0.9712080E-01
        2   -1    0    0  501    0  0.00000000000E+00  0.00000000000E+00  0.19522329654E+04  0.19522329654E+04  0.25500000920E-02 0.  1.
       -2   -1    0    0    0  501  0.00000000000E+00  0.00000000000E+00 -0.63291453018E+02  0.63291453069E+02  0.25500000920E-02 0. -1.
    10030    2    1    2    0    0  0.00000000000E+00  0.00000000000E+00  0.18889415124E+04  0.20155244185E+04  0.70302108379E+03 0.  0.
        2    1    3    3  502    0  0.20224996508E+03 -0.18217305080E+03  0.30682407973E+03  0.41016226633E+03  0.25500000920E-02 0. -1.
       -2    1    3    3    0  502 -0.20224996508E+03  0.18217305080E+03  0.15821174327E+04  0.16053621521E+04  0.25500000920E-02 0.  1.
</event>
<event>
 5   0  0.1969818E-02  0.7004011E+03  0.7818609E-02  0.9716547E-01
       -1   -1    0    0    0  501  0.00000000000E+00  0.00000000000E+00  0.17197014239E+03  0.17197014246E+03  0.50400001928E-02 0. -1.
        1   -1    0    0  501    0  0.00000000000E+00  0.00000000000E+00 -0.71314944300E+03  0.71314944302E+03  0.50400001928E-02 0.  1.
    10030    2    1    2    0    0  0.00000000000E+00  0.00000000000E+00 -0.54117930061E+03  0.88511958548E+03  0.70040106025E+03 0.  0.
        1    1    3    3  502    0  0.37046383077E+01  0.16295849118E+03 -0.66228805447E+03  0.68205180251E+03  0.50400001928E-02 0.  1.
       -1    1    3    3    0  502 -0.37046383077E+01 -0.16295849118E+03  0.12110875386E+03  0.20306778297E+03  0.50400001928E-02 0. -1.
</event>
<event>
 5   0  0.2933851E-02  0.6983071E+03  0.7818609E-02  0.9720132E-01
       -2   -1    0    0    0  501  0.00000000000E+00  0.00000000000E+00  0.24601367859E+03  0.24601367861E+03  0.25500000920E-02 0.  1.
        2   -1    0    0  501    0  0.00000000000E+00  0.00000000000E+00 -0.49553430524E+03  0.49553430525E+03  0.25500000920E-02 0. -1.
    10030    2    1    2    0    0  0.00000000000E+00  0.00000000000E+00 -0.24952062664E+03  0.74154798385E+03  0.69830714534E+03 0.  0.
        2    1    3    3  502    0  0.11443968364E+03 -0.28304232745E+03 -0.30465766495E+03  0.43130695930E+03  0.25500000920E-02 0. -1.
       -2    1    3    3    0  502 -0.11443968364E+03  0.28304232745E+03  0.55137038305E+02  0.31024102456E+03  0.25500000920E-02 0.  1.
</event>
<event>
 5   0  0.2933851E-02  0.7029953E+03  0.7818609E-02  0.9712123E-01
        2   -1    0    0  501    0  0.00000000000E+00  0.00000000000E+00  0.12507060301E+04  0.12507060301E+04  0.25500000920E-02 0.  1.
       -2   -1    0    0    0  501  0.00000000000E+00  0.00000000000E+00 -0.98784687083E+02  0.98784687116E+02  0.25500000920E-02 0. -1.
    10030    2    1    2    0    0  0.00000000000E+00  0.00000000000E+00  0.11519213431E+04  0.13494907173E+04  0.70299531675E+03 0.  0.
        2    1    3    3  502    0  0.39827818477E+02 -0.24322995802E+03  0.10570320495E+04  0.10853864847E+04  0.25500000920E-02 0. -1.
       -2    1    3    3    0  502 -0.39827818477E+02  0.24322995802E+03  0.94889293602E+02  0.26410423255E+03  0.25500000920E-02 0.  1.
</event>
<event>
 5   0  0.2933851E-02  0.6871871E+03  0.7818609E-02  0.9739398E-01
        2   -1    0    0  501    0  0.00000000000E+00  0.00000000000E+00  0.36800461210E+03  0.36800461211E+03  0.25500000920E-02 0.  1.
       -2   -1    0    0    0  501  0.00000000000E+00  0.00000000000E+00 -0.32080177992E+03  0.32080177993E+03  0.25500000920E-02 0. -1.
    10030    2    1    2    0    0  0.00000000000E+00  0.00000000000E+00  0.47202832180E+02  0.68880639203E+03  0.68718712032E+03 0.  0.
        2    1    3    3  502    0 -0.17701010294E+03  0.27879285837E+03  0.11868536761E+03  0.35091915153E+03  0.25500000920E-02 0.  1.
       -2    1    3    3    0  502  0.17701010294E+03 -0.27879285837E+03 -0.71482535426E+02  0.33788724051E+03  0.25500000920E-02 0. -1.
</event>
<event>
 5   0  0.3290656E-02  0.6956815E+03  0.7818609E-02  0.9724646E-01
       -2   -1    0    0    0  501  0.00000000000E+00  0.00000000000E+00  0.62869613001E+03  0.62869613002E+03  0.25500000920E-02 0.  1.
        2   -1    0    0  501    0  0.00000000000E+00  0.00000000000E+00 -0.19245100248E+03  0.19245100250E+03  0.25500000920E-02 0. -1.
    10030    2    1    2    0    0  0.00000000000E+00  0.00000000000E+00  0.43624512753E+03  0.82114713252E+03  0.69568153774E+03 0.  0.
        1    1    3    3  502    0 -0.30502318593E+03  0.11669428410E+03  0.76793305166E+02  0.33549055373E+03  0.50400001928E-02 0. -1.
       -1    1    3    3    0  502  0.30502318593E+03 -0.11669428410E+03  0.35945182236E+03  0.48565657879E+03  0.50400001928E-02 0.  1.
</event>
<event>
 5   0  0.1858013E-02  0.6994266E+03  0.7818609E-02  0.9718213E-01
       -1   -1    0    0    0  501  0.00000000000E+00  0.00000000000E+00  0.11585650665E+04  0.11585650665E+04  0.50400001928E-02 0.  1.
        1   -1    0    0  501    0  0.00000000000E+00  0.00000000000E+00 -0.10556110574E+03  0.10556110586E+03  0.50400001928E-02 0. -1.
    10030    2    1    2    0    0  0.00000000000E+00  0.00000000000E+00  0.10530039608E+04  0.12641261724E+04  0.69942664971E+03 0.  0.
        2    1    3    3  502    0  0.23267086941E+03 -0.14923574002E+03  0.91368695049E+03  0.95458414143E+03  0.25500000920E-02 0.  1.
       -2    1    3    3    0  502 -0.23267086941E+03  0.14923574002E+03  0.13931701029E+03  0.30954203096E+03  0.25500000920E-02 0. -1.
</event>
<event>
 5   0  0.3183963E-02  0.6897508E+03  0.7818609E-02  0.9734922E-01
        2   -1    0    0  501    0  0.00000000000E+00  0.00000000000E+00  0.55410515156E+03  0.55410515157E+03  0.25500000920E-02 0. -1.
       -2   -1    0    0    0  501  0.00000000000E+00  0.00000000000E+00 -0.21465064666E+03  0.21465064668E+03  0.25500000920E-02 0.  1.
    10030    2    1    2    0    0  0.00000000000E+00  0.00000000000E+00  0.33945450490E+03  0.76875579825E+03  0.68975076400E+03 0.  0.
        4    1    3    3  502    0  0.32013282961E+03 -0.22841708826E+02  0.29053562338E+02  0.32226153143E+03  0.12699999809E+01 0. -1.
       -4    1    3    3    0  502 -0.32013282961E+03  0.22841708826E+02  0.31040094256E+03  0.44649426681E+03  0.12699999809E+01 0.  1.
</event>
<event>
 5   0  0.3113940E-02  0.6914551E+03  0.7818609E-02  0.9731958E-01
        2   -1    0    0  501    0  0.00000000000E+00  0.00000000000E+00  0.47886871325E+03  0.47886871326E+03  0.25500000920E-02 0.  1.
       -2   -1    0    0    0  501  0.00000000000E+00  0.00000000000E+00 -0.24960400792E+03  0.24960400794E+03  0.25500000920E-02 0. -1.
    10030    2    1    2    0    0  0.00000000000E+00  0.00000000000E+00  0.22926470533E+03  0.72847272120E+03  0.69145513261E+03 0.  0.
        5    1    3    3  502    0  0.12160426142E+03  0.31629421743E+03  0.18667318564E+03  0.38690902886E+03  0.46999998093E+01 0.  1.
       -5    1    3    3    0  502 -0.12160426142E+03 -0.31629421743E+03  0.42591519689E+02  0.34156369234E+03  0.46999998093E+01 0. -1.
</event>
<event>
 5   0  0.1884172E-02  0.7123201E+03  0.7818609E-02  0.9696392E-01
       -1   -1    0    0    0  501  0.00000000000E+00  0.00000000000E+00  0.32789028714E+03  0.32789028718E+03  0.50400001928E-02 0.  1.
        1   -1    0    0  501    0  0.00000000000E+00  0.00000000000E+00 -0.38686710017E+03  0.38686710020E+03  0.50400001928E-02 0. -1.
    10030    2    1    2    0    0  0.00000000000E+00  0.00000000000E+00 -0.58976813028E+02  0.71475738739E+03  0.71232005331E+03 0.  0.
        3    1    3    3  502    0  0.33877079680E+02  0.23240933526E+03  0.23917425702E+03  0.33521051753E+03  0.10100000352E+00 0.  1.
       -3    1    3    3    0  502 -0.33877079680E+02 -0.23240933526E+03 -0.29815107005E+03  0.37954686985E+03  0.10100000352E+00 0. -1.
</event>
<event>
 5   0  0.3113940E-02  0.7051247E+03  0.7818609E-02  0.9708508E-01
        2   -1    0    0  501    0  0.00000000000E+00  0.00000000000E+00  0.89832679592E+03  0.89832679592E+03  0.25500000920E-02 0. -1.
       -2   -1    0    0    0  501  0.00000000000E+00  0.00000000000E+00 -0.13836857176E+03  0.13836857178E+03  0.25500000920E-02 0.  1.
    10030    2    1    2    0    0  0.00000000000E+00  0.00000000000E+00  0.75995822416E+03  0.10366953677E+04  0.70512465774E+03 0.  0.
        5    1    3    3  502    0 -0.90979373765E+02 -0.49182226718E+02  0.87547488108E+03  0.88157500831E+03  0.46999998093E+01 0. -1.
       -5    1    3    3    0  502  0.90979373765E+02  0.49182226718E+02 -0.11551665692E+03  0.15512035940E+03  0.46999998093E+01 0.  1.
</event>
<event>
 5   0  0.1839038E-02  0.6799513E+03  0.7818609E-02  0.9752146E-01
       -1   -1    0    0    0  501  0.00000000000E+00  0.00000000000E+00  0.11156030161E+03  0.11156030173E+03  0.50400001928E-02 0.  1.
        1   -1    0    0  501    0  0.00000000000E+00  0.00000000000E+00 -0.10360623500E+04  0.10360623500E+04  0.50400001928E-02 0. -1.
    10030    2    1    2    0    0  0.00000000000E+00  0.00000000000E+00 -0.92450204838E+03  0.11476226517E+04  0.67995125804E+03 0.  0.
        5    1    3    3  502    0 -0.24960205359E+03 -0.79085389274E+02 -0.82817964735E+03  0.86859616752E+03  0.46999998093E+01 0. -1.
       -5    1    3    3    0  502  0.24960205359E+03  0.79085389274E+02 -0.96322401033E+02  0.27902648421E+03  0.46999998093E+01 0.  1.
</event>
<event>
 5   0  0.3113940E-02  0.6971101E+03  0.7818609E-02  0.9722187E-01
        2   -1    0    0  501    0  0.00000000000E+00  0.00000000000E+00  0.33078117959E+03  0.33078117960E+03  0.25500000920E-02 0. -1.
       -2   -1    0    0    0  501  0.00000000000E+00  0.00000000000E+00 -0.36728396713E+03  0.36728396714E+03  0.25500000920E-02 0.  1.
    10030    2    1    2    0    0  0.00000000000E+00  0.00000000000E+00 -0.36502787540E+02  0.69806514674E+03  0.69711010292E+03 0.  0.
        5    1    3    3  502    0  0.33663242370E+03  0.40860013117E+02  0.62342435959E+02  0.34481821106E+03  0.46999998093E+01 0. -1.
       -5    1    3    3    0  502 -0.33663242370E+03 -0.40860013117E+02 -0.98845223499E+02  0.35324693568E+03  0.46999998093E+01 0.  1.
</event>
<event>
 5   0  0.2933851E-02  0.6977727E+03  0.7818609E-02  0.9721049E-01
        2   -1    0    0  501    0  0.00000000000E+00  0.00000000000E+00  0.24880985095E+03  0.24880985096E+03  0.25500000920E-02 0.  1.
       -2   -1    0    0    0  501  0.00000000000E+00  0.00000000000E+00 -0.48921574287E+03  0.48921574288E+03  0.25500000920E-02 0. -1.
    10030    2    1    2    0    0  0.00000000000E+00  0.00000000000E+00 -0.24040589192E+03  0.73802559384E+03  0.69777273112E+03 0.  0.
        2    1    3    3  502    0 -0.21204313543E+03  0.24272492949E+03  0.21084540785E+02  0.32298953628E+03  0.25500000920E-02 0.  1.
       -2    1    3    3    0  502  0.21204313543E+03 -0.24272492949E+03 -0.26149043271E+03  0.41503605757E+03  0.25500000920E-02 0. -1.
</event>
<event>
 5   0  0.1969818E-02  0.6943163E+03  0.7818609E-02  0.9727002E-01
       -1   -1    0    0    0  501  0.00000000000E+00  0.00000000000E+00  0.37708982873E+03  0.37708982877E+03  0.50400001928E-02 0.  1.
        1   -1    0    0  501    0  0.00000000000E+00  0.00000000000E+00 -0.31960232263E+03  0.31960232267E+03  0.50400001928E-02 0. -1.
    10030    2    1    2    0    0  0.00000000000E+00  0.00000000000E+00  0.57487506103E+02  0.69669215143E+03  0.69431631157E+03 0.  0.
        1    1    3    3  502    0 -0.11988554826E+03 -0.31966780371E+03 -0.34390028502E+02  0.34313659597E+03  0.50400001928E-02 0.  1.
       -1    1    3    3    0  502  0.11988554826E+03  0.31966780371E+03  0.91877534605E+02  0.35355555546E+03  0.50400001928E-02 0. -1.
</event>
<event>
 5   0  0.1884172E-02  0.6727536E+03  0.7818609E-02  0.9764996E-01
        1   -1    0    0  501    0  0.00000000000E+00  0.00000000000E+00  0.42638799919E+03  0.42638799922E+03  0.50400001928E-02 0. -1.
       -1   -1    0    0    0  501  0.00000000000E+00  0.00000000000E+00 -0.26536711269E+03  0.26536711274E+03  0.50400001928E-02 0.  1.
    10030    2    1    2    0    0  0.00000000000E+00  0.00000000000E+00  0.16102088650E+03  0.69175511196E+03  0.67275360202E+03 0.  0.
        3    1    3    3  502    0  0.19923985681E+03  0.27092975978E+03  0.87772992511E+02  0.34756807058E+03  0.10100000352E+00 0.  1.
       -3    1    3    3    0  502 -0.19923985681E+03 -0.27092975978E+03  0.73247893989E+02  0.34418704137E+03  0.10100000352E+00 0. -1.
</event>
<event>
 5   0  0.3183963E-02  0.6983568E+03  0.7818609E-02  0.9720046E-01
        2   -1    0    0  501    0  0.00000000000E+00  0.00000000000E+00  0.97753403056E+03  0.97753403057E+03  0.25500000920E-02 0. -1.
       -2   -1    0    0    0  501  0.00000000000E+00  0.00000000000E+00 -0.12472768253E+03  0.12472768255E+03  0.25500000920E-02 0.  1.
    10030    2    1    2    0    0  0.00000000000E+00  0.00000000000E+00  0.85280634804E+03  0.11022617131E+04  0.69835679775E+03 0.  0.
        4    1    3    3  502    0  0.26087186437E+03  0.14446612820E+02  0.79202925875E+03  0.83401126723E+03  0.12699999809E+01 0. -1.
       -4    1    3    3    0  502 -0.26087186437E+03 -0.14446612820E+02  0.60777089284E+02  0.26825044590E+03  0.12699999809E+01 0.  1.
</event>
<event>
 5   0  0.3183963E-02  0.7007563E+03  0.7818609E-02  0.9715940E-01
       -2   -1    0    0    0  501  0.00000000000E+00  0.00000000000E+00  0.26487095006E+03  0.26487095007E+03  0.25500000920E-02 0. -1.
        2   -1    0    0  501    0  0.00000000000E+00  0.00000000000E+00 -0.46348932711E+03  0.46348932712E+03  0.25500000920E-02 0.  1.
    10030    2    1    2    0    0  0.00000000000E+00  0.00000000000E+00 -0.19861837705E+03  0.72836027719E+03  0.70075632975E+03 0.  0.
        4    1    3    3  502    0  0.11782603727E+03  0.22412366835E+02 -0.44148531191E+03  0.45748899744E+03  0.12699999809E+01 0.  1.
       -4    1    3    3    0  502 -0.11782603727E+03 -0.22412366835E+02  0.24286693486E+03  0.27087127975E+03  0.12699999809E+01 0. -1.
</event>
<event>
 5   0  0.3290656E-02  0.6974123E+03  0.7818609E-02  0.9721668E-01
       -2   -1    0    0    0  501  0.00000000000E+00  0.00000000000E+00  0.11850630997E+03  0.11850631000E+03  0.25500000920E-02 0.  1.
        2   -1    0    0  501    0  0.00000000000E+00  0.00000000000E+00 -0.10260717351E+04  0.10260717351E+04  0.25500000920E-02 0. -1.
    10030    2    1    2    0    0  0.00000000000E+00  0.00000000000E+00 -0.90756542516E+03  0.11445780451E+04  0.69741228871E+03 0.  0.
        1    1    3    3  502    0  0.32513677886E+03  0.89747278845E+02 -0.30858268811E+03  0.45715618168E+03  0.50400001928E-02 0. -1.
       -1    1    3    3    0  502 -0.32513677886E+03 -0.89747278845E+02 -0.59898273706E+03  0.68742186344E+03  0.50400001928E-02 0.  1.
</event>
<event>
 5   0  0.1233912E-02  0.6962244E+03  0.7818609E-02  0.9723711E-01
       -4   -1    0    0    0  501  0.00000000000E+00  0.00000000000E+00  0.41924754647E+03  0.41924947003E+03  0.12699999809E+01 0. -1.
        4   -1    0    0  501    0  0.00000000000E+00  0.00000000000E+00 -0.28904268273E+03  0.28904547279E+03  0.12699999809E+01 0.  1.
    10030    2    1    2    0    0  0.00000000000E+00  0.00000000000E+00  0.13020486375E+03  0.70829494282E+03  0.69622440311E+03 0.  0.
        2    1    3    3  502    0  0.28999000461E+03 -0.31664465193E+02  0.25835703240E+03  0.38967319298E+03  0.25500000920E-02 0. -1.
       -2    1    3    3    0  502 -0.28999000461E+03  0.31664465193E+02 -0.12815216866E+03  0.31862174984E+03  0.25500000920E-02 0.  1.
</event>
<event>
 5   0  0.1884172E-02  0.6960548E+03  0.7818609E-02  0.9724003E-01
       -1   -1    0    0    0  501  0.00000000000E+00  0.00000000000E+00  0.24466330484E+03  0.24466330489E+03  0.50400001928E-02 0. -1.
        1   -1    0    0  501    0  0.00000000000E+00  0.00000000000E+00 -0.49506025034E+03  0.49506025037E+03  0.50400001928E-02 0.  1.
    10030    2    1    2    0    0  0.00000000000E+00  0.00000000000E+00 -0.25039694550E+03  0.73972355526E+03  0.69605481673E+03 0.  0.
        3    1    3    3  502    0  0.12939615795E+03  0.84887008005E+02 -0.45648274250E+03  0.48200173674E+03  0.10100000352E+00 0.  1.
       -3    1    3    3    0  502 -0.12939615795E+03 -0.84887008005E+02  0.20608579699E+03  0.25772181852E+03  0.10100000352E+00 0. -1.
</event>
<event>
 5   0  0.1969818E-02  0.7010833E+03  0.7818609E-02  0.9715381E-01
       -1   -1    0    0    0  501  0.00000000000E+00  0.00000000000E+00  0.97652687131E+02  0.97652687262E+02  0.50400001928E-02 0. -1.
        1   -1    0    0  501    0  0.00000000000E+00  0.00000000000E+00 -0.12583315915E+04  0.12583315915E+04  0.50400001928E-02 0.  1.
    10030    2    1    2    0    0  0.00000000000E+00  0.00000000000E+00 -0.11606789044E+04  0.13559842788E+04  0.70108333687E+03 0.  0.
        1    1    3    3  502    0  0.19584216524E+03  0.13872000553E+03 -0.10745158051E+04  0.11009911939E+04  0.50400001928E-02 0.  1.
       -1    1    3    3    0  502 -0.19584216524E+03 -0.13872000553E+03 -0.86163099243E+02  0.25499308484E+03  0.50400001928E-02 0. -1.
</event>
<event>
 5   0  0.2933851E-02  0.6979903E+03  0.7818609E-02  0.9720675E-01
        2   -1    0    0  501    0  0.00000000000E+00  0.00000000000E+00  0.37664363185E+03  0.37664363186E+03  0.25500000920E-02 0.  1.
       -2   -1    0    0    0  501  0.00000000000E+00  0.00000000000E+00 -0.32337630568E+03  0.32337630569E+03  0.25500000920E-02 0. -1.
    10030    2    1    2    0    0  0.00000000000E+00  0.00000000000E+00  0.53267326169E+02  0.70001993755E+03  0.69799033298E+03 0.  0.
        2    1    3    3  502    0 -0.28448498992E+03  0.17946847831E+03  0.11994711590E+03  0.35711056386E+03  0.25500000920E-02 0.  1.
       -2    1    3    3    0  502  0.28448498992E+03 -0.17946847831E+03 -0.66679789735E+02  0.34290937369E+03  0.25500000920E-02 0. -1.
</event>
<event>
 5   0  0.1839038E-02  0.6929408E+03  0.7818609E-02  0.9729381E-01
       -1   -1    0    0    0  501  0.00000000000E+00  0.00000000000E+00  0.11548257844E+03  0.11548257855E+03  0.50400001928E-02 0. -1.
        1   -1    0    0  501    0  0.00000000000E+00  0.00000000000E+00 -0.10394792379E+04  0.10394792379E+04  0.50400001928E-02 0.  1.
    10030    2    1    2    0    0  0.00000000000E+00  0.00000000000E+00 -0.92399665943E+03  0.11549618164E+04  0.69294081333E+03 0.  0.
        5    1    3    3  502    0  0.40617633174E+02  0.12753784093E+03 -0.99458804721E+03  0.10035652279E+04  0.46999998093E+01 0.  1.
       -5    1    3    3    0  502 -0.40617633174E+02 -0.12753784093E+03  0.70591387776E+02  0.15139658854E+03  0.46999998093E+01 0. -1.
</event>
<event>
 5   0  0.1969818E-02  0.7070955E+03  0.7818609E-02  0.9705174E-01
       -1   -1    0    0    0  501  0.00000000000E+00  0.00000000000E+00  0.18767309571E+03  0.18767309577E+03  0.50400001928E-02 0. -1.
        1   -1    0    0  501    0  0.00000000000E+00  0.00000000000E+00 -0.66603044594E+03  0.66603044596E+03  0.50400001928E-02 0.  1.
    10030    2    1    2    0    0  0.00000000000E+00  0.00000000000E+00 -0.47835735024E+03  0.85370354174E+03  0.70709545512E+03 0.  0.
        1    1    3    3  502    0  0.89948188616E+01 -0.35338198862E+03 -0.24644871691E+03  0.43092540739E+03  0.50400001928E-02 0. -1.
       -1    1    3    3    0  502 -0.89948188616E+01  0.35338198862E+03 -0.23190863333E+03  0.42277813435E+03  0.50400001928E-02 0.  1.
</event>
<event>
 5   0  0.1858013E-02  0.6862341E+03  0.7818609E-02  0.9741068E-01
       -1   -1    0    0    0  501  0.00000000000E+00  0.00000000000E+00  0.18417892179E+03  0.18417892186E+03  0.50400001928E-02 0. -1.
        1   -1    0    0  501    0  0.00000000000E+00  0.00000000000E+00 -0.63921161987E+03  0.63921161989E+03  0.50400001928E-02 0.  1.
    10030    2    1    2    0    0  0.00000000000E+00  0.00000000000E+00 -0.45503269807E+03  0.82339054175E+03  0.68623409120E+03 0.  0.
        2    1    3    3  502    0  0.15332215454E+03  0.30538920144E+03 -0.19035800329E+03  0.39116034673E+03  0.25500000920E-02 0.  1.
       -2    1    3    3    0  502 -0.15332215454E+03 -0.30538920144E+03 -0.26467469478E+03  0.43223019502E+03  0.25500000920E-02 0. -1.
</event>
<event>
 5   0  0.2933851E-02  0.6950095E+03  0.7818609E-02  0.9725805E-01
       -2   -1    0    0    0  501  0.00000000000E+00  0.00000000000E+00  0.11172411538E+03  0.11172411541E+03  0.25500000920E-02 0.  1.
        2   -1    0    0  501    0  0.00000000000E+00  0.00000000000E+00 -0.10808728883E+04  0.10808728883E+04  0.25500000920E-02 0. -1.
    10030    2    1    2    0    0  0.00000000000E+00  0.00000000000E+00 -0.96914877291E+03  0.11925970037E+04  0.69500954612E+03 0.  0.
        2    1    3    3  502    0 -0.12022931250E+03 -0.22740055766E+03 -0.88550874771E+03  0.92211270650E+03  0.25500000920E-02 0. -1.
       -2    1    3    3    0  502  0.12022931250E+03  0.22740055766E+03 -0.83640025202E+02  0.27048429720E+03  0.25500000920E-02 0.  1.
</event>
<event>
 5   0  0.3184443E-02  0.6993163E+03  0.7818609E-02  0.9718402E-01
        2   -1    0    0  501    0  0.00000000000E+00  0.00000000000E+00  0.23720486514E+04  0.23720486514E+04  0.25500000920E-02 0.  1.
       -2   -1    0    0    0  501  0.00000000000E+00  0.00000000000E+00 -0.51542295391E+02  0.51542295454E+02  0.25500000920E-02 0. -1.
    10030    2    1    2    0    0  0.00000000000E+00  0.00000000000E+00  0.23205063560E+04  0.24235909468E+04  0.69931633000E+03 0.  0.
        3    1    3    3  502    0 -0.45765182759E+02 -0.27945210926E+03  0.18711176645E+04  0.18924241749E+04  0.10100000352E+00 0.  1.
       -3    1    3    3    0  502  0.45765182759E+02  0.27945210926E+03  0.44938869154E+03  0.53116677194E+03  0.10100000352E+00 0. -1.
</event>
<event>
 5   0  0.1839038E-02  0.6960360E+03  0.7818609E-02  0.9724035E-01
        1   -1    0    0  501    0  0.00000000000E+00  0.00000000000E+00  0.48724468513E+03  0.48724468515E+03  0.50400001928E-02 0.  1.
       -1   -1    0    0    0  501  0.00000000000E+00  0.00000000000E+00 -0.24857436629E+03  0.24857436634E+03  0.50400001928E-02 0. -1.
    10030    2    1    2    0    0  0.00000000000E+00  0.00000000000E+00  0.23867031884E+03  0.73581905149E+03  0.69603603028E+03 0.  0.
        5    1    3    3  502    0 -0.18548482627E+03 -0.18936324451E+02 -0.19128047067E+03  0.26715821832E+03  0.46999998093E+01 0. -1.
       -5    1    3    3    0  502  0.18548482627E+03  0.18936324451E+02  0.42995078950E+03  0.46866083317E+03  0.46999998093E+01 0.  1.
</event>
<event>
 5   0  0.1969818E-02  0.7016619E+03  0.7818609E-02  0.9714394E-01
       -1   -1    0    0    0  501  0.00000000000E+00  0.00000000000E+00  0.52186911567E+02  0.52186911810E+02  0.50400001928E-02 0.  1.
        1   -1    0    0  501    0  0.00000000000E+00  0.00000000000E+00 -0.23584909302E+04  0.23584909302E+04  0.50400001928E-02 0. -1.
    10030    2    1    2    0    0  0.00000000000E+00  0.00000000000E+00 -0.23063040186E+04  0.24106778420E+04  0.70166190691E+03 0.  0.
        1    1    3    3  502    0 -0.27262357197E+03 -0.20941705902E+03 -0.13937283467E+04  0.14354991540E+04  0.50400001928E-02 0.  1.
       -1    1    3    3    0  502  0.27262357197E+03  0.20941705902E+03 -0.91257567186E+03  0.97517868798E+03  0.50400001928E-02 0. -1.
</event>
<event>
 5   0  0.1884172E-02  0.6963966E+03  0.7818609E-02  0.9723414E-01
       -1   -1    0    0    0  501  0.00000000000E+00  0.00000000000E+00  0.18019626362E+03  0.18019626369E+03  0.50400001928E-02 0.  1.
        1   -1    0    0  501    0  0.00000000000E+00  0.00000000000E+00 -0.67283325808E+03  0.67283325809E+03  0.50400001928E-02 0. -1.
    10030    2    1    2    0    0  0.00000000000E+00  0.00000000000E+00 -0.49263699446E+03  0.85302952178E+03  0.69639655134E+03 0.  0.
        3    1    3    3  502    0 -0.15383569782E+03  0.26645992396E+03 -0.46631430897E+02  0.31119256667E+03  0.10100000352E+00 0.  1.
       -3    1    3    3    0  502  0.15383569782E+03 -0.26645992396E+03 -0.44600556356E+03  0.54183695512E+03  0.10100000352E+00 0. -1.
</event>
<event>
 5   0  0.3113940E-02  0.7382418E+03  0.7818609E-02  0.9653980E-01
        2   -1    0    0  501    0  0.00000000000E+00  0.00000000000E+00  0.33427023155E+03  0.33427023156E+03  0.25500000920E-02 0. -1.
       -2   -1    0    0    0  501  0.00000000000E+00  0.00000000000E+00 -0.40760505943E+03  0.40760505944E+03  0.25500000920E-02 0.  1.
    10030    2    1    2    0    0  0.00000000000E+00  0.00000000000E+00 -0.73334827872E+02  0.74187529100E+03  0.73824179671E+03 0.  0.
        5    1    3    3  502    0  0.87798352116E+02 -0.28727504817E+03 -0.25218189829E+03  0.39224138456E+03  0.46999998093E+01 0. -1.
       -5    1    3    3    0  502 -0.87798352116E+02  0.28727504817E+03  0.17884707042E+03  0.34963390644E+03  0.46999998093E+01 0.  1.
</event>
<event>
 5   0  0.1233912E-02  0.7002128E+03  0.7818609E-02  0.9716868E-01
        3   -1    0    0  501    0  0.00000000000E+00  0.00000000000E+00  0.90425661300E+03  0.90425661864E+03  0.10100000352E+00 0.  1.
       -3   -1    0    0    0  501  0.00000000000E+00  0.00000000000E+00 -0.13555274709E+03  0.13555278471E+03  0.10100000352E+00 0. -1.
    10030    2    1    2    0    0  0.00000000000E+00  0.00000000000E+00  0.76870386591E+03  0.10398094034E+04  0.70021279754E+03 0.  0.
        2    1    3    3  502    0  0.16339509850E+03  0.12294692759E+03  0.80636259680E+03  0.83188613569E+03  0.25500000920E-02 0.  1.
       -2    1    3    3    0  502 -0.16339509850E+03 -0.12294692759E+03 -0.37658730891E+02  0.20792326767E+03  0.25500000920E-02 0. -1.
</event>
<event>
 5   0  0.2933851E-02  0.6863502E+03  0.7818609E-02  0.9740864E-01
       -2   -1    0    0    0  501  0.00000000000E+00  0.00000000000E+00  0.23318732110E+03  0.23318732111E+03  0.25500000920E-02 0.  1.
        2   -1    0    0  501    0  0.00000000000E+00  0.00000000000E+00 -0.50504090657E+03  0.50504090658E+03  0.25500000920E-02 0. -1.
    10030    2    1    2    0    0  0.00000000000E+00  0.00000000000E+00 -0.27185358548E+03  0.73822822769E+03  0.68635016153E+03 0.  0.
        2    1    3    3  502    0  0.24869762761E+03 -0.15968110078E+03  0.51671376545E+02  0.30003082356E+03  0.25500000920E-02 0.  1.
       -2    1    3    3    0  502 -0.24869762761E+03  0.15968110078E+03 -0.32352496202E+03  0.43819740413E+03  0.25500000920E-02 0. -1.
</event>
<event>
 5   0  0.2933851E-02  0.6973707E+03  0.7818609E-02  0.9721739E-01
       -2   -1    0    0    0  501  0.00000000000E+00  0.00000000000E+00  0.20536252916E+03  0.20536252917E+03  0.25500000920E-02 0. -1.
        2   -1    0    0  501    0  0.00000000000E+00  0.00000000000E+00 -0.59203338648E+03  0.59203338649E+03  0.25500000920E-02 0.  1.
    10030    2    1    2    0    0  0.00000000000E+00  0.00000000000E+00 -0.38667085732E+03  0.79739591566E+03  0.69737070085E+03 0.  0.
        2    1    3    3  502    0  0.13087801774E+02  0.29952682693E+03  0.10227128475E+02  0.29998700767E+03  0.25500000920E-02 0. -1.
       -2    1    3    3    0  502 -0.13087801774E+02 -0.29952682693E+03 -0.39689798580E+03  0.49740890799E+03  0.25500000920E-02 0.  1.
</event>
<event>
 5   0  0.3113940E-02  0.7121679E+03  0.7818609E-02  0.9696647E-01
        2   -1    0    0  501    0  0.00000000000E+00  0.00000000000E+00  0.74383261023E+03  0.74383261023E+03  0.25500000920E-02 0.  1.
       -2   -1    0    0    0  501  0.00000000000E+00  0.00000000000E+00 -0.17046280823E+03  0.17046280825E+03  0.25500000920E-02 0. -1.
    10030    2    1    2    0    0  0.00000000000E+00  0.00000000000E+00  0.57336980200E+03  0.91429541849E+03  0.71216794538E+03 0.  0.
        5    1    3    3  502    0 -0.32660422195E+03 -0.94305810891E+02  0.15075872813E+03  0.37190615466E+03  0.46999998093E+01 0. -1.
       -5    1    3    3    0  502  0.32660422195E+03  0.94305810891E+02  0.42261107387E+03  0.54238926383E+03  0.46999998093E+01 0.  1.
</event>
<event>
 5   0  0.3290656E-02  0.6981272E+03  0.7818609E-02  0.9720440E-01
       -2   -1    0    0    0  501  0.00000000000E+00  0.00000000000E+00  0.11471720662E+03  0.11471720665E+03  0.25500000920E-02 0.  1.
        2   -1    0    0  501    0  0.00000000000E+00  0.00000000000E+00 -0.10621371092E+04  0.10621371092E+04  0.25500000920E-02 0. -1.
    10030    2    1    2    0    0  0.00000000000E+00  0.00000000000E+00 -0.94741990254E+03  0.11768543158E+04  0.69812721544E+03 0.  0.
        1    1    3    3  502    0  0.28836518709E+03  0.27719070958E+02 -0.14543553291E+03  0.32415169640E+03  0.50400001928E-02 0.  1.
       -1    1    3    3    0  502 -0.28836518709E+03 -0.27719070958E+02 -0.80198436962E+03  0.85270261942E+03  0.50400001928E-02 0. -1.
</event>
<event>
 5   0  0.2933851E-02  0.7043129E+03  0.7818609E-02  0.9709885E-01
       -2   -1    0    0    0  501  0.00000000000E+00  0.00000000000E+00  0.94532107319E+02  0.94532107354E+02  0.25500000920E-02 0. -1.
        2   -1    0    0  501    0  0.00000000000E+00  0.00000000000E+00 -0.13118736064E+04  0.13118736064E+04  0.25500000920E-02 0.  1.
    10030    2    1    2    0    0  0.00000000000E+00  0.00000000000E+00 -0.12173414991E+04  0.14064057137E+04  0.70431293208E+03 0.  0.
        2    1    3    3  502    0  0.14000149958E+03  0.26732134370E+03 -0.24618343990E+03  0.38944499838E+03  0.25500000920E-02 0.  1.
       -2    1    3    3    0  502 -0.14000149958E+03 -0.26732134370E+03 -0.97115805917E+03  0.10169607154E+04  0.25500000920E-02 0. -1.
</event>
<event>
 5   0  0.3290656E-02  0.6921913E+03  0.7818609E-02  0.9730680E-01
       -2   -1    0    0    0  501  0.00000000000E+00  0.00000000000E+00  0.48717961119E+02  0.48717961186E+02  0.25500000920E-02 0.  1.
        2   -1    0    0  501    0  0.00000000000E+00  0.00000000000E+00 -0.24586868764E+04  0.24586868764E+04  0.25500000920E-02 0. -1.
    10030    2    1    2    0    0  0.00000000000E+00  0.00000000000E+00 -0.24099689153E+04  0.25074048376E+04  0.69219133694E+03 0.  0.
        1    1    3    3  502    0 -0.17272534502E+03 -0.27389309881E+03 -0.16476125025E+04  0.16791302608E+04  0.50400001928E-02 0. -1.
       -1    1    3    3    0  502  0.17272534502E+03  0.27389309881E+03 -0.76235641283E+03  0.82827457681E+03  0.50400001928E-02 0.  1.
</event>
<event>
 5   0  0.1858013E-02  0.6662777E+03  0.7818609E-02  0.9776706E-01
        1   -1    0    0  501    0  0.00000000000E+00  0.00000000000E+00  0.10235171969E+03  0.10235171982E+03  0.50400001928E-02 0. -1.
       -1   -1    0    0    0  501  0.00000000000E+00  0.00000000000E+00 -0.10843149547E+04  0.10843149547E+04  0.50400001928E-02 0.  1.
    10030    2    1    2    0    0  0.00000000000E+00  0.00000000000E+00 -0.98196323499E+03  0.11866666745E+04  0.66627772101E+03 0.  0.
        2    1    3    3  502    0  0.43016985686E+01 -0.57644683787E+02 -0.10753146973E+04  0.10768672678E+04  0.25500000920E-02 0.  1.
       -2    1    3    3    0  502 -0.43016985686E+01  0.57644683787E+02  0.93351462352E+02  0.10979940669E+03  0.25500000920E-02 0. -1.
</event>
<event>
 5   0  0.1951465E-02  0.7027020E+03  0.7818609E-02  0.9712623E-01
       -1   -1    0    0    0  501  0.00000000000E+00  0.00000000000E+00  0.25637168540E+03  0.25637168545E+03  0.50400001928E-02 0.  1.
        1   -1    0    0  501    0  0.00000000000E+00  0.00000000000E+00 -0.48151774026E+03  0.48151774029E+03  0.50400001928E-02 0. -1.
    10030    2    1    2    0    0  0.00000000000E+00  0.00000000000E+00 -0.22514605486E+03  0.73788942573E+03  0.70270196996E+03 0.  0.
        4    1    3    3  502    0  0.43250459594E+02 -0.49286327748E+01  0.25352669382E+03  0.25723975403E+03  0.12699999809E+01 0.  1.
       -4    1    3    3    0  502 -0.43250459594E+02  0.49286327748E+01 -0.47867274868E+03  0.48064967170E+03  0.12699999809E+01 0. -1.
</event>
<event>
 5   0  0.1951465E-02  0.7138515E+03  0.7818609E-02  0.9693833E-01
       -1   -1    0    0    0  501  0.00000000000E+00  0.00000000000E+00  0.31883235031E+03  0.31883235035E+03  0.50400001928E-02 0.  1.
        1   -1    0    0  501    0  0.00000000000E+00  0.00000000000E+00 -0.39957047216E+03  0.39957047219E+03  0.50400001928E-02 0. -1.
    10030    2    1    2    0    0  0.00000000000E+00  0.00000000000E+00 -0.80738121849E+02  0.71840282254E+03  0.71385150495E+03 0.  0.
        4    1    3    3  502    0 -0.13151928748E+03 -0.94829800058E+02  0.27962734863E+03  0.32323842742E+03  0.12699999809E+01 0.  1.
       -4    1    3    3    0  502  0.13151928748E+03  0.94829800058E+02 -0.36036547048E+03  0.39516439512E+03  0.12699999809E+01 0. -1.
</event>
<event>
 5   0  0.3183963E-02  0.7059291E+03  0.7818609E-02  0.9707146E-01
       -2   -1    0    0    0  501  0.00000000000E+00  0.00000000000E+00  0.12266770643E+03  0.12266770645E+03  0.25500000920E-02 0.  1.
        2   -1    0    0  501    0  0.00000000000E+00  0.00000000000E+00 -0.10156215426E+04  0.10156215426E+04  0.25500000920E-02 0. -1.
    10030    2    1    2    0    0  0.00000000000E+00  0.00000000000E+00 -0.89295383618E+03  0.11382892491E+04  0.70592907645E+03 0.  0.
        4    1    3    3  502    0 -0.10101028446E+03 -0.11393875894E+03 -0.95993455496E+03  0.97193676804E+03  0.12699999809E+01 0. -1.
       -4    1    3    3    0  502  0.10101028446E+03  0.11393875894E+03  0.66980718777E+02  0.16635248103E+03  0.12699999809E+01 0.  1.
</event>
<event>
 5   0  0.1839038E-02  0.7011932E+03  0.7818609E-02  0.9715194E-01
        1   -1    0    0  501    0  0.00000000000E+00  0.00000000000E+00  0.48016180170E+03  0.48016180173E+03  0.50400001928E-02 0.  1.
       -1   -1    0    0    0  501  0.00000000000E+00  0.00000000000E+00 -0.25599285866E+03  0.25599285871E+03  0.50400001928E-02 0. -1.
    10030    2    1    2    0    0  0.00000000000E+00  0.00000000000E+00  0.22416894304E+03  0.73615466044E+03  0.70119324659E+03 0.  0.
        5    1    3    3  502    0  0.14179919283E+03 -0.25327129167E+03 -0.94293907150E+02  0.30523235280E+03  0.46999998093E+01 0. -1.
       -5    1    3    3    0  502 -0.14179919283E+03  0.25327129167E+03  0.31846285019E+03  0.43092230764E+03  0.46999998093E+01 0.  1.
</event>
<event>
 5   0  0.1858013E-02  0.7028869E+03  0.7818609E-02  0.9712308E-01
       -1   -1    0    0    0  501  0.00000000000E+00  0.00000000000E+00  0.40648846168E+03  0.40648846171E+03  0.50400001928E-02 0.  1.
        1   -1    0    0  501    0  0.00000000000E+00  0.00000000000E+00 -0.30385239216E+03  0.30385239220E+03  0.50400001928E-02 0. -1.
    10030    2    1    2    0    0  0.00000000000E+00  0.00000000000E+00  0.10263606952E+03  0.71034085391E+03  0.70288687992E+03 0.  0.
        2    1    3    3  502    0 -0.22712428242E+03 -0.15246957833E+02 -0.21927992946E+03  0.31607213870E+03  0.25500000920E-02 0. -1.
       -2    1    3    3    0  502  0.22712428242E+03  0.15246957833E+02  0.32191599898E+03  0.39426871521E+03  0.25500000920E-02 0.  1.
</event>
<event>
 5   0  0.1951465E-02  0.7002724E+03  0.7818609E-02  0.9716766E-01
        1   -1    0    0  501    0  0.00000000000E+00  0.00000000000E+00  0.24905129963E+03  0.24905129968E+03  0.50400001928E-02 0.  1.
       -1   -1    0    0    0  501  0.00000000000E+00  0.00000000000E+00 -0.49224941854E+03  0.49224941856E+03  0.50400001928E-02 0. -1.
    10030    2    1    2    0    0  0.00000000000E+00  0.00000000000E+00 -0.24319811890E+03  0.74130071825E+03  0.70027239688E+03 0.  0.
        4    1    3    3  502    0 -0.74711274744E+02 -0.85879073165E+02 -0.47211316452E+03  0.48564332878E+03  0.12699999809E+01 0. -1.
       -4    1    3    3    0  502  0.74711274744E+02  0.85879073165E+02  0.22891504561E+03  0.25565738947E+03  0.12699999809E+01 0.  1.
</event>
<event>
 5   0  0.1951465E-02  0.7045775E+03  0.7818609E-02  0.9709436E-01
       -1   -1    0    0    0  501  0.00000000000E+00  0.00000000000E+00  0.64880926361E+03  0.64880926363E+03  0.50400001928E-02 0.  1.
        1   -1    0    0  501    0  0.00000000000E+00  0.00000000000E+00 -0.19128482647E+03  0.19128482654E+03  0.50400001928E-02 0. -1.
    10030    2    1    2    0    0  0.00000000000E+00  0.00000000000E+00  0.45752443713E+03  0.84009409017E+03  0.70457751153E+03 0.  0.
        4    1    3    3  502    0 -0.32410044466E+03  0.10540189882E+03  0.33510839153E+03  0.47796433494E+03  0.12699999809E+01 0.  1.
       -4    1    3    3    0  502  0.32410044466E+03 -0.10540189882E+03  0.12241604560E+03  0.36212975523E+03  0.12699999809E+01 0. -1.
</event>
<event>
 5   0  0.3184443E-02  0.7011895E+03  0.7818609E-02  0.9715200E-01
       -2   -1    0    0    0  501  0.00000000000E+00  0.00000000000E+00  0.14095837284E+03  0.14095837286E+03  0.25500000920E-02 0.  1.
        2   -1    0    0  501    0  0.00000000000E+00  0.00000000000E+00 -0.87200688633E+03  0.87200688633E+03  0.25500000920E-02 0. -1.
    10030    2    1    2    0    0  0.00000000000E+00  0.00000000000E+00 -0.73104851349E+03  0.10129652592E+04  0.70118948028E+03 0.  0.
        3    1    3    3  502    0 -0.19262695947E+02  0.11352475933E+03 -0.84391063288E+03  0.85173005637E+03  0.10100000352E+00 0. -1.
       -3    1    3    3    0  502  0.19262695947E+02 -0.11352475933E+03  0.11286211939E+03  0.16123520283E+03  0.10100000352E+00 0.  1.
</event>
<event>
 5   0  0.1858013E-02  0.6993954E+03  0.7818609E-02  0.9718267E-01
       -1   -1    0    0    0  501  0.00000000000E+00  0.00000000000E+00  0.38835107483E+03  0.38835107486E+03  0.50400001928E-02 0.  1.
        1   -1    0    0  501    0  0.00000000000E+00  0.00000000000E+00 -0.31489153353E+03  0.31489153357E+03  0.50400001928E-02 0. -1.
    10030    2    1    2    0    0  0.00000000000E+00  0.00000000000E+00  0.73459541300E+02  0.70324260843E+03  0.69939535465E+03 0.  0.
        2    1    3    3  502    0  0.10473962561E+03  0.82206569286E+02 -0.28840659328E+03  0.31765810593E+03  0.25500000920E-02 0. -1.
       -2    1    3    3    0  502 -0.10473962561E+03 -0.82206569286E+02  0.36186613458E+03  0.38558450250E+03  0.25500000920E-02 0.  1.
</event>
<event>
 5   0  0.3184443E-02  0.6994345E+03  0.7818609E-02  0.9718200E-01
       -2   -1    0    0    0  501  0.00000000000E+00  0.00000000000E+00  0.26989686716E+03  0.26989686717E+03  0.25500000920E-02 0. -1.
        2   -1    0    0  501    0  0.00000000000E+00  0.00000000000E+00 -0.45314404485E+03  0.45314404486E+03  0.25500000920E-02 0.  1.
    10030    2    1    2    0    0  0.00000000000E+00  0.00000000000E+00 -0.18324717769E+03  0.72304091202E+03  0.69943450896E+03 0.  0.
        3    1    3    3  502    0  0.36685005502E+02  0.21798273709E+03 -0.37176790064E+03  0.43252010988E+03  0.10100000352E+00 0.  1.
       -3    1    3    3    0  502 -0.36685005502E+02 -0.21798273709E+03  0.18852072295E+03  0.29052080215E+03  0.10100000352E+00 0. -1.
</event>
<event>
 5   0  0.1839038E-02  0.6996992E+03  0.7818609E-02  0.9717747E-01
       -1   -1    0    0    0  501  0.00000000000E+00  0.00000000000E+00  0.29648208987E+03  0.29648208991E+03  0.50400001928E-02 0. -1.
        1   -1    0    0  501    0  0.00000000000E+00  0.00000000000E+00 -0.41282344657E+03  0.41282344660E+03  0.50400001928E-02 0.  1.
    10030    2    1    2    0    0  0.00000000000E+00  0.00000000000E+00 -0.11634135670E+03  0.70930553651E+03  0.69969924456E+03 0.  0.
        5    1    3    3  502    0 -0.29191857310E+03  0.14193149700E+03 -0.19039013141E+03  0.37633960102E+03  0.46999998093E+01 0.  1.
       -5    1    3    3    0  502  0.29191857310E+03 -0.14193149700E+03  0.74048774705E+02  0.33296593549E+03  0.46999998093E+01 0. -1.
</event>
<event>
 5   0  0.3184443E-02  0.7040749E+03  0.7818609E-02  0.9710289E-01
        2   -1    0    0  501    0  0.00000000000E+00  0.00000000000E+00  0.91418269949E+03  0.91418269950E+03  0.25500000920E-02 0. -1.
       -2   -1    0    0    0  501  0.00000000000E+00  0.00000000000E+00 -0.13556410917E+03  0.13556410919E+03  0.25500000920E-02 0.  1.
    10030    2    1    2    0    0  0.00000000000E+00  0.00000000000E+00  0.77861859032E+03  0.10497468087E+04  0.70407489172E+03 0.  0.
        3    1    3    3  502    0 -0.19291372770E+03  0.12970222112E+03  0.78347549450E+03  0.81723450317E+03  0.10100000352E+00 0. -1.
       -3    1    3    3    0  502  0.19291372770E+03 -0.12970222112E+03 -0.48569041717E+01  0.23251230552E+03  0.10100000352E+00 0.  1.
</event>
<event>
 5   0  0.1884172E-02  0.6786696E+03  0.7818609E-02  0.9754422E-01
       -1   -1    0    0    0  501  0.00000000000E+00  0.00000000000E+00  0.56014164970E+03  0.56014164972E+03  0.50400001928E-02 0. -1.
        1   -1    0    0  501    0  0.00000000000E+00  0.00000000000E+00 -0.20556964872E+03  0.20556964878E+03  0.50400001928E-02 0.  1.
    10030    2    1    2    0    0  0.00000000000E+00  0.00000000000E+00  0.35457200098E+03  0.76571129850E+03  0.67866964627E+03 0.  0.
        3    1    3    3  502    0 -0.27505060449E+03 -0.17858927823E+03  0.78919734480E+02  0.33730594424E+03  0.10100000352E+00 0.  1.
       -3    1    3    3    0  502  0.27505060449E+03  0.17858927823E+03  0.27565226650E+03  0.42840535426E+03  0.10100000352E+00 0. -1.
</event>
<event>
 5   0  0.1839038E-02  0.6907987E+03  0.7818609E-02  0.9733098E-01
        1   -1    0    0  501    0  0.00000000000E+00  0.00000000000E+00  0.63372863700E+03  0.63372863702E+03  0.50400001928E-02 0.  1.
       -1   -1    0    0    0  501  0.00000000000E+00  0.00000000000E+00 -0.18825206751E+03  0.18825206758E+03  0.50400001928E-02 0. -1.
    10030    2    1    2    0    0  0.00000000000E+00  0.00000000000E+00  0.44547656948E+03  0.82198070460E+03  0.69079874404E+03 0.  0.
        5    1    3    3  502    0 -0.26850796673E+02  0.24926857443E+03  0.50538086443E+03  0.56416991732E+03  0.46999998093E+01 0.  1.
       -5    1    3    3    0  502  0.26850796673E+02 -0.24926857443E+03 -0.59904294948E+02  0.25781078727E+03  0.46999998093E+01 0. -1.
</event>
<event>
 5   0  0.3113940E-02  0.6976349E+03  0.7818609E-02  0.9721285E-01
       -2   -1    0    0    0  501  0.00000000000E+00  0.00000000000E+00  0.11383182485E+03  0.11383182488E+03  0.25500000920E-02 0.  1.
        2   -1    0    0  501    0  0.00000000000E+00  0.00000000000E+00 -0.10688893206E+04  0.10688893206E+04  0.25500000920E-02 0. -1.
    10030    2    1    2    0    0  0.00000000000E+00  0.00000000000E+00 -0.95505749571E+03  0.11827211454E+04  0.69763492440E+03 0.  0.
        5    1    3    3  502    0  0.32200375657E+03 -0.53665295442E+02 -0.26930562944E+03  0.42321861399E+03  0.46999998093E+01 0.  1.
       -5    1    3    3    0  502 -0.32200375657E+03  0.53665295442E+02 -0.68575186627E+03  0.75950253144E+03  0.46999998093E+01 0. -1.
</event>
<event>
 5   0  0.1969818E-02  0.7038268E+03  0.7818609E-02  0.9710710E-01
        1   -1    0    0  501    0  0.00000000000E+00  0.00000000000E+00  0.46822080588E+03  0.46822080591E+03  0.50400001928E-02 0. -1.
       -1   -1    0    0    0  501  0.00000000000E+00  0.00000000000E+00 -0.26449710907E+03  0.26449710912E+03  0.50400001928E-02 0.  1.
    10030    2    1    2    0    0  0.00000000000E+00  0.00000000000E+00  0.20372369681E+03  0.73271791503E+03  0.70382682413E+03 0.  0.
        1    1    3    3  502    0  0.24878274357E+03 -0.16875343755E+03 -0.88603027505E+02  0.31340241334E+03  0.50400001928E-02 0.  1.
       -1    1    3    3    0  502 -0.24878274357E+03  0.16875343755E+03  0.29232672431E+03  0.41931550168E+03  0.50400001928E-02 0. -1.
</event>
<event>
 5   0  0.1858013E-02  0.6686449E+03  0.7818609E-02  0.9772409E-01
       -1   -1    0    0    0  501  0.00000000000E+00  0.00000000000E+00  0.11107844888E+04  0.11107844888E+04  0.50400001928E-02 0. -1.
        1   -1    0    0  501    0  0.00000000000E+00  0.00000000000E+00 -0.10062391801E+03  0.10062391813E+03  0.50400001928E-02 0.  1.
    10030    2    1    2    0    0  0.00000000000E+00  0.00000000000E+00  0.10101605708E+04  0.12114084069E+04  0.66864486061E+03 0.  0.
        2    1    3    3  502    0  0.17762830068E+02 -0.16993330889E+03  0.10257099801E+04  0.10398431665E+04  0.25500000920E-02 0. -1.
       -2    1    3    3    0  502 -0.17762830068E+02  0.16993330889E+03 -0.15549409290E+02  0.17156524047E+03  0.25500000920E-02 0.  1.
</event>
<event>
 5   0  0.2933851E-02  0.7066269E+03  0.7818609E-02  0.9705966E-01
        2   -1    0    0  501    0  0.00000000000E+00  0.00000000000E+00  0.44238037085E+03  0.44238037086E+03  0.25500000920E-02 0.  1.
       -2   -1    0    0    0  501  0.00000000000E+00  0.00000000000E+00 -0.28217885145E+03  0.28217885146E+03  0.25500000920E-02 0. -1.
    10030    2    1    2    0    0  0.00000000000E+00  0.00000000000E+00  0.16020151940E+03  0.72455922232E+03  0.70662687454E+03 0.  0.
        2    1    3    3  502    0 -0.59135910132E+01  0.27282968699E+03  0.31020462252E+03  0.41315604376E+03  0.25500000920E-02 0.  1.
       -2    1    3    3    0  502  0.59135910132E+01 -0.27282968699E+03 -0.15000310312E+03  0.31140317855E+03  0.25500000920E-02 0. -1.
</event>
<event>
 5   0  0.2933851E-02  0.7011009E+03  0.7818609E-02  0.9715351E-01
       -2   -1    0    0    0  501  0.00000000000E+00  0.00000000000E+00  0.12571467448E+03  0.12571467451E+03  0.25500000920E-02 0. -1.
        2   -1    0    0  501    0  0.00000000000E+00  0.00000000000E+00 -0.97749609560E+03  0.97749609561E+03  0.25500000920E-02 0.  1.
    10030    2    1    2    0    0  0.00000000000E+00  0.00000000000E+00 -0.85178142112E+03  0.11032107701E+04  0.70110085861E+03 0.  0.
        2    1    3    3  502    0  0.24286259119E+03 -0.22304934592E+03 -0.23869652961E+03  0.40707404998E+03  0.25500000920E-02 0. -1.
       -2    1    3    3    0  502 -0.24286259119E+03  0.22304934592E+03 -0.61308489151E+03  0.69613672014E+03  0.25500000920E-02 0.  1.
</event>
<event>
 5   0  0.3183963E-02  0.7026156E+03  0.7818609E-02  0.9712770E-01
       -2   -1    0    0    0  501  0.00000000000E+00  0.00000000000E+00  0.10432359764E+03  0.10432359767E+03  0.25500000920E-02 0. -1.
        2   -1    0    0  501    0  0.00000000000E+00  0.00000000000E+00 -0.11830227014E+04  0.11830227014E+04  0.25500000920E-02 0.  1.
    10030    2    1    2    0    0  0.00000000000E+00  0.00000000000E+00 -0.10786991038E+04  0.12873462991E+04  0.70261563981E+03 0.  0.
        4    1    3    3  502    0 -0.51962206478E+02  0.21462025334E+03 -0.38735435607E+02  0.22419627767E+03  0.12699999809E+01 0. -1.
       -4    1    3    3    0  502  0.51962206478E+02 -0.21462025334E+03 -0.10399636682E+04  0.10631500215E+04  0.12699999809E+01 0.  1.
</event>
<event>
 5   0  0.3290656E-02  0.6917004E+03  0.7818609E-02  0.9731532E-01
       -2   -1    0    0    0  501  0.00000000000E+00  0.00000000000E+00  0.95643907007E+02  0.95643907041E+02  0.25500000920E-02 0. -1.
        2   -1    0    0  501    0  0.00000000000E+00  0.00000000000E+00 -0.12506011085E+04  0.12506011085E+04  0.25500000920E-02 0.  1.
    10030    2    1    2    0    0  0.00000000000E+00  0.00000000000E+00 -0.11549572015E+04  0.13462450155E+04  0.69170044425E+03 0.  0.
        1    1    3    3  502    0  0.65329997466E+02  0.19946910560E+03 -0.42493352125E+02  0.21415325741E+03  0.50400001928E-02 0. -1.
       -1    1    3    3    0  502 -0.65329997466E+02 -0.19946910560E+03 -0.11124638493E+04  0.11320917581E+04  0.50400001928E-02 0.  1.
</event>
<event>
 5   0  0.1233912E-02  0.7016584E+03  0.7818609E-02  0.9714400E-01
       -4   -1    0    0    0  501  0.00000000000E+00  0.00000000000E+00  0.60508082960E+03  0.60508216240E+03  0.12699999809E+01 0.  1.
        4   -1    0    0  501    0  0.00000000000E+00  0.00000000000E+00 -0.20340915506E+03  0.20341311969E+03  0.12699999809E+01 0. -1.
    10030    2    1    2    0    0  0.00000000000E+00  0.00000000000E+00  0.40167167454E+03  0.80849528209E+03  0.70165838343E+03 0.  0.
        4    1    3    3  502    0 -0.13324761299E+03 -0.30283744106E+03  0.66390510887E+02  0.33745333738E+03  0.12699999809E+01 0. -1.
       -4    1    3    3    0  502  0.13324761299E+03  0.30283744106E+03  0.33528116365E+03  0.47104194471E+03  0.12699999809E+01 0.  1.
</event>
<event>
 5   0  0.2933851E-02  0.6985066E+03  0.7818609E-02  0.9719790E-01
        2   -1    0    0  501    0  0.00000000000E+00  0.00000000000E+00  0.43660361436E+03  0.43660361437E+03  0.25500000920E-02 0. -1.
       -2   -1    0    0    0  501  0.00000000000E+00  0.00000000000E+00 -0.27937896926E+03  0.27937896927E+03  0.25500000920E-02 0.  1.
    10030    2    1    2    0    0  0.00000000000E+00  0.00000000000E+00  0.15722464510E+03  0.71598258364E+03  0.69850660057E+03 0.  0.
        2    1    3    3  502    0  0.12860624766E+03 -0.16249553465E+03  0.36677488471E+03  0.42126972568E+03  0.25500000920E-02 0. -1.
       -2    1    3    3    0  502 -0.12860624766E+03  0.16249553465E+03 -0.20955023961E+03  0.29471285796E+03  0.25500000920E-02 0.  1.
</event>
<event>
 5   0  0.3184443E-02  0.7024867E+03  0.7818609E-02  0.9712989E-01
       -2   -1    0    0    0  501  0.00000000000E+00  0.00000000000E+00  0.89722270445E+02  0.89722270481E+02  0.25500000920E-02 0. -1.
        2   -1    0    0  501    0  0.00000000000E+00  0.00000000000E+00 -0.13750418158E+04  0.13750418158E+04  0.25500000920E-02 0.  1.
    10030    2    1    2    0    0  0.00000000000E+00  0.00000000000E+00 -0.12853195453E+04  0.14647640863E+04  0.70248665096E+03 0.  0.
        3    1    3    3  502    0  0.18396592472E+03  0.35577372997E+02 -0.12621266572E+04  0.12759596075E+04  0.10100000352E+00 0.  1.
       -3    1    3    3    0  502 -0.18396592472E+03 -0.35577372997E+02 -0.23192888079E+02  0.18880447872E+03  0.10100000352E+00 0. -1.
</event>
<event>
 5   0  0.1233912E-02  0.7009429E+03  0.7818609E-02  0.9715621E-01
       -3   -1    0    0    0  501  0.00000000000E+00  0.00000000000E+00  0.15753175906E+03  0.15753179144E+03  0.10100000352E+00 0.  1.
        3   -1    0    0  501    0  0.00000000000E+00  0.00000000000E+00 -0.77971718739E+03  0.77971719394E+03  0.10100000352E+00 0. -1.
    10030    2    1    2    0    0  0.00000000000E+00  0.00000000000E+00 -0.62218542833E+03  0.93724898538E+03  0.70094290307E+03 0.  0.
        4    1    3    3  502    0  0.17023012078E+03 -0.29442534879E+03 -0.42426797417E+03  0.54375500627E+03  0.12699999809E+01 0. -1.
       -4    1    3    3    0  502 -0.17023012078E+03  0.29442534879E+03 -0.19791745416E+03  0.39349397911E+03  0.12699999809E+01 0.  1.
</event>
<event>
 5   0  0.1233912E-02  0.7044315E+03  0.7818609E-02  0.9709684E-01
        3   -1    0    0  501    0  0.00000000000E+00  0.00000000000E+00  0.11332674416E+03  0.11332678917E+03  0.10100000352E+00 0.  1.
       -3   -1    0    0    0  501  0.00000000000E+00  0.00000000000E+00 -0.10946746965E+04  0.10946747012E+04  0.10100000352E+00 0. -1.
    10030    2    1    2    0    0  0.00000000000E+00  0.00000000000E+00 -0.98134795233E+03  0.12080014903E+04  0.70443154180E+03 0.  0.
        2    1    3    3  502    0 -0.68920517847E+01  0.13747066951E+03 -0.10466438248E+04  0.10556557115E+04  0.25500000920E-02 0. -1.
       -2    1    3    3    0  502  0.68920517847E+01 -0.13747066951E+03  0.65295872438E+02  0.15234577879E+03  0.25500000920E-02 0.  1.
</event>
<event>
 5   0  0.1884172E-02  0.6978146E+03  0.7818609E-02  0.9720977E-01
        1   -1    0    0  501    0  0.00000000000E+00  0.00000000000E+00  0.52298606896E+03  0.52298606898E+03  0.50400001928E-02 0.  1.
       -1   -1    0    0    0  501  0.00000000000E+00  0.00000000000E+00 -0.23277157328E+03  0.23277157333E+03  0.50400001928E-02 0. -1.
    10030    2    1    2    0    0  0.00000000000E+00  0.00000000000E+00  0.29021449568E+03  0.75575764231E+03  0.69781456019E+03 0.  0.
        3    1    3    3  502    0  0.21698323093E+03 -0.16048259996E+03  0.38460225988E+03  0.46984603425E+03  0.10100000352E+00 0.  1.
       -3    1    3    3    0  502 -0.21698323093E+03  0.16048259996E+03 -0.94387764201E+02  0.28591160806E+03  0.10100000352E+00 0. -1.
</event>
<event>
 5   0  0.3113940E-02  0.6648579E+03  0.7818609E-02  0.9779292E-01
       -2   -1    0    0    0  501  0.00000000000E+00  0.00000000000E+00  0.56865759989E+02  0.56865760046E+02  0.25500000920E-02 0.  1.
        2   -1    0    0  501    0  0.00000000000E+00  0.00000000000E+00 -0.19433309303E+04  0.19433309303E+04  0.25500000920E-02 0. -1.
    10030    2    1    2    0    0  0.00000000000E+00  0.00000000000E+00 -0.18864651703E+04  0.20001966904E+04  0.66485785043E+03 0.  0.
        5    1    3    3  502    0 -0.22601037886E+03  0.85289597813E+02 -0.16301359642E+04  0.16479442826E+04  0.46999998093E+01 0. -1.
       -5    1    3    3    0  502  0.22601037886E+03 -0.85289597813E+02 -0.25632920612E+03  0.35225240773E+03  0.46999998093E+01 0.  1.
</event>
<event>
 5   0  0.1951465E-02  0.6892698E+03  0.7818609E-02  0.9735760E-01
        1   -1    0    0  501    0  0.00000000000E+00  0.00000000000E+00  0.44720184944E+03  0.44720184947E+03  0.50400001928E-02 0. -1.
       -1   -1    0    0    0  501  0.00000000000E+00  0.00000000000E+00 -0.26559195336E+03  0.26559195341E+03  0.50400001928E-02 0.  1.
    10030    2    1    2    0    0  0.00000000000E+00  0.00000000000E+00  0.18160989609E+03  0.71279380288E+03  0.68926979556E+03 0.  0.
        4    1    3    3  502    0 -0.29451673555E+03 -0.43714254367E+02  0.27028085718E+03  0.40212485401E+03  0.12699999809E+01 0. -1.
       -4    1    3    3    0  502  0.29451673555E+03  0.43714254367E+02 -0.88670961088E+02  0.31066894887E+03  0.12699999809E+01 0.  1.
</event>
<event>
 5   0  0.3290656E-02  0.7055232E+03  0.7818609E-02  0.9707833E-01
        2   -1    0    0  501    0  0.00000000000E+00  0.00000000000E+00  0.14118947683E+04  0.14118947683E+04  0.25500000920E-02 0. -1.
       -2   -1    0    0    0  501  0.00000000000E+00  0.00000000000E+00 -0.88137399534E+02  0.88137399571E+02  0.25500000920E-02 0.  1.
    10030    2    1    2    0    0  0.00000000000E+00  0.00000000000E+00  0.13237573687E+04  0.15000321678E+04  0.70552316283E+03 0.  0.
        1    1    3    3  502    0 -0.40801082873E+02 -0.27882586753E+03  0.21069790361E+03  0.35185536713E+03  0.50400001928E-02 0.  1.
       -1    1    3    3    0  502  0.40801082873E+02  0.27882586753E+03  0.11130594651E+04  0.11481768007E+04  0.50400001928E-02 0. -1.
</event>
<event>
 5   0  0.1233912E-02  0.7005381E+03  0.7818609E-02  0.9716312E-01
        3   -1    0    0  501    0  0.00000000000E+00  0.00000000000E+00  0.14463339562E+04  0.14463339597E+04  0.10100000352E+00 0. -1.
       -3   -1    0    0    0  501  0.00000000000E+00  0.00000000000E+00 -0.84827124308E+02  0.84827184436E+02  0.10100000352E+00 0.  1.
    10030    2    1    2    0    0  0.00000000000E+00  0.00000000000E+00  0.13615068319E+04  0.15311611442E+04  0.70053807613E+03 0.  0.
        1    1    3    3  502    0 -0.33555196114E+03 -0.37149617223E+02  0.88477572320E+03  0.94699698683E+03  0.50400001928E-02 0. -1.
       -1    1    3    3    0  502  0.33555196114E+03  0.37149617223E+02  0.47673110869E+03  0.58416415732E+03  0.50400001928E-02 0.  1.
</event>
<event>
 5   0  0.2933851E-02  0.6980229E+03  0.7818609E-02  0.9720619E-01
        2   -1    0    0  501    0  0.00000000000E+00  0.00000000000E+00  0.19814114145E+04  0.19814114145E+04  0.25500000920E-02 0.  1.
       -2   -1    0    0    0  501  0.00000000000E+00  0.00000000000E+00 -0.61475871646E+02  0.61475871699E+02  0.25500000920E-02 0. -1.
    10030    2    1    2    0    0  0.00000000000E+00  0.00000000000E+00  0.19199355429E+04  0.20428872862E+04  0.69802290465E+03 0.  0.
        2    1    3    3  502    0 -0.12616911732E+03  0.96137600445E+02  0.50115331110E+02  0.16635092667E+03  0.25500000920E-02 0. -1.
       -2    1    3    3    0  502  0.12616911732E+03 -0.96137600445E+02  0.18698202118E+04  0.18765363596E+04  0.25500000920E-02 0.  1.
</event>
<event>
 5   0  0.1839038E-02  0.7122583E+03  0.7818609E-02  0.9696496E-01
       -1   -1    0    0    0  501  0.00000000000E+00  0.00000000000E+00  0.37207932009E+03  0.37207932013E+03  0.50400001928E-02 0. -1.
        1   -1    0    0  501    0  0.00000000000E+00  0.00000000000E+00 -0.34086269074E+03  0.34086269077E+03  0.50400001928E-02 0.  1.
    10030    2    1    2    0    0  0.00000000000E+00  0.00000000000E+00  0.31216629356E+02  0.71294201090E+03  0.71225826282E+03 0.  0.
        5    1    3    3  502    0  0.29501524111E+03 -0.50312455508E+02 -0.17755500130E+03  0.34801322410E+03  0.46999998093E+01 0.  1.
       -5    1    3    3    0  502 -0.29501524111E+03  0.50312455508E+02  0.20877163066E+03  0.36492878680E+03  0.46999998093E+01 0. -1.
</event>
<event>
 5   0  0.2933851E-02  0.6976678E+03  0.7818609E-02  0.9721229E-01
        2   -1    0    0  501    0  0.00000000000E+00  0.00000000000E+00  0.20191030394E+03  0.20191030396E+03  0.25500000920E-02 0.  1.
       -2   -1    0    0    0  501  0.00000000000E+00  0.00000000000E+00 -0.60266907083E+03  0.60266907083E+03  0.25500000920E-02 0. -1.
    10030    2    1    2    0    0  0.00000000000E+00  0.00000000000E+00 -0.40075876689E+03  0.80457937479E+03  0.69766781573E+03 0.  0.
        2    1    3    3  502    0  0.30366880498E+03  0.15069469974E+03 -0.10555054391E+03  0.35505570404E+03  0.25500000920E-02 0. -1.
       -2    1    3    3    0  502 -0.30366880498E+03 -0.15069469974E+03 -0.29520822298E+03  0.44952367075E+03  0.25500000920E-02 0.  1.
</event>
<event>
 5   0  0.3113940E-02  0.7051767E+03  0.7818609E-02  0.9708420E-01
       -2   -1    0    0    0  501  0.00000000000E+00  0.00000000000E+00  0.53668828171E+02  0.53668828232E+02  0.25500000920E-02 0. -1.
        2   -1    0    0  501    0  0.00000000000E+00  0.00000000000E+00 -0.23164014934E+04  0.23164014934E+04  0.25500000920E-02 0.  1.
    10030    2    1    2    0    0  0.00000000000E+00  0.00000000000E+00 -0.22627326652E+04  0.23700703216E+04  0.70517672621E+03 0.  0.
        5    1    3    3  502    0 -0.14589700996E+03 -0.15194990913E+03 -0.20815241764E+04  0.20921614898E+04  0.46999998093E+01 0.  1.
       -5    1    3    3    0  502  0.14589700996E+03  0.15194990913E+03 -0.18120848884E+03  0.27790883186E+03  0.46999998093E+01 0. -1.
</event>
<event>
 5   0  0.1951465E-02  0.6763351E+03  0.7818609E-02  0.9758581E-01
        1   -1    0    0  501    0  0.00000000000E+00  0.00000000000E+00  0.17480598420E+04  0.17480598420E+04  0.50400001928E-02 0. -1.
       -1   -1    0    0    0  501  0.00000000000E+00  0.00000000000E+00 -0.65419550345E+02  0.65419550539E+02  0.50400001928E-02 0.  1.
    10030    2    1    2    0    0  0.00000000000E+00  0.00000000000E+00  0.16826402916E+04  0.18134793925E+04  0.67633509156E+03 0.  0.
        4    1    3    3  502    0 -0.33971605995E+02  0.45294890953E+02 -0.52613731343E+02  0.77301453972E+02  0.12699999809E+01 0.  1.
       -4    1    3    3    0  502  0.33971605995E+02 -0.45294890953E+02  0.17352540230E+04  0.17361779385E+04  0.12699999809E+01 0. -1.
</event>
<event>
 5   0  0.3184443E-02  0.6836271E+03  0.7818609E-02  0.9745649E-01
        2   -1    0    0  501    0  0.00000000000E+00  0.00000000000E+00  0.13198255772E+04  0.13198255772E+04  0.25500000920E-02 0.  1.
       -2   -1    0    0    0  501  0.00000000000E+00  0.00000000000E+00 -0.88524187383E+02  0.88524187420E+02  0.25500000920E-02 0. -1.
    10030    2    1    2    0    0  0.00000000000E+00  0.00000000000E+00  0.12313013899E+04  0.14083497647E+04  0.68362705254E+03 0.  0.
        3    1    3    3  502    0  0.18397546064E+02 -0.84834834794E+02 -0.65437679644E+02  0.10870841280E+03  0.10100000352E+00 0. -1.
       -3    1    3    3    0  502 -0.18397546064E+02  0.84834834794E+02  0.12967390695E+04  0.12996413519E+04  0.10100000352E+00 0.  1.
</event>
<event>
 5   0  0.1839038E-02  0.7124786E+03  0.7818609E-02  0.9696127E-01
        1   -1    0    0  501    0  0.00000000000E+00  0.00000000000E+00  0.49320155838E+03  0.49320155841E+03  0.50400001928E-02 0.  1.
       -1   -1    0    0    0  501  0.00000000000E+00  0.00000000000E+00 -0.25731151462E+03  0.25731151467E+03  0.50400001928E-02 0. -1.
    10030    2    1    2    0    0  0.00000000000E+00  0.00000000000E+00  0.23589004376E+03  0.75051307307E+03  0.71247860326E+03 0.  0.
        5    1    3    3  502    0  0.20479268588E+03 -0.29140681444E+03  0.11253527126E+03  0.37355622463E+03  0.46999998093E+01 0. -1.
       -5    1    3    3    0  502 -0.20479268588E+03  0.29140681444E+03  0.12335477250E+03  0.37695684844E+03  0.46999998093E+01 0.  1.
</event>
<event>
 5   0  0.1884172E-02  0.7075703E+03  0.7818609E-02  0.9704373E-01
        1   -1    0    0  501    0  0.00000000000E+00  0.00000000000E+00  0.10763942720E+04  0.10763942720E+04  0.50400001928E-02 0.  1.
       -1   -1    0    0    0  501  0.00000000000E+00  0.00000000000E+00 -0.11628075889E+03  0.11628075900E+03  0.50400001928E-02 0. -1.
    10030    2    1    2    0    0  0.00000000000E+00  0.00000000000E+00  0.96011351314E+03  0.11926750310E+04  0.70757032976E+03 0.  0.
        3    1    3    3  502    0  0.23115474522E+03 -0.39476754720E+02  0.33540224932E+02  0.23688792137E+03  0.10100000352E+00 0. -1.
       -3    1    3    3    0  502 -0.23115474522E+03  0.39476754720E+02  0.92657328821E+03  0.95578710967E+03  0.10100000352E+00 0.  1.
</event>
<event>
 5   0  0.1884172E-02  0.6907086E+03  0.7818609E-02  0.9733255E-01
       -1   -1    0    0    0  501  0.00000000000E+00  0.00000000000E+00  0.40143862899E+03  0.40143862902E+03  0.50400001928E-02 0. -1.
        1   -1    0    0  501    0  0.00000000000E+00  0.00000000000E+00 -0.29710543094E+03  0.29710543098E+03  0.50400001928E-02 0.  1.
    10030    2    1    2    0    0  0.00000000000E+00  0.00000000000E+00  0.10433319806E+03  0.69854406000E+03  0.69070861262E+03 0.  0.
        3    1    3    3  502    0 -0.37047469724E+02  0.64951269466E+02  0.39315367361E+03  0.40020120401E+03  0.10100000352E+00 0. -1.
       -3    1    3    3    0  502  0.37047469724E+02 -0.64951269466E+02 -0.28882047556E+03  0.29834285599E+03  0.10100000352E+00 0.  1.
</event>
<event>
 5   0  0.1951465E-02  0.7009632E+03  0.7818609E-02  0.9715586E-01
       -1   -1    0    0    0  501  0.00000000000E+00  0.00000000000E+00  0.52336790726E+03  0.52336790729E+03  0.50400001928E-02 0. -1.
        1   -1    0    0  501    0  0.00000000000E+00  0.00000000000E+00 -0.23470553583E+03  0.23470553588E+03  0.50400001928E-02 0.  1.
    10030    2    1    2    0    0  0.00000000000E+00  0.00000000000E+00  0.28866237143E+03  0.75807344317E+03  0.70096318060E+03 0.  0.
        4    1    3    3  502    0  0.22588029576E+03 -0.82691246240E+02  0.42000308745E+03  0.48400821954E+03  0.12699999809E+01 0. -1.
       -4    1    3    3    0  502 -0.22588029576E+03  0.82691246240E+02 -0.13134071602E+03  0.27406522362E+03  0.12699999809E+01 0.  1.
</event>
<event>
 5   0  0.3184443E-02  0.7427466E+03  0.7818609E-02  0.9646799E-01
        2   -1    0    0  501    0  0.00000000000E+00  0.00000000000E+00  0.49798612525E+03  0.49798612526E+03  0.25500000920E-02 0. -1.
       -2   -1    0    0    0  501  0.00000000000E+00  0.00000000000E+00 -0.27695174016E+03  0.27695174018E+03  0.25500000920E-02 0.  1.
    10030    2    1    2    0    0  0.00000000000E+00  0.00000000000E+00  0.22103438509E+03  0.77493786544E+03  0.74274658929E+03 0.  0.
        3    1    3    3  502    0  0.22245991858E+03  0.95291046803E+02 -0.18338160309E+03  0.30364061245E+03  0.10100000352E+00 0.  1.
       -3    1    3    3    0  502 -0.22245991858E+03 -0.95291046803E+02  0.40441598818E+03  0.47129725299E+03  0.10100000352E+00 0. -1.
</event>
<event>
 5   0  0.1233912E-02  0.6983229E+03  0.7818609E-02  0.9720105E-01
       -3   -1    0    0    0  501  0.00000000000E+00  0.00000000000E+00  0.53867683803E+02  0.53867778488E+02  0.10100000352E+00 0.  1.
        3   -1    0    0  501    0  0.00000000000E+00  0.00000000000E+00 -0.22632050654E+04  0.22632050677E+04  0.10100000352E+00 0. -1.
    10030    2    1    2    0    0  0.00000000000E+00  0.00000000000E+00 -0.22093373816E+04  0.23170728461E+04  0.69832292573E+03 0.  0.
        2    1    3    3  502    0  0.33099686395E+03  0.39351053469E+02 -0.14495914514E+04  0.14874215291E+04  0.25500000920E-02 0. -1.
       -2    1    3    3    0  502 -0.33099686395E+03 -0.39351053469E+02 -0.75974593020E+03  0.82965131701E+03  0.25500000920E-02 0.  1.
</event>
<event>
 5   0  0.3184443E-02  0.6998995E+03  0.7818609E-02  0.9717404E-01
        2   -1    0    0  501    0  0.00000000000E+00  0.00000000000E+00  0.19340936804E+04  0.19340936804E+04  0.25500000920E-02 0.  1.
       -2   -1    0    0    0  501  0.00000000000E+00  0.00000000000E+00 -0.63318965868E+02  0.63318965919E+02  0.25500000920E-02 0. -1.
    10030    2    1    2    0    0  0.00000000000E+00  0.00000000000E+00  0.18707747145E+04  0.19974126463E+04  0.69989945502E+03 0.  0.
        3    1    3    3  502    0 -0.58184383407E+02  0.23398066367E+03  0.21153980248E+03  0.32075141727E+03  0.10100000352E+00 0. -1.
       -3    1    3    3    0  502  0.58184383407E+02 -0.23398066367E+03  0.16592349120E+04  0.16766612290E+04  0.10100000352E+00 0.  1.
</event>
<event>
 5   0  0.3113940E-02  0.6953864E+03  0.7818609E-02  0.9725155E-01
        2   -1    0    0  501    0  0.00000000000E+00  0.00000000000E+00  0.18176838707E+03  0.18176838709E+03  0.25500000920E-02 0. -1.
       -2   -1    0    0    0  501  0.00000000000E+00  0.00000000000E+00 -0.66508016748E+03  0.66508016748E+03  0.25500000920E-02 0.  1.
    10030    2    1    2    0    0  0.00000000000E+00  0.00000000000E+00 -0.48331178041E+03  0.84684855457E+03  0.69538636548E+03 0.  0.
        5    1    3    3  502    0 -0.11274720742E+03  0.10340523703E+02 -0.64196102543E+03  0.65188565514E+03  0.46999998093E+01 0.  1.
       -5    1    3    3    0  502  0.11274720742E+03 -0.10340523703E+02  0.15864924502E+03  0.19496289943E+03  0.46999998093E+01 0. -1.
</event>
<event>
 5   0  0.1858013E-02  0.6925527E+03  0.7818609E-02  0.9730053E-01
       -1   -1    0    0    0  501  0.00000000000E+00  0.00000000000E+00  0.75384249767E+02  0.75384249936E+02  0.50400001928E-02 0. -1.
        1   -1    0    0  501    0  0.00000000000E+00  0.00000000000E+00 -0.15906151174E+04  0.15906151174E+04  0.50400001928E-02 0.  1.
    10030    2    1    2    0    0  0.00000000000E+00  0.00000000000E+00 -0.15152308676E+04  0.16659993673E+04  0.69255274871E+03 0.  0.
        2    1    3    3  502    0 -0.12319378270E+03 -0.27564729164E+02 -0.15332866542E+04  0.15384747272E+04  0.25500000920E-02 0.  1.
       -2    1    3    3    0  502  0.12319378270E+03  0.27564729164E+02  0.18055786598E+02  0.12752464008E+03  0.25500000920E-02 0. -1.
</event>
<event>
 5   0  0.1951465E-02  0.6962727E+03  0.7818609E-02  0.9723628E-01
       -1   -1    0    0    0  501  0.00000000000E+00  0.00000000000E+00  0.30189915715E+03  0.30189915719E+03  0.50400001928E-02 0.  1.
        1   -1    0    0  501    0  0.00000000000E+00  0.00000000000E+00 -0.40145499662E+03  0.40145499665E+03  0.50400001928E-02 0. -1.
    10030    2    1    2    0    0  0.00000000000E+00  0.00000000000E+00 -0.99555839469E+02  0.70335415384E+03  0.69627271995E+03 0.  0.
        4    1    3    3  502    0 -0.33683191755E+03  0.38892869892E+02  0.29948254038E+02  0.34039228374E+03  0.12699999809E+01 0.  1.
       -4    1    3    3    0  502  0.33683191755E+03 -0.38892869892E+02 -0.12950409351E+03  0.36296187010E+03  0.12699999809E+01 0. -1.
</event>
<event>
 5   0  0.2933851E-02  0.7028047E+03  0.7818609E-02  0.9712448E-01
       -2   -1    0    0    0  501  0.00000000000E+00  0.00000000000E+00  0.45777137997E+02  0.45777138068E+02  0.25500000920E-02 0.  1.
        2   -1    0    0  501    0  0.00000000000E+00  0.00000000000E+00 -0.26974955139E+04  0.26974955139E+04  0.25500000920E-02 0. -1.
    10030    2    1    2    0    0  0.00000000000E+00  0.00000000000E+00 -0.26517183759E+04  0.27432726520E+04  0.70280473671E+03 0.  0.
        2    1    3    3  502    0  0.31785338354E+03 -0.12259770214E+03 -0.16621491596E+04  0.16967029200E+04  0.25500000920E-02 0. -1.
       -2    1    3    3    0  502 -0.31785338354E+03  0.12259770214E+03 -0.98956921627E+03  0.10465697319E+04  0.25500000920E-02 0.  1.
</event>
<event>
 5   0  0.3184443E-02  0.7004636E+03  0.7818609E-02  0.9716440E-01
       -2   -1    0    0    0  501  0.00000000000E+00  0.00000000000E+00  0.15956112763E+03  0.15956112765E+03  0.25500000920E-02 0.  1.
        2   -1    0    0  501    0  0.00000000000E+00  0.00000000000E+00 -0.76874819443E+03  0.76874819443E+03  0.25500000920E-02 0. -1.
    10030    2    1    2    0    0  0.00000000000E+00  0.00000000000E+00 -0.60918706679E+03  0.92830932208E+03  0.70046364297E+03 0.  0.
        3    1    3    3  502    0 -0.33918289626E+03 -0.63191564340E+02 -0.22481103015E+03  0.41179876201E+03  0.10100000352E+00 0.  1.
       -3    1    3    3    0  502  0.33918289626E+03  0.63191564340E+02 -0.38437603665E+03  0.51651056007E+03  0.10100000352E+00 0. -1.
</event>
<event>
 5   0  0.1969818E-02  0.7156940E+03  0.7818609E-02  0.9690764E-01
       -1   -1    0    0    0  501  0.00000000000E+00  0.00000000000E+00  0.76018743789E+03  0.76018743790E+03  0.50400001928E-02 0.  1.
        1   -1    0    0  501    0  0.00000000000E+00  0.00000000000E+00 -0.16845117745E+03  0.16845117752E+03  0.50400001928E-02 0. -1.
    10030    2    1    2    0    0  0.00000000000E+00  0.00000000000E+00  0.59173626044E+03  0.92863861543E+03  0.71569398219E+03 0.  0.
        1    1    3    3  502    0 -0.23183647390E+03 -0.18385294659E+02 -0.57024176151E+02  0.23945339083E+03  0.50400001928E-02 0. -1.
       -1    1    3    3    0  502  0.23183647390E+03  0.18385294659E+02  0.64876043659E+03  0.68918522460E+03  0.50400001928E-02 0.  1.
</event>
<event>
 5   0  0.3113940E-02  0.6969039E+03  0.7818609E-02  0.9722542E-01
       -2   -1    0    0    0  501  0.00000000000E+00  0.00000000000E+00  0.51031723657E+03  0.51031723658E+03  0.25500000920E-02 0.  1.
        2   -1    0    0  501    0  0.00000000000E+00  0.00000000000E+00 -0.23792798827E+03  0.23792798828E+03  0.25500000920E-02 0. -1.
    10030    2    1    2    0    0  0.00000000000E+00  0.00000000000E+00  0.27238924830E+03  0.74824522486E+03  0.69690387711E+03 0.  0.
        5    1    3    3  502    0  0.10045023701E+03  0.67338603263E+02  0.48702695712E+03  0.50183870374E+03  0.46999998093E+01 0.  1.
       -5    1    3    3    0  502 -0.10045023701E+03 -0.67338603263E+02 -0.21463770882E+03  0.24640652112E+03  0.46999998093E+01 0. -1.
</event>
<event>
 5   0  0.1951465E-02  0.7313492E+03  0.7818609E-02  0.9665074E-01
       -1   -1    0    0    0  501  0.00000000000E+00  0.00000000000E+00  0.15314034781E+03  0.15314034790E+03  0.50400001928E-02 0.  1.
        1   -1    0    0  501    0  0.00000000000E+00  0.00000000000E+00 -0.87317226789E+03  0.87317226790E+03  0.50400001928E-02 0. -1.
    10030    2    1    2    0    0  0.00000000000E+00  0.00000000000E+00 -0.72003192007E+03  0.10263126158E+04  0.73134917749E+03 0.  0.
        4    1    3    3  502    0 -0.36049871289E+03 -0.12292772524E+02 -0.44428328005E+03  0.57227587760E+03  0.12699999809E+01 0. -1.
       -4    1    3    3    0  502  0.36049871289E+03  0.12292772524E+02 -0.27574864003E+03  0.45403673820E+03  0.12699999809E+01 0.  1.
</event>
<event>
 5   0  0.1839038E-02  0.6827700E+03  0.7818609E-02  0.9747160E-01
       -1   -1    0    0    0  501  0.00000000000E+00  0.00000000000E+00  0.85918442308E+02  0.85918442456E+02  0.50400001928E-02 0. -1.
        1   -1    0    0  501    0  0.00000000000E+00  0.00000000000E+00 -0.13564457288E+04  0.13564457288E+04  0.50400001928E-02 0.  1.
    10030    2    1    2    0    0  0.00000000000E+00  0.00000000000E+00 -0.12705272865E+04  0.14423641713E+04  0.68276995894E+03 0.  0.
        5    1    3    3  502    0 -0.25375034300E+03 -0.12004917979E+03 -0.22497484806E+03  0.35977328194E+03  0.46999998093E+01 0. -1.
       -5    1    3    3    0  502  0.25375034300E+03  0.12004917979E+03 -0.10455524384E+04  0.10825908893E+04  0.46999998093E+01 0.  1.
</event>
<event>
 5   0  0.2933851E-02  0.7046404E+03  0.7818609E-02  0.9709329E-01
       -2   -1    0    0    0  501  0.00000000000E+00  0.00000000000E+00  0.89665276443E+03  0.89665276443E+03  0.25500000920E-02 0. -1.
        2   -1    0    0  501    0  0.00000000000E+00  0.00000000000E+00 -0.13843654034E+03  0.13843654036E+03  0.25500000920E-02 0.  1.
    10030    2    1    2    0    0  0.00000000000E+00  0.00000000000E+00  0.75821622409E+03  0.10350893048E+04  0.70464035254E+03 0.  0.
        2    1    3    3  502    0  0.30699577366E+03 -0.17218668581E+03  0.40161951779E+03  0.53403454654E+03  0.25500000920E-02 0. -1.
       -2    1    3    3    0  502 -0.30699577366E+03  0.17218668581E+03  0.35659670630E+03  0.50105475825E+03  0.25500000920E-02 0.  1.
</event>
<event>
 5   0  0.1969818E-02  0.7124164E+03  0.7818609E-02  0.9696231E-01
        1   -1    0    0  501    0  0.00000000000E+00  0.00000000000E+00  0.71668641451E+03  0.71668641453E+03  0.50400001928E-02 0.  1.
       -1   -1    0    0    0  501  0.00000000000E+00  0.00000000000E+00 -0.17704297069E+03  0.17704297076E+03  0.50400001928E-02 0. -1.
    10030    2    1    2    0    0  0.00000000000E+00  0.00000000000E+00  0.53964344382E+03  0.89372938529E+03  0.71241642855E+03 0.  0.
        1    1    3    3  502    0 -0.10717061115E+02 -0.64421679436E+02 -0.16946846214E+03  0.18161654073E+03  0.50400001928E-02 0. -1.
       -1    1    3    3    0  502  0.10717061115E+02  0.64421679436E+02  0.70911190596E+03  0.71211284456E+03  0.50400001928E-02 0.  1.
</event>
<event>
 5   0  0.1858013E-02  0.6955695E+03  0.7818609E-02  0.9724839E-01
        1   -1    0    0  501    0  0.00000000000E+00  0.00000000000E+00  0.49505389460E+03  0.49505389463E+03  0.50400001928E-02 0.  1.
       -1   -1    0    0    0  501  0.00000000000E+00  0.00000000000E+00 -0.24432538295E+03  0.24432538300E+03  0.50400001928E-02 0. -1.
    10030    2    1    2    0    0  0.00000000000E+00  0.00000000000E+00  0.25072851166E+03  0.73937927763E+03  0.69556950021E+03 0.  0.
        2    1    3    3  502    0  0.14869942452E+02 -0.10795377057E+03 -0.22570881519E+03  0.25063838698E+03  0.25500000920E-02 0. -1.
       -2    1    3    3    0  502 -0.14869942452E+02  0.10795377057E+03  0.47643732685E+03  0.48874089064E+03  0.25500000920E-02 0.  1.
</event>
<event>
 5   0  0.3113940E-02  0.7012033E+03  0.7818609E-02  0.9715177E-01
       -2   -1    0    0    0  501  0.00000000000E+00  0.00000000000E+00  0.28197998644E+03  0.28197998646E+03  0.25500000920E-02 0.  1.
        2   -1    0    0  501    0  0.00000000000E+00  0.00000000000E+00 -0.43592288800E+03  0.43592288800E+03  0.25500000920E-02 0. -1.
    10030    2    1    2    0    0  0.00000000000E+00  0.00000000000E+00 -0.15394290155E+03  0.71790287446E+03  0.70120333728E+03 0.  0.
        5    1    3    3  502    0  0.53798580483E+02 -0.32298103453E+03 -0.20520778712E+03  0.38644968860E+03  0.46999998093E+01 0. -1.
       -5    1    3    3    0  502 -0.53798580483E+02  0.32298103453E+03  0.51264885567E+02  0.33145318586E+03  0.46999998093E+01 0.  1.
</event>
<event>
 5   0  0.3183963E-02  0.7044459E+03  0.7818609E-02  0.9709659E-01
        2   -1    0    0  501    0  0.00000000000E+00  0.00000000000E+00  0.22869368199E+03  0.22869368200E+03  0.25500000920E-02 0.  1.
       -2   -1    0    0    0  501  0.00000000000E+00  0.00000000000E+00 -0.54247681181E+03  0.54247681182E+03  0.25500000920E-02 0. -1.
    10030    2    1    2    0    0  0.00000000000E+00  0.00000000000E+00 -0.31378312982E+03  0.77117049382E+03  0.70444593687E+03 0.  0.
        4    1    3    3  502    0 -0.70221759231E+02 -0.34093307040E+03 -0.21577232362E+03  0.40954335851E+03  0.12699999809E+01 0.  1.
       -4    1    3    3    0  502  0.70221759231E+02  0.34093307040E+03 -0.98010806205E+02  0.36162713531E+03  0.12699999809E+01 0. -1.
</event>
<event>
 5   0  0.1858013E-02  0.7038342E+03  0.7818609E-02  0.9710698E-01
        1   -1    0    0  501    0  0.00000000000E+00  0.00000000000E+00  0.16154191797E+03  0.16154191805E+03  0.50400001928E-02 0.  1.
       -1   -1    0    0    0  501  0.00000000000E+00  0.00000000000E+00 -0.76664702097E+03  0.76664702098E+03  0.50400001928E-02 0. -1.
    10030    2    1    2    0    0  0.00000000000E+00  0.00000000000E+00 -0.60510510300E+03  0.92818893904E+03  0.70383415722E+03 0.  0.
        2    1    3    3  502    0 -0.17071307347E+03 -0.29803649620E+03 -0.40365020491E+03  0.53000207023E+03  0.25500000920E-02 0.  1.
       -2    1    3    3    0  502  0.17071307347E+03  0.29803649620E+03 -0.20145489809E+03  0.39818686881E+03  0.25500000920E-02 0. -1.
</event>
<event>
 5   0  0.1884172E-02  0.7017774E+03  0.7818609E-02  0.9714197E-01
       -1   -1    0    0    0  501  0.00000000000E+00  0.00000000000E+00  0.12941305323E+03  0.12941305332E+03  0.50400001928E-02 0.  1.
        1   -1    0    0  501    0  0.00000000000E+00  0.00000000000E+00 -0.95139465984E+03  0.95139465986E+03  0.50400001928E-02 0. -1.
    10030    2    1    2    0    0  0.00000000000E+00  0.00000000000E+00 -0.82198160662E+03  0.10808077132E+04  0.70177742287E+03 0.  0.
        3    1    3    3  502    0  0.15393990750E+03 -0.26242456234E+03 -0.14176498548E+03  0.33565081164E+03  0.10100000352E+00 0.  1.
       -3    1    3    3    0  502 -0.15393990750E+03  0.26242456234E+03 -0.68021662114E+03  0.74515690154E+03  0.10100000352E+00 0. -1.
</event>
<event>
 5   0  0.1858013E-02  0.6974703E+03  0.7818609E-02  0.9721568E-01
        1   -1    0    0  501    0  0.00000000000E+00  0.00000000000E+00  0.27697478333E+03  0.27697478338E+03  0.50400001928E-02 0. -1.
       -1   -1    0    0    0  501  0.00000000000E+00  0.00000000000E+00 -0.43908762052E+03  0.43908762055E+03  0.50400001928E-02 0.  1.
    10030    2    1    2    0    0  0.00000000000E+00  0.00000000000E+00 -0.16211283719E+03  0.71606240392E+03  0.69747028204E+03 0.  0.
        2    1    3    3  502    0 -0.19821720024E+03 -0.48625455388E+02 -0.37136922082E+03  0.42375652392E+03  0.25500000920E-02 0.  1.
       -2    1    3    3    0  502  0.19821720024E+03  0.48625455388E+02  0.20925638364E+03  0.29230588000E+03  0.25500000920E-02 0. -1.
</event>
<event>
 5   0  0.3184443E-02  0.6929827E+03  0.7818609E-02  0.9729309E-01
       -2   -1    0    0    0  501  0.00000000000E+00  0.00000000000E+00  0.32562843029E+03  0.32562843030E+03  0.25500000920E-02 0. -1.
        2   -1    0    0  501    0  0.00000000000E+00  0.00000000000E+00 -0.36869095315E+03  0.36869095315E+03  0.25500000920E-02 0.  1.
    10030    2    1    2    0    0  0.00000000000E+00  0.00000000000E+00 -0.43062522853E+02  0.69431938346E+03  0.69298270207E+03 0.  0.
        3    1    3    3  502    0  0.38795714393E+02  0.28921815361E+03 -0.20871774468E+03  0.35876922245E+03  0.10100000352E+00 0.  1.
       -3    1    3    3    0  502 -0.38795714393E+02 -0.28921815361E+03  0.16565522183E+03  0.33555016101E+03  0.10100000352E+00 0. -1.
</event>
<event>
 5   0  0.1839038E-02  0.6899740E+03  0.7818609E-02  0.9734533E-01
        1   -1    0    0  501    0  0.00000000000E+00  0.00000000000E+00  0.67664662851E+03  0.67664662853E+03  0.50400001928E-02 0.  1.
       -1   -1    0    0    0  501  0.00000000000E+00  0.00000000000E+00 -0.17589095424E+03  0.17589095431E+03  0.50400001928E-02 0. -1.
    10030    2    1    2    0    0  0.00000000000E+00  0.00000000000E+00  0.50075567427E+03  0.85253758284E+03  0.68997397403E+03 0.  0.
        5    1    3    3  502    0  0.12477953891E+03 -0.55881321146E+02 -0.14094397192E+03  0.19641779095E+03  0.46999998093E+01 0. -1.
       -5    1    3    3    0  502 -0.12477953891E+03  0.55881321146E+02  0.64169964619E+03  0.65611979188E+03  0.46999998093E+01 0.  1.
</event>
<event>
 5   0  0.1951465E-02  0.6927827E+03  0.7818609E-02  0.9729655E-01
       -1   -1    0    0    0  501  0.00000000000E+00  0.00000000000E+00  0.11652124311E+04  0.11652124311E+04  0.50400001928E-02 0.  1.
        1   -1    0    0  501    0  0.00000000000E+00  0.00000000000E+00 -0.10297431656E+03  0.10297431668E+03  0.50400001928E-02 0. -1.
    10030    2    1    2    0    0  0.00000000000E+00  0.00000000000E+00  0.10622381145E+04  0.12681867478E+04  0.69278266093E+03 0.  0.
        4    1    3    3  502    0  0.26623852593E+03 -0.20212217337E+03  0.69737885763E+03  0.77335322436E+03  0.12699999809E+01 0. -1.
       -4    1    3    3    0  502 -0.26623852593E+03  0.20212217337E+03  0.36485925690E+03  0.49483352342E+03  0.12699999809E+01 0.  1.
</event>
<event>
 5   0  0.1884172E-02  0.6979677E+03  0.7818609E-02  0.9720714E-01
        1   -1    0    0  501    0  0.00000000000E+00  0.00000000000E+00  0.62340017119E+03  0.62340017121E+03  0.50400001928E-02 0. -1.
       -1   -1    0    0    0  501  0.00000000000E+00  0.00000000000E+00 -0.19536364853E+03  0.19536364859E+03  0.50400001928E-02 0.  1.
    10030    2    1    2    0    0  0.00000000000E+00  0.00000000000E+00  0.42803652266E+03  0.81876381980E+03  0.69796771264E+03 0.  0.
        3    1    3    3  502    0  0.34412503145E+03 -0.17343996458E+02  0.27898200055E+03  0.44334390525E+03  0.10100000352E+00 0.  1.
       -3    1    3    3    0  502 -0.34412503145E+03  0.17343996458E+02  0.14905452211E+03  0.37541991456E+03  0.10100000352E+00 0. -1.
</event>
<event>
 5   0  0.3290656E-02  0.6951023E+03  0.7818609E-02  0.9725645E-01
       -2   -1    0    0    0  501  0.00000000000E+00  0.00000000000E+00  0.92875563002E+02  0.92875563037E+02  0.25500000920E-02 0. -1.
        2   -1    0    0  501    0  0.00000000000E+00  0.00000000000E+00 -0.13005767979E+04  0.13005767979E+04  0.25500000920E-02 0.  1.
    10030    2    1    2    0    0  0.00000000000E+00  0.00000000000E+00 -0.12077012349E+04  0.13934523609E+04  0.69510230142E+03 0.  0.
        1    1    3    3  502    0  0.97755611806E+02  0.32882754998E+03 -0.49208972847E+03  0.59986333290E+03  0.50400001928E-02 0. -1.
       -1    1    3    3    0  502 -0.97755611806E+02 -0.32882754998E+03 -0.71561150643E+03  0.79358902804E+03  0.50400001928E-02 0.  1.
</event>
<event>
 5   0  0.1969818E-02  0.7000482E+03  0.7818609E-02  0.9717150E-01
       -1   -1    0    0    0  501  0.00000000000E+00  0.00000000000E+00  0.25555663191E+03  0.25555663196E+03  0.50400001928E-02 0.  1.
        1   -1    0    0  501    0  0.00000000000E+00  0.00000000000E+00 -0.47941179460E+03  0.47941179463E+03  0.50400001928E-02 0. -1.
    10030    2    1    2    0    0  0.00000000000E+00  0.00000000000E+00 -0.22385516269E+03  0.73496842659E+03  0.70004817993E+03 0.  0.
        1    1    3    3  502    0  0.10275354369E+03  0.24000076244E+03 -0.35670610593E+03  0.44203834986E+03  0.50400001928E-02 0. -1.
       -1    1    3    3    0  502 -0.10275354369E+03 -0.24000076244E+03  0.13285094324E+03  0.29293007674E+03  0.50400001928E-02 0.  1.
</event>
<event>
 5   0  0.3184443E-02  0.7010175E+03  0.7818609E-02  0.9715494E-01
        2   -1    0    0  501    0  0.00000000000E+00  0.00000000000E+00  0.29638759416E+03  0.29638759417E+03  0.25500000920E-02 0.  1.
       -2   -1    0    0    0  501  0.00000000000E+00  0.00000000000E+00 -0.41451257956E+03  0.41451257957E+03  0.25500000920E-02 0. -1.
    10030    2    1    2    0    0  0.00000000000E+00  0.00000000000E+00 -0.11812498540E+03  0.71090017374E+03  0.70101750680E+03 0.  0.
        3    1    3    3  502    0  0.26542673391E+03 -0.22875615853E+03 -0.67882511293E+02  0.35691564365E+03  0.10100000352E+00 0.  1.
       -3    1    3    3    0  502 -0.26542673391E+03  0.22875615853E+03 -0.50242474107E+02  0.35398453009E+03  0.10100000352E+00 0. -1.
</event>
<event>
 5   0  0.3184443E-02  0.6891793E+03  0.7818609E-02  0.9735918E-01
       -2   -1    0    0    0  501  0.00000000000E+00  0.00000000000E+00  0.82009273481E+02  0.82009273521E+02  0.25500000920E-02 0.  1.
        2   -1    0    0  501    0  0.00000000000E+00  0.00000000000E+00 -0.14479096315E+04  0.14479096315E+04  0.25500000920E-02 0. -1.
    10030    2    1    2    0    0  0.00000000000E+00  0.00000000000E+00 -0.13659003580E+04  0.15299189050E+04  0.68917927124E+03 0.  0.
        3    1    3    3  502    0 -0.31473072296E+03 -0.13344152326E+03 -0.77920179838E+03  0.85089219112E+03  0.10100000352E+00 0.  1.
       -3    1    3    3    0  502  0.31473072296E+03  0.13344152326E+03 -0.58669855961E+03  0.67902671387E+03  0.10100000352E+00 0. -1.
</event>
<event>
 5   0  0.3183963E-02  0.7041613E+03  0.7818609E-02  0.9710142E-01
       -2   -1    0    0    0  501  0.00000000000E+00  0.00000000000E+00  0.34730267671E+03  0.34730267672E+03  0.25500000920E-02 0.  1.
        2   -1    0    0  501    0  0.00000000000E+00  0.00000000000E+00 -0.35692438500E+03  0.35692438501E+03  0.25500000920E-02 0. -1.
    10030    2    1    2    0    0  0.00000000000E+00  0.00000000000E+00 -0.96217082963E+01  0.70422706173E+03  0.70416132896E+03 0.  0.
        4    1    3    3  502    0  0.27219402931E+03 -0.21978021901E+03 -0.44390388871E+02  0.35265429784E+03  0.12699999809E+01 0.  1.
       -4    1    3    3    0  502 -0.27219402931E+03  0.21978021901E+03  0.34768680574E+02  0.35157276389E+03  0.12699999809E+01 0. -1.
</event>
<event>
 5   0  0.1884172E-02  0.6942331E+03  0.7818609E-02  0.9727146E-01
        1   -1    0    0  501    0  0.00000000000E+00  0.00000000000E+00  0.11656515970E+03  0.11656515981E+03  0.50400001928E-02 0. -1.
       -1   -1    0    0    0  501  0.00000000000E+00  0.00000000000E+00 -0.10336698881E+04  0.10336698881E+04  0.50400001928E-02 0.  1.
    10030    2    1    2    0    0  0.00000000000E+00  0.00000000000E+00 -0.91710472842E+03  0.11502350479E+04  0.69423308956E+03 0.  0.
        3    1    3    3  502    0  0.27747433250E+03 -0.13583585916E+03 -0.72076571874E+03  0.78418532079E+03  0.10100000352E+00 0.  1.
       -3    1    3    3    0  502 -0.27747433250E+03  0.13583585916E+03 -0.19633900968E+03  0.36604972716E+03  0.10100000352E+00 0. -1.
</event>
<event>
 5   0  0.3183963E-02  0.6959009E+03  0.7818609E-02  0.9724268E-01
        2   -1    0    0  501    0  0.00000000000E+00  0.00000000000E+00  0.67039907398E+03  0.67039907398E+03  0.25500000920E-02 0.  1.
       -2   -1    0    0    0  501  0.00000000000E+00  0.00000000000E+00 -0.18059322807E+03  0.18059322808E+03  0.25500000920E-02 0. -1.
    10030    2    1    2    0    0  0.00000000000E+00  0.00000000000E+00  0.48980584591E+03  0.85099230207E+03  0.69590094948E+03 0.  0.
        4    1    3    3  502    0 -0.92502914648E+02 -0.69414909158E+02 -0.15639908939E+03  0.19451865436E+03  0.12699999809E+01 0. -1.
       -4    1    3    3    0  502  0.92502914648E+02  0.69414909158E+02  0.64620493530E+03  0.65647364771E+03  0.12699999809E+01 0.  1.
</event>
<event>
 5   0  0.1839038E-02  0.6947818E+03  0.7818609E-02  0.9726198E-01
        1   -1    0    0  501    0  0.00000000000E+00  0.00000000000E+00  0.44064326989E+03  0.44064326992E+03  0.50400001928E-02 0.  1.
       -1   -1    0    0    0  501  0.00000000000E+00  0.00000000000E+00 -0.27387333941E+03  0.27387333945E+03  0.50400001928E-02 0. -1.
    10030    2    1    2    0    0  0.00000000000E+00  0.00000000000E+00  0.16676993049E+03  0.71451660938E+03  0.69478181853E+03 0.  0.
        5    1    3    3  502    0  0.18733096841E+03  0.11483982467E+03 -0.19328690317E+03  0.29268241148E+03  0.46999998093E+01 0. -1.
       -5    1    3    3    0  502 -0.18733096841E+03 -0.11483982467E+03  0.36005683366E+03  0.42183419790E+03  0.46999998093E+01 0.  1.
</event>
<event>
 5   0  0.3290656E-02  0.6957017E+03  0.7818609E-02  0.9724611E-01
        2   -1    0    0  501    0  0.00000000000E+00  0.00000000000E+00  0.27557806662E+03  0.27557806663E+03  0.25500000920E-02 0.  1.
       -2   -1    0    0    0  501  0.00000000000E+00  0.00000000000E+00 -0.43907776218E+03  0.43907776218E+03  0.25500000920E-02 0. -1.
    10030    2    1    2    0    0  0.00000000000E+00  0.00000000000E+00 -0.16349969556E+03  0.71465582881E+03  0.69570166250E+03 0.  0.
        1    1    3    3  502    0  0.25366753273E+02  0.27025751499E+03  0.14170268034E+03  0.30620621519E+03  0.50400001928E-02 0.  1.
       -1    1    3    3    0  502 -0.25366753273E+02 -0.27025751499E+03 -0.30520237590E+03  0.40844961362E+03  0.50400001928E-02 0. -1.
</event>
<event>
 5   0  0.1858013E-02  0.6974032E+03  0.7818609E-02  0.9721683E-01
        1   -1    0    0  501    0  0.00000000000E+00  0.00000000000E+00  0.91890601074E+03  0.91890601075E+03  0.50400001928E-02 0. -1.
       -1   -1    0    0    0  501  0.00000000000E+00  0.00000000000E+00 -0.13232344606E+03  0.13232344615E+03  0.50400001928E-02 0.  1.
    10030    2    1    2    0    0  0.00000000000E+00  0.00000000000E+00  0.78658256468E+03  0.10512294569E+04  0.69740321192E+03 0.  0.
        2    1    3    3  502    0 -0.30447294948E+02  0.59366604892E+02 -0.12261253792E+03  0.13958963431E+03  0.25500000920E-02 0.  1.
       -2    1    3    3    0  502  0.30447294948E+02 -0.59366604892E+02  0.90919510260E+03  0.91163982259E+03  0.25500000920E-02 0. -1.
</event>
<event>
 5   0  0.3113940E-02  0.7020014E+03  0.7818609E-02  0.9713816E-01
        2   -1    0    0  501    0  0.00000000000E+00  0.00000000000E+00  0.71826794801E+03  0.71826794801E+03  0.25500000920E-02 0.  1.
       -2   -1    0    0    0  501  0.00000000000E+00  0.00000000000E+00 -0.17152579545E+03  0.17152579547E+03  0.25500000920E-02 0. -1.
    10030    2    1    2    0    0  0.00000000000E+00  0.00000000000E+00  0.54674215256E+03  0.88979374348E+03  0.70200137076E+03 0.  0.
        5    1    3    3  502    0  0.22431511252E+02  0.57937326439E+02 -0.16446049242E+03  0.17586713751E+03  0.46999998093E+01 0. -1.
       -5    1    3    3    0  502 -0.22431511252E+02 -0.57937326439E+02  0.71120264498E+03  0.71392660597E+03  0.46999998093E+01 0.  1.
</event>
<event>
 5   0  0.1884172E-02  0.7061571E+03  0.7818609E-02  0.9706760E-01
        1   -1    0    0  501    0  0.00000000000E+00  0.00000000000E+00  0.46534580960E+03  0.46534580962E+03  0.50400001928E-02 0. -1.
       -1   -1    0    0    0  501  0.00000000000E+00  0.00000000000E+00 -0.26789638551E+03  0.26789638556E+03  0.50400001928E-02 0.  1.
    10030    2    1    2    0    0  0.00000000000E+00  0.00000000000E+00  0.19744942408E+03  0.73324219518E+03  0.70615709423E+03 0.  0.
        3    1    3    3  502    0  0.33037536536E+03  0.21188494205E+02  0.22618309164E+03  0.40094343176E+03  0.10100000352E+00 0. -1.
       -3    1    3    3    0  502 -0.33037536536E+03 -0.21188494205E+02 -0.28733667558E+02  0.33229876343E+03  0.10100000352E+00 0.  1.
</event>
<event>
 5   0  0.1884172E-02  0.7079871E+03  0.7818609E-02  0.9703670E-01
       -1   -1    0    0    0  501  0.00000000000E+00  0.00000000000E+00  0.13851065131E+03  0.13851065140E+03  0.50400001928E-02 0.  1.
        1   -1    0    0  501    0  0.00000000000E+00  0.00000000000E+00 -0.90470620455E+03  0.90470620456E+03  0.50400001928E-02 0. -1.
    10030    2    1    2    0    0  0.00000000000E+00  0.00000000000E+00 -0.76619555324E+03  0.10432168560E+04  0.70798713461E+03 0.  0.
        3    1    3    3  502    0  0.46307816207E+02 -0.28552867588E+03 -0.82416309970E+02  0.30077150288E+03  0.10100000352E+00 0.  1.
       -3    1    3    3    0  502 -0.46307816207E+02  0.28552867588E+03 -0.68377924327E+03  0.74244535309E+03  0.10100000352E+00 0. -1.
</event>
<event>
 5   0  0.1233912E-02  0.7017536E+03  0.7818609E-02  0.9714238E-01
       -3   -1    0    0    0  501  0.00000000000E+00  0.00000000000E+00  0.11961527425E+03  0.11961531689E+03  0.10100000352E+00 0. -1.
        3   -1    0    0  501    0  0.00000000000E+00  0.00000000000E+00 -0.10292539106E+04  0.10292539156E+04  0.10100000352E+00 0.  1.
    10030    2    1    2    0    0  0.00000000000E+00  0.00000000000E+00 -0.90963863640E+03  0.11488692325E+04  0.70175356397E+03 0.  0.
        2    1    3    3  502    0 -0.33780777101E+01  0.34531546713E+03 -0.35310119230E+03  0.49389739345E+03  0.25500000920E-02 0. -1.
       -2    1    3    3    0  502  0.33780777101E+01 -0.34531546713E+03 -0.55653744410E+03  0.65497183904E+03  0.25500000920E-02 0.  1.
</event>
<event>
 5   0  0.1969818E-02  0.6995230E+03  0.7818609E-02  0.9718048E-01
        1   -1    0    0  501    0  0.00000000000E+00  0.00000000000E+00  0.23506480154E+03  0.23506480159E+03  0.50400001928E-02 0. -1.
       -1   -1    0    0    0  501  0.00000000000E+00  0.00000000000E+00 -0.52042295280E+03  0.52042295282E+03  0.50400001928E-02 0.  1.
    10030    2    1    2    0    0  0.00000000000E+00  0.00000000000E+00 -0.28535815126E+03  0.75548775442E+03  0.69952303221E+03 0.  0.
        1    1    3    3  502    0 -0.12697029448E+03 -0.23046164237E+03  0.10618887168E+03  0.28374301891E+03  0.50400001928E-02 0. -1.
       -1    1    3    3    0  502  0.12697029448E+03  0.23046164237E+03 -0.39154702295E+03  0.47174473551E+03  0.50400001928E-02 0.  1.
</event>
<event>
 5   0  0.1858013E-02  0.6982933E+03  0.7818609E-02  0.9720155E-01
        1   -1    0    0  501    0  0.00000000000E+00  0.00000000000E+00  0.71871218869E+03  0.71871218871E+03  0.50400001928E-02 0. -1.
       -1   -1    0    0    0  501  0.00000000000E+00  0.00000000000E+00 -0.16961364202E+03  0.16961364209E+03  0.50400001928E-02 0.  1.
    10030    2    1    2    0    0  0.00000000000E+00  0.00000000000E+00  0.54909854668E+03  0.88832583080E+03  0.69829332498E+03 0.  0.
        2    1    3    3  502    0 -0.81487799249E+02  0.62896806053E+02 -0.14987076228E+03  0.18181725725E+03  0.25500000920E-02 0.  1.
       -2    1    3    3    0  502  0.81487799249E+02 -0.62896806053E+02  0.69896930896E+03  0.70650857356E+03  0.25500000920E-02 0. -1.
</event>
<event>
 5   0  0.1839038E-02  0.6995941E+03  0.7818609E-02  0.9717927E-01
       -1   -1    0    0    0  501  0.00000000000E+00  0.00000000000E+00  0.19636807009E+03  0.19636807016E+03  0.50400001928E-02 0. -1.
        1   -1    0    0  501    0  0.00000000000E+00  0.00000000000E+00 -0.62310523535E+03  0.62310523537E+03  0.50400001928E-02 0.  1.
    10030    2    1    2    0    0  0.00000000000E+00  0.00000000000E+00 -0.42673716525E+03  0.81947330553E+03  0.69959408964E+03 0.  0.
        5    1    3    3  502    0 -0.24400768517E+03 -0.18161903433E+03 -0.11125133165E+02  0.30441925471E+03  0.46999998093E+01 0. -1.
       -5    1    3    3    0  502  0.24400768517E+03  0.18161903433E+03 -0.41561203209E+03  0.51505405082E+03  0.46999998093E+01 0.  1.
</event>
<event>
 5   0  0.3113940E-02  0.7148218E+03  0.7818609E-02  0.9692215E-01
       -2   -1    0    0    0  501  0.00000000000E+00  0.00000000000E+00  0.66356971416E+02  0.66356971465E+02  0.25500000920E-02 0.  1.
        2   -1    0    0  501    0  0.00000000000E+00  0.00000000000E+00 -0.19250812774E+04  0.19250812774E+04  0.25500000920E-02 0. -1.
    10030    2    1    2    0    0  0.00000000000E+00  0.00000000000E+00 -0.18587243059E+04  0.19914382488E+04  0.71482183331E+03 0.  0.
        5    1    3    3  502    0  0.19624637060E+03 -0.20231584744E+03 -0.15414803267E+04  0.15670443605E+04  0.46999998093E+01 0. -1.
       -5    1    3    3    0  502 -0.19624637060E+03  0.20231584744E+03 -0.31724397920E+03  0.42439388831E+03  0.46999998093E+01 0.  1.
</event>
<event>
 5   0  0.1839038E-02  0.7029647E+03  0.7818609E-02  0.9712176E-01
       -1   -1    0    0    0  501  0.00000000000E+00  0.00000000000E+00  0.61648274031E+03  0.61648274033E+03  0.50400001928E-02 0. -1.
        1   -1    0    0  501    0  0.00000000000E+00  0.00000000000E+00 -0.20039465973E+03  0.20039465979E+03  0.50400001928E-02 0.  1.
    10030    2    1    2    0    0  0.00000000000E+00  0.00000000000E+00  0.41608808058E+03  0.81687740012E+03  0.70296471890E+03 0.  0.
        5    1    3    3  502    0 -0.30492487489E+02 -0.23735112133E+03 -0.91061323022E+02  0.25608514432E+03  0.46999998093E+01 0.  1.
       -5    1    3    3    0  502  0.30492487489E+02  0.23735112133E+03  0.50714940360E+03  0.56079225580E+03  0.46999998093E+01 0. -1.
</event>
<event>
 5   0  0.3290656E-02  0.7015865E+03  0.7818609E-02  0.9714523E-01
       -2   -1    0    0    0  501  0.00000000000E+00  0.00000000000E+00  0.16925383013E+03  0.16925383015E+03  0.25500000920E-02 0. -1.
        2   -1    0    0  501    0  0.00000000000E+00  0.00000000000E+00 -0.72704935344E+03  0.72704935344E+03  0.25500000920E-02 0.  1.
    10030    2    1    2    0    0  0.00000000000E+00  0.00000000000E+00 -0.55779552331E+03  0.89630318359E+03  0.70158645304E+03 0.  0.
        1    1    3    3  502    0  0.30519636423E+03  0.28592785213E+02 -0.60990413093E+02  0.31254151504E+03  0.50400001928E-02 0. -1.
       -1    1    3    3    0  502 -0.30519636423E+03 -0.28592785213E+02 -0.49680511022E+03  0.58376166855E+03  0.50400001928E-02 0.  1.
</event>
<event>
 5   0  0.1969818E-02  0.7034397E+03  0.7818609E-02  0.9711368E-01
        1   -1    0    0  501    0  0.00000000000E+00  0.00000000000E+00  0.81720011111E+03  0.81720011112E+03  0.50400001928E-02 0. -1.
       -1   -1    0    0    0  501  0.00000000000E+00  0.00000000000E+00 -0.15137891976E+03  0.15137891984E+03  0.50400001928E-02 0.  1.
    10030    2    1    2    0    0  0.00000000000E+00  0.00000000000E+00  0.66582119135E+03  0.96857903096E+03  0.70343974892E+03 0.  0.
        1    1    3    3  502    0  0.20424886698E+02 -0.20131365519E+03 -0.63207766301E+02  0.21198958821E+03  0.50400001928E-02 0.  1.
       -1    1    3    3    0  502 -0.20424886698E+02  0.20131365519E+03  0.72902895765E+03  0.75658944275E+03  0.50400001928E-02 0. -1.
</event>
<event>
 5   0  0.3183963E-02  0.6709856E+03  0.7818609E-02  0.9768179E-01
        2   -1    0    0  501    0  0.00000000000E+00  0.00000000000E+00  0.58510133981E+03  0.58510133982E+03  0.25500000920E-02 0. -1.
       -2   -1    0    0    0  501  0.00000000000E+00  0.00000000000E+00 -0.19236910910E+03  0.19236910912E+03  0.25500000920E-02 0.  1.
    10030    2    1    2    0    0  0.00000000000E+00  0.00000000000E+00  0.39273223071E+03  0.77747044894E+03  0.67098561381E+03 0.  0.
        4    1    3    3  502    0 -0.98718162330E+02 -0.10008217120E+03 -0.15659443645E+03  0.21044036445E+03  0.12699999809E+01 0.  1.
       -4    1    3    3    0  502  0.98718162330E+02  0.10008217120E+03  0.54932666715E+03  0.56703008448E+03  0.12699999809E+01 0. -1.
</event>
<event>
 5   0  0.3184443E-02  0.6990887E+03  0.7818609E-02  0.9718792E-01
       -2   -1    0    0    0  501  0.00000000000E+00  0.00000000000E+00  0.22952235193E+03  0.22952235194E+03  0.25500000920E-02 0.  1.
        2   -1    0    0  501    0  0.00000000000E+00  0.00000000000E+00 -0.53232828858E+03  0.53232828859E+03  0.25500000920E-02 0. -1.
    10030    2    1    2    0    0  0.00000000000E+00  0.00000000000E+00 -0.30280593666E+03  0.76185064053E+03  0.69908866620E+03 0.  0.
        3    1    3    3  502    0  0.10860678461E+03  0.26685843066E+03  0.64285798278E+02  0.29519744196E+03  0.10100000352E+00 0.  1.
       -3    1    3    3    0  502 -0.10860678461E+03 -0.26685843066E+03 -0.36709173493E+03  0.46665319857E+03  0.10100000352E+00 0. -1.
</event>
<event>
 5   0  0.1884172E-02  0.6976248E+03  0.7818609E-02  0.9721303E-01
        1   -1    0    0  501    0  0.00000000000E+00  0.00000000000E+00  0.42174275992E+03  0.42174275995E+03  0.50400001928E-02 0.  1.
       -1   -1    0    0    0  501  0.00000000000E+00  0.00000000000E+00 -0.28849358756E+03  0.28849358760E+03  0.50400001928E-02 0. -1.
    10030    2    1    2    0    0  0.00000000000E+00  0.00000000000E+00  0.13324917236E+03  0.71023634755E+03  0.69762477554E+03 0.  0.
        3    1    3    3  502    0  0.30850696799E+03  0.12786834288E+03  0.16915877288E+03  0.37435486247E+03  0.10100000352E+00 0. -1.
       -3    1    3    3    0  502 -0.30850696799E+03 -0.12786834288E+03 -0.35909600518E+02  0.33588148508E+03  0.10100000352E+00 0.  1.
</event>
<event>
 5   0  0.1839038E-02  0.6938264E+03  0.7818609E-02  0.9727849E-01
        1   -1    0    0  501    0  0.00000000000E+00  0.00000000000E+00  0.65343287058E+03  0.65343287060E+03  0.50400001928E-02 0. -1.
       -1   -1    0    0    0  501  0.00000000000E+00  0.00000000000E+00 -0.18417922596E+03  0.18417922603E+03  0.50400001928E-02 0.  1.
    10030    2    1    2    0    0  0.00000000000E+00  0.00000000000E+00  0.46925364462E+03  0.83761209664E+03  0.69382637702E+03 0.  0.
        5    1    3    3  502    0 -0.11164895352E+03  0.21053736132E+03 -0.69671346320E+02  0.24832973207E+03  0.46999998093E+01 0.  1.
       -5    1    3    3    0  502  0.11164895352E+03 -0.21053736132E+03  0.53892499094E+03  0.58928236457E+03  0.46999998093E+01 0. -1.
</event>
<event>
 5   0  0.1233912E-02  0.7021726E+03  0.7818609E-02  0.9713524E-01
        3   -1    0    0  501    0  0.00000000000E+00  0.00000000000E+00  0.14407219952E+03  0.14407223492E+03  0.10100000352E+00 0. -1.
       -3   -1    0    0    0  501  0.00000000000E+00  0.00000000000E+00 -0.85555417334E+03  0.85555417930E+03  0.10100000352E+00 0.  1.
    10030    2    1    2    0    0  0.00000000000E+00  0.00000000000E+00 -0.71148197382E+03  0.99962641422E+03  0.70217260622E+03 0.  0.
        4    1    3    3  502    0  0.34753099534E+02  0.25528945473E+03 -0.69526594925E+03  0.74146937678E+03  0.12699999809E+01 0.  1.
       -4    1    3    3    0  502 -0.34753099534E+02 -0.25528945473E+03 -0.16216024570E+02  0.25815703743E+03  0.12699999809E+01 0. -1.
</event>
<event>
 5   0  0.1858013E-02  0.7163700E+03  0.7818609E-02  0.9689640E-01
        1   -1    0    0  501    0  0.00000000000E+00  0.00000000000E+00  0.52608370947E+03  0.52608370949E+03  0.50400001928E-02 0.  1.
       -1   -1    0    0    0  501  0.00000000000E+00  0.00000000000E+00 -0.24387087623E+03  0.24387087628E+03  0.50400001928E-02 0. -1.
    10030    2    1    2    0    0  0.00000000000E+00  0.00000000000E+00  0.28221283324E+03  0.76995458578E+03  0.71637000280E+03 0.  0.
        2    1    3    3  502    0  0.19067115815E+03  0.10583141610E+03 -0.16429708788E+03  0.27303719944E+03  0.25500000920E-02 0. -1.
       -2    1    3    3    0  502 -0.19067115815E+03 -0.10583141610E+03  0.44650992112E+03  0.49691738634E+03  0.25500000920E-02 0.  1.
</event>
<event>
 5   0  0.3113940E-02  0.6996955E+03  0.7818609E-02  0.9717753E-01
        2   -1    0    0  501    0  0.00000000000E+00  0.00000000000E+00  0.33685128468E+03  0.33685128469E+03  0.25500000920E-02 0. -1.
       -2   -1    0    0    0  501  0.00000000000E+00  0.00000000000E+00 -0.36334561022E+03  0.36334561023E+03  0.25500000920E-02 0.  1.
    10030    2    1    2    0    0  0.00000000000E+00  0.00000000000E+00 -0.26494325542E+02  0.70019689491E+03  0.69969546401E+03 0.  0.
        5    1    3    3  502    0  0.16853191413E+03  0.30647467375E+03 -0.67916592697E+01  0.34985418157E+03  0.46999998093E+01 0. -1.
       -5    1    3    3    0  502 -0.16853191413E+03 -0.30647467375E+03 -0.19702666272E+02  0.35034271334E+03  0.46999998093E+01 0.  1.
</event>
<event>
 5   0  0.2933851E-02  0.6949272E+03  0.7818609E-02  0.9725947E-01
       -2   -1    0    0    0  501  0.00000000000E+00  0.00000000000E+00  0.50785308735E+02  0.50785308799E+02  0.25500000920E-02 0. -1.
        2   -1    0    0  501    0  0.00000000000E+00  0.00000000000E+00 -0.23772811763E+04  0.23772811763E+04  0.25500000920E-02 0.  1.
    10030    2    1    2    0    0  0.00000000000E+00  0.00000000000E+00 -0.23264958675E+04  0.24280664851E+04  0.69492721508E+03 0.  0.
        2    1    3    3  502    0  0.13122005503E+03 -0.20484618761E+03 -0.29641316176E+03  0.38345981001E+03  0.25500000920E-02 0. -1.
       -2    1    3    3    0  502 -0.13122005503E+03  0.20484618761E+03 -0.20300827058E+04  0.20446066751E+04  0.25500000920E-02 0.  1.
</event>
<event>
 5   0  0.3184443E-02  0.7020904E+03  0.7818609E-02  0.9713664E-01
       -2   -1    0    0    0  501  0.00000000000E+00  0.00000000000E+00  0.38262173743E+03  0.38262173744E+03  0.25500000920E-02 0.  1.
        2   -1    0    0  501    0  0.00000000000E+00  0.00000000000E+00 -0.32207456149E+03  0.32207456150E+03  0.25500000920E-02 0. -1.
    10030    2    1    2    0    0  0.00000000000E+00  0.00000000000E+00  0.60547175941E+02  0.70469629893E+03  0.70209038821E+03 0.  0.
        3    1    3    3  502    0 -0.21744525153E+03  0.26815162773E+03  0.94109847763E+02  0.35783293101E+03  0.10100000352E+00 0.  1.
       -3    1    3    3    0  502  0.21744525153E+03 -0.26815162773E+03 -0.33562671822E+02  0.34686336792E+03  0.10100000352E+00 0. -1.
</event>
<event>
 5   0  0.2933851E-02  0.6886590E+03  0.7818609E-02  0.9736826E-01
       -2   -1    0    0    0  501  0.00000000000E+00  0.00000000000E+00  0.19488980936E+03  0.19488980937E+03  0.25500000920E-02 0.  1.
        2   -1    0    0  501    0  0.00000000000E+00  0.00000000000E+00 -0.60835814510E+03  0.60835814511E+03  0.25500000920E-02 0. -1.
    10030    2    1    2    0    0  0.00000000000E+00  0.00000000000E+00 -0.41346833575E+03  0.80324795448E+03  0.68865899524E+03 0.  0.
        2    1    3    3  502    0  0.29227903717E+03  0.46441220874E+02 -0.14388884256E+01  0.29594913916E+03  0.25500000920E-02 0.  1.
       -2    1    3    3    0  502 -0.29227903717E+03 -0.46441220874E+02 -0.41202944732E+03  0.50729881532E+03  0.25500000920E-02 0. -1.
</event>
<event>
 5   0  0.3184443E-02  0.6982640E+03  0.7818609E-02  0.9720206E-01
        2   -1    0    0  501    0  0.00000000000E+00  0.00000000000E+00  0.99193538063E+03  0.99193538063E+03  0.25500000920E-02 0.  1.
       -2   -1    0    0    0  501  0.00000000000E+00  0.00000000000E+00 -0.12288415069E+03  0.12288415071E+03  0.25500000920E-02 0. -1.
    10030    2    1    2    0    0  0.00000000000E+00  0.00000000000E+00  0.86905122994E+03  0.11148195313E+04  0.69826395239E+03 0.  0.
        3    1    3    3  502    0 -0.22345159593E+03 -0.15135454655E+03  0.78813480340E+03  0.83306379889E+03  0.10100000352E+00 0.  1.
       -3    1    3    3    0  502  0.22345159593E+03  0.15135454655E+03  0.80916426537E+02  0.28175573245E+03  0.10100000352E+00 0. -1.
</event>
<event>
 5   0  0.3113940E-02  0.7038988E+03  0.7818609E-02  0.9710588E-01
       -2   -1    0    0    0  501  0.00000000000E+00  0.00000000000E+00  0.81200737217E+02  0.81200737257E+02  0.25500000920E-02 0. -1.
        2   -1    0    0  501    0  0.00000000000E+00  0.00000000000E+00 -0.15254588340E+04  0.15254588340E+04  0.25500000920E-02 0.  1.
    10030    2    1    2    0    0  0.00000000000E+00  0.00000000000E+00 -0.14442580968E+04  0.16066595712E+04  0.70389880508E+03 0.  0.
        5    1    3    3  502    0 -0.27587383050E+03 -0.57461368884E+02 -0.24096691640E+03  0.37080361928E+03  0.46999998093E+01 0. -1.
       -5    1    3    3    0  502  0.27587383050E+03  0.57461368884E+02 -0.12032911804E+04  0.12358559520E+04  0.46999998093E+01 0.  1.
</event>
<event>
 5   0  0.3183963E-02  0.7012941E+03  0.7818609E-02  0.9715022E-01
       -2   -1    0    0    0  501  0.00000000000E+00  0.00000000000E+00  0.29718971711E+03  0.29718971712E+03  0.25500000920E-02 0.  1.
        2   -1    0    0  501    0  0.00000000000E+00  0.00000000000E+00 -0.41372005879E+03  0.41372005880E+03  0.25500000920E-02 0. -1.
    10030    2    1    2    0    0  0.00000000000E+00  0.00000000000E+00 -0.11653034168E+03  0.71090977592E+03  0.70129408166E+03 0.  0.
        4    1    3    3  502    0  0.26052582284E+03 -0.20126570225E+03 -0.18062709012E+03  0.37551211146E+03  0.12699999809E+01 0.  1.
       -4    1    3    3    0  502 -0.26052582284E+03  0.20126570225E+03  0.64096748443E+02  0.33539766446E+03  0.12699999809E+01 0. -1.
</event>
<event>
 5   0  0.3183963E-02  0.6942998E+03  0.7818609E-02  0.9727030E-01
        2   -1    0    0  501    0  0.00000000000E+00  0.00000000000E+00  0.63952339167E+03  0.63952339167E+03  0.25500000920E-02 0. -1.
       -2   -1    0    0    0  501  0.00000000000E+00  0.00000000000E+00 -0.18844197385E+03  0.18844197386E+03  0.25500000920E-02 0.  1.
    10030    2    1    2    0    0  0.00000000000E+00  0.00000000000E+00  0.45108141782E+03  0.82796536553E+03  0.69429979189E+03 0.  0.
        4    1    3    3  502    0  0.17873968655E+03  0.27691375117E+03  0.95548880131E+02  0.34316221023E+03  0.12699999809E+01 0.  1.
       -4    1    3    3    0  502 -0.17873968655E+03 -0.27691375117E+03  0.35553253769E+03  0.48480315530E+03  0.12699999809E+01 0. -1.
</event>
<event>
 5   0  0.1969818E-02  0.8201325E+03  0.7818609E-02  0.9531325E-01
        1   -1    0    0  501    0  0.00000000000E+00  0.00000000000E+00  0.53756294154E+03  0.53756294157E+03  0.50400001928E-02 0.  1.
       -1   -1    0    0    0  501  0.00000000000E+00  0.00000000000E+00 -0.31280865150E+03  0.31280865154E+03  0.50400001928E-02 0. -1.
    10030    2    1    2    0    0  0.00000000000E+00  0.00000000000E+00  0.22475429004E+03  0.85037159310E+03  0.82013252311E+03 0.  0.
        1    1    3    3  502    0 -0.35199335781E+03 -0.21033352313E+03  0.11636929248E+03  0.42624092618E+03  0.50400001928E-02 0.  1.
       -1    1    3    3    0  502  0.35199335781E+03  0.21033352313E+03  0.10838499757E+03  0.42413066692E+03  0.50400001928E-02 0. -1.
</event>
<event>
 5   0  0.2933851E-02  0.6998981E+03  0.7818609E-02  0.9717406E-01
       -2   -1    0    0    0  501  0.00000000000E+00  0.00000000000E+00  0.13886808455E+03  0.13886808457E+03  0.25500000920E-02 0. -1.
        2   -1    0    0  501    0  0.00000000000E+00  0.00000000000E+00 -0.88187533106E+03  0.88187533106E+03  0.25500000920E-02 0.  1.
    10030    2    1    2    0    0  0.00000000000E+00  0.00000000000E+00 -0.74300724651E+03  0.10207434156E+04  0.69989810129E+03 0.  0.
        2    1    3    3  502    0  0.96634339207E+02  0.33155676397E+03 -0.28905138148E+03  0.45035406559E+03  0.25500000920E-02 0.  1.
       -2    1    3    3    0  502 -0.96634339207E+02 -0.33155676397E+03 -0.45395586503E+03  0.57038935005E+03  0.25500000920E-02 0. -1.
</event>
<event>
 5   0  0.1839038E-02  0.6885184E+03  0.7818609E-02  0.9737071E-01
       -1   -1    0    0    0  501  0.00000000000E+00  0.00000000000E+00  0.17967380499E+03  0.17967380506E+03  0.50400001928E-02 0.  1.
        1   -1    0    0  501    0  0.00000000000E+00  0.00000000000E+00 -0.65960874014E+03  0.65960874016E+03  0.50400001928E-02 0. -1.
    10030    2    1    2    0    0  0.00000000000E+00  0.00000000000E+00 -0.47993493515E+03  0.83928254522E+03  0.68851844473E+03 0.  0.
        5    1    3    3  502    0 -0.29765681481E+03 -0.68072254137E+02 -0.46236109318E+02  0.30885802400E+03  0.46999998093E+01 0.  1.
       -5    1    3    3    0  502  0.29765681481E+03  0.68072254137E+02 -0.43369882584E+03  0.53042452122E+03  0.46999998093E+01 0. -1.
</event>
<event>
 5   0  0.1951465E-02  0.6947211E+03  0.7818609E-02  0.9726303E-01
       -1   -1    0    0    0  501  0.00000000000E+00  0.00000000000E+00  0.72463652973E+03  0.72463652974E+03  0.50400001928E-02 0.  1.
        1   -1    0    0  501    0  0.00000000000E+00  0.00000000000E+00 -0.16651015673E+03  0.16651015680E+03  0.50400001928E-02 0. -1.
    10030    2    1    2    0    0  0.00000000000E+00  0.00000000000E+00  0.55812637300E+03  0.89114668655E+03  0.69472107259E+03 0.  0.
        4    1    3    3  502    0 -0.58676544381E+02 -0.16574307896E+03 -0.10521124985E+03  0.20490174494E+03  0.12699999809E+01 0. -1.
       -4    1    3    3    0  502  0.58676544381E+02  0.16574307896E+03  0.66333762286E+03  0.68624494161E+03  0.12699999809E+01 0.  1.
</event>
<event>
 5   0  0.1839038E-02  0.6986016E+03  0.7818609E-02  0.9719627E-01
       -1   -1    0    0    0  501  0.00000000000E+00  0.00000000000E+00  0.12105768509E+04  0.12105768509E+04  0.50400001928E-02 0.  1.
        1   -1    0    0  501    0  0.00000000000E+00  0.00000000000E+00 -0.10078753634E+03  0.10078753647E+03  0.50400001928E-02 0. -1.
    10030    2    1    2    0    0  0.00000000000E+00  0.00000000000E+00  0.11097893145E+04  0.13113643873E+04  0.69860162737E+03 0.  0.
        5    1    3    3  502    0  0.30850460608E+03 -0.13438965046E+02  0.24855300956E+03  0.39642954773E+03  0.46999998093E+01 0. -1.
       -5    1    3    3    0  502 -0.30850460608E+03  0.13438965046E+02  0.86123630495E+03  0.91493483960E+03  0.46999998093E+01 0.  1.
</event>
<event>
 5   0  0.3290656E-02  0.6964526E+03  0.7818609E-02  0.9723318E-01
       -2   -1    0    0    0  501  0.00000000000E+00  0.00000000000E+00  0.33508089722E+03  0.33508089723E+03  0.25500000920E-02 0. -1.
        2   -1    0    0  501    0  0.00000000000E+00  0.00000000000E+00 -0.36188735951E+03  0.36188735952E+03  0.25500000920E-02 0.  1.
    10030    2    1    2    0    0  0.00000000000E+00  0.00000000000E+00 -0.26806462287E+02  0.69696825675E+03  0.69645255725E+03 0.  0.
        1    1    3    3  502    0  0.14527428408E+02 -0.21833175413E+02  0.33409127977E+03  0.33511895943E+03  0.50400001928E-02 0. -1.
       -1    1    3    3    0  502 -0.14527428408E+02  0.21833175413E+02 -0.36089774206E+03  0.36184929732E+03  0.50400001928E-02 0.  1.
</event>
<event>
 5   0  0.3184443E-02  0.7046877E+03  0.7818609E-02  0.9709249E-01
        2   -1    0    0  501    0  0.00000000000E+00  0.00000000000E+00  0.94899081977E+03  0.94899081978E+03  0.25500000920E-02 0.  1.
       -2   -1    0    0    0  501  0.00000000000E+00  0.00000000000E+00 -0.13081916166E+03  0.13081916168E+03  0.25500000920E-02 0. -1.
    10030    2    1    2    0    0  0.00000000000E+00  0.00000000000E+00  0.81817165812E+03  0.10798099815E+04  0.70468768537E+03 0.  0.
        3    1    3    3  502    0 -0.92284252353E+02 -0.31151619951E+03  0.20017520194E+03  0.38161347914E+03  0.10100000352E+00 0. -1.
       -3    1    3    3    0  502  0.92284252353E+02  0.31151619951E+03  0.61799645618E+03  0.69819650232E+03  0.10100000352E+00 0.  1.
</event>
<event>
 5   0  0.3113940E-02  0.7034199E+03  0.7818609E-02  0.9711402E-01
        2   -1    0    0  501    0  0.00000000000E+00  0.00000000000E+00  0.10678878889E+04  0.10678878889E+04  0.25500000920E-02 0.  1.
       -2   -1    0    0    0  501  0.00000000000E+00  0.00000000000E+00 -0.11583601563E+03  0.11583601566E+03  0.25500000920E-02 0. -1.
    10030    2    1    2    0    0  0.00000000000E+00  0.00000000000E+00  0.95205187331E+03  0.11837239046E+04  0.70341986953E+03 0.  0.
        5    1    3    3  502    0  0.10300661981E+03  0.24931302757E+03  0.96327152600E+02  0.28647575773E+03  0.46999998093E+01 0. -1.
       -5    1    3    3    0  502 -0.10300661981E+03 -0.24931302757E+03  0.85572472071E+03  0.89724814688E+03  0.46999998093E+01 0.  1.
</event>
<event>
 5   0  0.1839038E-02  0.7586670E+03  0.7818609E-02  0.9621850E-01
        1   -1    0    0  501    0  0.00000000000E+00  0.00000000000E+00  0.22629944203E+04  0.22629944203E+04  0.50400001928E-02 0.  1.
       -1   -1    0    0    0  501  0.00000000000E+00  0.00000000000E+00 -0.63585622114E+02  0.63585622313E+02  0.50400001928E-02 0. -1.
    10030    2    1    2    0    0  0.00000000000E+00  0.00000000000E+00  0.21994087982E+04  0.23265800426E+04  0.75866701073E+03 0.  0.
        5    1    3    3  502    0 -0.17162038065E+03 -0.33498303583E+03  0.95571366331E+03  0.10271698426E+04  0.46999998093E+01 0.  1.
       -5    1    3    3    0  502  0.17162038065E+03  0.33498303583E+03  0.12436951349E+04  0.12994102000E+04  0.46999998093E+01 0. -1.
</event>
<event>
 5   0  0.3184443E-02  0.7035204E+03  0.7818609E-02  0.9711231E-01
       -2   -1    0    0    0  501  0.00000000000E+00  0.00000000000E+00  0.77272111523E+02  0.77272111565E+02  0.25500000920E-02 0. -1.
        2   -1    0    0  501    0  0.00000000000E+00  0.00000000000E+00 -0.16012922230E+04  0.16012922230E+04  0.25500000920E-02 0.  1.
    10030    2    1    2    0    0  0.00000000000E+00  0.00000000000E+00 -0.15240201114E+04  0.16785643345E+04  0.70352038000E+03 0.  0.
        3    1    3    3  502    0 -0.41034522730E+02  0.30984196057E+03 -0.37692227238E+03  0.48964914194E+03  0.10100000352E+00 0. -1.
       -3    1    3    3    0  502  0.41034522730E+02 -0.30984196057E+03 -0.11470978391E+04  0.11889151926E+04  0.10100000352E+00 0.  1.
</event>
<event>
 5   0  0.3183963E-02  0.6916234E+03  0.7818609E-02  0.9731665E-01
       -2   -1    0    0    0  501  0.00000000000E+00  0.00000000000E+00  0.11837728781E+03  0.11837728784E+03  0.25500000920E-02 0. -1.
        2   -1    0    0  501    0  0.00000000000E+00  0.00000000000E+00 -0.10102084576E+04  0.10102084576E+04  0.25500000920E-02 0.  1.
    10030    2    1    2    0    0  0.00000000000E+00  0.00000000000E+00 -0.89183116983E+03  0.11285857455E+04  0.69162341591E+03 0.  0.
        4    1    3    3  502    0  0.83221012884E+01 -0.26175599846E+03 -0.81442133869E+03  0.85549353587E+03  0.12699999809E+01 0.  1.
       -4    1    3    3    0  502 -0.83221012884E+01  0.26175599846E+03 -0.77409831145E+02  0.27309220962E+03  0.12699999809E+01 0. -1.
</event>
<event>
 5   0  0.3113940E-02  0.7353975E+03  0.7818609E-02  0.9658542E-01
       -2   -1    0    0    0  501  0.00000000000E+00  0.00000000000E+00  0.22534016822E+03  0.22534016823E+03  0.25500000920E-02 0. -1.
        2   -1    0    0  501    0  0.00000000000E+00  0.00000000000E+00 -0.59999239787E+03  0.59999239787E+03  0.25500000920E-02 0.  1.
    10030    2    1    2    0    0  0.00000000000E+00  0.00000000000E+00 -0.37465222965E+03  0.82533256611E+03  0.73539754657E+03 0.  0.
        5    1    3    3  502    0  0.15366049522E+01 -0.33005802206E+03 -0.55295253796E+01  0.33014137082E+03  0.46999998093E+01 0. -1.
       -5    1    3    3    0  502 -0.15366049522E+01  0.33005802206E+03 -0.36912270427E+03  0.49519119528E+03  0.46999998093E+01 0.  1.
</event>
<event>
 5   0  0.1839038E-02  0.6804010E+03  0.7818609E-02  0.9751349E-01
        1   -1    0    0  501    0  0.00000000000E+00  0.00000000000E+00  0.12158070776E+04  0.12158070776E+04  0.50400001928E-02 0. -1.
       -1   -1    0    0    0  501  0.00000000000E+00  0.00000000000E+00 -0.95193059008E+02  0.95193059141E+02  0.50400001928E-02 0.  1.
    10030    2    1    2    0    0  0.00000000000E+00  0.00000000000E+00  0.11206140186E+04  0.13110001367E+04  0.68040104342E+03 0.  0.
        5    1    3    3  502    0  0.16388382786E+03 -0.13474775161E+03  0.10726322479E+04  0.10934243892E+04  0.46999998093E+01 0. -1.
       -5    1    3    3    0  502 -0.16388382786E+03  0.13474775161E+03  0.47981770630E+02  0.21757574752E+03  0.46999998093E+01 0.  1.
</event>
<event>
 5   0  0.3184443E-02  0.7014683E+03  0.7818609E-02  0.9714725E-01
       -2   -1    0    0    0  501  0.00000000000E+00  0.00000000000E+00  0.68037787995E+02  0.68037788043E+02  0.25500000920E-02 0.  1.
        2   -1    0    0  501    0  0.00000000000E+00  0.00000000000E+00 -0.18080311359E+04  0.18080311359E+04  0.25500000920E-02 0. -1.
    10030    2    1    2    0    0  0.00000000000E+00  0.00000000000E+00 -0.17399933479E+04  0.18760689239E+04  0.70146828626E+03 0.  0.
        3    1    3    3  502    0 -0.33432613612E+03 -0.97032079066E+02 -0.75573498117E+03  0.83206043147E+03  0.10100000352E+00 0.  1.
       -3    1    3    3    0  502  0.33432613612E+03  0.97032079066E+02 -0.98425836669E+03  0.10440084924E+04  0.10100000352E+00 0. -1.
</event>
<event>
 5   0  0.3290656E-02  0.7032381E+03  0.7818609E-02  0.9711711E-01
       -2   -1    0    0    0  501  0.00000000000E+00  0.00000000000E+00  0.16797891934E+03  0.16797891936E+03  0.25500000920E-02 0.  1.
        2   -1    0    0  501    0  0.00000000000E+00  0.00000000000E+00 -0.73602061684E+03  0.73602061684E+03  0.25500000920E-02 0. -1.
    10030    2    1    2    0    0  0.00000000000E+00  0.00000000000E+00 -0.56804169750E+03  0.90399953620E+03  0.70323807587E+03 0.  0.
        1    1    3    3  502    0  0.29085821281E+03  0.99549657063E+02 -0.64631243488E+02  0.31414301177E+03  0.50400001928E-02 0.  1.
       -1    1    3    3    0  502 -0.29085821281E+03 -0.99549657063E+02 -0.50341045402E+03  0.58985652443E+03  0.50400001928E-02 0. -1.
</event>
<event>
 5   0  0.3183963E-02  0.7012539E+03  0.7818609E-02  0.9715090E-01
        2   -1    0    0  501    0  0.00000000000E+00  0.00000000000E+00  0.34690129614E+03  0.34690129615E+03  0.25500000920E-02 0. -1.
       -2   -1    0    0    0  501  0.00000000000E+00  0.00000000000E+00 -0.35439258384E+03  0.35439258385E+03  0.25500000920E-02 0.  1.
    10030    2    1    2    0    0  0.00000000000E+00  0.00000000000E+00 -0.74912877017E+01  0.70129387999E+03  0.70125386753E+03 0.  0.
        4    1    3    3  502    0  0.34732895267E+02  0.27917920460E+03  0.20552745244E+03  0.34841146494E+03  0.12699999809E+01 0. -1.
       -4    1    3    3    0  502 -0.34732895267E+02 -0.27917920460E+03 -0.21301874015E+03  0.35288241505E+03  0.12699999809E+01 0.  1.
</event>
<event>
 5   0  0.3290656E-02  0.7352312E+03  0.7818609E-02  0.9658809E-01
        2   -1    0    0  501    0  0.00000000000E+00  0.00000000000E+00  0.20357684025E+03  0.20357684027E+03  0.25500000920E-02 0. -1.
       -2   -1    0    0    0  501  0.00000000000E+00  0.00000000000E+00 -0.66383401528E+03  0.66383401528E+03  0.25500000920E-02 0.  1.
    10030    2    1    2    0    0  0.00000000000E+00  0.00000000000E+00 -0.46025717503E+03  0.86741085555E+03  0.73523120524E+03 0.  0.
        1    1    3    3  502    0 -0.82457645466E+02  0.27161128756E+03  0.45468751010E+02  0.28747062836E+03  0.50400001928E-02 0. -1.
       -1    1    3    3    0  502  0.82457645466E+02 -0.27161128756E+03 -0.50572592604E+03  0.57994022719E+03  0.50400001928E-02 0.  1.
</event>
<event>
 5   0  0.3184443E-02  0.7021387E+03  0.7818609E-02  0.9713582E-01
       -2   -1    0    0    0  501  0.00000000000E+00  0.00000000000E+00  0.75501878041E+03  0.75501878041E+03  0.25500000920E-02 0.  1.
        2   -1    0    0  501    0  0.00000000000E+00  0.00000000000E+00 -0.16324055081E+03  0.16324055083E+03  0.25500000920E-02 0. -1.
    10030    2    1    2    0    0  0.00000000000E+00  0.00000000000E+00  0.59177822959E+03  0.91825933125E+03  0.70213868032E+03 0.  0.
        3    1    3    3  502    0  0.22886104814E+03  0.67582640919E+01 -0.52160136301E+02  0.23482705021E+03  0.10100000352E+00 0. -1.
       -3    1    3    3    0  502 -0.22886104814E+03 -0.67582640919E+01  0.64393836590E+03  0.68343228104E+03  0.10100000352E+00 0.  1.
</event>
<event>
 5   0  0.2933851E-02  0.7059449E+03  0.7818609E-02  0.9707119E-01
       -2   -1    0    0    0  501  0.00000000000E+00  0.00000000000E+00  0.37625680699E+03  0.37625680700E+03  0.25500000920E-02 0.  1.
        2   -1    0    0  501    0  0.00000000000E+00  0.00000000000E+00 -0.33112898567E+03  0.33112898568E+03  0.25500000920E-02 0. -1.
    10030    2    1    2    0    0  0.00000000000E+00  0.00000000000E+00  0.45127821320E+02  0.70738579267E+03  0.70594485579E+03 0.  0.
        2    1    3    3  502    0  0.95528932027E+02 -0.11494109596E+03  0.34298574563E+03  0.37413427283E+03  0.25500000920E-02 0.  1.
       -2    1    3    3    0  502 -0.95528932027E+02  0.11494109596E+03 -0.29785792431E+03  0.33325151984E+03  0.25500000920E-02 0. -1.
</event>
<event>
 5   0  0.3290656E-02  0.6926441E+03  0.7818609E-02  0.9729895E-01
       -2   -1    0    0    0  501  0.00000000000E+00  0.00000000000E+00  0.78385717368E+03  0.78385717369E+03  0.25500000920E-02 0.  1.
        2   -1    0    0  501    0  0.00000000000E+00  0.00000000000E+00 -0.15301124231E+03  0.15301124233E+03  0.25500000920E-02 0. -1.
    10030    2    1    2    0    0  0.00000000000E+00  0.00000000000E+00  0.63084593137E+03  0.93686841602E+03  0.69264409318E+03 0.  0.
        1    1    3    3  502    0  0.30561176813E+03 -0.65450363513E+01  0.53559972947E+03  0.61669154409E+03  0.50400001928E-02 0.  1.
       -1    1    3    3    0  502 -0.30561176813E+03  0.65450363513E+01  0.95246201904E+02  0.32017687193E+03  0.50400001928E-02 0. -1.
</event>
<event>
 5   0  0.2933851E-02  0.6653961E+03  0.7818609E-02  0.9778311E-01
       -2   -1    0    0    0  501  0.00000000000E+00  0.00000000000E+00  0.10852209823E+03  0.10852209826E+03  0.25500000920E-02 0.  1.
        2   -1    0    0  501    0  0.00000000000E+00  0.00000000000E+00 -0.10199581712E+04  0.10199581712E+04  0.25500000920E-02 0. -1.
    10030    2    1    2    0    0  0.00000000000E+00  0.00000000000E+00 -0.91143607293E+03  0.11284802694E+04  0.66539612521E+03 0.  0.
        2    1    3    3  502    0 -0.89961128688E+02 -0.15888997955E+03  0.15954914786E+02  0.18328554114E+03  0.25500000920E-02 0.  1.
       -2    1    3    3    0  502  0.89961128688E+02  0.15888997955E+03 -0.92739098772E+03  0.94519472829E+03  0.25500000920E-02 0. -1.
</event>
<event>
 5   0  0.1969818E-02  0.6919514E+03  0.7818609E-02  0.9731096E-01
        1   -1    0    0  501    0  0.00000000000E+00  0.00000000000E+00  0.48511587712E+03  0.48511587715E+03  0.50400001928E-02 0.  1.
       -1   -1    0    0    0  501  0.00000000000E+00  0.00000000000E+00 -0.24674348043E+03  0.24674348049E+03  0.50400001928E-02 0. -1.
    10030    2    1    2    0    0  0.00000000000E+00  0.00000000000E+00  0.23837239669E+03  0.73185935764E+03  0.69195138547E+03 0.  0.
        1    1    3    3  502    0 -0.13173387317E+03 -0.29906664808E+03 -0.96351775759E+00  0.32679596345E+03  0.50400001928E-02 0.  1.
       -1    1    3    3    0  502  0.13173387317E+03  0.29906664808E+03  0.23933591445E+03  0.40506339418E+03  0.50400001928E-02 0. -1.
</event>
<event>
 5   0  0.1858013E-02  0.7021984E+03  0.7818609E-02  0.9713480E-01
       -1   -1    0    0    0  501  0.00000000000E+00  0.00000000000E+00  0.16996462966E+03  0.16996462973E+03  0.50400001928E-02 0. -1.
        1   -1    0    0  501    0  0.00000000000E+00  0.00000000000E+00 -0.72527243746E+03  0.72527243747E+03  0.50400001928E-02 0.  1.
    10030    2    1    2    0    0  0.00000000000E+00  0.00000000000E+00 -0.55530780780E+03  0.89523706720E+03  0.70219843712E+03 0.  0.
        2    1    3    3  502    0 -0.20488754826E+03  0.28076835781E+02  0.84076847447E+02  0.22324007799E+03  0.25500000920E-02 0. -1.
       -2    1    3    3    0  502  0.20488754826E+03 -0.28076835781E+02 -0.63938465525E+03  0.67199698921E+03  0.25500000920E-02 0.  1.
</event>
<event>
 5   0  0.1951465E-02  0.6862118E+03  0.7818609E-02  0.9741107E-01
       -1   -1    0    0    0  501  0.00000000000E+00  0.00000000000E+00  0.21151280868E+03  0.21151280874E+03  0.50400001928E-02 0. -1.
        1   -1    0    0  501    0  0.00000000000E+00  0.00000000000E+00 -0.55656983680E+03  0.55656983682E+03  0.50400001928E-02 0.  1.
    10030    2    1    2    0    0  0.00000000000E+00  0.00000000000E+00 -0.34505702812E+03  0.76808264556E+03  0.68621177326E+03 0.  0.
        4    1    3    3  502    0  0.58396576904E+02  0.25701519760E+03  0.73345277216E+02  0.27358383465E+03  0.12699999809E+01 0. -1.
       -4    1    3    3    0  502 -0.58396576904E+02 -0.25701519760E+03 -0.41840230533E+03  0.49449881092E+03  0.12699999809E+01 0.  1.
</event>
<event>
 5   0  0.1839038E-02  0.7055945E+03  0.7818609E-02  0.9707712E-01
        1   -1    0    0  501    0  0.00000000000E+00  0.00000000000E+00  0.48154954391E+03  0.48154954393E+03  0.50400001928E-02 0. -1.
       -1   -1    0    0    0  501  0.00000000000E+00  0.00000000000E+00 -0.25846958283E+03  0.25846958288E+03  0.50400001928E-02 0.  1.
    10030    2    1    2    0    0  0.00000000000E+00  0.00000000000E+00  0.22307996108E+03  0.74001912681E+03  0.70559452876E+03 0.  0.
        5    1    3    3  502    0 -0.99509863084E+02  0.22540920781E+03 -0.15322925547E+03  0.29019444955E+03  0.46999998093E+01 0. -1.
       -5    1    3    3    0  502  0.99509863084E+02 -0.22540920781E+03  0.37630921655E+03  0.44982467726E+03  0.46999998093E+01 0.  1.
</event>
<event>
 5   0  0.3184443E-02  0.7000577E+03  0.7818609E-02  0.9717134E-01
        2   -1    0    0  501    0  0.00000000000E+00  0.00000000000E+00  0.14187406711E+04  0.14187406711E+04  0.25500000920E-02 0. -1.
       -2   -1    0    0    0  501  0.00000000000E+00  0.00000000000E+00 -0.86358403531E+02  0.86358403568E+02  0.25500000920E-02 0.  1.
    10030    2    1    2    0    0  0.00000000000E+00  0.00000000000E+00  0.13323822676E+04  0.15050990747E+04  0.70005765308E+03 0.  0.
        3    1    3    3  502    0  0.41554322076E+02  0.18360372859E+03  0.13006422525E+04  0.13141945708E+04  0.10100000352E+00 0. -1.
       -3    1    3    3    0  502 -0.41554322076E+02 -0.18360372859E+03  0.31740015096E+02  0.19090450386E+03  0.10100000352E+00 0.  1.
</event>
<event>
 5   0  0.1233912E-02  0.7010931E+03  0.7818609E-02  0.9715365E-01
       -3   -1    0    0    0  501  0.00000000000E+00  0.00000000000E+00  0.30099264581E+03  0.30099266276E+03  0.10100000352E+00 0.  1.
        3   -1    0    0  501    0  0.00000000000E+00  0.00000000000E+00 -0.40825877016E+03  0.40825878265E+03  0.10100000352E+00 0. -1.
    10030    2    1    2    0    0  0.00000000000E+00  0.00000000000E+00 -0.10726612435E+03  0.70925144540E+03  0.70109314030E+03 0.  0.
        4    1    3    3  502    0 -0.51842211924E+02  0.30379179529E+03 -0.22262244402E+03  0.38018342324E+03  0.12699999809E+01 0.  1.
       -4    1    3    3    0  502  0.51842211924E+02 -0.30379179529E+03  0.11535631968E+03  0.32906802217E+03  0.12699999809E+01 0. -1.
</event>
<event>
 5   0  0.3184443E-02  0.6205650E+03  0.7818609E-02  0.9863635E-01
        2   -1    0    0  501    0  0.00000000000E+00  0.00000000000E+00  0.40847723638E+03  0.40847723639E+03  0.25500000920E-02 0.  1.
       -2   -1    0    0    0  501  0.00000000000E+00  0.00000000000E+00 -0.23569301121E+03  0.23569301122E+03  0.25500000920E-02 0. -1.
    10030    2    1    2    0    0  0.00000000000E+00  0.00000000000E+00  0.17278422517E+03  0.64417024761E+03  0.62056500017E+03 0.  0.
        3    1    3    3  502    0 -0.19732891501E+03  0.16547359735E+03  0.26605074978E+03  0.37027452488E+03  0.10100000352E+00 0.  1.
       -3    1    3    3    0  502  0.19732891501E+03 -0.16547359735E+03 -0.93266524609E+02  0.27389572273E+03  0.10100000352E+00 0. -1.
</event>
<event>
 5   0  0.1884172E-02  0.6890442E+03  0.7818609E-02  0.9736154E-01
       -1   -1    0    0    0  501  0.00000000000E+00  0.00000000000E+00  0.65385104572E+02  0.65385104766E+02  0.50400001928E-02 0. -1.
        1   -1    0    0  501    0  0.00000000000E+00  0.00000000000E+00 -0.18153292056E+04  0.18153292056E+04  0.50400001928E-02 0.  1.
    10030    2    1    2    0    0  0.00000000000E+00  0.00000000000E+00 -0.17499441010E+04  0.18807143103E+04  0.68904423698E+03 0.  0.
        3    1    3    3  502    0  0.27748023568E+03  0.97603733268E+02 -0.13645550128E+04  0.13958983355E+04  0.10100000352E+00 0.  1.
       -3    1    3    3    0  502 -0.27748023568E+03 -0.97603733268E+02 -0.38538908819E+03  0.48481597482E+03  0.10100000352E+00 0. -1.
</event>
<event>
 5   0  0.1951465E-02  0.7000532E+03  0.7818609E-02  0.9717141E-01
        1   -1    0    0  501    0  0.00000000000E+00  0.00000000000E+00  0.19204345750E+03  0.19204345756E+03  0.50400001928E-02 0. -1.
       -1   -1    0    0    0  501  0.00000000000E+00  0.00000000000E+00 -0.63797344824E+03  0.63797344826E+03  0.50400001928E-02 0.  1.
    10030    2    1    2    0    0  0.00000000000E+00  0.00000000000E+00 -0.44592999074E+03  0.83001690582E+03  0.70005321748E+03 0.  0.
        4    1    3    3  502    0  0.13972117987E+03  0.27057229116E+03 -0.18339681703E+02  0.30507266294E+03  0.12699999809E+01 0. -1.
       -4    1    3    3    0  502 -0.13972117987E+03 -0.27057229116E+03 -0.42759030904E+03  0.52494424288E+03  0.12699999809E+01 0.  1.
</event>
<event>
 5   0  0.1839038E-02  0.6440979E+03  0.7818609E-02  0.9817918E-01
        1   -1    0    0  501    0  0.00000000000E+00  0.00000000000E+00  0.21218902718E+03  0.21218902724E+03  0.50400001928E-02 0. -1.
       -1   -1    0    0    0  501  0.00000000000E+00  0.00000000000E+00 -0.48878835222E+03  0.48878835225E+03  0.50400001928E-02 0.  1.
    10030    2    1    2    0    0  0.00000000000E+00  0.00000000000E+00 -0.27659932504E+03  0.70097737948E+03  0.64409789623E+03 0.  0.
        5    1    3    3  502    0  0.29565859094E+02 -0.62832936718E+02 -0.48050539667E+03  0.48551997301E+03  0.46999998093E+01 0.  1.
       -5    1    3    3    0  502 -0.29565859094E+02  0.62832936718E+02  0.20390607163E+03  0.21545740648E+03  0.46999998093E+01 0. -1.
</event>
<event>
 5   0  0.3183963E-02  0.7059821E+03  0.7818609E-02  0.9707056E-01
        2   -1    0    0  501    0  0.00000000000E+00  0.00000000000E+00  0.11426090116E+04  0.11426090116E+04  0.25500000920E-02 0.  1.
       -2   -1    0    0    0  501  0.00000000000E+00  0.00000000000E+00 -0.10905103517E+03  0.10905103520E+03  0.25500000920E-02 0. -1.
    10030    2    1    2    0    0  0.00000000000E+00  0.00000000000E+00  0.10335579764E+04  0.12516600468E+04  0.70598214006E+03 0.  0.
        4    1    3    3  502    0  0.32808568094E+03  0.52937564754E+02  0.30581854247E+03  0.45162948710E+03  0.12699999809E+01 0. -1.
       -4    1    3    3    0  502 -0.32808568094E+03 -0.52937564754E+02  0.72773943393E+03  0.80003055966E+03  0.12699999809E+01 0.  1.
</event>
<event>
 5   0  0.3183963E-02  0.7279739E+03  0.7818609E-02  0.9670554E-01
       -2   -1    0    0    0  501  0.00000000000E+00  0.00000000000E+00  0.33813959554E+03  0.33813959555E+03  0.25500000920E-02 0.  1.
        2   -1    0    0  501    0  0.00000000000E+00  0.00000000000E+00 -0.39181002211E+03  0.39181002212E+03  0.25500000920E-02 0. -1.
    10030    2    1    2    0    0  0.00000000000E+00  0.00000000000E+00 -0.53670426568E+02  0.72994961767E+03  0.72797385231E+03 0.  0.
        4    1    3    3  502    0  0.15172389494E+03 -0.20747289683E+03 -0.28525492986E+03  0.38397543037E+03  0.12699999809E+01 0. -1.
       -4    1    3    3    0  502 -0.15172389494E+03  0.20747289683E+03  0.23158450330E+03  0.34597418730E+03  0.12699999809E+01 0.  1.
</event>
<event>
 5   0  0.3184443E-02  0.7007472E+03  0.7818609E-02  0.9715955E-01
        2   -1    0    0  501    0  0.00000000000E+00  0.00000000000E+00  0.15988402405E+04  0.15988402405E+04  0.25500000920E-02 0. -1.
       -2   -1    0    0    0  501  0.00000000000E+00  0.00000000000E+00 -0.76781698976E+02  0.76781699018E+02  0.25500000920E-02 0.  1.
    10030    2    1    2    0    0  0.00000000000E+00  0.00000000000E+00  0.15220585416E+04  0.16756219395E+04  0.70074723002E+03 0.  0.
        3    1    3    3  502    0 -0.47141254192E+02  0.19981237139E+03  0.82105674731E+02  0.22110774214E+03  0.10100000352E+00 0.  1.
       -3    1    3    3    0  502  0.47141254192E+02 -0.19981237139E+03  0.14399528668E+04  0.14545141974E+04  0.10100000352E+00 0. -1.
</event>
<event>
 5   0  0.1969818E-02  0.6997233E+03  0.7818609E-02  0.9717706E-01
        1   -1    0    0  501    0  0.00000000000E+00  0.00000000000E+00  0.11920489358E+04  0.11920489359E+04  0.50400001928E-02 0.  1.
       -1   -1    0    0    0  501  0.00000000000E+00  0.00000000000E+00 -0.10268300019E+03  0.10268300032E+03  0.50400001928E-02 0. -1.
    10030    2    1    2    0    0  0.00000000000E+00  0.00000000000E+00  0.10893659356E+04  0.12947319362E+04  0.69972326300E+03 0.  0.
        1    1    3    3  502    0  0.88864874658E+02 -0.13121658167E+03 -0.32460901986E+02  0.16176670682E+03  0.50400001928E-02 0. -1.
       -1    1    3    3    0  502 -0.88864874658E+02  0.13121658167E+03  0.11218268376E+04  0.11329652293E+04  0.50400001928E-02 0.  1.
</event>
<event>
 5   0  0.3183963E-02  0.7400127E+03  0.7818609E-02  0.9651150E-01
        2   -1    0    0  501    0  0.00000000000E+00  0.00000000000E+00  0.19659335956E+03  0.19659335958E+03  0.25500000920E-02 0. -1.
       -2   -1    0    0    0  501  0.00000000000E+00  0.00000000000E+00 -0.69638512894E+03  0.69638512895E+03  0.25500000920E-02 0.  1.
    10030    2    1    2    0    0  0.00000000000E+00  0.00000000000E+00 -0.49979176938E+03  0.89297848853E+03  0.74001268113E+03 0.  0.
        4    1    3    3  502    0 -0.24434486372E+03 -0.24901520611E+03 -0.10117154010E+03  0.36324960939E+03  0.12699999809E+01 0. -1.
       -4    1    3    3    0  502  0.24434486372E+03  0.24901520611E+03 -0.39862022928E+03  0.52972887913E+03  0.12699999809E+01 0.  1.
</event>
<event>
 5   0  0.1951465E-02  0.6899246E+03  0.7818609E-02  0.9734619E-01
        1   -1    0    0  501    0  0.00000000000E+00  0.00000000000E+00  0.28230299702E+03  0.28230299706E+03  0.50400001928E-02 0.  1.
       -1   -1    0    0    0  501  0.00000000000E+00  0.00000000000E+00 -0.42152932744E+03  0.42152932747E+03  0.50400001928E-02 0. -1.
    10030    2    1    2    0    0  0.00000000000E+00  0.00000000000E+00 -0.13922633042E+03  0.70383232454E+03  0.68992461181E+03 0.  0.
        4    1    3    3  502    0  0.19548355946E+02 -0.30776414251E+03 -0.22731417798E+03  0.38311128154E+03  0.12699999809E+01 0. -1.
       -4    1    3    3    0  502 -0.19548355946E+02  0.30776414251E+03  0.88087847558E+02  0.32072104300E+03  0.12699999809E+01 0.  1.
</event>
<event>
 5   0  0.3290656E-02  0.6999465E+03  0.7818609E-02  0.9717324E-01
       -2   -1    0    0    0  501  0.00000000000E+00  0.00000000000E+00  0.22254778983E+03  0.22254778985E+03  0.25500000920E-02 0. -1.
        2   -1    0    0  501    0  0.00000000000E+00  0.00000000000E+00 -0.55035942838E+03  0.55035942838E+03  0.25500000920E-02 0.  1.
    10030    2    1    2    0    0  0.00000000000E+00  0.00000000000E+00 -0.32781163855E+03  0.77290721823E+03  0.69994649626E+03 0.  0.
        1    1    3    3  502    0 -0.76774716522E+02  0.32089631341E+03 -0.35071656328E+02  0.33181142560E+03  0.50400001928E-02 0. -1.
       -1    1    3    3    0  502  0.76774716522E+02 -0.32089631341E+03 -0.29273998222E+03  0.44109579263E+03  0.50400001928E-02 0.  1.
</event>
<event>
 5   0  0.3113940E-02  0.7017592E+03  0.7818609E-02  0.9714229E-01
        2   -1    0    0  501    0  0.00000000000E+00  0.00000000000E+00  0.73958734238E+03  0.73958734238E+03  0.25500000920E-02 0. -1.
       -2   -1    0    0    0  501  0.00000000000E+00  0.00000000000E+00 -0.16646645104E+03  0.16646645106E+03  0.25500000920E-02 0.  1.
    10030    2    1    2    0    0  0.00000000000E+00  0.00000000000E+00  0.57312089134E+03  0.90605379344E+03  0.70175916134E+03 0.  0.
        5    1    3    3  502    0  0.68022873303E+02 -0.10349421069E+03 -0.13726505201E+03  0.18493768529E+03  0.46999998093E+01 0.  1.
       -5    1    3    3    0  502 -0.68022873303E+02  0.10349421069E+03  0.71038594335E+03  0.72111610815E+03  0.46999998093E+01 0. -1.
</event>
<event>
 5   0  0.1951465E-02  0.6960624E+03  0.7818609E-02  0.9723990E-01
        1   -1    0    0  501    0  0.00000000000E+00  0.00000000000E+00  0.18973326289E+04  0.18973326289E+04  0.50400001928E-02 0.  1.
       -1   -1    0    0    0  501  0.00000000000E+00  0.00000000000E+00 -0.63839994033E+02  0.63839994232E+02  0.50400001928E-02 0. -1.
    10030    2    1    2    0    0  0.00000000000E+00  0.00000000000E+00  0.18334926349E+04  0.19611726231E+04  0.69606236476E+03 0.  0.
        4    1    3    3  502    0 -0.25856957563E+03  0.35586613734E+02  0.15653858076E+04  0.15869968406E+04  0.12699999809E+01 0.  1.
       -4    1    3    3    0  502  0.25856957563E+03 -0.35586613734E+02  0.26810682729E+03  0.37417578257E+03  0.12699999809E+01 0. -1.
</event>
<event>
 5   0  0.1969818E-02  0.6919722E+03  0.7818609E-02  0.9731060E-01
        1   -1    0    0  501    0  0.00000000000E+00  0.00000000000E+00  0.10367136853E+04  0.10367136853E+04  0.50400001928E-02 0.  1.
       -1   -1    0    0    0  501  0.00000000000E+00  0.00000000000E+00 -0.11546715956E+03  0.11546715967E+03  0.50400001928E-02 0. -1.
    10030    2    1    2    0    0  0.00000000000E+00  0.00000000000E+00  0.92124652576E+03  0.11521808450E+04  0.69197220925E+03 0.  0.
        1    1    3    3  502    0  0.11452301739E+03  0.15938556881E+02  0.10035907733E+04  0.10102296765E+04  0.50400001928E-02 0.  1.
       -1    1    3    3    0  502 -0.11452301739E+03 -0.15938556881E+02 -0.82344247513E+02  0.14195116848E+03  0.50400001928E-02 0. -1.
</event>
<event>
 5   0  0.1951465E-02  0.6976864E+03  0.7818609E-02  0.9721197E-01
        1   -1    0    0  501    0  0.00000000000E+00  0.00000000000E+00  0.51286935284E+03  0.51286935286E+03  0.50400001928E-02 0. -1.
       -1   -1    0    0    0  501  0.00000000000E+00  0.00000000000E+00 -0.23727595124E+03  0.23727595129E+03  0.50400001928E-02 0.  1.
    10030    2    1    2    0    0  0.00000000000E+00  0.00000000000E+00  0.27559340160E+03  0.75014530415E+03  0.69768635814E+03 0.  0.
        4    1    3    3  502    0  0.34507627506E+03 -0.11683657849E+02  0.84297958092E+02  0.35541792598E+03  0.12699999809E+01 0.  1.
       -4    1    3    3    0  502 -0.34507627506E+03  0.11683657849E+02  0.19129544351E+03  0.39472737817E+03  0.12699999809E+01 0. -1.
</event>
<event>
 5   0  0.3183963E-02  0.7184604E+03  0.7818609E-02  0.9686173E-01
        2   -1    0    0  501    0  0.00000000000E+00  0.00000000000E+00  0.17726373424E+04  0.17726373424E+04  0.25500000920E-02 0.  1.
       -2   -1    0    0    0  501  0.00000000000E+00  0.00000000000E+00 -0.72799058865E+02  0.72799058910E+02  0.25500000920E-02 0. -1.
    10030    2    1    2    0    0  0.00000000000E+00  0.00000000000E+00  0.16998382835E+04  0.18454364013E+04  0.71846038242E+03 0.  0.
        4    1    3    3  502    0 -0.19788094082E+03 -0.95764444795E+02  0.15796770706E+04  0.15949009235E+04  0.12699999809E+01 0.  1.
       -4    1    3    3    0  502  0.19788094082E+03  0.95764444795E+02  0.12016121292E+03  0.25053547776E+03  0.12699999809E+01 0. -1.
</event>
<event>
 5   0  0.1969818E-02  0.7794571E+03  0.7818609E-02  0.9590237E-01
       -1   -1    0    0    0  501  0.00000000000E+00  0.00000000000E+00  0.57433084629E+03  0.57433084631E+03  0.50400001928E-02 0. -1.
        1   -1    0    0  501    0  0.00000000000E+00  0.00000000000E+00 -0.26446143149E+03  0.26446143154E+03  0.50400001928E-02 0.  1.
    10030    2    1    2    0    0  0.00000000000E+00  0.00000000000E+00  0.30986941480E+03  0.83879227785E+03  0.77945713875E+03 0.  0.
        1    1    3    3  502    0 -0.94288101338E+02  0.28048168396E+03 -0.11800245403E+03  0.31856679091E+03  0.50400001928E-02 0.  1.
       -1    1    3    3    0  502  0.94288101338E+02 -0.28048168396E+03  0.42787186884E+03  0.52022548694E+03  0.50400001928E-02 0. -1.
</event>
<event>
 5   0  0.3290656E-02  0.6925666E+03  0.7818609E-02  0.9730029E-01
        2   -1    0    0  501    0  0.00000000000E+00  0.00000000000E+00  0.41667654413E+03  0.41667654414E+03  0.25500000920E-02 0. -1.
       -2   -1    0    0    0  501  0.00000000000E+00  0.00000000000E+00 -0.28778226785E+03  0.28778226786E+03  0.25500000920E-02 0.  1.
    10030    2    1    2    0    0  0.00000000000E+00  0.00000000000E+00  0.12889427628E+03  0.70445881200E+03  0.69256659127E+03 0.  0.
        1    1    3    3  502    0 -0.22766375112E+02 -0.13102945609E+03 -0.26076955450E+03  0.29272476284E+03  0.50400001928E-02 0.  1.
       -1    1    3    3    0  502  0.22766375112E+02  0.13102945609E+03  0.38966383078E+03  0.41173404917E+03  0.50400001928E-02 0. -1.
</event>
<event>
 5   0  0.1233912E-02  0.6987560E+03  0.7818609E-02  0.9719362E-01
       -3   -1    0    0    0  501  0.00000000000E+00  0.00000000000E+00  0.28233926580E+03  0.28233928387E+03  0.10100000352E+00 0. -1.
        3   -1    0    0  501    0  0.00000000000E+00  0.00000000000E+00 -0.43233437192E+03  0.43233438372E+03  0.10100000352E+00 0.  1.
    10030    2    1    2    0    0  0.00000000000E+00  0.00000000000E+00 -0.14999510612E+03  0.71467366758E+03  0.69875597978E+03 0.  0.
        4    1    3    3  502    0 -0.63385482384E+01 -0.21277725858E+03  0.20834949015E+03  0.29786819553E+03  0.12699999809E+01 0. -1.
       -4    1    3    3    0  502  0.63385482384E+01  0.21277725858E+03 -0.35834459627E+03  0.41680547206E+03  0.12699999809E+01 0.  1.
</event>
<event>
 5   0  0.1839038E-02  0.6928675E+03  0.7818609E-02  0.9729508E-01
        1   -1    0    0  501    0  0.00000000000E+00  0.00000000000E+00  0.80869665693E+03  0.80869665694E+03  0.50400001928E-02 0. -1.
       -1   -1    0    0    0  501  0.00000000000E+00  0.00000000000E+00 -0.14840711496E+03  0.14840711505E+03  0.50400001928E-02 0.  1.
    10030    2    1    2    0    0  0.00000000000E+00  0.00000000000E+00  0.66028954196E+03  0.95710377199E+03  0.69286748454E+03 0.  0.
        5    1    3    3  502    0  0.12659733445E+03  0.57973460790E+02  0.76829368427E+03  0.78082333632E+03  0.46999998093E+01 0. -1.
       -5    1    3    3    0  502 -0.12659733445E+03 -0.57973460790E+02 -0.10800414231E+03  0.17628043567E+03  0.46999998093E+01 0.  1.
</event>
<event>
 5   0  0.3184443E-02  0.7044180E+03  0.7818609E-02  0.9709706E-01
       -2   -1    0    0    0  501  0.00000000000E+00  0.00000000000E+00  0.12494584918E+03  0.12494584920E+03  0.25500000920E-02 0.  1.
        2   -1    0    0  501    0  0.00000000000E+00  0.00000000000E+00 -0.99283965354E+03  0.99283965355E+03  0.25500000920E-02 0. -1.
    10030    2    1    2    0    0  0.00000000000E+00  0.00000000000E+00 -0.86789380437E+03  0.11177855027E+04  0.70441803959E+03 0.  0.
        3    1    3    3  502    0 -0.21755221837E+03  0.22973328749E+03 -0.67949349001E+03  0.74954503818E+03  0.10100000352E+00 0. -1.
       -3    1    3    3    0  502  0.21755221837E+03 -0.22973328749E+03 -0.18840031436E+03  0.36824046457E+03  0.10100000352E+00 0.  1.
</event>
<event>
 5   0  0.1969818E-02  0.6995701E+03  0.7818609E-02  0.9717968E-01
       -1   -1    0    0    0  501  0.00000000000E+00  0.00000000000E+00  0.15912511015E+03  0.15912511023E+03  0.50400001928E-02 0. -1.
        1   -1    0    0  501    0  0.00000000000E+00  0.00000000000E+00 -0.76888914617E+03  0.76888914619E+03  0.50400001928E-02 0.  1.
    10030    2    1    2    0    0  0.00000000000E+00  0.00000000000E+00 -0.60976403602E+03  0.92801425641E+03  0.69957006831E+03 0.  0.
        1    1    3    3  502    0 -0.16266207349E+03 -0.29455304508E+02  0.10403747024E+03  0.19532117231E+03  0.50400001928E-02 0. -1.
       -1    1    3    3    0  502  0.16266207349E+03  0.29455304508E+02 -0.71380150626E+03  0.73269308410E+03  0.50400001928E-02 0.  1.
</event>
<event>
 5   0  0.1839038E-02  0.6965590E+03  0.7818609E-02  0.9723135E-01
       -1   -1    0    0    0  501  0.00000000000E+00  0.00000000000E+00  0.22553960477E+03  0.22553960482E+03  0.50400001928E-02 0. -1.
        1   -1    0    0  501    0  0.00000000000E+00  0.00000000000E+00 -0.53781504842E+03  0.53781504844E+03  0.50400001928E-02 0.  1.
    10030    2    1    2    0    0  0.00000000000E+00  0.00000000000E+00 -0.31227544365E+03  0.76335465326E+03  0.69655895225E+03 0.  0.
        5    1    3    3  502    0 -0.24222456519E+03 -0.35141188600E+02  0.11534519607E+03  0.27061826874E+03  0.46999998093E+01 0. -1.
       -5    1    3    3    0  502  0.24222456519E+03  0.35141188600E+02 -0.42762063972E+03  0.49273638453E+03  0.46999998093E+01 0.  1.
</event>
<event>
 5   0  0.1233912E-02  0.7012797E+03  0.7818609E-02  0.9715046E-01
        3   -1    0    0  501    0  0.00000000000E+00  0.00000000000E+00  0.48043306070E+03  0.48043307131E+03  0.10100000352E+00 0. -1.
       -3   -1    0    0    0  501  0.00000000000E+00  0.00000000000E+00 -0.25591140248E+03  0.25591142241E+03  0.10100000352E+00 0.  1.
    10030    2    1    2    0    0  0.00000000000E+00  0.00000000000E+00  0.22452165822E+03  0.73634449372E+03  0.70127971482E+03 0.  0.
        1    1    3    3  502    0  0.34980674613E+03 -0.57738926245E+01  0.87631372133E+02  0.36066238352E+03  0.50400001928E-02 0. -1.
       -1    1    3    3    0  502 -0.34980674613E+03  0.57738926245E+01  0.13689028609E+03  0.37568211020E+03  0.50400001928E-02 0.  1.
</event>
<event>
 5   0  0.3113940E-02  0.7022305E+03  0.7818609E-02  0.9713425E-01
        2   -1    0    0  501    0  0.00000000000E+00  0.00000000000E+00  0.31622873215E+03  0.31622873216E+03  0.25500000920E-02 0.  1.
       -2   -1    0    0    0  501  0.00000000000E+00  0.00000000000E+00 -0.38985046851E+03  0.38985046852E+03  0.25500000920E-02 0. -1.
    10030    2    1    2    0    0  0.00000000000E+00  0.00000000000E+00 -0.73621736357E+02  0.70607920068E+03  0.70223050174E+03 0.  0.
        5    1    3    3  502    0  0.25503076926E+03  0.20484941407E+03 -0.16500809186E+03  0.36640651753E+03  0.46999998093E+01 0.  1.
       -5    1    3    3    0  502 -0.25503076926E+03 -0.20484941407E+03  0.91386355500E+02  0.33967268315E+03  0.46999998093E+01 0. -1.
</event>
<event>
 5   0  0.1969818E-02  0.6995380E+03  0.7818609E-02  0.9718023E-01
        1   -1    0    0  501    0  0.00000000000E+00  0.00000000000E+00  0.67992261594E+03  0.67992261596E+03  0.50400001928E-02 0.  1.
       -1   -1    0    0    0  501  0.00000000000E+00  0.00000000000E+00 -0.17992981234E+03  0.17992981242E+03  0.50400001928E-02 0. -1.
    10030    2    1    2    0    0  0.00000000000E+00  0.00000000000E+00  0.49999280360E+03  0.85985242838E+03  0.69953798677E+03 0.  0.
        1    1    3    3  502    0 -0.32758041793E+03 -0.22381915120E+02  0.39815352460E+03  0.51607761966E+03  0.50400001928E-02 0.  1.
       -1    1    3    3    0  502  0.32758041793E+03  0.22381915120E+02  0.10183927900E+03  0.34377480872E+03  0.50400001928E-02 0. -1.
</event>
<event>
 5   0  0.1839038E-02  0.6961518E+03  0.7818609E-02  0.9723836E-01
       -1   -1    0    0    0  501  0.00000000000E+00  0.00000000000E+00  0.75845848854E+02  0.75845849022E+02  0.50400001928E-02 0. -1.
        1   -1    0    0  501    0  0.00000000000E+00  0.00000000000E+00 -0.15974086489E+04  0.15974086489E+04  0.50400001928E-02 0.  1.
    10030    2    1    2    0    0  0.00000000000E+00  0.00000000000E+00 -0.15215628000E+04  0.16732544979E+04  0.69615175094E+03 0.  0.
        5    1    3    3  502    0  0.33946439507E+03  0.33009359267E+02 -0.92746270977E+03  0.98819778452E+03  0.46999998093E+01 0.  1.
       -5    1    3    3    0  502 -0.33946439507E+03 -0.33009359267E+02 -0.59410009023E+03  0.68505671336E+03  0.46999998093E+01 0. -1.
</event>
<event>
 5   0  0.1884172E-02  0.6960028E+03  0.7818609E-02  0.9724092E-01
       -1   -1    0    0    0  501  0.00000000000E+00  0.00000000000E+00  0.20165306649E+03  0.20165306655E+03  0.50400001928E-02 0.  1.
        1   -1    0    0  501    0  0.00000000000E+00  0.00000000000E+00 -0.60056100002E+03  0.60056100004E+03  0.50400001928E-02 0. -1.
    10030    2    1    2    0    0  0.00000000000E+00  0.00000000000E+00 -0.39890793353E+03  0.80221406660E+03  0.69600277960E+03 0.  0.
        3    1    3    3  502    0 -0.22286943983E+03  0.51989042124E+02  0.10271969521E+03  0.25084854733E+03  0.10100000352E+00 0.  1.
       -3    1    3    3    0  502  0.22286943983E+03 -0.51989042124E+02 -0.50162762875E+03  0.55136551927E+03  0.10100000352E+00 0. -1.
</event>
<event>
 5   0  0.3183963E-02  0.7070351E+03  0.7818609E-02  0.9705276E-01
       -2   -1    0    0    0  501  0.00000000000E+00  0.00000000000E+00  0.34666386612E+03  0.34666386613E+03  0.25500000920E-02 0.  1.
        2   -1    0    0  501    0  0.00000000000E+00  0.00000000000E+00 -0.36050674595E+03  0.36050674596E+03  0.25500000920E-02 0. -1.
    10030    2    1    2    0    0  0.00000000000E+00  0.00000000000E+00 -0.13842879830E+02  0.70717061209E+03  0.70703511177E+03 0.  0.
        4    1    3    3  502    0 -0.40606301040E+02 -0.98096555864E+02  0.33033933215E+03  0.34698341923E+03  0.12699999809E+01 0.  1.
       -4    1    3    3    0  502  0.40606301040E+02  0.98096555864E+02 -0.34418221198E+03  0.36018719286E+03  0.12699999809E+01 0. -1.
</event>
<event>
 5   0  0.1858013E-02  0.6999705E+03  0.7818609E-02  0.9717283E-01
        1   -1    0    0  501    0  0.00000000000E+00  0.00000000000E+00  0.50585936047E+03  0.50585936049E+03  0.50400001928E-02 0.  1.
       -1   -1    0    0    0  501  0.00000000000E+00  0.00000000000E+00 -0.24214177310E+03  0.24214177316E+03  0.50400001928E-02 0. -1.
    10030    2    1    2    0    0  0.00000000000E+00  0.00000000000E+00  0.26371758736E+03  0.74800113365E+03  0.69997052084E+03 0.  0.
        2    1    3    3  502    0 -0.17885424646E+03  0.29966453952E+03  0.10354536003E+03  0.36401829531E+03  0.25500000920E-02 0. -1.
       -2    1    3    3    0  502  0.17885424646E+03 -0.29966453952E+03  0.16017222733E+03  0.38398283834E+03  0.25500000920E-02 0.  1.
</event>
<event>
 5   0  0.1233912E-02  0.7042227E+03  0.7818609E-02  0.9710038E-01
        3   -1    0    0  501    0  0.00000000000E+00  0.00000000000E+00  0.20631774322E+03  0.20631776794E+03  0.10100000352E+00 0.  1.
       -3   -1    0    0    0  501  0.00000000000E+00  0.00000000000E+00 -0.60092944525E+03  0.60092945373E+03  0.10100000352E+00 0. -1.
    10030    2    1    2    0    0  0.00000000000E+00  0.00000000000E+00 -0.39461170203E+03  0.80724722167E+03  0.70422274993E+03 0.  0.
        2    1    3    3  502    0  0.87162571585E+02 -0.22239116425E+03 -0.49385595762E+03  0.54858805192E+03  0.25500000920E-02 0. -1.
       -2    1    3    3    0  502 -0.87162571585E+02  0.22239116425E+03  0.99244255597E+02  0.25865916975E+03  0.25500000920E-02 0.  1.
</event>
<event>
 5   0  0.3290656E-02  0.6980700E+03  0.7818609E-02  0.9720538E-01
        2   -1    0    0  501    0  0.00000000000E+00  0.00000000000E+00  0.69338393830E+03  0.69338393831E+03  0.25500000920E-02 0.  1.
       -2   -1    0    0    0  501  0.00000000000E+00  0.00000000000E+00 -0.17569693623E+03  0.17569693625E+03  0.25500000920E-02 0. -1.
    10030    2    1    2    0    0  0.00000000000E+00  0.00000000000E+00  0.51768700208E+03  0.86908087456E+03  0.69807000681E+03 0.  0.
        1    1    3    3  502    0 -0.43821501218E+02 -0.39834943538E+02  0.68708342239E+03  0.68963089841E+03  0.50400001928E-02 0.  1.
       -1    1    3    3    0  502  0.43821501218E+02  0.39834943538E+02 -0.16939642032E+03  0.17944997614E+03  0.50400001928E-02 0. -1.
</event>
<event>
 5   0  0.3183963E-02  0.7039635E+03  0.7818609E-02  0.9710478E-01
       -2   -1    0    0    0  501  0.00000000000E+00  0.00000000000E+00  0.29206210366E+03  0.29206210367E+03  0.25500000920E-02 0.  1.
        2   -1    0    0  501    0  0.00000000000E+00  0.00000000000E+00 -0.42419460891E+03  0.42419460891E+03  0.25500000920E-02 0. -1.
    10030    2    1    2    0    0  0.00000000000E+00  0.00000000000E+00 -0.13213250525E+03  0.71625671258E+03  0.70396354975E+03 0.  0.
        4    1    3    3  502    0 -0.86649435526E+02  0.14477290921E+03 -0.38036549156E+03  0.41610916835E+03  0.12699999809E+01 0. -1.
       -4    1    3    3    0  502  0.86649435526E+02 -0.14477290921E+03  0.24823298631E+03  0.30014754423E+03  0.12699999809E+01 0.  1.
</event>
<event>
 5   0  0.3183963E-02  0.7040895E+03  0.7818609E-02  0.9710264E-01
        2   -1    0    0  501    0  0.00000000000E+00  0.00000000000E+00  0.11670731301E+04  0.11670731301E+04  0.25500000920E-02 0.  1.
       -2   -1    0    0    0  501  0.00000000000E+00  0.00000000000E+00 -0.10619342529E+03  0.10619342532E+03  0.25500000920E-02 0. -1.
    10030    2    1    2    0    0  0.00000000000E+00  0.00000000000E+00  0.10608797048E+04  0.12732665554E+04  0.70408946381E+03 0.  0.
        4    1    3    3  502    0  0.84232485991E+02  0.99658512281E+02 -0.60841871123E+02  0.14398012692E+03  0.12699999809E+01 0. -1.
       -4    1    3    3    0  502 -0.84232485991E+02 -0.99658512281E+02  0.11217215759E+04  0.11292864285E+04  0.12699999809E+01 0.  1.
</event>
<event>
 5   0  0.2933851E-02  0.7313069E+03  0.7818609E-02  0.9665142E-01
       -2   -1    0    0    0  501  0.00000000000E+00  0.00000000000E+00  0.21069141349E+03  0.21069141351E+03  0.25500000920E-02 0. -1.
        2   -1    0    0  501    0  0.00000000000E+00  0.00000000000E+00 -0.63458899606E+03  0.63458899607E+03  0.25500000920E-02 0.  1.
    10030    2    1    2    0    0  0.00000000000E+00  0.00000000000E+00 -0.42389758257E+03  0.84528040958E+03  0.73130691936E+03 0.  0.
        2    1    3    3  502    0  0.88954332478E+02  0.29702036559E+03 -0.43598228069E+03  0.53499020545E+03  0.25500000920E-02 0.  1.
       -2    1    3    3    0  502 -0.88954332478E+02 -0.29702036559E+03  0.12084698122E+02  0.31029020413E+03  0.25500000920E-02 0. -1.
</event>
<event>
 5   0  0.3184443E-02  0.7005462E+03  0.7818609E-02  0.9716298E-01
       -2   -1    0    0    0  501  0.00000000000E+00  0.00000000000E+00  0.21548830799E+03  0.21548830801E+03  0.25500000920E-02 0. -1.
        2   -1    0    0  501    0  0.00000000000E+00  0.00000000000E+00 -0.56936388941E+03  0.56936388942E+03  0.25500000920E-02 0.  1.
    10030    2    1    2    0    0  0.00000000000E+00  0.00000000000E+00 -0.35387558142E+03  0.78485219743E+03  0.70054624736E+03 0.  0.
        3    1    3    3  502    0 -0.27488638922E+02 -0.17188089193E+03 -0.51747896234E+03  0.54596991945E+03  0.10100000352E+00 0.  1.
       -3    1    3    3    0  502  0.27488638922E+02  0.17188089193E+03  0.16360338092E+03  0.23888227798E+03  0.10100000352E+00 0. -1.
</event>
<event>
 5   0  0.1884172E-02  0.6950682E+03  0.7818609E-02  0.9725704E-01
        1   -1    0    0  501    0  0.00000000000E+00  0.00000000000E+00  0.11990242528E+04  0.11990242528E+04  0.50400001928E-02 0.  1.
       -1   -1    0    0    0  501  0.00000000000E+00  0.00000000000E+00 -0.10073186168E+03  0.10073186181E+03  0.50400001928E-02 0. -1.
    10030    2    1    2    0    0  0.00000000000E+00  0.00000000000E+00  0.10982923911E+04  0.12997561146E+04  0.69506818449E+03 0.  0.
        3    1    3    3  502    0 -0.34535760736E+03 -0.31693495612E+02  0.59110942344E+03  0.68533693560E+03  0.10100000352E+00 0.  1.
       -3    1    3    3    0  502  0.34535760736E+03  0.31693495612E+02  0.50718296767E+03  0.61441917900E+03  0.10100000352E+00 0. -1.
</event>
<event>
 5   0  0.1951465E-02  0.6992118E+03  0.7818609E-02  0.9718581E-01
        1   -1    0    0  501    0  0.00000000000E+00  0.00000000000E+00  0.95066287010E+03  0.95066287011E+03  0.50400001928E-02 0. -1.
       -1   -1    0    0    0  501  0.00000000000E+00  0.00000000000E+00 -0.12856744350E+03  0.12856744360E+03  0.50400001928E-02 0.  1.
    10030    2    1    2    0    0  0.00000000000E+00  0.00000000000E+00  0.82209542660E+03  0.10792303137E+04  0.69921182741E+03 0.  0.
        4    1    3    3  502    0  0.30685228867E+03 -0.11479243444E+03  0.59937347000E+03  0.68307085980E+03  0.12699999809E+01 0. -1.
       -4    1    3    3    0  502 -0.30685228867E+03  0.11479243444E+03  0.22272195660E+03  0.39615945391E+03  0.12699999809E+01 0.  1.
</event>
<event>
 5   0  0.3184443E-02  0.6969382E+03  0.7818609E-02  0.9722483E-01
       -2   -1    0    0    0  501  0.00000000000E+00  0.00000000000E+00  0.55650084024E+02  0.55650084082E+02  0.25500000920E-02 0.  1.
        2   -1    0    0  501    0  0.00000000000E+00  0.00000000000E+00 -0.21820398416E+04  0.21820398416E+04  0.25500000920E-02 0. -1.
    10030    2    1    2    0    0  0.00000000000E+00  0.00000000000E+00 -0.21263897576E+04  0.22376899257E+04  0.69693816252E+03 0.  0.
        3    1    3    3  502    0 -0.17877492656E+03 -0.13059799506E+03 -0.19272034844E+04  0.19398787568E+04  0.10100000352E+00 0. -1.
       -3    1    3    3    0  502  0.17877492656E+03  0.13059799506E+03 -0.19918627319E+03  0.29781116888E+03  0.10100000352E+00 0.  1.
</event>
<event>
 5   0  0.2933851E-02  0.7048702E+03  0.7818609E-02  0.9708940E-01
        2   -1    0    0  501    0  0.00000000000E+00  0.00000000000E+00  0.14880293370E+04  0.14880293370E+04  0.25500000920E-02 0.  1.
       -2   -1    0    0    0  501  0.00000000000E+00  0.00000000000E+00 -0.83473147136E+02  0.83473147175E+02  0.25500000920E-02 0. -1.
    10030    2    1    2    0    0  0.00000000000E+00  0.00000000000E+00  0.14045561898E+04  0.15715024841E+04  0.70487017760E+03 0.  0.
        2    1    3    3  502    0 -0.24954452587E+02  0.89699437131E+01  0.14858020195E+04  0.14860386354E+04  0.25500000920E-02 0.  1.
       -2    1    3    3    0  502  0.24954452587E+02 -0.89699437131E+01 -0.81245829704E+02  0.85463848760E+02  0.25500000920E-02 0. -1.
</event>
<event>
 5   0  0.1969818E-02  0.6772071E+03  0.7818609E-02  0.9757025E-01
       -1   -1    0    0    0  501  0.00000000000E+00  0.00000000000E+00  0.20009174941E+03  0.20009174947E+03  0.50400001928E-02 0.  1.
        1   -1    0    0  501    0  0.00000000000E+00  0.00000000000E+00 -0.57299895429E+03  0.57299895432E+03  0.50400001928E-02 0. -1.
    10030    2    1    2    0    0  0.00000000000E+00  0.00000000000E+00 -0.37290720489E+03  0.77309070378E+03  0.67720709744E+03 0.  0.
        1    1    3    3  502    0 -0.12627392200E+03  0.30882115628E+03 -0.25239695080E+03  0.41835371486E+03  0.50400001928E-02 0. -1.
       -1    1    3    3    0  502  0.12627392200E+03 -0.30882115628E+03 -0.12051025409E+03  0.35473698892E+03  0.50400001928E-02 0.  1.
</event>
<event>
 5   0  0.3290656E-02  0.7033959E+03  0.7818609E-02  0.9711442E-01
        2   -1    0    0  501    0  0.00000000000E+00  0.00000000000E+00  0.56043844137E+03  0.56043844137E+03  0.25500000920E-02 0.  1.
       -2   -1    0    0    0  501  0.00000000000E+00  0.00000000000E+00 -0.22070481529E+03  0.22070481530E+03  0.25500000920E-02 0. -1.
    10030    2    1    2    0    0  0.00000000000E+00  0.00000000000E+00  0.33973362608E+03  0.78114325667E+03  0.70339594167E+03 0.  0.
        1    1    3    3  502    0 -0.14788723284E+03 -0.29230084431E+02  0.52274054668E+03  0.54404293088E+03  0.50400001928E-02 0.  1.
       -1    1    3    3    0  502  0.14788723284E+03  0.29230084431E+02 -0.18300692060E+03  0.23710032579E+03  0.50400001928E-02 0. -1.
</event>
<event>
 5   0  0.1858013E-02  0.7077056E+03  0.7818609E-02  0.9704145E-01
       -1   -1    0    0    0  501  0.00000000000E+00  0.00000000000E+00  0.13878347124E+03  0.13878347133E+03  0.50400001928E-02 0. -1.
        1   -1    0    0  501    0  0.00000000000E+00  0.00000000000E+00 -0.90220966036E+03  0.90220966037E+03  0.50400001928E-02 0.  1.
    10030    2    1    2    0    0  0.00000000000E+00  0.00000000000E+00 -0.76342618912E+03  0.10409931317E+04  0.70770555602E+03 0.  0.
        2    1    3    3  502    0 -0.18199774294E+03  0.17197052540E+03 -0.13934454155E+02  0.25078119758E+03  0.25500000920E-02 0. -1.
       -2    1    3    3    0  502  0.18199774294E+03 -0.17197052540E+03 -0.74949173496E+03  0.79021193412E+03  0.25500000920E-02 0.  1.
</event>
<event>
 5   0  0.3113940E-02  0.6960836E+03  0.7818609E-02  0.9723953E-01
        2   -1    0    0  501    0  0.00000000000E+00  0.00000000000E+00  0.23392680734E+04  0.23392680734E+04  0.25500000920E-02 0. -1.
       -2   -1    0    0    0  501  0.00000000000E+00  0.00000000000E+00 -0.51782473300E+02  0.51782473363E+02  0.25500000920E-02 0.  1.
    10030    2    1    2    0    0  0.00000000000E+00  0.00000000000E+00  0.22874856001E+04  0.23910505467E+04  0.69608357725E+03 0.  0.
        5    1    3    3  502    0  0.13826157980E+03 -0.17132381555E+03  0.20695571410E+04  0.20812392857E+04  0.46999998093E+01 0. -1.
       -5    1    3    3    0  502 -0.13826157980E+03  0.17132381555E+03  0.21792845904E+03  0.30981126106E+03  0.46999998093E+01 0.  1.
</event>
<event>
 5   0  0.1858013E-02  0.6961238E+03  0.7818609E-02  0.9723884E-01
        1   -1    0    0  501    0  0.00000000000E+00  0.00000000000E+00  0.78004083468E+03  0.78004083470E+03  0.50400001928E-02 0. -1.
       -1   -1    0    0    0  501  0.00000000000E+00  0.00000000000E+00 -0.15530862506E+03  0.15530862514E+03  0.50400001928E-02 0.  1.
    10030    2    1    2    0    0  0.00000000000E+00  0.00000000000E+00  0.62473220963E+03  0.93534945984E+03  0.69612375213E+03 0.  0.
        2    1    3    3  502    0  0.19991242577E+03 -0.80126211374E+01  0.69505491950E+03  0.72327762388E+03  0.25500000920E-02 0. -1.
       -2    1    3    3    0  502 -0.19991242577E+03  0.80126211374E+01 -0.70322709875E+02  0.21207183596E+03  0.25500000920E-02 0.  1.
</event>
<event>
 5   0  0.1884172E-02  0.6953483E+03  0.7818609E-02  0.9725220E-01
       -1   -1    0    0    0  501  0.00000000000E+00  0.00000000000E+00  0.92271012802E+02  0.92271012940E+02  0.50400001928E-02 0. -1.
        1   -1    0    0  501    0  0.00000000000E+00  0.00000000000E+00 -0.13100248093E+04  0.13100248093E+04  0.50400001928E-02 0.  1.
    10030    2    1    2    0    0  0.00000000000E+00  0.00000000000E+00 -0.12177537965E+04  0.14022958223E+04  0.69534830425E+03 0.  0.
        3    1    3    3  502    0  0.22679535539E+03  0.24388367234E+03 -0.81016074221E+03  0.87594281622E+03  0.10100000352E+00 0.  1.
       -3    1    3    3    0  502 -0.22679535539E+03 -0.24388367234E+03 -0.40759305432E+03  0.52635300607E+03  0.10100000352E+00 0. -1.
</event>
<event>
 5   0  0.1839038E-02  0.6937614E+03  0.7818609E-02  0.9727961E-01
       -1   -1    0    0    0  501  0.00000000000E+00  0.00000000000E+00  0.13122565224E+03  0.13122565233E+03  0.50400001928E-02 0.  1.
        1   -1    0    0  501    0  0.00000000000E+00  0.00000000000E+00 -0.91694134644E+03  0.91694134645E+03  0.50400001928E-02 0. -1.
    10030    2    1    2    0    0  0.00000000000E+00  0.00000000000E+00 -0.78571569420E+03  0.10481669988E+04  0.69376141809E+03 0.  0.
        5    1    3    3  502    0 -0.21203285485E+03  0.11274403958E+03 -0.14738559078E+02  0.24064177758E+03  0.46999998093E+01 0.  1.
       -5    1    3    3    0  502  0.21203285485E+03 -0.11274403958E+03 -0.77097713512E+03  0.80752522120E+03  0.46999998093E+01 0. -1.
</event>
<event>
 5   0  0.3290656E-02  0.7003557E+03  0.7818609E-02  0.9716624E-01
        2   -1    0    0  501    0  0.00000000000E+00  0.00000000000E+00  0.16408148804E+04  0.16408148804E+04  0.25500000920E-02 0.  1.
       -2   -1    0    0    0  501  0.00000000000E+00  0.00000000000E+00 -0.74733925130E+02  0.74733925173E+02  0.25500000920E-02 0. -1.
    10030    2    1    2    0    0  0.00000000000E+00  0.00000000000E+00  0.15660809553E+04  0.17155488056E+04  0.70035572808E+03 0.  0.
        1    1    3    3  502    0  0.11689491689E+03 -0.93669814780E+01 -0.25204919924E+02  0.11994769673E+03  0.50400001928E-02 0. -1.
       -1    1    3    3    0  502 -0.11689491689E+03  0.93669814780E+01  0.15912858752E+04  0.15956011088E+04  0.50400001928E-02 0.  1.
</event>
<event>
 5   0  0.1884172E-02  0.6942498E+03  0.7818609E-02  0.9727117E-01
        1   -1    0    0  501    0  0.00000000000E+00  0.00000000000E+00  0.23786223261E+03  0.23786223266E+03  0.50400001928E-02 0. -1.
       -1   -1    0    0    0  501  0.00000000000E+00  0.00000000000E+00 -0.50657761574E+03  0.50657761577E+03  0.50400001928E-02 0.  1.
    10030    2    1    2    0    0  0.00000000000E+00  0.00000000000E+00 -0.26871538313E+03  0.74443984843E+03  0.69424976110E+03 0.  0.
        3    1    3    3  502    0  0.65734590865E+02 -0.31188803813E+03 -0.28177564536E+03  0.42543237921E+03  0.10100000352E+00 0.  1.
       -3    1    3    3    0  502 -0.65734590865E+02  0.31188803813E+03  0.13060262223E+02  0.31900746922E+03  0.10100000352E+00 0. -1.
</event>
<event>
 5   0  0.2933851E-02  0.6905252E+03  0.7818609E-02  0.9733574E-01
        2   -1    0    0  501    0  0.00000000000E+00  0.00000000000E+00  0.74884007123E+03  0.74884007124E+03  0.25500000920E-02 0. -1.
       -2   -1    0    0    0  501  0.00000000000E+00  0.00000000000E+00 -0.15918786137E+03  0.15918786139E+03  0.25500000920E-02 0.  1.
    10030    2    1    2    0    0  0.00000000000E+00  0.00000000000E+00  0.58965220986E+03  0.90802793262E+03  0.69052516090E+03 0.  0.
        2    1    3    3  502    0  0.29130529979E+03  0.15106614790E+03  0.15364770571E+03  0.36233599904E+03  0.25500000920E-02 0.  1.
       -2    1    3    3    0  502 -0.29130529979E+03 -0.15106614790E+03  0.43600450415E+03  0.54569193358E+03  0.25500000920E-02 0. -1.
</event>
<event>
 5   0  0.1951465E-02  0.7114857E+03  0.7818609E-02  0.9697789E-01
        1   -1    0    0  501    0  0.00000000000E+00  0.00000000000E+00  0.87950309963E+03  0.87950309965E+03  0.50400001928E-02 0. -1.
       -1   -1    0    0    0  501  0.00000000000E+00  0.00000000000E+00 -0.14389145660E+03  0.14389145669E+03  0.50400001928E-02 0.  1.
    10030    2    1    2    0    0  0.00000000000E+00  0.00000000000E+00  0.73561164303E+03  0.10233945563E+04  0.71148571917E+03 0.  0.
        4    1    3    3  502    0  0.14363175002E+03 -0.30014182579E+03  0.18679603833E+03  0.38158821789E+03  0.12699999809E+01 0.  1.
       -4    1    3    3    0  502 -0.14363175002E+03  0.30014182579E+03  0.54881560470E+03  0.64180633844E+03  0.12699999809E+01 0. -1.
</event>
<event>
 5   0  0.1839038E-02  0.7061624E+03  0.7818609E-02  0.9706751E-01
        1   -1    0    0  501    0  0.00000000000E+00  0.00000000000E+00  0.71023644087E+03  0.71023644089E+03  0.50400001928E-02 0.  1.
       -1   -1    0    0    0  501  0.00000000000E+00  0.00000000000E+00 -0.17552790725E+03  0.17552790732E+03  0.50400001928E-02 0. -1.
    10030    2    1    2    0    0  0.00000000000E+00  0.00000000000E+00  0.53470853362E+03  0.88576434821E+03  0.70616235006E+03 0.  0.
        5    1    3    3  502    0 -0.10789096507E+03  0.18470641010E+03  0.61965796734E+03  0.65555701869E+03  0.46999998093E+01 0.  1.
       -5    1    3    3    0  502  0.10789096507E+03 -0.18470641010E+03 -0.84949433719E+02  0.23020732952E+03  0.46999998093E+01 0. -1.
</event>
<event>
 5   0  0.3113940E-02  0.6826938E+03  0.7818609E-02  0.9747294E-01
        2   -1    0    0  501    0  0.00000000000E+00  0.00000000000E+00  0.16571301196E+03  0.16571301198E+03  0.25500000920E-02 0.  1.
       -2   -1    0    0    0  501  0.00000000000E+00  0.00000000000E+00 -0.70312953241E+03  0.70312953242E+03  0.25500000920E-02 0. -1.
    10030    2    1    2    0    0  0.00000000000E+00  0.00000000000E+00 -0.53741652045E+03  0.86884254440E+03  0.68269381900E+03 0.  0.
        5    1    3    3  502    0  0.57772537629E+02 -0.58021703212E+02  0.15298760771E+03  0.17358422238E+03  0.46999998093E+01 0.  1.
       -5    1    3    3    0  502 -0.57772537629E+02  0.58021703212E+02 -0.69040412817E+03  0.69525832202E+03  0.46999998093E+01 0. -1.
</event>
<event>
 5   0  0.1839038E-02  0.6969584E+03  0.7818609E-02  0.9722448E-01
       -1   -1    0    0    0  501  0.00000000000E+00  0.00000000000E+00  0.70034701594E+03  0.70034701596E+03  0.50400001928E-02 0. -1.
        1   -1    0    0  501    0  0.00000000000E+00  0.00000000000E+00 -0.17339652816E+03  0.17339652823E+03  0.50400001928E-02 0.  1.
    10030    2    1    2    0    0  0.00000000000E+00  0.00000000000E+00  0.52695048779E+03  0.87374354419E+03  0.69695836636E+03 0.  0.
        5    1    3    3  502    0 -0.22431547747E+03 -0.10225948723E+03  0.57219263186E+03  0.62305772936E+03  0.46999998093E+01 0. -1.
       -5    1    3    3    0  502  0.22431547747E+03  0.10225948723E+03 -0.45242144071E+02  0.25068581483E+03  0.46999998093E+01 0.  1.
</event>
<event>
 5   0  0.1858013E-02  0.6997442E+03  0.7818609E-02  0.9717670E-01
        1   -1    0    0  501    0  0.00000000000E+00  0.00000000000E+00  0.30821353281E+03  0.30821353285E+03  0.50400001928E-02 0.  1.
       -1   -1    0    0    0  501  0.00000000000E+00  0.00000000000E+00 -0.39716124105E+03  0.39716124108E+03  0.50400001928E-02 0. -1.
    10030    2    1    2    0    0  0.00000000000E+00  0.00000000000E+00 -0.88947708240E+02  0.70537477393E+03  0.69974415102E+03 0.  0.
        2    1    3    3  502    0  0.23519304865E+03 -0.98145832418E+02  0.19716756284E+03  0.32221642167E+03  0.25500000920E-02 0. -1.
       -2    1    3    3    0  502 -0.23519304865E+03  0.98145832418E+02 -0.28611527108E+03  0.38315835225E+03  0.25500000920E-02 0.  1.
</event>
<event>
 5   0  0.3290656E-02  0.6925028E+03  0.7818609E-02  0.9730140E-01
       -2   -1    0    0    0  501  0.00000000000E+00  0.00000000000E+00  0.11292577813E+03  0.11292577816E+03  0.25500000920E-02 0.  1.
        2   -1    0    0  501    0  0.00000000000E+00  0.00000000000E+00 -0.10616709618E+04  0.10616709618E+04  0.25500000920E-02 0. -1.
    10030    2    1    2    0    0  0.00000000000E+00  0.00000000000E+00 -0.94874518370E+03  0.11745967400E+04  0.69250276391E+03 0.  0.
        1    1    3    3  502    0  0.18634795649E+03  0.25597685095E+03 -0.23666587520E+03  0.39529792008E+03  0.50400001928E-02 0.  1.
       -1    1    3    3    0  502 -0.18634795649E+03 -0.25597685095E+03 -0.71207930851E+03  0.77929881993E+03  0.50400001928E-02 0. -1.
</event>
<event>
 5   0  0.1951465E-02  0.7151467E+03  0.7818609E-02  0.9691674E-01
       -1   -1    0    0    0  501  0.00000000000E+00  0.00000000000E+00  0.66248304799E+02  0.66248304991E+02  0.50400001928E-02 0.  1.
        1   -1    0    0  501    0  0.00000000000E+00  0.00000000000E+00 -0.19299921546E+04  0.19299921546E+04  0.50400001928E-02 0. -1.
    10030    2    1    2    0    0  0.00000000000E+00  0.00000000000E+00 -0.18637438498E+04  0.19962404596E+04  0.71514672261E+03 0.  0.
        4    1    3    3  502    0  0.24825013111E+03 -0.19497762218E+03 -0.14007284758E+04  0.14358573316E+04  0.12699999809E+01 0. -1.
       -4    1    3    3    0  502 -0.24825013111E+03  0.19497762218E+03 -0.46301537402E+03  0.56038312806E+03  0.12699999809E+01 0.  1.
</event>
<event>
 5   0  0.3290656E-02  0.6714427E+03  0.7818609E-02  0.9767355E-01
        2   -1    0    0  501    0  0.00000000000E+00  0.00000000000E+00  0.79993933419E+03  0.79993933419E+03  0.25500000920E-02 0. -1.
       -2   -1    0    0    0  501  0.00000000000E+00  0.00000000000E+00 -0.14089669690E+03  0.14089669693E+03  0.25500000920E-02 0.  1.
    10030    2    1    2    0    0  0.00000000000E+00  0.00000000000E+00  0.65904263729E+03  0.94083603112E+03  0.67144265555E+03 0.  0.
        1    1    3    3  502    0 -0.31935407998E+03  0.10352637248E+03  0.32669388170E+03  0.46843743505E+03  0.50400001928E-02 0. -1.
       -1    1    3    3    0  502  0.31935407998E+03 -0.10352637248E+03  0.33234875559E+03  0.47239859606E+03  0.50400001928E-02 0.  1.
</event>
<event>
 5   0  0.3290656E-02  0.7014484E+03  0.7818609E-02  0.9714758E-01
        2   -1    0    0  501    0  0.00000000000E+00  0.00000000000E+00  0.39508458821E+03  0.39508458822E+03  0.25500000920E-02 0. -1.
       -2   -1    0    0    0  501  0.00000000000E+00  0.00000000000E+00 -0.31134463525E+03  0.31134463526E+03  0.25500000920E-02 0.  1.
    10030    2    1    2    0    0  0.00000000000E+00  0.00000000000E+00  0.83739952958E+02  0.70642922348E+03  0.70144840727E+03 0.  0.
        1    1    3    3  502    0 -0.15347728104E+03  0.30005118687E+03 -0.55883543982E+02  0.34162693256E+03  0.50400001928E-02 0. -1.
       -1    1    3    3    0  502  0.15347728104E+03 -0.30005118687E+03  0.13962349694E+03  0.36480229092E+03  0.50400001928E-02 0.  1.
</event>
<event>
 5   0  0.1951465E-02  0.6956131E+03  0.7818609E-02  0.9724764E-01
        1   -1    0    0  501    0  0.00000000000E+00  0.00000000000E+00  0.67146062080E+03  0.67146062082E+03  0.50400001928E-02 0.  1.
       -1   -1    0    0    0  501  0.00000000000E+00  0.00000000000E+00 -0.18015860960E+03  0.18015860967E+03  0.50400001928E-02 0. -1.
    10030    2    1    2    0    0  0.00000000000E+00  0.00000000000E+00  0.49130201120E+03  0.85161923049E+03  0.69561314502E+03 0.  0.
        4    1    3    3  502    0  0.75566923610E+02  0.33936559514E+03  0.25716383547E+03  0.43245140569E+03  0.12699999809E+01 0.  1.
       -4    1    3    3    0  502 -0.75566923610E+02 -0.33936559514E+03  0.23413817573E+03  0.41916782480E+03  0.12699999809E+01 0. -1.
</event>
<event>
 5   0  0.1884172E-02  0.6943090E+03  0.7818609E-02  0.9727014E-01
       -1   -1    0    0    0  501  0.00000000000E+00  0.00000000000E+00  0.48910781231E+03  0.48910781234E+03  0.50400001928E-02 0.  1.
        1   -1    0    0  501    0  0.00000000000E+00  0.00000000000E+00 -0.24640015568E+03  0.24640015574E+03  0.50400001928E-02 0. -1.
    10030    2    1    2    0    0  0.00000000000E+00  0.00000000000E+00  0.24270765663E+03  0.73550796807E+03  0.69430898346E+03 0.  0.
        3    1    3    3  502    0  0.11204135598E+03  0.75808928261E+02 -0.21732962446E+03  0.25599303687E+03  0.10100000352E+00 0. -1.
       -3    1    3    3    0  502 -0.11204135598E+03 -0.75808928261E+02  0.46003728109E+03  0.47951493120E+03  0.10100000352E+00 0.  1.
</event>
<event>
 5   0  0.1233912E-02  0.7001850E+03  0.7818609E-02  0.9716916E-01
       -3   -1    0    0    0  501  0.00000000000E+00  0.00000000000E+00  0.13967896090E+03  0.13967899742E+03  0.10100000352E+00 0.  1.
        3   -1    0    0  501    0  0.00000000000E+00  0.00000000000E+00 -0.87747462505E+03  0.87747463087E+03  0.10100000352E+00 0. -1.
    10030    2    1    2    0    0  0.00000000000E+00  0.00000000000E+00 -0.73779566415E+03  0.10171536283E+04  0.70018501947E+03 0.  0.
        3    1    3    3  502    0 -0.36199635762E+02  0.34275844173E+03 -0.45810536993E+03  0.57328378938E+03  0.10100000352E+00 0.  1.
       -3    1    3    3    0  502  0.36199635762E+02 -0.34275844173E+03 -0.27969029423E+03  0.44386983891E+03  0.10100000352E+00 0. -1.
</event>
<event>
 5   0  0.3183963E-02  0.6984903E+03  0.7818609E-02  0.9719817E-01
        2   -1    0    0  501    0  0.00000000000E+00  0.00000000000E+00  0.91409839245E+03  0.91409839245E+03  0.25500000920E-02 0. -1.
       -2   -1    0    0    0  501  0.00000000000E+00  0.00000000000E+00 -0.13343440179E+03  0.13343440181E+03  0.25500000920E-02 0.  1.
    10030    2    1    2    0    0  0.00000000000E+00  0.00000000000E+00  0.78066399067E+03  0.10475327943E+04  0.69849029252E+03 0.  0.
        4    1    3    3  502    0  0.16701763562E+03  0.20171964562E+02  0.84932349211E+03  0.86582550547E+03  0.12699999809E+01 0. -1.
       -4    1    3    3    0  502 -0.16701763562E+03 -0.20171964562E+02 -0.68659501447E+02  0.18170728880E+03  0.12699999809E+01 0.  1.
</event>
<event>
 5   0  0.1951465E-02  0.7023543E+03  0.7818609E-02  0.9713214E-01
        1   -1    0    0  501    0  0.00000000000E+00  0.00000000000E+00  0.56436618682E+03  0.56436618684E+03  0.50400001928E-02 0.  1.
       -1   -1    0    0    0  501  0.00000000000E+00  0.00000000000E+00 -0.21852018165E+03  0.21852018170E+03  0.50400001928E-02 0. -1.
    10030    2    1    2    0    0  0.00000000000E+00  0.00000000000E+00  0.34584600517E+03  0.78288636854E+03  0.70235433134E+03 0.  0.
        4    1    3    3  502    0 -0.12448829237E+03  0.25407011517E+03 -0.58955321957E+02  0.28900917156E+03  0.12699999809E+01 0. -1.
       -4    1    3    3    0  502  0.12448829237E+03 -0.25407011517E+03  0.40480132713E+03  0.49387719698E+03  0.12699999809E+01 0.  1.
</event>
<event>
 5   0  0.1969818E-02  0.6198095E+03  0.7818609E-02  0.9865139E-01
        1   -1    0    0  501    0  0.00000000000E+00  0.00000000000E+00  0.42986259078E+03  0.42986259081E+03  0.50400001928E-02 0.  1.
       -1   -1    0    0    0  501  0.00000000000E+00  0.00000000000E+00 -0.22342245748E+03  0.22342245754E+03  0.50400001928E-02 0. -1.
    10030    2    1    2    0    0  0.00000000000E+00  0.00000000000E+00  0.20644013331E+03  0.65328504835E+03  0.61980950764E+03 0.  0.
        1    1    3    3  502    0  0.92206046443E+02  0.85627895239E+02 -0.19528400237E+03  0.23231429799E+03  0.50400001928E-02 0. -1.
       -1    1    3    3    0  502 -0.92206046443E+02 -0.85627895239E+02  0.40172413568E+03  0.42097075036E+03  0.50400001928E-02 0.  1.
</event>
<event>
 5   0  0.1839038E-02  0.7017921E+03  0.7818609E-02  0.9714172E-01
        1   -1    0    0  501    0  0.00000000000E+00  0.00000000000E+00  0.97448496370E+03  0.97448496371E+03  0.50400001928E-02 0.  1.
       -1   -1    0    0    0  501  0.00000000000E+00  0.00000000000E+00 -0.12635192157E+03  0.12635192167E+03  0.50400001928E-02 0. -1.
    10030    2    1    2    0    0  0.00000000000E+00  0.00000000000E+00  0.84813304213E+03  0.11008368854E+04  0.70179212811E+03 0.  0.
        5    1    3    3  502    0 -0.58768729600E+02 -0.11328332300E+03  0.93673769970E+03  0.94540281515E+03  0.46999998093E+01 0.  1.
       -5    1    3    3    0  502  0.58768729600E+02  0.11328332300E+03 -0.88604657575E+02  0.15543407024E+03  0.46999998093E+01 0. -1.
</event>
<event>
 5   0  0.3183963E-02  0.6997730E+03  0.7818609E-02  0.9717621E-01
       -2   -1    0    0    0  501  0.00000000000E+00  0.00000000000E+00  0.28209465443E+03  0.28209465444E+03  0.25500000920E-02 0.  1.
        2   -1    0    0  501    0  0.00000000000E+00  0.00000000000E+00 -0.43396978009E+03  0.43396978010E+03  0.25500000920E-02 0. -1.
    10030    2    1    2    0    0  0.00000000000E+00  0.00000000000E+00 -0.15187512567E+03  0.71606443454E+03  0.69977297791E+03 0.  0.
        4    1    3    3  502    0  0.24885734587E+03  0.22875434353E+03  0.16500541607E+02  0.33842637169E+03  0.12699999809E+01 0.  1.
       -4    1    3    3    0  502 -0.24885734587E+03 -0.22875434353E+03 -0.16837566727E+03  0.37763806285E+03  0.12699999809E+01 0. -1.
</event>
<event>
 5   0  0.2933851E-02  0.7172924E+03  0.7818609E-02  0.9688108E-01
       -2   -1    0    0    0  501  0.00000000000E+00  0.00000000000E+00  0.92242815965E+02  0.92242816001E+02  0.25500000920E-02 0.  1.
        2   -1    0    0  501    0  0.00000000000E+00  0.00000000000E+00 -0.13944404349E+04  0.13944404349E+04  0.25500000920E-02 0. -1.
    10030    2    1    2    0    0  0.00000000000E+00  0.00000000000E+00 -0.13021976189E+04  0.14866832509E+04  0.71729244368E+03 0.  0.
        2    1    3    3  502    0 -0.22715817675E+03 -0.84996759471E+01 -0.76138482351E+02  0.23972932707E+03  0.25500000920E-02 0.  1.
       -2    1    3    3    0  502  0.22715817675E+03  0.84996759471E+01 -0.12260591366E+04  0.12469539238E+04  0.25500000920E-02 0. -1.
</event>
<event>
 5   0  0.1839038E-02  0.7057563E+03  0.7818609E-02  0.9707439E-01
       -1   -1    0    0    0  501  0.00000000000E+00  0.00000000000E+00  0.21489938572E+03  0.21489938577E+03  0.50400001928E-02 0.  1.
        1   -1    0    0  501    0  0.00000000000E+00  0.00000000000E+00 -0.57944778220E+03  0.57944778222E+03  0.50400001928E-02 0. -1.
    10030    2    1    2    0    0  0.00000000000E+00  0.00000000000E+00 -0.36454839648E+03  0.79434716800E+03  0.70575625390E+03 0.  0.
        5    1    3    3  502    0 -0.92308021307E+02 -0.17313538630E+03 -0.51235143276E+03  0.54865536855E+03  0.46999998093E+01 0. -1.
       -5    1    3    3    0  502  0.92308021307E+02  0.17313538630E+03  0.14780303628E+03  0.24569179945E+03  0.46999998093E+01 0.  1.
</event>
<event>
 5   0  0.1969818E-02  0.7031645E+03  0.7818609E-02  0.9711836E-01
       -1   -1    0    0    0  501  0.00000000000E+00  0.00000000000E+00  0.42183386202E+03  0.42183386205E+03  0.50400001928E-02 0. -1.
        1   -1    0    0  501    0  0.00000000000E+00  0.00000000000E+00 -0.29303021570E+03  0.29303021574E+03  0.50400001928E-02 0.  1.
    10030    2    1    2    0    0  0.00000000000E+00  0.00000000000E+00  0.12880364632E+03  0.71486407779E+03  0.70316446896E+03 0.  0.
        1    1    3    3  502    0 -0.28174264390E+03  0.19207433472E+03 -0.22689155040E+02  0.34174005506E+03  0.50400001928E-02 0.  1.
       -1    1    3    3    0  502  0.28174264390E+03 -0.19207433472E+03  0.15149280136E+03  0.37312402273E+03  0.50400001928E-02 0. -1.
</event>
<event>
 5   0  0.3184443E-02  0.7029866E+03  0.7818609E-02  0.9712138E-01
        2   -1    0    0  501    0  0.00000000000E+00  0.00000000000E+00  0.45570233357E+03  0.45570233358E+03  0.25500000920E-02 0.  1.
       -2   -1    0    0    0  501  0.00000000000E+00  0.00000000000E+00 -0.27111460351E+03  0.27111460352E+03  0.25500000920E-02 0. -1.
    10030    2    1    2    0    0  0.00000000000E+00  0.00000000000E+00  0.18458773006E+03  0.72681693711E+03  0.70298664993E+03 0.  0.
        3    1    3    3  502    0  0.40386514656E+00 -0.23411836193E+03 -0.17876899473E+03  0.29456736781E+03  0.10100000352E+00 0. -1.
       -3    1    3    3    0  502 -0.40386514656E+00  0.23411836193E+03  0.36335672479E+03  0.43224956929E+03  0.10100000352E+00 0.  1.
</event>
<event>
 5   0  0.3183963E-02  0.7029463E+03  0.7818609E-02  0.9712207E-01
       -2   -1    0    0    0  501  0.00000000000E+00  0.00000000000E+00  0.41619012734E+03  0.41619012735E+03  0.25500000920E-02 0.  1.
        2   -1    0    0  501    0  0.00000000000E+00  0.00000000000E+00 -0.29681955955E+03  0.29681955957E+03  0.25500000920E-02 0. -1.
    10030    2    1    2    0    0  0.00000000000E+00  0.00000000000E+00  0.11937056779E+03  0.71300968692E+03  0.70294628613E+03 0.  0.
        4    1    3    3  502    0 -0.29237623828E+02 -0.32650047935E+03 -0.68914452096E+02  0.33497494873E+03  0.12699999809E+01 0. -1.
       -4    1    3    3    0  502  0.29237623828E+02  0.32650047935E+03  0.18828501988E+03  0.37803473819E+03  0.12699999809E+01 0.  1.
</event>
<event>
 5   0  0.3183963E-02  0.7029050E+03  0.7818609E-02  0.9712277E-01
       -2   -1    0    0    0  501  0.00000000000E+00  0.00000000000E+00  0.35693248771E+02  0.35693248863E+02  0.25500000920E-02 0. -1.
        2   -1    0    0  501    0  0.00000000000E+00  0.00000000000E+00 -0.34605663625E+04  0.34605663625E+04  0.25500000920E-02 0.  1.
    10030    2    1    2    0    0  0.00000000000E+00  0.00000000000E+00 -0.34248731138E+04  0.34962596114E+04  0.70290498996E+03 0.  0.
        4    1    3    3  502    0  0.20483786495E+03  0.28282789165E+03 -0.19093394478E+04  0.19410123408E+04  0.12699999809E+01 0.  1.
       -4    1    3    3    0  502 -0.20483786495E+03 -0.28282789165E+03 -0.15155336659E+04  0.15552472706E+04  0.12699999809E+01 0. -1.
</event>
<event>
 5   0  0.1884172E-02  0.6975501E+03  0.7818609E-02  0.9721431E-01
        1   -1    0    0  501    0  0.00000000000E+00  0.00000000000E+00  0.24655292453E+03  0.24655292458E+03  0.50400001928E-02 0. -1.
       -1   -1    0    0    0  501  0.00000000000E+00  0.00000000000E+00 -0.49337900076E+03  0.49337900079E+03  0.50400001928E-02 0.  1.
    10030    2    1    2    0    0  0.00000000000E+00  0.00000000000E+00 -0.24682607624E+03  0.73993192537E+03  0.69755010019E+03 0.  0.
        3    1    3    3  502    0  0.26245524156E+03  0.22968129872E+03 -0.12045571760E+03  0.36897946137E+03  0.10100000352E+00 0. -1.
       -3    1    3    3    0  502 -0.26245524156E+03 -0.22968129872E+03 -0.12637035863E+03  0.37095246400E+03  0.10100000352E+00 0.  1.
</event>
<event>
 5   0  0.1884172E-02  0.7027838E+03  0.7818609E-02  0.9712483E-01
       -1   -1    0    0    0  501  0.00000000000E+00  0.00000000000E+00  0.27527060406E+03  0.27527060411E+03  0.50400001928E-02 0.  1.
        1   -1    0    0  501    0  0.00000000000E+00  0.00000000000E+00 -0.44856322729E+03  0.44856322732E+03  0.50400001928E-02 0. -1.
    10030    2    1    2    0    0  0.00000000000E+00  0.00000000000E+00 -0.17329262323E+03  0.72383383142E+03  0.70278380904E+03 0.  0.
        3    1    3    3  502    0 -0.45357690069E+02 -0.55038303257E+02 -0.44103033714E+03  0.44675978261E+03  0.10100000352E+00 0. -1.
       -3    1    3    3    0  502  0.45357690069E+02  0.55038303257E+02  0.26773771391E+03  0.27707404881E+03  0.10100000352E+00 0.  1.
</event>
<event>
 5   0  0.1969818E-02  0.6982561E+03  0.7818609E-02  0.9720219E-01
        1   -1    0    0  501    0  0.00000000000E+00  0.00000000000E+00  0.11160996308E+04  0.11160996308E+04  0.50400001928E-02 0.  1.
       -1   -1    0    0    0  501  0.00000000000E+00  0.00000000000E+00 -0.10921102496E+03  0.10921102507E+03  0.50400001928E-02 0. -1.
    10030    2    1    2    0    0  0.00000000000E+00  0.00000000000E+00  0.10068886058E+04  0.12253106558E+04  0.69825606967E+03 0.  0.
        1    1    3    3  502    0 -0.28578039804E+03  0.15796243914E+03  0.28661400920E+03  0.43447687899E+03  0.50400001928E-02 0. -1.
       -1    1    3    3    0  502  0.28578039804E+03 -0.15796243914E+03  0.72027459660E+03  0.79083377685E+03  0.50400001928E-02 0.  1.
</event>
<event>
 5   0  0.1233912E-02  0.7558115E+03  0.7818609E-02  0.9626277E-01
       -4   -1    0    0    0  501  0.00000000000E+00  0.00000000000E+00  0.41088741139E+03  0.41088937409E+03  0.12699999809E+01 0. -1.
        4   -1    0    0  501    0  0.00000000000E+00  0.00000000000E+00 -0.34756752073E+03  0.34756984099E+03  0.12699999809E+01 0.  1.
    10030    2    1    2    0    0  0.00000000000E+00  0.00000000000E+00  0.63319890658E+02  0.75845921508E+03  0.75581146617E+03 0.  0.
        5    1    3    3  502    0  0.15591553260E+03  0.93550543337E+02  0.36407451594E+03  0.40698120426E+03  0.46999998093E+01 0. -1.
       -5    1    3    3    0  502 -0.15591553260E+03 -0.93550543337E+02 -0.30075462528E+03  0.35147801082E+03  0.46999998093E+01 0.  1.
</event>
<event>
 5   0  0.3184443E-02  0.6982044E+03  0.7818609E-02  0.9720308E-01
        2   -1    0    0  501    0  0.00000000000E+00  0.00000000000E+00  0.65379442811E+03  0.65379442812E+03  0.25500000920E-02 0.  1.
       -2   -1    0    0    0  501  0.00000000000E+00  0.00000000000E+00 -0.18640772545E+03  0.18640772547E+03  0.25500000920E-02 0. -1.
    10030    2    1    2    0    0  0.00000000000E+00  0.00000000000E+00  0.46738670266E+03  0.84020215358E+03  0.69820436053E+03 0.  0.
        3    1    3    3  502    0  0.10631867452E+03  0.25833362673E+03 -0.18247651112E+02  0.27995162122E+03  0.10100000352E+00 0. -1.
       -3    1    3    3    0  502 -0.10631867452E+03 -0.25833362673E+03  0.48563435378E+03  0.56025053237E+03  0.10100000352E+00 0.  1.
</event>
<event>
 5   0  0.3184443E-02  0.7239749E+03  0.7818609E-02  0.9677088E-01
       -2   -1    0    0    0  501  0.00000000000E+00  0.00000000000E+00  0.11745726543E+03  0.11745726546E+03  0.25500000920E-02 0.  1.
        2   -1    0    0  501    0  0.00000000000E+00  0.00000000000E+00 -0.11155964595E+04  0.11155964595E+04  0.25500000920E-02 0. -1.
    10030    2    1    2    0    0  0.00000000000E+00  0.00000000000E+00 -0.99813919405E+03  0.12330537249E+04  0.72397488760E+03 0.  0.
        3    1    3    3  502    0  0.28515173009E+03 -0.50764445530E+02 -0.86888294865E+03  0.91588543320E+03  0.10100000352E+00 0. -1.
       -3    1    3    3    0  502 -0.28515173009E+03  0.50764445530E+02 -0.12925624541E+03  0.31716829174E+03  0.10100000352E+00 0.  1.
</event>
<event>
 5   0  0.1233912E-02  0.6930462E+03  0.7818609E-02  0.9729199E-01
        3   -1    0    0  501    0  0.00000000000E+00  0.00000000000E+00  0.38498850927E+03  0.38498852252E+03  0.10100000352E+00 0. -1.
       -3   -1    0    0    0  501  0.00000000000E+00  0.00000000000E+00 -0.31190086591E+03  0.31190088226E+03  0.10100000352E+00 0.  1.
    10030    2    1    2    0    0  0.00000000000E+00  0.00000000000E+00  0.73087643361E+02  0.69688940477E+03  0.69304620255E+03 0.  0.
        5    1    3    3  502    0 -0.53886529440E+01  0.69239447454E+02  0.37788616556E+03  0.38424365029E+03  0.46999998093E+01 0. -1.
       -5    1    3    3    0  502  0.53886529440E+01 -0.69239447454E+02 -0.30479852220E+03  0.31264575449E+03  0.46999998093E+01 0.  1.
</event>
<event>
 5   0  0.1884172E-02  0.6845228E+03  0.7818609E-02  0.9744073E-01
       -1   -1    0    0    0  501  0.00000000000E+00  0.00000000000E+00  0.40799429728E+03  0.40799429731E+03  0.50400001928E-02 0. -1.
        1   -1    0    0  501    0  0.00000000000E+00  0.00000000000E+00 -0.28711884444E+03  0.28711884449E+03  0.50400001928E-02 0.  1.
    10030    2    1    2    0    0  0.00000000000E+00  0.00000000000E+00  0.12087545284E+03  0.69511314180E+03  0.68452275697E+03 0.  0.
        3    1    3    3  502    0 -0.12981827813E+03  0.16375657213E+03  0.33569194251E+03  0.39542140903E+03  0.10100000352E+00 0. -1.
       -3    1    3    3    0  502  0.12981827813E+03 -0.16375657213E+03 -0.21481648967E+03  0.29969173277E+03  0.10100000352E+00 0.  1.
</event>
<event>
 5   0  0.2933851E-02  0.6758806E+03  0.7818609E-02  0.9759392E-01
        2   -1    0    0  501    0  0.00000000000E+00  0.00000000000E+00  0.46428719588E+03  0.46428719589E+03  0.25500000920E-02 0. -1.
       -2   -1    0    0    0  501  0.00000000000E+00  0.00000000000E+00 -0.24597627598E+03  0.24597627599E+03  0.25500000920E-02 0.  1.
    10030    2    1    2    0    0  0.00000000000E+00  0.00000000000E+00  0.21831091990E+03  0.71026347188E+03  0.67588056766E+03 0.  0.
        2    1    3    3  502    0 -0.20803342658E+03 -0.24840701169E+03  0.82516486174E+01  0.32411732404E+03  0.25500000920E-02 0.  1.
       -2    1    3    3    0  502  0.20803342658E+03  0.24840701169E+03  0.21005927128E+03  0.38614614784E+03  0.25500000920E-02 0. -1.
</event>
<event>
 5   0  0.3290656E-02  0.6979113E+03  0.7818609E-02  0.9720811E-01
       -2   -1    0    0    0  501  0.00000000000E+00  0.00000000000E+00  0.18276325395E+03  0.18276325397E+03  0.25500000920E-02 0.  1.
        2   -1    0    0  501    0  0.00000000000E+00  0.00000000000E+00 -0.66627212214E+03  0.66627212214E+03  0.25500000920E-02 0. -1.
    10030    2    1    2    0    0  0.00000000000E+00  0.00000000000E+00 -0.48350886818E+03  0.84903537611E+03  0.69791134414E+03 0.  0.
        1    1    3    3  502    0 -0.12823024900E+03 -0.39439257422E+02  0.15013612784E+03  0.20134375752E+03  0.50400001928E-02 0.  1.
       -1    1    3    3    0  502  0.12823024900E+03  0.39439257422E+02 -0.63364499602E+03  0.64769161859E+03  0.50400001928E-02 0. -1.
</event>
<event>
 5   0  0.3183963E-02  0.6982673E+03  0.7818609E-02  0.9720200E-01
       -2   -1    0    0    0  501  0.00000000000E+00  0.00000000000E+00  0.86665661224E+02  0.86665661262E+02  0.25500000920E-02 0. -1.
        2   -1    0    0  501    0  0.00000000000E+00  0.00000000000E+00 -0.14064891353E+04  0.14064891353E+04  0.25500000920E-02 0.  1.
    10030    2    1    2    0    0  0.00000000000E+00  0.00000000000E+00 -0.13198234741E+04  0.14931547965E+04  0.69826731541E+03 0.  0.
        4    1    3    3  502    0 -0.52796473415E+01 -0.20096435349E+03 -0.12702965295E+04  0.12861063066E+04  0.12699999809E+01 0.  1.
       -4    1    3    3    0  502  0.52796473415E+01  0.20096435349E+03 -0.49526944519E+02  0.20704848993E+03  0.12699999809E+01 0. -1.
</event>
<event>
 5   0  0.1233912E-02  0.6954595E+03  0.7818609E-02  0.9725029E-01
       -3   -1    0    0    0  501  0.00000000000E+00  0.00000000000E+00  0.13276415064E+03  0.13276418905E+03  0.10100000352E+00 0.  1.
        3   -1    0    0  501    0  0.00000000000E+00  0.00000000000E+00 -0.91075766124E+03  0.91075766684E+03  0.10100000352E+00 0. -1.
    10030    2    1    2    0    0  0.00000000000E+00  0.00000000000E+00 -0.77799351061E+03  0.10435218559E+04  0.69545953239E+03 0.  0.
        5    1    3    3  502    0  0.60006647442E+02 -0.50290330883E+02  0.11931774149E+03  0.14278910516E+03  0.46999998093E+01 0.  1.
       -5    1    3    3    0  502 -0.60006647442E+02  0.50290330883E+02 -0.89731125210E+03  0.90073275074E+03  0.46999998093E+01 0. -1.
</event>
<event>
 5   0  0.1839038E-02  0.6983983E+03  0.7818609E-02  0.9719975E-01
       -1   -1    0    0    0  501  0.00000000000E+00  0.00000000000E+00  0.61766994136E+03  0.61766994138E+03  0.50400001928E-02 0.  1.
        1   -1    0    0  501    0  0.00000000000E+00  0.00000000000E+00 -0.19741942402E+03  0.19741942408E+03  0.50400001928E-02 0. -1.
    10030    2    1    2    0    0  0.00000000000E+00  0.00000000000E+00  0.42025051734E+03  0.81508936546E+03  0.69839829350E+03 0.  0.
        5    1    3    3  502    0  0.33495303179E+03 -0.95082987860E+02  0.17960995484E+03  0.39181134996E+03  0.46999998093E+01 0. -1.
       -5    1    3    3    0  502 -0.33495303179E+03  0.95082987860E+02  0.24064056251E+03  0.42327801550E+03  0.46999998093E+01 0.  1.
</event>
<event>
 5   0  0.3290656E-02  0.7049906E+03  0.7818609E-02  0.9708735E-01
        2   -1    0    0  501    0  0.00000000000E+00  0.00000000000E+00  0.23000644209E+03  0.23000644211E+03  0.25500000920E-02 0.  1.
       -2   -1    0    0    0  501  0.00000000000E+00  0.00000000000E+00 -0.54021507177E+03  0.54021507177E+03  0.25500000920E-02 0. -1.
    10030    2    1    2    0    0  0.00000000000E+00  0.00000000000E+00 -0.31020862967E+03  0.77022151388E+03  0.70499062867E+03 0.  0.
        1    1    3    3  502    0 -0.81025769627E+02  0.39447478202E+02 -0.52741682782E+03  0.53506054720E+03  0.50400001928E-02 0. -1.
       -1    1    3    3    0  502  0.81025769627E+02 -0.39447478202E+02  0.21720819815E+03  0.23516096668E+03  0.50400001928E-02 0.  1.
</event>
<event>
 5   0  0.3184443E-02  0.7151815E+03  0.7818609E-02  0.9691616E-01
        2   -1    0    0  501    0  0.00000000000E+00  0.00000000000E+00  0.10707302760E+04  0.10707302760E+04  0.25500000920E-02 0. -1.
       -2   -1    0    0    0  501  0.00000000000E+00  0.00000000000E+00 -0.11942424098E+03  0.11942424100E+03  0.25500000920E-02 0.  1.
    10030    2    1    2    0    0  0.00000000000E+00  0.00000000000E+00  0.95130603501E+03  0.11901545170E+04  0.71518151687E+03 0.  0.
        3    1    3    3  502    0  0.49244303507E+02  0.13178147481E+03 -0.71437637786E+02  0.15778055908E+03  0.10100000352E+00 0.  1.
       -3    1    3    3    0  502 -0.49244303507E+02 -0.13178147481E+03  0.10227436728E+04  0.10323739579E+04  0.10100000352E+00 0. -1.
</event>
<event>
 5   0  0.1951465E-02  0.7007699E+03  0.7818609E-02  0.9715916E-01
        1   -1    0    0  501    0  0.00000000000E+00  0.00000000000E+00  0.78131848886E+03  0.78131848887E+03  0.50400001928E-02 0. -1.
       -1   -1    0    0    0  501  0.00000000000E+00  0.00000000000E+00 -0.15713134581E+03  0.15713134590E+03  0.50400001928E-02 0.  1.
    10030    2    1    2    0    0  0.00000000000E+00  0.00000000000E+00  0.62418714304E+03  0.93844983477E+03  0.70076993574E+03 0.  0.
        4    1    3    3  502    0  0.27232370344E+03 -0.13741925863E+03  0.54297419089E+03  0.62278956075E+03  0.12699999809E+01 0. -1.
       -4    1    3    3    0  502 -0.27232370344E+03  0.13741925863E+03  0.81212952149E+02  0.31566027402E+03  0.12699999809E+01 0.  1.
</event>
<event>
 5   0  0.3113940E-02  0.6981102E+03  0.7818609E-02  0.9720469E-01
        2   -1    0    0  501    0  0.00000000000E+00  0.00000000000E+00  0.20629709189E+04  0.20629709189E+04  0.25500000920E-02 0. -1.
       -2   -1    0    0    0  501  0.00000000000E+00  0.00000000000E+00 -0.59060201590E+02  0.59060201645E+02  0.25500000920E-02 0.  1.
    10030    2    1    2    0    0  0.00000000000E+00  0.00000000000E+00  0.20039107173E+04  0.21220311206E+04  0.69811024461E+03 0.  0.
        5    1    3    3  502    0  0.11496770219E+03 -0.17106167300E+03  0.18581403195E+04  0.18695419774E+04  0.46999998093E+01 0. -1.
       -5    1    3    3    0  502 -0.11496770219E+03  0.17106167300E+03  0.14577039788E+03  0.25248914316E+03  0.46999998093E+01 0.  1.
</event>
<event>
 5   0  0.2933851E-02  0.7803196E+03  0.7818609E-02  0.9588949E-01
       -2   -1    0    0    0  501  0.00000000000E+00  0.00000000000E+00  0.62136343263E+03  0.62136343263E+03  0.25500000920E-02 0.  1.
        2   -1    0    0  501    0  0.00000000000E+00  0.00000000000E+00 -0.24498490020E+03  0.24498490021E+03  0.25500000920E-02 0. -1.
    10030    2    1    2    0    0  0.00000000000E+00  0.00000000000E+00  0.37637853243E+03  0.86634833284E+03  0.78031957181E+03 0.  0.
        2    1    3    3  502    0 -0.19171828763E+03  0.32624154201E+03  0.82656033592E+02  0.38732604539E+03  0.25500000920E-02 0. -1.
       -2    1    3    3    0  502  0.19171828763E+03 -0.32624154201E+03  0.29372249884E+03  0.47902228745E+03  0.25500000920E-02 0.  1.
</event>
<event>
 5   0  0.2933851E-02  0.7041360E+03  0.7818609E-02  0.9710185E-01
        2   -1    0    0  501    0  0.00000000000E+00  0.00000000000E+00  0.49828155529E+03  0.49828155530E+03  0.25500000920E-02 0.  1.
       -2   -1    0    0    0  501  0.00000000000E+00  0.00000000000E+00 -0.24875871403E+03  0.24875871404E+03  0.25500000920E-02 0. -1.
    10030    2    1    2    0    0  0.00000000000E+00  0.00000000000E+00  0.24952284127E+03  0.74704026934E+03  0.70413600653E+03 0.  0.
        2    1    3    3  502    0 -0.20265793986E+03  0.90707905953E+02  0.41463802810E+03  0.47034334177E+03  0.25500000920E-02 0.  1.
       -2    1    3    3    0  502  0.20265793986E+03 -0.90707905953E+02 -0.16511518684E+03  0.27669692756E+03  0.25500000920E-02 0. -1.
</event>
<event>
 5   0  0.1884172E-02  0.6994587E+03  0.7818609E-02  0.9718158E-01
       -1   -1    0    0    0  501  0.00000000000E+00  0.00000000000E+00  0.17409006997E+03  0.17409007005E+03  0.50400001928E-02 0. -1.
        1   -1    0    0  501    0  0.00000000000E+00  0.00000000000E+00 -0.70257081016E+03  0.70257081018E+03  0.50400001928E-02 0.  1.
    10030    2    1    2    0    0  0.00000000000E+00  0.00000000000E+00 -0.52848074019E+03  0.87666088023E+03  0.69945865222E+03 0.  0.
        3    1    3    3  502    0 -0.12696151448E+03 -0.14225980381E+03  0.10321229126E+03  0.21681758510E+03  0.10100000352E+00 0. -1.
       -3    1    3    3    0  502  0.12696151448E+03  0.14225980381E+03 -0.63169303145E+03  0.65984329513E+03  0.10100000352E+00 0.  1.
</event>
<event>
 5   0  0.1858013E-02  0.7006779E+03  0.7818609E-02  0.9716074E-01
       -1   -1    0    0    0  501  0.00000000000E+00  0.00000000000E+00  0.49852919718E+03  0.49852919721E+03  0.50400001928E-02 0. -1.
        1   -1    0    0  501    0  0.00000000000E+00  0.00000000000E+00 -0.24619897710E+03  0.24619897715E+03  0.50400001928E-02 0.  1.
    10030    2    1    2    0    0  0.00000000000E+00  0.00000000000E+00  0.25233022008E+03  0.74472817436E+03  0.70067789584E+03 0.  0.
        2    1    3    3  502    0 -0.25754299077E+03 -0.30480155161E+02  0.37651498790E+03  0.45718811016E+03  0.25500000920E-02 0. -1.
       -2    1    3    3    0  502  0.25754299077E+03  0.30480155161E+02 -0.12418476781E+03  0.28754006420E+03  0.25500000920E-02 0.  1.
</event>
<event>
 5   0  0.3290656E-02  0.6971898E+03  0.7818609E-02  0.9722050E-01
       -2   -1    0    0    0  501  0.00000000000E+00  0.00000000000E+00  0.43736855992E+02  0.43736856066E+02  0.25500000920E-02 0.  1.
        2   -1    0    0  501    0  0.00000000000E+00  0.00000000000E+00 -0.27783985176E+04  0.27783985176E+04  0.25500000920E-02 0. -1.
    10030    2    1    2    0    0  0.00000000000E+00  0.00000000000E+00 -0.27346616616E+04  0.28221353736E+04  0.69718983342E+03 0.  0.
        1    1    3    3  502    0 -0.19796767764E+03 -0.15501644844E+03 -0.23446813079E+04  0.23581246227E+04  0.50400001928E-02 0. -1.
       -1    1    3    3    0  502  0.19796767764E+03  0.15501644844E+03 -0.38998035367E+03  0.46401075090E+03  0.50400001928E-02 0.  1.
</event>
<event>
 5   0  0.1233912E-02  0.7012488E+03  0.7818609E-02  0.9715099E-01
        4   -1    0    0  501    0  0.00000000000E+00  0.00000000000E+00  0.32768948232E+03  0.32769194333E+03  0.12699999809E+01 0. -1.
       -4   -1    0    0    0  501  0.00000000000E+00  0.00000000000E+00 -0.37515963264E+03  0.37516178225E+03  0.12699999809E+01 0.  1.
    10030    2    1    2    0    0  0.00000000000E+00  0.00000000000E+00 -0.47470150317E+02  0.70285372558E+03  0.70124884627E+03 0.  0.
        3    1    3    3  502    0  0.12826239780E+03  0.86542500851E+02 -0.33909245176E+03  0.37272583515E+03  0.10100000352E+00 0.  1.
       -3    1    3    3    0  502 -0.12826239780E+03 -0.86542500851E+02  0.29162230144E+03  0.33012789044E+03  0.10100000352E+00 0. -1.
</event>
<event>
 5   0  0.1839038E-02  0.7024827E+03  0.7818609E-02  0.9712996E-01
       -1   -1    0    0    0  501  0.00000000000E+00  0.00000000000E+00  0.22249986388E+03  0.22249986394E+03  0.50400001928E-02 0.  1.
        1   -1    0    0  501    0  0.00000000000E+00  0.00000000000E+00 -0.55447446710E+03  0.55447446712E+03  0.50400001928E-02 0. -1.
    10030    2    1    2    0    0  0.00000000000E+00  0.00000000000E+00 -0.33197460322E+03  0.77697433106E+03  0.70248272146E+03 0.  0.
        5    1    3    3  502    0 -0.12278319550E+02 -0.25953113044E+03 -0.42735297356E+03  0.50015979328E+03  0.46999998093E+01 0. -1.
       -5    1    3    3    0  502  0.12278319550E+02  0.25953113044E+03  0.95378370344E+02  0.27681453778E+03  0.46999998093E+01 0.  1.
</event>
<event>
 5   0  0.3113940E-02  0.6991315E+03  0.7818609E-02  0.9718719E-01
       -2   -1    0    0    0  501  0.00000000000E+00  0.00000000000E+00  0.20537597271E+03  0.20537597273E+03  0.25500000920E-02 0. -1.
        2   -1    0    0  501    0  0.00000000000E+00  0.00000000000E+00 -0.59498795675E+03  0.59498795676E+03  0.25500000920E-02 0.  1.
    10030    2    1    2    0    0  0.00000000000E+00  0.00000000000E+00 -0.38961198404E+03  0.80036392949E+03  0.69913154808E+03 0.  0.
        5    1    3    3  502    0 -0.21424565744E+02 -0.14981310534E+03 -0.55550102363E+03  0.57576597312E+03  0.46999998093E+01 0.  1.
       -5    1    3    3    0  502  0.21424565744E+02  0.14981310534E+03  0.16588903959E+03  0.22459795637E+03  0.46999998093E+01 0. -1.
</event>
<event>
 5   0  0.1233912E-02  0.6283587E+03  0.7818609E-02  0.9848257E-01
       -4   -1    0    0    0  501  0.00000000000E+00  0.00000000000E+00  0.12749141582E+03  0.12749774119E+03  0.12699999809E+01 0. -1.
        4   -1    0    0  501    0  0.00000000000E+00  0.00000000000E+00 -0.77421167797E+03  0.77421271960E+03  0.12699999809E+01 0.  1.
    10030    2    1    2    0    0  0.00000000000E+00  0.00000000000E+00 -0.64672026214E+03  0.90171046079E+03  0.62835870141E+03 0.  0.
        5    1    3    3  502    0  0.27376685444E+03  0.12326971308E+03 -0.45599605326E+03  0.54598370244E+03  0.46999998093E+01 0.  1.
       -5    1    3    3    0  502 -0.27376685444E+03 -0.12326971308E+03 -0.19072420889E+03  0.35572675835E+03  0.46999998093E+01 0. -1.
</event>
<event>
 5   0  0.1884172E-02  0.7257962E+03  0.7818609E-02  0.9674107E-01
        1   -1    0    0  501    0  0.00000000000E+00  0.00000000000E+00  0.17059377309E+03  0.17059377317E+03  0.50400001928E-02 0.  1.
       -1   -1    0    0    0  501  0.00000000000E+00  0.00000000000E+00 -0.77198038758E+03  0.77198038760E+03  0.50400001928E-02 0. -1.
    10030    2    1    2    0    0  0.00000000000E+00  0.00000000000E+00 -0.60138661449E+03  0.94257416077E+03  0.72579624445E+03 0.  0.
        3    1    3    3  502    0  0.26620674483E+03  0.85539569035E+02 -0.27502650197E+00  0.27961247237E+03  0.10100000352E+00 0.  1.
       -3    1    3    3    0  502 -0.26620674483E+03 -0.85539569035E+02 -0.60111158799E+03  0.66296168839E+03  0.10100000352E+00 0. -1.
</event>
<event>
 5   0  0.1884172E-02  0.6625580E+03  0.7818609E-02  0.9783496E-01
       -1   -1    0    0    0  501  0.00000000000E+00  0.00000000000E+00  0.37765469420E+03  0.37765469423E+03  0.50400001928E-02 0. -1.
        1   -1    0    0  501    0  0.00000000000E+00  0.00000000000E+00 -0.29059818757E+03  0.29059818762E+03  0.50400001928E-02 0.  1.
    10030    2    1    2    0    0  0.00000000000E+00  0.00000000000E+00  0.87056506625E+02  0.66825288185E+03  0.66255798143E+03 0.  0.
        3    1    3    3  502    0 -0.89880402175E+02  0.29574416327E+03  0.16372752512E+03  0.34978537632E+03  0.10100000352E+00 0.  1.
       -3    1    3    3    0  502  0.89880402175E+02 -0.29574416327E+03 -0.76671018496E+02  0.31846750553E+03  0.10100000352E+00 0. -1.
</event>
<event>
 5   0  0.2933851E-02  0.6979461E+03  0.7818609E-02  0.9720751E-01
        2   -1    0    0  501    0  0.00000000000E+00  0.00000000000E+00  0.14184846509E+04  0.14184846509E+04  0.25500000920E-02 0. -1.
       -2   -1    0    0    0  501  0.00000000000E+00  0.00000000000E+00 -0.85853726323E+02  0.85853726360E+02  0.25500000920E-02 0.  1.
    10030    2    1    2    0    0  0.00000000000E+00  0.00000000000E+00  0.13326309246E+04  0.15043383773E+04  0.69794610979E+03 0.  0.
        2    1    3    3  502    0 -0.34703103322E+03  0.19487683697E+02  0.73350956034E+03  0.81169365092E+03  0.25500000920E-02 0. -1.
       -2    1    3    3    0  502  0.34703103322E+03 -0.19487683697E+02  0.59912136425E+03  0.69264472635E+03  0.25500000920E-02 0.  1.
</event>
<event>
 5   0  0.3184443E-02  0.6714980E+03  0.7818609E-02  0.9767255E-01
       -2   -1    0    0    0  501  0.00000000000E+00  0.00000000000E+00  0.53360451294E+03  0.53360451295E+03  0.25500000920E-02 0.  1.
        2   -1    0    0  501    0  0.00000000000E+00  0.00000000000E+00 -0.21125644088E+03  0.21125644089E+03  0.25500000920E-02 0. -1.
    10030    2    1    2    0    0  0.00000000000E+00  0.00000000000E+00  0.32234807207E+03  0.74486095384E+03  0.67149799776E+03 0.  0.
        3    1    3    3  502    0 -0.70458436770E+02 -0.24936005120E+03  0.39800027197E+03  0.47492004920E+03  0.10100000352E+00 0.  1.
       -3    1    3    3    0  502  0.70458436770E+02  0.24936005120E+03 -0.75652199903E+02  0.26994090464E+03  0.10100000352E+00 0. -1.
</event>
<event>
 5   0  0.1884172E-02  0.7023553E+03  0.7818609E-02  0.9713213E-01
       -1   -1    0    0    0  501  0.00000000000E+00  0.00000000000E+00  0.29405394678E+03  0.29405394683E+03  0.50400001928E-02 0.  1.
        1   -1    0    0  501    0  0.00000000000E+00  0.00000000000E+00 -0.41939839352E+03  0.41939839355E+03  0.50400001928E-02 0. -1.
    10030    2    1    2    0    0  0.00000000000E+00  0.00000000000E+00 -0.12534444673E+03  0.71345234038E+03  0.70235533148E+03 0.  0.
        3    1    3    3  502    0  0.94899494242E+02  0.19029347900E+03  0.22122193450E+03  0.30684959941E+03  0.10100000352E+00 0.  1.
       -3    1    3    3    0  502 -0.94899494242E+02 -0.19029347900E+03 -0.34656638123E+03  0.40660274096E+03  0.10100000352E+00 0. -1.
</event>
<event>
 5   0  0.3290656E-02  0.6938002E+03  0.7818609E-02  0.9727894E-01
        2   -1    0    0  501    0  0.00000000000E+00  0.00000000000E+00  0.13453114929E+03  0.13453114932E+03  0.25500000920E-02 0.  1.
       -2   -1    0    0    0  501  0.00000000000E+00  0.00000000000E+00 -0.89451154895E+03  0.89451154896E+03  0.25500000920E-02 0. -1.
    10030    2    1    2    0    0  0.00000000000E+00  0.00000000000E+00 -0.75998039966E+03  0.10290426983E+04  0.69380016359E+03 0.  0.
        1    1    3    3  502    0 -0.33294680758E+02  0.34504913629E+03 -0.39945484414E+03  0.52889660119E+03  0.50400001928E-02 0. -1.
       -1    1    3    3    0  502  0.33294680758E+02 -0.34504913629E+03 -0.36052555552E+03  0.50014609708E+03  0.50400001928E-02 0.  1.
</event>
<event>
 5   0  0.3290656E-02  0.6978994E+03  0.7818609E-02  0.9720831E-01
        2   -1    0    0  501    0  0.00000000000E+00  0.00000000000E+00  0.26836022596E+03  0.26836022597E+03  0.25500000920E-02 0. -1.
       -2   -1    0    0    0  501  0.00000000000E+00  0.00000000000E+00 -0.45374047107E+03  0.45374047108E+03  0.25500000920E-02 0.  1.
    10030    2    1    2    0    0  0.00000000000E+00  0.00000000000E+00 -0.18538024511E+03  0.72210069705E+03  0.69789940636E+03 0.  0.
        1    1    3    3  502    0 -0.25700095890E+03 -0.63775368262E+02  0.14245519486E+03  0.30068301090E+03  0.50400001928E-02 0. -1.
       -1    1    3    3    0  502  0.25700095890E+03  0.63775368262E+02 -0.32783543997E+03  0.42141768615E+03  0.50400001928E-02 0.  1.
</event>
<event>
 5   0  0.3113940E-02  0.6426648E+03  0.7818609E-02  0.9820641E-01
        2   -1    0    0  501    0  0.00000000000E+00  0.00000000000E+00  0.24729064133E+03  0.24729064135E+03  0.25500000920E-02 0.  1.
       -2   -1    0    0    0  501  0.00000000000E+00  0.00000000000E+00 -0.41754319052E+03  0.41754319053E+03  0.25500000920E-02 0. -1.
    10030    2    1    2    0    0  0.00000000000E+00  0.00000000000E+00 -0.17025254919E+03  0.66483383187E+03  0.64266483761E+03 0.  0.
        5    1    3    3  502    0 -0.10702215590E+03 -0.26116950150E+03 -0.24394468214E+03  0.37308758799E+03  0.46999998093E+01 0. -1.
       -5    1    3    3    0  502  0.10702215590E+03  0.26116950150E+03  0.73692132953E+02  0.29174624389E+03  0.46999998093E+01 0.  1.
</event>
<event>
 5   0  0.3184443E-02  0.6455109E+03  0.7818609E-02  0.9815239E-01
       -2   -1    0    0    0  501  0.00000000000E+00  0.00000000000E+00  0.10896734370E+03  0.10896734373E+03  0.25500000920E-02 0. -1.
        2   -1    0    0  501    0  0.00000000000E+00  0.00000000000E+00 -0.95598428350E+03  0.95598428350E+03  0.25500000920E-02 0.  1.
    10030    2    1    2    0    0  0.00000000000E+00  0.00000000000E+00 -0.84701693980E+03  0.10649516272E+04  0.64551086129E+03 0.  0.
        3    1    3    3  502    0 -0.10366959176E+02  0.23260945386E+03 -0.79224996086E+03  0.82575701180E+03  0.10100000352E+00 0.  1.
       -3    1    3    3    0  502  0.10366959176E+02 -0.23260945386E+03 -0.54766978941E+02  0.23919461543E+03  0.10100000352E+00 0. -1.
</event>
<event>
 5   0  0.1951465E-02  0.6991192E+03  0.7818609E-02  0.9718740E-01
       -1   -1    0    0    0  501  0.00000000000E+00  0.00000000000E+00  0.72437494871E+02  0.72437495046E+02  0.50400001928E-02 0. -1.
        1   -1    0    0  501    0  0.00000000000E+00  0.00000000000E+00 -0.16868599182E+04  0.16868599182E+04  0.50400001928E-02 0.  1.
    10030    2    1    2    0    0  0.00000000000E+00  0.00000000000E+00 -0.16144224234E+04  0.17592974133E+04  0.69911917964E+03 0.  0.
        4    1    3    3  502    0 -0.62939684598E+02 -0.34142544759E+03 -0.70475887667E+03  0.78563313786E+03  0.12699999809E+01 0. -1.
       -4    1    3    3    0  502  0.62939684598E+02  0.34142544759E+03 -0.90966354669E+03  0.97366427542E+03  0.12699999809E+01 0.  1.
</event>
<event>
 5   0  0.1969818E-02  0.6906698E+03  0.7818609E-02  0.9733322E-01
       -1   -1    0    0    0  501  0.00000000000E+00  0.00000000000E+00  0.46272732282E+03  0.46272732285E+03  0.50400001928E-02 0.  1.
        1   -1    0    0  501    0  0.00000000000E+00  0.00000000000E+00 -0.25772455276E+03  0.25772455281E+03  0.50400001928E-02 0. -1.
    10030    2    1    2    0    0  0.00000000000E+00  0.00000000000E+00  0.20500277006E+03  0.72045187566E+03  0.69066979767E+03 0.  0.
        1    1    3    3  502    0 -0.20994305395E+03  0.26091771897E+02 -0.18221383422E+03  0.27921093795E+03  0.50400001928E-02 0. -1.
       -1    1    3    3    0  502  0.20994305395E+03 -0.26091771897E+02  0.38721660428E+03  0.44124093772E+03  0.50400001928E-02 0.  1.
</event>
<event>
 5   0  0.1969818E-02  0.7020233E+03  0.7818609E-02  0.9713778E-01
       -1   -1    0    0    0  501  0.00000000000E+00  0.00000000000E+00  0.31600885501E+03  0.31600885505E+03  0.50400001928E-02 0. -1.
        1   -1    0    0  501    0  0.00000000000E+00  0.00000000000E+00 -0.38989152846E+03  0.38989152849E+03  0.50400001928E-02 0.  1.
    10030    2    1    2    0    0  0.00000000000E+00  0.00000000000E+00 -0.73882673452E+02  0.70590038354E+03  0.70202329166E+03 0.  0.
        1    1    3    3  502    0 -0.31115016630E+03  0.15752329353E+01 -0.20029551748E+03  0.37004756680E+03  0.50400001928E-02 0. -1.
       -1    1    3    3    0  502  0.31115016630E+03 -0.15752329353E+01  0.12641284402E+03  0.33585281673E+03  0.50400001928E-02 0.  1.
</event>
<event>
 5   0  0.3113940E-02  0.7090213E+03  0.7818609E-02  0.9701928E-01
        2   -1    0    0  501    0  0.00000000000E+00  0.00000000000E+00  0.64100866994E+03  0.64100866994E+03  0.25500000920E-02 0.  1.
       -2   -1    0    0    0  501  0.00000000000E+00  0.00000000000E+00 -0.19606258104E+03  0.19606258105E+03  0.25500000920E-02 0. -1.
    10030    2    1    2    0    0  0.00000000000E+00  0.00000000000E+00  0.44494608890E+03  0.83707125100E+03  0.70902133763E+03 0.  0.
        5    1    3    3  502    0  0.13971888621E+03 -0.30953398026E+03  0.34242507491E+03  0.48229625131E+03  0.46999998093E+01 0.  1.
       -5    1    3    3    0  502 -0.13971888621E+03  0.30953398026E+03  0.10252101399E+03  0.35477499969E+03  0.46999998093E+01 0. -1.
</event>
<event>
 5   0  0.3290656E-02  0.7051369E+03  0.7818609E-02  0.9708488E-01
       -2   -1    0    0    0  501  0.00000000000E+00  0.00000000000E+00  0.88061487017E+02  0.88061487054E+02  0.25500000920E-02 0.  1.
        2   -1    0    0  501    0  0.00000000000E+00  0.00000000000E+00 -0.14115650362E+04  0.14115650362E+04  0.25500000920E-02 0. -1.
    10030    2    1    2    0    0  0.00000000000E+00  0.00000000000E+00 -0.13235035492E+04  0.14996265233E+04  0.70513691193E+03 0.  0.
        1    1    3    3  502    0 -0.30608839373E+03  0.23041644369E+02 -0.10306221698E+04  0.10753618364E+04  0.50400001928E-02 0. -1.
       -1    1    3    3    0  502  0.30608839373E+03 -0.23041644369E+02 -0.29288137940E+03  0.42426468694E+03  0.50400001928E-02 0.  1.
</event>
<event>
 5   0  0.1839038E-02  0.6943350E+03  0.7818609E-02  0.9726969E-01
        1   -1    0    0  501    0  0.00000000000E+00  0.00000000000E+00  0.11057681873E+04  0.11057681873E+04  0.50400001928E-02 0.  1.
       -1   -1    0    0    0  501  0.00000000000E+00  0.00000000000E+00 -0.10899688151E+03  0.10899688162E+03  0.50400001928E-02 0. -1.
    10030    2    1    2    0    0  0.00000000000E+00  0.00000000000E+00  0.99677130579E+03  0.12147650689E+04  0.69433503199E+03 0.  0.
        5    1    3    3  502    0 -0.27966550227E+03 -0.15717086705E+03  0.26636428473E+03  0.41699819758E+03  0.46999998093E+01 0. -1.
       -5    1    3    3    0  502  0.27966550227E+03  0.15717086705E+03  0.73040702107E+03  0.79776687135E+03  0.46999998093E+01 0.  1.
</event>
<event>
 5   0  0.1884172E-02  0.6942283E+03  0.7818609E-02  0.9727154E-01
        1   -1    0    0  501    0  0.00000000000E+00  0.00000000000E+00  0.21586064276E+04  0.21586064276E+04  0.50400001928E-02 0. -1.
       -1   -1    0    0    0  501  0.00000000000E+00  0.00000000000E+00 -0.55817607573E+02  0.55817607800E+02  0.50400001928E-02 0.  1.
    10030    2    1    2    0    0  0.00000000000E+00  0.00000000000E+00  0.21027888200E+04  0.22144240354E+04  0.69422833920E+03 0.  0.
        3    1    3    3  502    0  0.17404679275E+03  0.18146359164E+03  0.18147209174E+04  0.18320571332E+04  0.10100000352E+00 0. -1.
       -3    1    3    3    0  502 -0.17404679275E+03 -0.18146359164E+03  0.28806790264E+03  0.38236690219E+03  0.10100000352E+00 0.  1.
</event>
<event>
 5   0  0.3290656E-02  0.7269946E+03  0.7818609E-02  0.9672150E-01
        2   -1    0    0  501    0  0.00000000000E+00  0.00000000000E+00  0.12195810605E+04  0.12195810605E+04  0.25500000920E-02 0.  1.
       -2   -1    0    0    0  501  0.00000000000E+00  0.00000000000E+00 -0.10834072587E+03  0.10834072590E+03  0.25500000920E-02 0. -1.
    10030    2    1    2    0    0  0.00000000000E+00  0.00000000000E+00  0.11112403346E+04  0.13279217864E+04  0.72699462824E+03 0.  0.
        1    1    3    3  502    0 -0.18581363464E+03 -0.85067115807E+02  0.11047141070E+04  0.11234573330E+04  0.50400001928E-02 0.  1.
       -1    1    3    3    0  502  0.18581363464E+03  0.85067115807E+02  0.65262276369E+01  0.20446445334E+03  0.50400001928E-02 0. -1.
</event>
<event>
 5   0  0.1969818E-02  0.7039522E+03  0.7818609E-02  0.9710497E-01
       -1   -1    0    0    0  501  0.00000000000E+00  0.00000000000E+00  0.92757725438E+02  0.92757725575E+02  0.50400001928E-02 0.  1.
        1   -1    0    0  501    0  0.00000000000E+00  0.00000000000E+00 -0.13355996486E+04  0.13355996486E+04  0.50400001928E-02 0. -1.
    10030    2    1    2    0    0  0.00000000000E+00  0.00000000000E+00 -0.12428419231E+04  0.14283573741E+04  0.70395223020E+03 0.  0.
        1    1    3    3  502    0 -0.65991867959E+01 -0.32403826137E+03 -0.34289422585E+03  0.47182708087E+03  0.50400001928E-02 0.  1.
       -1    1    3    3    0  502  0.65991867959E+01  0.32403826137E+03 -0.89994769728E+03  0.95653029328E+03  0.50400001928E-02 0. -1.
</event>
<event>
 5   0  0.1858013E-02  0.6820819E+03  0.7818609E-02  0.9748375E-01
        1   -1    0    0  501    0  0.00000000000E+00  0.00000000000E+00  0.77176562035E+03  0.77176562037E+03  0.50400001928E-02 0. -1.
       -1   -1    0    0    0  501  0.00000000000E+00  0.00000000000E+00 -0.15070498245E+03  0.15070498253E+03  0.50400001928E-02 0.  1.
    10030    2    1    2    0    0  0.00000000000E+00  0.00000000000E+00  0.62106063790E+03  0.92247060290E+03  0.68208188457E+03 0.  0.
        2    1    3    3  502    0  0.62681446523E+02 -0.29294820676E+03  0.53094512011E+03  0.60963131167E+03  0.25500000920E-02 0. -1.
       -2    1    3    3    0  502 -0.62681446523E+02  0.29294820676E+03  0.90115517791E+02  0.31283929123E+03  0.25500000920E-02 0.  1.
</event>
<event>
 5   0  0.1951465E-02  0.7041151E+03  0.7818609E-02  0.9710221E-01
        1   -1    0    0  501    0  0.00000000000E+00  0.00000000000E+00  0.38477527324E+03  0.38477527328E+03  0.50400001928E-02 0. -1.
       -1   -1    0    0    0  501  0.00000000000E+00  0.00000000000E+00 -0.32212188055E+03  0.32212188059E+03  0.50400001928E-02 0.  1.
    10030    2    1    2    0    0  0.00000000000E+00  0.00000000000E+00  0.62653392697E+02  0.70689715386E+03  0.70411514578E+03 0.  0.
        4    1    3    3  502    0 -0.23695351014E+03  0.13614041360E+03 -0.19150011026E+03  0.33369909097E+03  0.12699999809E+01 0.  1.
       -4    1    3    3    0  502  0.23695351014E+03 -0.13614041360E+03  0.25415350296E+03  0.37319806289E+03  0.12699999809E+01 0. -1.
</event>
<event>
 5   0  0.1858013E-02  0.6982008E+03  0.7818609E-02  0.9720314E-01
       -1   -1    0    0    0  501  0.00000000000E+00  0.00000000000E+00  0.74071128156E+02  0.74071128327E+02  0.50400001928E-02 0. -1.
        1   -1    0    0  501    0  0.00000000000E+00  0.00000000000E+00 -0.16453251893E+04  0.16453251893E+04  0.50400001928E-02 0.  1.
    10030    2    1    2    0    0  0.00000000000E+00  0.00000000000E+00 -0.15712540611E+04  0.17193963176E+04  0.69820081096E+03 0.  0.
        2    1    3    3  502    0  0.12770776585E+03 -0.25532296806E+03 -0.12804339729E+04  0.13118728027E+04  0.25500000920E-02 0.  1.
       -2    1    3    3    0  502 -0.12770776585E+03  0.25532296806E+03 -0.29082008816E+03  0.40752351486E+03  0.25500000920E-02 0. -1.
</event>
<event>
 5   0  0.1969818E-02  0.6981885E+03  0.7818609E-02  0.9720335E-01
       -1   -1    0    0    0  501  0.00000000000E+00  0.00000000000E+00  0.13322460402E+03  0.13322460411E+03  0.50400001928E-02 0.  1.
        1   -1    0    0  501    0  0.00000000000E+00  0.00000000000E+00 -0.91474688364E+03  0.91474688365E+03  0.50400001928E-02 0. -1.
    10030    2    1    2    0    0  0.00000000000E+00  0.00000000000E+00 -0.78152227962E+03  0.10479714878E+04  0.69818848861E+03 0.  0.
        1    1    3    3  502    0 -0.13584909513E+03 -0.31994523074E+03 -0.34219630367E+03  0.48776863121E+03  0.50400001928E-02 0. -1.
       -1    1    3    3    0  502  0.13584909513E+03  0.31994523074E+03 -0.43932597595E+03  0.56020285655E+03  0.50400001928E-02 0.  1.
</event>
<event>
 5   0  0.1884172E-02  0.7332755E+03  0.7818609E-02  0.9661960E-01
        1   -1    0    0  501    0  0.00000000000E+00  0.00000000000E+00  0.17289464548E+03  0.17289464556E+03  0.50400001928E-02 0.  1.
       -1   -1    0    0    0  501  0.00000000000E+00  0.00000000000E+00 -0.77748648412E+03  0.77748648414E+03  0.50400001928E-02 0. -1.
    10030    2    1    2    0    0  0.00000000000E+00  0.00000000000E+00 -0.60459183864E+03  0.95038112969E+03  0.73327552825E+03 0.  0.
        3    1    3    3  502    0 -0.13693395697E+03  0.33884956563E+03 -0.34015606633E+03  0.49927557156E+03  0.10100000352E+00 0. -1.
       -3    1    3    3    0  502  0.13693395697E+03 -0.33884956563E+03 -0.26443577231E+03  0.45110555813E+03  0.10100000352E+00 0.  1.
</event>
<event>
 5   0  0.1951465E-02  0.6903448E+03  0.7818609E-02  0.9733888E-01
       -1   -1    0    0    0  501  0.00000000000E+00  0.00000000000E+00  0.16608165717E+03  0.16608165724E+03  0.50400001928E-02 0.  1.
        1   -1    0    0  501    0  0.00000000000E+00  0.00000000000E+00 -0.71738192244E+03  0.71738192246E+03  0.50400001928E-02 0. -1.
    10030    2    1    2    0    0  0.00000000000E+00  0.00000000000E+00 -0.55130026527E+03  0.88346357970E+03  0.69034477920E+03 0.  0.
        4    1    3    3  502    0 -0.15038195357E+03 -0.15258238972E+03  0.70699951514E+02  0.22560189196E+03  0.12699999809E+01 0.  1.
       -4    1    3    3    0  502  0.15038195357E+03  0.15258238972E+03 -0.62200021679E+03  0.65786168774E+03  0.12699999809E+01 0. -1.
</event>
<event>
 5   0  0.3113940E-02  0.7012960E+03  0.7818609E-02  0.9715018E-01
        2   -1    0    0  501    0  0.00000000000E+00  0.00000000000E+00  0.30109716593E+03  0.30109716594E+03  0.25500000920E-02 0. -1.
       -2   -1    0    0    0  501  0.00000000000E+00  0.00000000000E+00 -0.40835328586E+03  0.40835328587E+03  0.25500000920E-02 0.  1.
    10030    2    1    2    0    0  0.00000000000E+00  0.00000000000E+00 -0.10725611994E+03  0.70945045181E+03  0.70129599193E+03 0.  0.
        5    1    3    3  502    0 -0.30460874780E+03 -0.68006434021E+02  0.10798104922E+03  0.33029284172E+03  0.46999998093E+01 0.  1.
       -5    1    3    3    0  502  0.30460874780E+03  0.68006434021E+02 -0.21523716916E+03  0.37915761009E+03  0.46999998093E+01 0. -1.
</event>
<event>
 5   0  0.1858013E-02  0.7094140E+03  0.7818609E-02  0.9701267E-01
        1   -1    0    0  501    0  0.00000000000E+00  0.00000000000E+00  0.98402803698E+03  0.98402803699E+03  0.50400001928E-02 0. -1.
       -1   -1    0    0    0  501  0.00000000000E+00  0.00000000000E+00 -0.12785921005E+03  0.12785921015E+03  0.50400001928E-02 0.  1.
    10030    2    1    2    0    0  0.00000000000E+00  0.00000000000E+00  0.85616882693E+03  0.11118872471E+04  0.70941397657E+03 0.  0.
        2    1    3    3  502    0 -0.30705937351E+03  0.70033331895E+02  0.68383785366E+03  0.75287737152E+03  0.25500000920E-02 0. -1.
       -2    1    3    3    0  502  0.30705937351E+03 -0.70033331895E+02  0.17233097326E+03  0.35900987562E+03  0.25500000920E-02 0.  1.
</event>
<event>
 5   0  0.1884172E-02  0.6913244E+03  0.7818609E-02  0.9732185E-01
       -1   -1    0    0    0  501  0.00000000000E+00  0.00000000000E+00  0.12945541436E+03  0.12945541446E+03  0.50400001928E-02 0.  1.
        1   -1    0    0  501    0  0.00000000000E+00  0.00000000000E+00 -0.92296154903E+03  0.92296154905E+03  0.50400001928E-02 0. -1.
    10030    2    1    2    0    0  0.00000000000E+00  0.00000000000E+00 -0.79350613468E+03  0.10524169635E+04  0.69132443853E+03 0.  0.
        3    1    3    3  502    0 -0.29319605719E+03  0.12815330250E+03 -0.19771206514E+03  0.37613464051E+03  0.10100000352E+00 0.  1.
       -3    1    3    3    0  502  0.29319605719E+03 -0.12815330250E+03 -0.59579406954E+03  0.67628232299E+03  0.10100000352E+00 0. -1.
</event>
<event>
 5   0  0.1233912E-02  0.6610950E+03  0.7818609E-02  0.9786180E-01
       -4   -1    0    0    0  501  0.00000000000E+00  0.00000000000E+00  0.25637676935E+03  0.25637991490E+03  0.12699999809E+01 0.  1.
        4   -1    0    0  501    0  0.00000000000E+00  0.00000000000E+00 -0.42616941994E+03  0.42617131226E+03  0.12699999809E+01 0. -1.
    10030    2    1    2    0    0  0.00000000000E+00  0.00000000000E+00 -0.16979265059E+03  0.68255122716E+03  0.66109502608E+03 0.  0.
        5    1    3    3  502    0  0.27377461607E+03 -0.51672715659E+02 -0.26847887879E+03  0.38694393432E+03  0.46999998093E+01 0. -1.
       -5    1    3    3    0  502 -0.27377461607E+03  0.51672715659E+02  0.98686228203E+02  0.29560729284E+03  0.46999998093E+01 0.  1.
</event>
<event>
 5   0  0.3290656E-02  0.7008908E+03  0.7818609E-02  0.9715710E-01
        2   -1    0    0  501    0  0.00000000000E+00  0.00000000000E+00  0.38134869292E+03  0.38134869293E+03  0.25500000920E-02 0. -1.
       -2   -1    0    0    0  501  0.00000000000E+00  0.00000000000E+00 -0.32204640786E+03  0.32204640787E+03  0.25500000920E-02 0.  1.
    10030    2    1    2    0    0  0.00000000000E+00  0.00000000000E+00  0.59302285055E+02  0.70339510080E+03  0.70089079521E+03 0.  0.
        1    1    3    3  502    0 -0.26432037437E+03  0.16805182747E+03 -0.12808965985E+03  0.33839863772E+03  0.50400001928E-02 0.  1.
       -1    1    3    3    0  502  0.26432037437E+03 -0.16805182747E+03  0.18739194491E+03  0.36499646308E+03  0.50400001928E-02 0. -1.
</event>
<event>
 5   0  0.1233912E-02  0.6985591E+03  0.7818609E-02  0.9719699E-01
       -3   -1    0    0    0  501  0.00000000000E+00  0.00000000000E+00  0.24926799086E+03  0.24926801132E+03  0.10100000352E+00 0. -1.
        3   -1    0    0  501    0  0.00000000000E+00  0.00000000000E+00 -0.48941784828E+03  0.48941785870E+03  0.10100000352E+00 0.  1.
    10030    2    1    2    0    0  0.00000000000E+00  0.00000000000E+00 -0.24014985742E+03  0.73868587002E+03  0.69855913175E+03 0.  0.
        3    1    3    3  502    0 -0.69779413278E+02  0.20156635543E+03  0.17239537717E+03  0.27425961867E+03  0.10100000352E+00 0. -1.
       -3    1    3    3    0  502  0.69779413278E+02 -0.20156635543E+03 -0.41254523459E+03  0.46442625135E+03  0.10100000352E+00 0.  1.
</event>
<event>
 5   0  0.1969818E-02  0.7240577E+03  0.7818609E-02  0.9676952E-01
        1   -1    0    0  501    0  0.00000000000E+00  0.00000000000E+00  0.98053381106E+03  0.98053381107E+03  0.50400001928E-02 0.  1.
       -1   -1    0    0    0  501  0.00000000000E+00  0.00000000000E+00 -0.13366687567E+03  0.13366687577E+03  0.50400001928E-02 0. -1.
    10030    2    1    2    0    0  0.00000000000E+00  0.00000000000E+00  0.84686693538E+03  0.11142006868E+04  0.72405770786E+03 0.  0.
        1    1    3    3  502    0 -0.22804805548E+03 -0.25867933487E+03  0.25385499812E+03  0.42820938102E+03  0.50400001928E-02 0. -1.
       -1    1    3    3    0  502  0.22804805548E+03  0.25867933487E+03  0.59301193726E+03  0.68599130582E+03  0.50400001928E-02 0.  1.
</event>
<event>
 5   0  0.2933851E-02  0.7030905E+03  0.7818609E-02  0.9711962E-01
        2   -1    0    0  501    0  0.00000000000E+00  0.00000000000E+00  0.49051108401E+03  0.49051108402E+03  0.25500000920E-02 0.  1.
       -2   -1    0    0    0  501  0.00000000000E+00  0.00000000000E+00 -0.25194956075E+03  0.25194956076E+03  0.25500000920E-02 0. -1.
    10030    2    1    2    0    0  0.00000000000E+00  0.00000000000E+00  0.23856152327E+03  0.74246064478E+03  0.70309046976E+03 0.  0.
        2    1    3    3  502    0  0.13515134293E+03  0.15798322916E+03  0.41863178554E+03  0.46741540204E+03  0.25500000920E-02 0.  1.
       -2    1    3    3    0  502 -0.13515134293E+03 -0.15798322916E+03 -0.18007026227E+03  0.27504524274E+03  0.25500000920E-02 0. -1.
</event>
<event>
 5   0  0.1839038E-02  0.7162177E+03  0.7818609E-02  0.9689893E-01
        1   -1    0    0  501    0  0.00000000000E+00  0.00000000000E+00  0.17725793579E+03  0.17725793586E+03  0.50400001928E-02 0.  1.
       -1   -1    0    0    0  501  0.00000000000E+00  0.00000000000E+00 -0.72347656591E+03  0.72347656593E+03  0.50400001928E-02 0. -1.
    10030    2    1    2    0    0  0.00000000000E+00  0.00000000000E+00 -0.54621863012E+03  0.90073450179E+03  0.71621773982E+03 0.  0.
        5    1    3    3  502    0 -0.13383053521E+03 -0.20440991096E+03  0.56105170878E+02  0.25072675176E+03  0.46999998093E+01 0.  1.
       -5    1    3    3    0  502  0.13383053521E+03  0.20440991096E+03 -0.60232380099E+03  0.65000775003E+03  0.46999998093E+01 0. -1.
</event>
<event>
 5   0  0.1951465E-02  0.6994435E+03  0.7818609E-02  0.9718184E-01
        1   -1    0    0  501    0  0.00000000000E+00  0.00000000000E+00  0.27774746467E+03  0.27774746471E+03  0.50400001928E-02 0. -1.
       -1   -1    0    0    0  501  0.00000000000E+00  0.00000000000E+00 -0.44034714914E+03  0.44034714917E+03  0.50400001928E-02 0.  1.
    10030    2    1    2    0    0  0.00000000000E+00  0.00000000000E+00 -0.16259968447E+03  0.71809461388E+03  0.69944350529E+03 0.  0.
        4    1    3    3  502    0 -0.27279875890E+02  0.27009055917E+03 -0.30765712488E+03  0.41030186592E+03  0.12699999809E+01 0.  1.
       -4    1    3    3    0  502  0.27279875890E+02 -0.27009055917E+03  0.14505744041E+03  0.30779274797E+03  0.12699999809E+01 0. -1.
</event>
<event>
 5   0  0.1884172E-02  0.6968520E+03  0.7818609E-02  0.9722631E-01
        1   -1    0    0  501    0  0.00000000000E+00  0.00000000000E+00  0.53233201204E+03  0.53233201206E+03  0.50400001928E-02 0.  1.
       -1   -1    0    0    0  501  0.00000000000E+00  0.00000000000E+00 -0.22805444289E+03  0.22805444294E+03  0.50400001928E-02 0. -1.
    10030    2    1    2    0    0  0.00000000000E+00  0.00000000000E+00  0.30427756915E+03  0.76038645500E+03  0.69685200858E+03 0.  0.
        3    1    3    3  502    0 -0.75236849899E+02 -0.15228062372E+02 -0.21871286097E+03  0.23179258664E+03  0.10100000352E+00 0. -1.
       -3    1    3    3    0  502  0.75236849899E+02  0.15228062372E+02  0.52299043013E+03  0.52859386836E+03  0.10100000352E+00 0.  1.
</event>
<event>
 5   0  0.1233912E-02  0.6685237E+03  0.7818609E-02  0.9772629E-01
        3   -1    0    0  501    0  0.00000000000E+00  0.00000000000E+00  0.55149719782E+03  0.55149720707E+03  0.10100000352E+00 0. -1.
       -3   -1    0    0    0  501  0.00000000000E+00  0.00000000000E+00 -0.20259569308E+03  0.20259571826E+03  0.10100000352E+00 0.  1.
    10030    2    1    2    0    0  0.00000000000E+00  0.00000000000E+00  0.34890150474E+03  0.75409292533E+03  0.66852365704E+03 0.  0.
        1    1    3    3  502    0 -0.57084019451E+02 -0.89421532659E+02  0.53200309782E+03  0.54247773401E+03  0.50400001928E-02 0. -1.
       -1    1    3    3    0  502  0.57084019451E+02  0.89421532659E+02 -0.18310159309E+03  0.21161519132E+03  0.50400001928E-02 0.  1.
</event>
<event>
 5   0  0.3184443E-02  0.6965808E+03  0.7818609E-02  0.9723097E-01
        2   -1    0    0  501    0  0.00000000000E+00  0.00000000000E+00  0.57952839789E+03  0.57952839790E+03  0.25500000920E-02 0. -1.
       -2   -1    0    0    0  501  0.00000000000E+00  0.00000000000E+00 -0.20931883861E+03  0.20931883863E+03  0.25500000920E-02 0.  1.
    10030    2    1    2    0    0  0.00000000000E+00  0.00000000000E+00  0.37020955928E+03  0.78884723653E+03  0.69658082431E+03 0.  0.
        3    1    3    3  502    0  0.13490826019E+03 -0.97614368525E+02 -0.16131834508E+03  0.23184568633E+03  0.10100000352E+00 0.  1.
       -3    1    3    3    0  502 -0.13490826019E+03  0.97614368525E+02  0.53152790436E+03  0.55700155020E+03  0.10100000352E+00 0. -1.
</event>
<event>
 5   0  0.3183963E-02  0.6993456E+03  0.7818609E-02  0.9718352E-01
        2   -1    0    0  501    0  0.00000000000E+00  0.00000000000E+00  0.23445954480E+04  0.23445954480E+04  0.25500000920E-02 0.  1.
       -2   -1    0    0    0  501  0.00000000000E+00  0.00000000000E+00 -0.52150179773E+02  0.52150179835E+02  0.25500000920E-02 0. -1.
    10030    2    1    2    0    0  0.00000000000E+00  0.00000000000E+00  0.22924452683E+04  0.23967456279E+04  0.69934562038E+03 0.  0.
        4    1    3    3  502    0  0.20946433698E+03 -0.28515078596E+02  0.19165239173E+03  0.28534307479E+03  0.12699999809E+01 0. -1.
       -4    1    3    3    0  502 -0.20946433698E+03  0.28515078596E+02  0.21007928765E+04  0.21114025531E+04  0.12699999809E+01 0.  1.
</event>
<event>
 5   0  0.1951465E-02  0.6964690E+03  0.7818609E-02  0.9723290E-01
       -1   -1    0    0    0  501  0.00000000000E+00  0.00000000000E+00  0.21891844326E+03  0.21891844332E+03  0.50400001928E-02 0. -1.
        1   -1    0    0  501    0  0.00000000000E+00  0.00000000000E+00 -0.55393809009E+03  0.55393809012E+03  0.50400001928E-02 0.  1.
    10030    2    1    2    0    0  0.00000000000E+00  0.00000000000E+00 -0.33501964683E+03  0.77285653344E+03  0.69646899250E+03 0.  0.
        4    1    3    3  502    0  0.31704035847E+03 -0.11716391200E+03 -0.26050907734E+03  0.42674179951E+03  0.12699999809E+01 0.  1.
       -4    1    3    3    0  502 -0.31704035847E+03  0.11716391200E+03 -0.74510569489E+02  0.34611473393E+03  0.12699999809E+01 0. -1.
</event>
<event>
 5   0  0.1839038E-02  0.7017139E+03  0.7818609E-02  0.9714306E-01
        1   -1    0    0  501    0  0.00000000000E+00  0.00000000000E+00  0.13205145181E+04  0.13205145181E+04  0.50400001928E-02 0. -1.
       -1   -1    0    0    0  501  0.00000000000E+00  0.00000000000E+00 -0.93221703678E+02  0.93221703814E+02  0.50400001928E-02 0.  1.
    10030    2    1    2    0    0  0.00000000000E+00  0.00000000000E+00  0.12272928144E+04  0.14137362219E+04  0.70171393947E+03 0.  0.
        5    1    3    3  502    0  0.25518847195E+03 -0.10416184513E+03  0.17637193333E+03  0.32726135590E+03  0.46999998093E+01 0.  1.
       -5    1    3    3    0  502 -0.25518847195E+03  0.10416184513E+03  0.10509208811E+04  0.10864748660E+04  0.46999998093E+01 0. -1.
</event>
<event>
 5   0  0.3184443E-02  0.6946704E+03  0.7818609E-02  0.9726390E-01
       -2   -1    0    0    0  501  0.00000000000E+00  0.00000000000E+00  0.51577287614E+03  0.51577287615E+03  0.25500000920E-02 0.  1.
        2   -1    0    0  501    0  0.00000000000E+00  0.00000000000E+00 -0.23390481186E+03  0.23390481187E+03  0.25500000920E-02 0. -1.
    10030    2    1    2    0    0  0.00000000000E+00  0.00000000000E+00  0.28186806428E+03  0.74967768802E+03  0.69467044723E+03 0.  0.
        3    1    3    3  502    0 -0.29139834848E+03  0.96179520474E+02  0.31654045602E+03  0.44086434212E+03  0.10100000352E+00 0.  1.
       -3    1    3    3    0  502  0.29139834848E+03 -0.96179520474E+02 -0.34672391740E+02  0.30881334590E+03  0.10100000352E+00 0. -1.
</event>
<event>
 5   0  0.1951465E-02  0.6827270E+03  0.7818609E-02  0.9747236E-01
        1   -1    0    0  501    0  0.00000000000E+00  0.00000000000E+00  0.88570956275E+03  0.88570956277E+03  0.50400001928E-02 0.  1.
       -1   -1    0    0    0  501  0.00000000000E+00  0.00000000000E+00 -0.13156576382E+03  0.13156576391E+03  0.50400001928E-02 0. -1.
    10030    2    1    2    0    0  0.00000000000E+00  0.00000000000E+00  0.75414379893E+03  0.10172753267E+04  0.68272704707E+03 0.  0.
        4    1    3    3  502    0  0.29037493357E+02  0.29026790329E+03  0.64122479505E+03  0.70446396812E+03  0.12699999809E+01 0.  1.
       -4    1    3    3    0  502 -0.29037493357E+02 -0.29026790329E+03  0.11291900389E+03  0.31281135856E+03  0.12699999809E+01 0. -1.
</event>
<event>
 5   0  0.3184443E-02  0.6780627E+03  0.7818609E-02  0.9755501E-01
        2   -1    0    0  501    0  0.00000000000E+00  0.00000000000E+00  0.80958170383E+03  0.80958170383E+03  0.25500000920E-02 0.  1.
       -2   -1    0    0    0  501  0.00000000000E+00  0.00000000000E+00 -0.14197733022E+03  0.14197733024E+03  0.25500000920E-02 0. -1.
    10030    2    1    2    0    0  0.00000000000E+00  0.00000000000E+00  0.66760437361E+03  0.95155903407E+03  0.67806267826E+03 0.  0.
        3    1    3    3  502    0  0.12517208750E+03 -0.29408199261E+03  0.49251085211E+03  0.58712794135E+03  0.10100000352E+00 0.  1.
       -3    1    3    3    0  502 -0.12517208750E+03  0.29408199261E+03  0.17509352150E+03  0.36443109272E+03  0.10100000352E+00 0. -1.
</event>
<event>
 5   0  0.1839038E-02  0.6989790E+03  0.7818609E-02  0.9718980E-01
        1   -1    0    0  501    0  0.00000000000E+00  0.00000000000E+00  0.12666142653E+04  0.12666142653E+04  0.50400001928E-02 0.  1.
       -1   -1    0    0    0  501  0.00000000000E+00  0.00000000000E+00 -0.96432605171E+02  0.96432605303E+02  0.50400001928E-02 0. -1.
    10030    2    1    2    0    0  0.00000000000E+00  0.00000000000E+00  0.11701816602E+04  0.13630468706E+04  0.69897900812E+03 0.  0.
        5    1    3    3  502    0  0.31699869474E+03  0.12890016148E+03  0.72322018757E+03  0.80010808883E+03  0.46999998093E+01 0.  1.
       -5    1    3    3    0  502 -0.31699869474E+03 -0.12890016148E+03  0.44696147259E+03  0.56293878182E+03  0.46999998093E+01 0. -1.
</event>
<event>
 5   0  0.1858013E-02  0.6936822E+03  0.7818609E-02  0.9728098E-01
        1   -1    0    0  501    0  0.00000000000E+00  0.00000000000E+00  0.68694206138E+03  0.68694206140E+03  0.50400001928E-02 0. -1.
       -1   -1    0    0    0  501  0.00000000000E+00  0.00000000000E+00 -0.17512212394E+03  0.17512212401E+03  0.50400001928E-02 0.  1.
    10030    2    1    2    0    0  0.00000000000E+00  0.00000000000E+00  0.51181993745E+03  0.86206418541E+03  0.69368221212E+03 0.  0.
        2    1    3    3  502    0 -0.15768612337E+03  0.45138552502E+02 -0.12388044406E+03  0.20554504823E+03  0.25500000920E-02 0.  1.
       -2    1    3    3    0  502  0.15768612337E+03 -0.45138552502E+02  0.63570038151E+03  0.65651913718E+03  0.25500000920E-02 0. -1.
</event>
<event>
 5   0  0.3113940E-02  0.7014187E+03  0.7818609E-02  0.9714809E-01
       -2   -1    0    0    0  501  0.00000000000E+00  0.00000000000E+00  0.14328887556E+03  0.14328887559E+03  0.25500000920E-02 0.  1.
        2   -1    0    0  501    0  0.00000000000E+00  0.00000000000E+00 -0.85838511742E+03  0.85838511743E+03  0.25500000920E-02 0. -1.
    10030    2    1    2    0    0  0.00000000000E+00  0.00000000000E+00 -0.71509624186E+03  0.10016739930E+04  0.70141867181E+03 0.  0.
        5    1    3    3  502    0  0.16143389522E+03  0.31106476739E+03 -0.37519827827E+03  0.51343746460E+03  0.46999998093E+01 0.  1.
       -5    1    3    3    0  502 -0.16143389522E+03 -0.31106476739E+03 -0.33989796359E+03  0.48823652842E+03  0.46999998093E+01 0. -1.
</event>
<event>
 5   0  0.1969818E-02  0.6888933E+03  0.7818609E-02  0.9736417E-01
        1   -1    0    0  501    0  0.00000000000E+00  0.00000000000E+00  0.27358615678E+03  0.27358615683E+03  0.50400001928E-02 0. -1.
       -1   -1    0    0    0  501  0.00000000000E+00  0.00000000000E+00 -0.43366047159E+03  0.43366047162E+03  0.50400001928E-02 0.  1.
    10030    2    1    2    0    0  0.00000000000E+00  0.00000000000E+00 -0.16007431480E+03  0.70724662845E+03  0.68889332062E+03 0.  0.
        1    1    3    3  502    0  0.17469593544E+03 -0.29416775253E+03 -0.39097891961E+02  0.34435734589E+03  0.50400001928E-02 0. -1.
       -1    1    3    3    0  502 -0.17469593544E+03  0.29416775253E+03 -0.12097642284E+03  0.36288928256E+03  0.50400001928E-02 0.  1.
</event>
<event>
 5   0  0.1969818E-02  0.6968493E+03  0.7818609E-02  0.9722636E-01
       -1   -1    0    0    0  501  0.00000000000E+00  0.00000000000E+00  0.42722066137E+03  0.42722066140E+03  0.50400001928E-02 0. -1.
        1   -1    0    0  501    0  0.00000000000E+00  0.00000000000E+00 -0.28416166435E+03  0.28416166440E+03  0.50400001928E-02 0.  1.
    10030    2    1    2    0    0  0.00000000000E+00  0.00000000000E+00  0.14305899702E+03  0.71138232580E+03  0.69684929276E+03 0.  0.
        1    1    3    3  502    0 -0.13185066790E+03  0.10381809790E+03 -0.24018586568E+03  0.29300519821E+03  0.50400001928E-02 0.  1.
       -1    1    3    3    0  502  0.13185066790E+03 -0.10381809790E+03  0.38324486270E+03  0.41837712759E+03  0.50400001928E-02 0. -1.
</event>
<event>
 5   0  0.3113940E-02  0.7001957E+03  0.7818609E-02  0.9716898E-01
       -2   -1    0    0    0  501  0.00000000000E+00  0.00000000000E+00  0.13788433424E+03  0.13788433427E+03  0.25500000920E-02 0.  1.
        2   -1    0    0  501    0  0.00000000000E+00  0.00000000000E+00 -0.88892260973E+03  0.88892260973E+03  0.25500000920E-02 0. -1.
    10030    2    1    2    0    0  0.00000000000E+00  0.00000000000E+00 -0.75103827549E+03  0.10268069440E+04  0.70019569336E+03 0.  0.
        5    1    3    3  502    0  0.14985000007E+03 -0.63886564025E+02 -0.82990767071E+03  0.84575726274E+03  0.46999998093E+01 0. -1.
       -5    1    3    3    0  502 -0.14985000007E+03  0.63886564025E+02  0.78869395221E+02  0.18104968126E+03  0.46999998093E+01 0.  1.
</event>
<event>
 5   0  0.1951465E-02  0.6978770E+03  0.7818609E-02  0.9720870E-01
       -1   -1    0    0    0  501  0.00000000000E+00  0.00000000000E+00  0.94959903682E+02  0.94959903816E+02  0.50400001928E-02 0.  1.
        1   -1    0    0  501    0  0.00000000000E+00  0.00000000000E+00 -0.12822049845E+04  0.12822049845E+04  0.50400001928E-02 0. -1.
    10030    2    1    2    0    0  0.00000000000E+00  0.00000000000E+00 -0.11872450808E+04  0.13771648883E+04  0.69787695742E+03 0.  0.
        4    1    3    3  502    0 -0.21710875369E+03  0.94245156454E+02 -0.10995818819E+04  0.11247667707E+04  0.12699999809E+01 0. -1.
       -4    1    3    3    0  502  0.21710875369E+03 -0.94245156454E+02 -0.87663198854E+02  0.25239811762E+03  0.12699999809E+01 0.  1.
</event>
<event>
 5   0  0.1969818E-02  0.7144244E+03  0.7818609E-02  0.9692878E-01
       -1   -1    0    0    0  501  0.00000000000E+00  0.00000000000E+00  0.28026132382E+03  0.28026132386E+03  0.50400001928E-02 0. -1.
        1   -1    0    0  501    0  0.00000000000E+00  0.00000000000E+00 -0.45529131215E+03  0.45529131218E+03  0.50400001928E-02 0.  1.
    10030    2    1    2    0    0  0.00000000000E+00  0.00000000000E+00 -0.17502998833E+03  0.73555263605E+03  0.71442437219E+03 0.  0.
        1    1    3    3  502    0  0.19693217520E+02  0.14502992573E+03  0.24797293519E+03  0.28794457589E+03  0.50400001928E-02 0. -1.
       -1    1    3    3    0  502 -0.19693217520E+02 -0.14502992573E+03 -0.42300292353E+03  0.44760806015E+03  0.50400001928E-02 0.  1.
</event>
<event>
 5   0  0.3113940E-02  0.6957478E+03  0.7818609E-02  0.9724532E-01
        2   -1    0    0  501    0  0.00000000000E+00  0.00000000000E+00  0.31946124142E+03  0.31946124143E+03  0.25500000920E-02 0. -1.
       -2   -1    0    0    0  501  0.00000000000E+00  0.00000000000E+00 -0.37881353709E+03  0.37881353710E+03  0.25500000920E-02 0.  1.
    10030    2    1    2    0    0  0.00000000000E+00  0.00000000000E+00 -0.59352295669E+02  0.69827477852E+03  0.69574777852E+03 0.  0.
        5    1    3    3  502    0 -0.22307201461E+03  0.29551386363E+02  0.23654138534E+03  0.32650930326E+03  0.46999998093E+01 0. -1.
       -5    1    3    3    0  502  0.22307201461E+03 -0.29551386363E+02 -0.29589368101E+03  0.37176547526E+03  0.46999998093E+01 0.  1.
</event>
<event>
 5   0  0.1839038E-02  0.6587953E+03  0.7818609E-02  0.9790414E-01
        1   -1    0    0  501    0  0.00000000000E+00  0.00000000000E+00  0.41999030358E+03  0.41999030361E+03  0.50400001928E-02 0. -1.
       -1   -1    0    0    0  501  0.00000000000E+00  0.00000000000E+00 -0.25834597919E+03  0.25834597924E+03  0.50400001928E-02 0.  1.
    10030    2    1    2    0    0  0.00000000000E+00  0.00000000000E+00  0.16164432440E+03  0.67833628285E+03  0.65879528309E+03 0.  0.
        5    1    3    3  502    0 -0.18926570602E+03 -0.18834904722E+03  0.27937299608E+03  0.38648186503E+03  0.46999998093E+01 0. -1.
       -5    1    3    3    0  502  0.18926570602E+03  0.18834904722E+03 -0.11772867168E+03  0.29185441781E+03  0.46999998093E+01 0.  1.
</event>
<event>
 5   0  0.3184443E-02  0.6757482E+03  0.7818609E-02  0.9759629E-01
        2   -1    0    0  501    0  0.00000000000E+00  0.00000000000E+00  0.67336749458E+03  0.67336749458E+03  0.25500000920E-02 0.  1.
       -2   -1    0    0    0  501  0.00000000000E+00  0.00000000000E+00 -0.16953433082E+03  0.16953433084E+03  0.25500000920E-02 0. -1.
    10030    2    1    2    0    0  0.00000000000E+00  0.00000000000E+00  0.50383316376E+03  0.84290182543E+03  0.67574820045E+03 0.  0.
        3    1    3    3  502    0  0.12630976089E+03  0.30547817924E+03  0.16470987970E+03  0.36932428618E+03  0.10100000352E+00 0. -1.
       -3    1    3    3    0  502 -0.12630976089E+03 -0.30547817924E+03  0.33912328405E+03  0.47357753925E+03  0.10100000352E+00 0.  1.
</event>
<event>
 5   0  0.1858013E-02  0.7054720E+03  0.7818609E-02  0.9707920E-01
        1   -1    0    0  501    0  0.00000000000E+00  0.00000000000E+00  0.68150704960E+03  0.68150704962E+03  0.50400001928E-02 0.  1.
       -1   -1    0    0    0  501  0.00000000000E+00  0.00000000000E+00 -0.18256993024E+03  0.18256993030E+03  0.50400001928E-02 0. -1.
    10030    2    1    2    0    0  0.00000000000E+00  0.00000000000E+00  0.49893711936E+03  0.86407697992E+03  0.70547202507E+03 0.  0.
        2    1    3    3  502    0  0.19128562053E+03  0.15397445441E+03 -0.60690309907E+02  0.25294591310E+03  0.25500000920E-02 0. -1.
       -2    1    3    3    0  502 -0.19128562053E+03 -0.15397445441E+03  0.55962742927E+03  0.61113106682E+03  0.25500000920E-02 0.  1.
</event>
<event>
 5   0  0.1951465E-02  0.6966269E+03  0.7818609E-02  0.9723018E-01
       -1   -1    0    0    0  501  0.00000000000E+00  0.00000000000E+00  0.57357813773E+03  0.57357813775E+03  0.50400001928E-02 0. -1.
        1   -1    0    0  501    0  0.00000000000E+00  0.00000000000E+00 -0.21151829128E+03  0.21151829134E+03  0.50400001928E-02 0.  1.
    10030    2    1    2    0    0  0.00000000000E+00  0.00000000000E+00  0.36205984645E+03  0.78509642909E+03  0.69662692351E+03 0.  0.
        4    1    3    3  502    0  0.92977975436E+02  0.16060310530E+03  0.51322151438E+03  0.54574371007E+03  0.12699999809E+01 0. -1.
       -4    1    3    3    0  502 -0.92977975436E+02 -0.16060310530E+03 -0.15116166794E+03  0.23935271902E+03  0.12699999809E+01 0.  1.
</event>
<event>
 5   0  0.1969818E-02  0.6862041E+03  0.7818609E-02  0.9741120E-01
       -1   -1    0    0    0  501  0.00000000000E+00  0.00000000000E+00  0.22987957017E+03  0.22987957022E+03  0.50400001928E-02 0. -1.
        1   -1    0    0  501    0  0.00000000000E+00  0.00000000000E+00 -0.51208997842E+03  0.51208997844E+03  0.50400001928E-02 0.  1.
    10030    2    1    2    0    0  0.00000000000E+00  0.00000000000E+00 -0.28221040825E+03  0.74196954867E+03  0.68620412169E+03 0.  0.
        1    1    3    3  502    0  0.16175704179E+03 -0.20007903197E+03 -0.38653618777E+03  0.46433520659E+03  0.50400001928E-02 0.  1.
       -1    1    3    3    0  502 -0.16175704179E+03  0.20007903197E+03  0.10432577952E+03  0.27763434207E+03  0.50400001928E-02 0. -1.
</event>
<event>
 5   0  0.1951465E-02  0.7066660E+03  0.7818609E-02  0.9705900E-01
       -1   -1    0    0    0  501  0.00000000000E+00  0.00000000000E+00  0.29768220881E+03  0.29768220886E+03  0.50400001928E-02 0.  1.
        1   -1    0    0  501    0  0.00000000000E+00  0.00000000000E+00 -0.41938757392E+03  0.41938757395E+03  0.50400001928E-02 0. -1.
    10030    2    1    2    0    0  0.00000000000E+00  0.00000000000E+00 -0.12170536511E+03  0.71706978281E+03  0.70666602969E+03 0.  0.
        4    1    3    3  502    0  0.15148242477E+03 -0.11063931039E+03  0.24297934719E+03  0.30696670516E+03  0.12699999809E+01 0.  1.
       -4    1    3    3    0  502 -0.15148242477E+03  0.11063931039E+03 -0.36468471229E+03  0.41010307765E+03  0.12699999809E+01 0. -1.
</event>
<event>
 5   0  0.2933851E-02  0.7032797E+03  0.7818609E-02  0.9711640E-01
        2   -1    0    0  501    0  0.00000000000E+00  0.00000000000E+00  0.21287180737E+03  0.21287180738E+03  0.25500000920E-02 0.  1.
       -2   -1    0    0    0  501  0.00000000000E+00  0.00000000000E+00 -0.58086873885E+03  0.58086873885E+03  0.25500000920E-02 0. -1.
    10030    2    1    2    0    0  0.00000000000E+00  0.00000000000E+00 -0.36799693148E+03  0.79374054623E+03  0.70327968345E+03 0.  0.
        2    1    3    3  502    0  0.14659215150E+03 -0.23119225479E+02 -0.54379308489E+03  0.56367958686E+03  0.25500000920E-02 0. -1.
       -2    1    3    3    0  502 -0.14659215150E+03  0.23119225479E+02  0.17579615341E+03  0.23006095937E+03  0.25500000920E-02 0.  1.
</event>
<event>
 5   0  0.3290656E-02  0.6785693E+03  0.7818609E-02  0.9754600E-01
        2   -1    0    0  501    0  0.00000000000E+00  0.00000000000E+00  0.24884804781E+03  0.24884804783E+03  0.25500000920E-02 0.  1.
       -2   -1    0    0    0  501  0.00000000000E+00  0.00000000000E+00 -0.46258775750E+03  0.46258775751E+03  0.25500000920E-02 0. -1.
    10030    2    1    2    0    0  0.00000000000E+00  0.00000000000E+00 -0.21373970969E+03  0.71143580534E+03  0.67856926074E+03 0.  0.
        1    1    3    3  502    0  0.85960211724E+02 -0.29045991969E+03  0.53365660658E+02  0.30757765964E+03  0.50400001928E-02 0.  1.
       -1    1    3    3    0  502 -0.85960211724E+02  0.29045991969E+03 -0.26710537035E+03  0.40385814569E+03  0.50400001928E-02 0. -1.
</event>
<event>
 5   0  0.3184443E-02  0.6989228E+03  0.7818609E-02  0.9719076E-01
        2   -1    0    0  501    0  0.00000000000E+00  0.00000000000E+00  0.99758630097E+03  0.99758630098E+03  0.25500000920E-02 0.  1.
       -2   -1    0    0    0  501  0.00000000000E+00  0.00000000000E+00 -0.12241874080E+03  0.12241874083E+03  0.25500000920E-02 0. -1.
    10030    2    1    2    0    0  0.00000000000E+00  0.00000000000E+00  0.87516756017E+03  0.11200050418E+04  0.69892276776E+03 0.  0.
        3    1    3    3  502    0  0.25687304473E+03 -0.97760152752E+02  0.91722530318E+02  0.28974789274E+03  0.10100000352E+00 0. -1.
       -3    1    3    3    0  502 -0.25687304473E+03  0.97760152752E+02  0.78344502985E+03  0.83025714907E+03  0.10100000352E+00 0.  1.
</event>
<event>
 5   0  0.3290656E-02  0.6939588E+03  0.7818609E-02  0.9727620E-01
        2   -1    0    0  501    0  0.00000000000E+00  0.00000000000E+00  0.78102869583E+03  0.78102869584E+03  0.25500000920E-02 0. -1.
       -2   -1    0    0    0  501  0.00000000000E+00  0.00000000000E+00 -0.15414888991E+03  0.15414888993E+03  0.25500000920E-02 0.  1.
    10030    2    1    2    0    0  0.00000000000E+00  0.00000000000E+00  0.62687980592E+03  0.93517758577E+03  0.69395880703E+03 0.  0.
        1    1    3    3  502    0 -0.10591679972E+03  0.16136903918E+03 -0.75118163553E+02  0.20712574391E+03  0.50400001928E-02 0.  1.
       -1    1    3    3    0  502  0.10591679972E+03 -0.16136903918E+03  0.70199796947E+03  0.72805184186E+03  0.50400001928E-02 0. -1.
</event>
<event>
 5   0  0.3183963E-02  0.7059168E+03  0.7818609E-02  0.9707167E-01
       -2   -1    0    0    0  501  0.00000000000E+00  0.00000000000E+00  0.12187277100E+03  0.12187277103E+03  0.25500000920E-02 0. -1.
        2   -1    0    0  501    0  0.00000000000E+00  0.00000000000E+00 -0.10222105035E+04  0.10222105035E+04  0.25500000920E-02 0.  1.
    10030    2    1    2    0    0  0.00000000000E+00  0.00000000000E+00 -0.90033773251E+03  0.11440832746E+04  0.70591678442E+03 0.  0.
        4    1    3    3  502    0 -0.13969171311E+03 -0.32352419430E+03 -0.48243412765E+03  0.59743282420E+03  0.12699999809E+01 0.  1.
       -4    1    3    3    0  502  0.13969171311E+03  0.32352419430E+03 -0.41790360486E+03  0.54665045035E+03  0.12699999809E+01 0. -1.
</event>
<event>
 5   0  0.1884172E-02  0.7039857E+03  0.7818609E-02  0.9710440E-01
       -1   -1    0    0    0  501  0.00000000000E+00  0.00000000000E+00  0.11142924143E+03  0.11142924154E+03  0.50400001928E-02 0. -1.
        1   -1    0    0  501    0  0.00000000000E+00  0.00000000000E+00 -0.11119071731E+04  0.11119071731E+04  0.50400001928E-02 0.  1.
    10030    2    1    2    0    0  0.00000000000E+00  0.00000000000E+00 -0.10004779316E+04  0.12233364146E+04  0.70398571835E+03 0.  0.
        3    1    3    3  502    0 -0.54936886088E+01 -0.30289225583E+03 -0.81170023696E+03  0.86638974148E+03  0.10100000352E+00 0. -1.
       -3    1    3    3    0  502  0.54936886088E+01  0.30289225583E+03 -0.18877769468E+03  0.35694667315E+03  0.10100000352E+00 0.  1.
</event>
<event>
 5   0  0.1969818E-02  0.6950871E+03  0.7818609E-02  0.9725671E-01
        1   -1    0    0  501    0  0.00000000000E+00  0.00000000000E+00  0.55312402824E+03  0.55312402826E+03  0.50400001928E-02 0.  1.
       -1   -1    0    0    0  501  0.00000000000E+00  0.00000000000E+00 -0.21837146181E+03  0.21837146187E+03  0.50400001928E-02 0. -1.
    10030    2    1    2    0    0  0.00000000000E+00  0.00000000000E+00  0.33475256643E+03  0.77149549013E+03  0.69508705250E+03 0.  0.
        1    1    3    3  502    0  0.23963309358E+03  0.24576640266E+03  0.10697590217E+03  0.35953996702E+03  0.50400001928E-02 0.  1.
       -1    1    3    3    0  502 -0.23963309358E+03 -0.24576640266E+03  0.22777666427E+03  0.41195552311E+03  0.50400001928E-02 0. -1.
</event>
<event>
 5   0  0.1839038E-02  0.6998305E+03  0.7818609E-02  0.9717522E-01
        1   -1    0    0  501    0  0.00000000000E+00  0.00000000000E+00  0.65099610859E+03  0.65099610861E+03  0.50400001928E-02 0.  1.
       -1   -1    0    0    0  501  0.00000000000E+00  0.00000000000E+00 -0.18808202354E+03  0.18808202361E+03  0.50400001928E-02 0. -1.
    10030    2    1    2    0    0  0.00000000000E+00  0.00000000000E+00  0.46291408505E+03  0.83907813222E+03  0.69983045221E+03 0.  0.
        5    1    3    3  502    0  0.25911573622E+03 -0.22987641357E+03  0.17229957596E+03  0.38690226692E+03  0.46999998093E+01 0. -1.
       -5    1    3    3    0  502 -0.25911573622E+03  0.22987641357E+03  0.29061450909E+03  0.45217586531E+03  0.46999998093E+01 0.  1.
</event>
<event>
 5   0  0.1969818E-02  0.7009062E+03  0.7818609E-02  0.9715684E-01
       -1   -1    0    0    0  501  0.00000000000E+00  0.00000000000E+00  0.35261768572E+03  0.35261768575E+03  0.50400001928E-02 0.  1.
        1   -1    0    0  501    0  0.00000000000E+00  0.00000000000E+00 -0.34830178560E+03  0.34830178563E+03  0.50400001928E-02 0. -1.
    10030    2    1    2    0    0  0.00000000000E+00  0.00000000000E+00  0.43159001186E+01  0.70091947139E+03  0.70090618372E+03 0.  0.
        1    1    3    3  502    0  0.23489104640E+03 -0.24219768963E+03 -0.92626994205E+02  0.34987609896E+03  0.50400001928E-02 0. -1.
       -1    1    3    3    0  502 -0.23489104640E+03  0.24219768963E+03  0.96942894323E+02  0.35104337243E+03  0.50400001928E-02 0.  1.
</event>
<event>
 5   0  0.1951465E-02  0.6864898E+03  0.7818609E-02  0.9740619E-01
        1   -1    0    0  501    0  0.00000000000E+00  0.00000000000E+00  0.25764801486E+03  0.25764801491E+03  0.50400001928E-02 0.  1.
       -1   -1    0    0    0  501  0.00000000000E+00  0.00000000000E+00 -0.45727919423E+03  0.45727919426E+03  0.50400001928E-02 0. -1.
    10030    2    1    2    0    0  0.00000000000E+00  0.00000000000E+00 -0.19963117937E+03  0.71492720917E+03  0.68648984453E+03 0.  0.
        4    1    3    3  502    0 -0.25706163686E+03 -0.12970355206E+03 -0.29440250144E+03  0.41179866721E+03  0.12699999809E+01 0. -1.
       -4    1    3    3    0  502  0.25706163686E+03  0.12970355206E+03  0.94771322070E+02  0.30312854196E+03  0.12699999809E+01 0.  1.
</event>
<event>
 5   0  0.1884172E-02  0.7053510E+03  0.7818609E-02  0.9708125E-01
        1   -1    0    0  501    0  0.00000000000E+00  0.00000000000E+00  0.99809824394E+03  0.99809824395E+03  0.50400001928E-02 0.  1.
       -1   -1    0    0    0  501  0.00000000000E+00  0.00000000000E+00 -0.12461700932E+03  0.12461700943E+03  0.50400001928E-02 0. -1.
    10030    2    1    2    0    0  0.00000000000E+00  0.00000000000E+00  0.87348123461E+03  0.11227152534E+04  0.70535102817E+03 0.  0.
        3    1    3    3  502    0 -0.25227912168E+03 -0.20221208383E+02  0.45793636094E+02  0.25719782233E+03  0.10100000352E+00 0. -1.
       -3    1    3    3    0  502  0.25227912168E+03  0.20221208383E+02  0.82768759852E+03  0.86551743105E+03  0.10100000352E+00 0.  1.
</event>
<event>
 5   0  0.3183963E-02  0.6939801E+03  0.7818609E-02  0.9727583E-01
        2   -1    0    0  501    0  0.00000000000E+00  0.00000000000E+00  0.15247471433E+04  0.15247471433E+04  0.25500000920E-02 0. -1.
       -2   -1    0    0    0  501  0.00000000000E+00  0.00000000000E+00 -0.78965294848E+02  0.78965294889E+02  0.25500000920E-02 0.  1.
    10030    2    1    2    0    0  0.00000000000E+00  0.00000000000E+00  0.14457818484E+04  0.16037124382E+04  0.69398013738E+03 0.  0.
        4    1    3    3  502    0 -0.26799382837E+03 -0.21060092571E+03  0.57264652226E+03  0.66640760373E+03  0.12699999809E+01 0. -1.
       -4    1    3    3    0  502  0.26799382837E+03  0.21060092571E+03  0.87313532616E+03  0.93730483443E+03  0.12699999809E+01 0.  1.
</event>
<event>
 5   0  0.1858013E-02  0.6977939E+03  0.7818609E-02  0.9721012E-01
       -1   -1    0    0    0  501  0.00000000000E+00  0.00000000000E+00  0.14055079370E+03  0.14055079379E+03  0.50400001928E-02 0.  1.
        1   -1    0    0  501    0  0.00000000000E+00  0.00000000000E+00 -0.86608611091E+03  0.86608611092E+03  0.50400001928E-02 0. -1.
    10030    2    1    2    0    0  0.00000000000E+00  0.00000000000E+00 -0.72553531721E+03  0.10066369047E+04  0.69779392475E+03 0.  0.
        2    1    3    3  502    0 -0.19664505242E+03 -0.11062556642E+03 -0.74667740484E+03  0.78002207629E+03  0.25500000920E-02 0. -1.
       -2    1    3    3    0  502  0.19664505242E+03  0.11062556642E+03  0.21142087638E+02  0.22661482842E+03  0.25500000920E-02 0.  1.
</event>
<event>
 5   0  0.1884172E-02  0.7004596E+03  0.7818609E-02  0.9716446E-01
       -1   -1    0    0    0  501  0.00000000000E+00  0.00000000000E+00  0.23281091676E+03  0.23281091682E+03  0.50400001928E-02 0. -1.
        1   -1    0    0  501    0  0.00000000000E+00  0.00000000000E+00 -0.52686931576E+03  0.52686931579E+03  0.50400001928E-02 0.  1.
    10030    2    1    2    0    0  0.00000000000E+00  0.00000000000E+00 -0.29405839900E+03  0.75968023260E+03  0.70045964465E+03 0.  0.
        3    1    3    3  502    0 -0.30178534939E+03 -0.11857320738E+03 -0.29061135025E+03  0.43541815501E+03  0.10100000352E+00 0.  1.
       -3    1    3    3    0  502  0.30178534939E+03  0.11857320738E+03 -0.34470487476E+01  0.32426207759E+03  0.10100000352E+00 0. -1.
</event>
<event>
 5   0  0.3113940E-02  0.7057075E+03  0.7818609E-02  0.9707521E-01
       -2   -1    0    0    0  501  0.00000000000E+00  0.00000000000E+00  0.40404236978E+03  0.40404236979E+03  0.25500000920E-02 0.  1.
        2   -1    0    0  501    0  0.00000000000E+00  0.00000000000E+00 -0.30815032069E+03  0.30815032070E+03  0.25500000920E-02 0. -1.
    10030    2    1    2    0    0  0.00000000000E+00  0.00000000000E+00  0.95892049090E+02  0.71219269049E+03  0.70570754801E+03 0.  0.
        5    1    3    3  502    0 -0.68878872023E+02 -0.10335111180E+03  0.38122000115E+03  0.40096948836E+03  0.46999998093E+01 0.  1.
       -5    1    3    3    0  502  0.68878872023E+02  0.10335111180E+03 -0.28532795206E+03  0.31122320213E+03  0.46999998093E+01 0. -1.
</event>
<event>
 5   0  0.1858013E-02  0.6973769E+03  0.7818609E-02  0.9721729E-01
       -1   -1    0    0    0  501  0.00000000000E+00  0.00000000000E+00  0.24554188743E+03  0.24554188749E+03  0.50400001928E-02 0. -1.
        1   -1    0    0  501    0  0.00000000000E+00  0.00000000000E+00 -0.49516450236E+03  0.49516450239E+03  0.50400001928E-02 0.  1.
    10030    2    1    2    0    0  0.00000000000E+00  0.00000000000E+00 -0.24962261493E+03  0.74070638987E+03  0.69737687524E+03 0.  0.
        2    1    3    3  502    0 -0.10946100393E+03 -0.19935091372E+03 -0.40554616923E+03  0.46496257222E+03  0.25500000920E-02 0.  1.
       -2    1    3    3    0  502  0.10946100393E+03  0.19935091372E+03  0.15592355430E+03  0.27574381765E+03  0.25500000920E-02 0. -1.
</event>
<event>
 5   0  0.1884172E-02  0.7252052E+03  0.7818609E-02  0.9675073E-01
       -1   -1    0    0    0  501  0.00000000000E+00  0.00000000000E+00  0.11668832833E+03  0.11668832843E+03  0.50400001928E-02 0. -1.
        1   -1    0    0  501    0  0.00000000000E+00  0.00000000000E+00 -0.11267675999E+04  0.11267675999E+04  0.50400001928E-02 0.  1.
    10030    2    1    2    0    0  0.00000000000E+00  0.00000000000E+00 -0.10100792715E+04  0.12434559283E+04  0.72520515088E+03 0.  0.
        3    1    3    3  502    0  0.56099374049E+02 -0.26914808616E+03 -0.91040570523E+03  0.95101334921E+03  0.10100000352E+00 0.  1.
       -3    1    3    3    0  502 -0.56099374049E+02  0.26914808616E+03 -0.99673566311E+02  0.29244257911E+03  0.10100000352E+00 0. -1.
</event>
<event>
 5   0  0.1839038E-02  0.6997274E+03  0.7818609E-02  0.9717698E-01
       -1   -1    0    0    0  501  0.00000000000E+00  0.00000000000E+00  0.12891985147E+03  0.12891985157E+03  0.50400001928E-02 0. -1.
        1   -1    0    0  501    0  0.00000000000E+00  0.00000000000E+00 -0.94946294290E+03  0.94946294291E+03  0.50400001928E-02 0.  1.
    10030    2    1    2    0    0  0.00000000000E+00  0.00000000000E+00 -0.82054309143E+03  0.10783827945E+04  0.69972743731E+03 0.  0.
        5    1    3    3  502    0 -0.30015534447E+03 -0.16535060668E+03 -0.30185892200E+03  0.45670006868E+03  0.46999998093E+01 0. -1.
       -5    1    3    3    0  502  0.30015534447E+03  0.16535060668E+03 -0.51868416943E+03  0.62168272580E+03  0.46999998093E+01 0.  1.
</event>
<event>
 5   0  0.2933851E-02  0.7068165E+03  0.7818609E-02  0.9705646E-01
       -2   -1    0    0    0  501  0.00000000000E+00  0.00000000000E+00  0.10217918954E+03  0.10217918957E+03  0.25500000920E-02 0.  1.
        2   -1    0    0  501    0  0.00000000000E+00  0.00000000000E+00 -0.12223367401E+04  0.12223367401E+04  0.25500000920E-02 0. -1.
    10030    2    1    2    0    0  0.00000000000E+00  0.00000000000E+00 -0.11201575506E+04  0.13245159297E+04  0.70681646124E+03 0.  0.
        2    1    3    3  502    0  0.51552701592E+02  0.49552127145E+02  0.88481657044E+02  0.11376334201E+03  0.25500000920E-02 0.  1.
       -2    1    3    3    0  502 -0.51552701592E+02 -0.49552127145E+02 -0.12086392076E+04  0.12107525877E+04  0.25500000920E-02 0. -1.
</event>
<event>
 5   0  0.2933851E-02  0.6919100E+03  0.7818609E-02  0.9731168E-01
        2   -1    0    0  501    0  0.00000000000E+00  0.00000000000E+00  0.62826506524E+03  0.62826506525E+03  0.25500000920E-02 0. -1.
       -2   -1    0    0    0  501  0.00000000000E+00  0.00000000000E+00 -0.19050060524E+03  0.19050060526E+03  0.25500000920E-02 0.  1.
    10030    2    1    2    0    0  0.00000000000E+00  0.00000000000E+00  0.43776446000E+03  0.81876567051E+03  0.69191003805E+03 0.  0.
        2    1    3    3  502    0 -0.18494239026E+03  0.22711964963E+03  0.10129065273E+01  0.29289596950E+03  0.25500000920E-02 0.  1.
       -2    1    3    3    0  502  0.18494239026E+03 -0.22711964963E+03  0.43675155348E+03  0.52586970100E+03  0.25500000920E-02 0. -1.
</event>
<event>
 5   0  0.3113940E-02  0.6760125E+03  0.7818609E-02  0.9759157E-01
       -2   -1    0    0    0  501  0.00000000000E+00  0.00000000000E+00  0.13889052105E+03  0.13889052108E+03  0.25500000920E-02 0. -1.
        2   -1    0    0  501    0  0.00000000000E+00  0.00000000000E+00 -0.82257759988E+03  0.82257759988E+03  0.25500000920E-02 0.  1.
    10030    2    1    2    0    0  0.00000000000E+00  0.00000000000E+00 -0.68368707882E+03  0.96146812096E+03  0.67601251902E+03 0.  0.
        5    1    3    3  502    0 -0.13647150968E+03  0.21992647336E+02 -0.78048682619E+03  0.79264741553E+03  0.46999998093E+01 0.  1.
       -5    1    3    3    0  502  0.13647150968E+03 -0.21992647336E+02  0.96799747372E+02  0.16882070542E+03  0.46999998093E+01 0. -1.
</event>
<event>
 5   0  0.3183963E-02  0.7007408E+03  0.7818609E-02  0.9715966E-01
        2   -1    0    0  501    0  0.00000000000E+00  0.00000000000E+00  0.35449650849E+03  0.35449650850E+03  0.25500000920E-02 0. -1.
       -2   -1    0    0    0  501  0.00000000000E+00  0.00000000000E+00 -0.34629236587E+03  0.34629236588E+03  0.25500000920E-02 0.  1.
    10030    2    1    2    0    0  0.00000000000E+00  0.00000000000E+00  0.82041426221E+01  0.70078887437E+03  0.70074084974E+03 0.  0.
        4    1    3    3  502    0 -0.14065221367E+03  0.17764690429E+01 -0.31681183504E+03  0.34663749476E+03  0.12699999809E+01 0.  1.
       -4    1    3    3    0  502  0.14065221367E+03 -0.17764690429E+01  0.32501597766E+03  0.35415137962E+03  0.12699999809E+01 0. -1.
</event>
<event>
 5   0  0.1969818E-02  0.7415969E+03  0.7818609E-02  0.9648626E-01
        1   -1    0    0  501    0  0.00000000000E+00  0.00000000000E+00  0.92169756773E+03  0.92169756774E+03  0.50400001928E-02 0.  1.
       -1   -1    0    0    0  501  0.00000000000E+00  0.00000000000E+00 -0.14917203664E+03  0.14917203673E+03  0.50400001928E-02 0. -1.
    10030    2    1    2    0    0  0.00000000000E+00  0.00000000000E+00  0.77252553108E+03  0.10708696045E+04  0.74159693473E+03 0.  0.
        1    1    3    3  502    0  0.12933858733E+03 -0.13874199725E+03 -0.73814714619E+02  0.20353482280E+03  0.50400001928E-02 0. -1.
       -1    1    3    3    0  502 -0.12933858733E+03  0.13874199725E+03  0.84634024570E+03  0.86733478167E+03  0.50400001928E-02 0.  1.
</event>
<event>
 5   0  0.3183963E-02  0.7026111E+03  0.7818609E-02  0.9712777E-01
        2   -1    0    0  501    0  0.00000000000E+00  0.00000000000E+00  0.11588278736E+03  0.11588278739E+03  0.25500000920E-02 0. -1.
       -2   -1    0    0    0  501  0.00000000000E+00  0.00000000000E+00 -0.10650035914E+04  0.10650035914E+04  0.25500000920E-02 0.  1.
    10030    2    1    2    0    0  0.00000000000E+00  0.00000000000E+00 -0.94912080407E+03  0.11808863788E+04  0.70261108658E+03 0.  0.
        4    1    3    3  502    0  0.22151523184E+03  0.14768173499E+03 -0.89332433963E+02  0.28082163279E+03  0.12699999809E+01 0. -1.
       -4    1    3    3    0  502 -0.22151523184E+03 -0.14768173499E+03 -0.85978837011E+03  0.90006474604E+03  0.12699999809E+01 0.  1.
</event>
<event>
 5   0  0.1951465E-02  0.6950383E+03  0.7818609E-02  0.9725755E-01
       -1   -1    0    0    0  501  0.00000000000E+00  0.00000000000E+00  0.24210022436E+03  0.24210022441E+03  0.50400001928E-02 0.  1.
        1   -1    0    0  501    0  0.00000000000E+00  0.00000000000E+00 -0.49884117890E+03  0.49884117892E+03  0.50400001928E-02 0. -1.
    10030    2    1    2    0    0  0.00000000000E+00  0.00000000000E+00 -0.25674095454E+03  0.74094140333E+03  0.69503830501E+03 0.  0.
        4    1    3    3  502    0  0.26236042120E+03  0.18204252891E+03 -0.27452147424E+03  0.42111296069E+03  0.12699999809E+01 0. -1.
       -4    1    3    3    0  502 -0.26236042120E+03 -0.18204252891E+03  0.17780519702E+02  0.31982844264E+03  0.12699999809E+01 0.  1.
</event>
<event>
 5   0  0.3290656E-02  0.7000637E+03  0.7818609E-02  0.9717123E-01
       -2   -1    0    0    0  501  0.00000000000E+00  0.00000000000E+00  0.10706999087E+03  0.10706999090E+03  0.25500000920E-02 0.  1.
        2   -1    0    0  501    0  0.00000000000E+00  0.00000000000E+00 -0.11443196964E+04  0.11443196964E+04  0.25500000920E-02 0. -1.
    10030    2    1    2    0    0  0.00000000000E+00  0.00000000000E+00 -0.10372497055E+04  0.12513896873E+04  0.70006370985E+03 0.  0.
        1    1    3    3  502    0  0.21579844822E+03  0.99837714110E+02 -0.59447861380E+02  0.24509301839E+03  0.50400001928E-02 0.  1.
       -1    1    3    3    0  502 -0.21579844822E+03 -0.99837714110E+02 -0.97780184415E+03  0.10062966689E+04  0.50400001928E-02 0. -1.
</event>
<event>
 5   0  0.1884172E-02  0.7033336E+03  0.7818609E-02  0.9711548E-01
       -1   -1    0    0    0  501  0.00000000000E+00  0.00000000000E+00  0.70457730956E+03  0.70457730958E+03  0.50400001928E-02 0.  1.
        1   -1    0    0  501    0  0.00000000000E+00  0.00000000000E+00 -0.17552303248E+03  0.17552303255E+03  0.50400001928E-02 0. -1.
    10030    2    1    2    0    0  0.00000000000E+00  0.00000000000E+00  0.52905427708E+03  0.88010034213E+03  0.70333362220E+03 0.  0.
        3    1    3    3  502    0  0.11598229574E+02  0.32486211374E+03  0.96645759943E+02  0.33913172218E+03  0.10100000352E+00 0. -1.
       -3    1    3    3    0  502 -0.11598229574E+02 -0.32486211374E+03  0.43240851714E+03  0.54096861995E+03  0.10100000352E+00 0.  1.
</event>
<event>
 5   0  0.3184443E-02  0.7031620E+03  0.7818609E-02  0.9711840E-01
       -2   -1    0    0    0  501  0.00000000000E+00  0.00000000000E+00  0.15292991694E+03  0.15292991696E+03  0.25500000920E-02 0.  1.
        2   -1    0    0  501    0  0.00000000000E+00  0.00000000000E+00 -0.80827351675E+03  0.80827351676E+03  0.25500000920E-02 0. -1.
    10030    2    1    2    0    0  0.00000000000E+00  0.00000000000E+00 -0.65534359982E+03  0.96120343372E+03  0.70316200634E+03 0.  0.
        3    1    3    3  502    0  0.47235231659E+02  0.28752556924E+03 -0.59661159791E+03  0.66396349978E+03  0.10100000352E+00 0. -1.
       -3    1    3    3    0  502 -0.47235231659E+02 -0.28752556924E+03 -0.58732001910E+02  0.29723993394E+03  0.10100000352E+00 0.  1.
</event>
<event>
 5   0  0.1839038E-02  0.6920142E+03  0.7818609E-02  0.9730987E-01
        1   -1    0    0  501    0  0.00000000000E+00  0.00000000000E+00  0.65586900912E+03  0.65586900913E+03  0.50400001928E-02 0. -1.
       -1   -1    0    0    0  501  0.00000000000E+00  0.00000000000E+00 -0.18253786329E+03  0.18253786336E+03  0.50400001928E-02 0.  1.
    10030    2    1    2    0    0  0.00000000000E+00  0.00000000000E+00  0.47333114583E+03  0.83840687249E+03  0.69201424135E+03 0.  0.
        5    1    3    3  502    0 -0.14558091132E+03  0.25333441181E+03  0.12196817713E+02  0.29247731247E+03  0.46999998093E+01 0.  1.
       -5    1    3    3    0  502  0.14558091132E+03 -0.25333441181E+03  0.46113432811E+03  0.54592956003E+03  0.46999998093E+01 0. -1.
</event>
<event>
 5   0  0.3290656E-02  0.6849539E+03  0.7818609E-02  0.9743315E-01
       -2   -1    0    0    0  501  0.00000000000E+00  0.00000000000E+00  0.13533056151E+03  0.13533056153E+03  0.25500000920E-02 0.  1.
        2   -1    0    0  501    0  0.00000000000E+00  0.00000000000E+00 -0.86669607510E+03  0.86669607510E+03  0.25500000920E-02 0. -1.
    10030    2    1    2    0    0  0.00000000000E+00  0.00000000000E+00 -0.73136551359E+03  0.10020266366E+04  0.68495391528E+03 0.  0.
        1    1    3    3  502    0  0.54371391841E+02  0.18841696175E+03 -0.77642812590E+03  0.80081073572E+03  0.50400001928E-02 0. -1.
       -1    1    3    3    0  502 -0.54371391841E+02 -0.18841696175E+03  0.45062612315E+02  0.20121590091E+03  0.50400001928E-02 0.  1.
</event>
<event>
 5   0  0.3184443E-02  0.6990869E+03  0.7818609E-02  0.9718795E-01
       -2   -1    0    0    0  501  0.00000000000E+00  0.00000000000E+00  0.80765665457E+02  0.80765665497E+02  0.25500000920E-02 0.  1.
        2   -1    0    0  501    0  0.00000000000E+00  0.00000000000E+00 -0.15127794527E+04  0.15127794527E+04  0.25500000920E-02 0. -1.
    10030    2    1    2    0    0  0.00000000000E+00  0.00000000000E+00 -0.14320137873E+04  0.15935451182E+04  0.69908694516E+03 0.  0.
        3    1    3    3  502    0 -0.30064146155E+03 -0.16842589767E+03 -0.58254501673E+03  0.67683918187E+03  0.10100000352E+00 0.  1.
       -3    1    3    3    0  502  0.30064146155E+03  0.16842589767E+03 -0.84946877053E+03  0.91670593634E+03  0.10100000352E+00 0. -1.
</event>
<event>
 5   0  0.1839038E-02  0.6958253E+03  0.7818609E-02  0.9724398E-01
       -1   -1    0    0    0  501  0.00000000000E+00  0.00000000000E+00  0.66484193403E+03  0.66484193405E+03  0.50400001928E-02 0.  1.
        1   -1    0    0  501    0  0.00000000000E+00  0.00000000000E+00 -0.18206313545E+03  0.18206313552E+03  0.50400001928E-02 0. -1.
    10030    2    1    2    0    0  0.00000000000E+00  0.00000000000E+00  0.48277879858E+03  0.84690506958E+03  0.69582528591E+03 0.  0.
        5    1    3    3  502    0 -0.11162021982E+03  0.30620138848E+03  0.93306203876E+02  0.33903761068E+03  0.46999998093E+01 0. -1.
       -5    1    3    3    0  502  0.11162021982E+03 -0.30620138848E+03  0.38947259470E+03  0.50786745889E+03  0.46999998093E+01 0.  1.
</event>
<event>
 5   0  0.1951465E-02  0.6949271E+03  0.7818609E-02  0.9725947E-01
       -1   -1    0    0    0  501  0.00000000000E+00  0.00000000000E+00  0.25123251176E+03  0.25123251181E+03  0.50400001928E-02 0. -1.
        1   -1    0    0  501    0  0.00000000000E+00  0.00000000000E+00 -0.48055453930E+03  0.48055453933E+03  0.50400001928E-02 0.  1.
    10030    2    1    2    0    0  0.00000000000E+00  0.00000000000E+00 -0.22932202754E+03  0.73178705115E+03  0.69492711554E+03 0.  0.
        4    1    3    3  502    0  0.14295760031E+03 -0.30479493728E+03 -0.24120992014E+02  0.33752076149E+03  0.12699999809E+01 0. -1.
       -4    1    3    3    0  502 -0.14295760031E+03  0.30479493728E+03 -0.20520103553E+03  0.39426628966E+03  0.12699999809E+01 0.  1.
</event>
<event>
 5   0  0.1858013E-02  0.6988526E+03  0.7818609E-02  0.9719196E-01
        1   -1    0    0  501    0  0.00000000000E+00  0.00000000000E+00  0.37568890507E+03  0.37568890511E+03  0.50400001928E-02 0.  1.
       -1   -1    0    0    0  501  0.00000000000E+00  0.00000000000E+00 -0.32499959895E+03  0.32499959899E+03  0.50400001928E-02 0. -1.
    10030    2    1    2    0    0  0.00000000000E+00  0.00000000000E+00  0.50689306124E+02  0.70068850409E+03  0.69885261251E+03 0.  0.
        2    1    3    3  502    0 -0.29205442152E+03  0.18346374678E+03 -0.30874137142E+02  0.34627726443E+03  0.25500000920E-02 0. -1.
       -2    1    3    3    0  502  0.29205442152E+03 -0.18346374678E+03  0.81563443266E+02  0.35441123966E+03  0.25500000920E-02 0.  1.
</event>
<event>
 5   0  0.3183963E-02  0.7171730E+03  0.7818609E-02  0.9688307E-01
        2   -1    0    0  501    0  0.00000000000E+00  0.00000000000E+00  0.11234044799E+04  0.11234044799E+04  0.25500000920E-02 0. -1.
       -2   -1    0    0    0  501  0.00000000000E+00  0.00000000000E+00 -0.11445947773E+03  0.11445947776E+03  0.25500000920E-02 0.  1.
    10030    2    1    2    0    0  0.00000000000E+00  0.00000000000E+00  0.10089450022E+04  0.12378639577E+04  0.71717303372E+03 0.  0.
        4    1    3    3  502    0 -0.86267693583E+02 -0.55295529705E+02  0.10975925361E+04  0.11023659550E+04  0.12699999809E+01 0. -1.
       -4    1    3    3    0  502  0.86267693583E+02  0.55295529705E+02 -0.88647533908E+02  0.13549800268E+03  0.12699999809E+01 0.  1.
</event>
<event>
 5   0  0.3290656E-02  0.6985096E+03  0.7818609E-02  0.9719784E-01
        2   -1    0    0  501    0  0.00000000000E+00  0.00000000000E+00  0.50559967239E+03  0.50559967239E+03  0.25500000920E-02 0. -1.
       -2   -1    0    0    0  501  0.00000000000E+00  0.00000000000E+00 -0.24125592925E+03  0.24125592927E+03  0.25500000920E-02 0.  1.
    10030    2    1    2    0    0  0.00000000000E+00  0.00000000000E+00  0.26434374314E+03  0.74685560166E+03  0.69850960995E+03 0.  0.
        1    1    3    3  502    0  0.10047502749E+03 -0.22587668714E+02 -0.22465303577E+03  0.24713239454E+03  0.50400001928E-02 0.  1.
       -1    1    3    3    0  502 -0.10047502749E+03  0.22587668714E+02  0.48899677890E+03  0.49972320712E+03  0.50400001928E-02 0. -1.
</event>
<event>
 5   0  0.1969818E-02  0.7041411E+03  0.7818609E-02  0.9710177E-01
       -1   -1    0    0    0  501  0.00000000000E+00  0.00000000000E+00  0.75151603611E+03  0.75151603612E+03  0.50400001928E-02 0. -1.
        1   -1    0    0  501    0  0.00000000000E+00  0.00000000000E+00 -0.16493813965E+03  0.16493813972E+03  0.50400001928E-02 0.  1.
    10030    2    1    2    0    0  0.00000000000E+00  0.00000000000E+00  0.58657789646E+03  0.91645417585E+03  0.70414105676E+03 0.  0.
        1    1    3    3  502    0 -0.22263248465E+03  0.15274196945E+03  0.58738173061E+03  0.64646162294E+03  0.50400001928E-02 0. -1.
       -1    1    3    3    0  502  0.22263248465E+03 -0.15274196945E+03 -0.80383414684E+00  0.26999255291E+03  0.50400001928E-02 0.  1.
</event>
<event>
 5   0  0.3113940E-02  0.7110200E+03  0.7818609E-02  0.9698570E-01
       -2   -1    0    0    0  501  0.00000000000E+00  0.00000000000E+00  0.13062193365E+03  0.13062193368E+03  0.25500000920E-02 0. -1.
        2   -1    0    0  501    0  0.00000000000E+00  0.00000000000E+00 -0.96758152963E+03  0.96758152964E+03  0.25500000920E-02 0.  1.
    10030    2    1    2    0    0  0.00000000000E+00  0.00000000000E+00 -0.83695959598E+03  0.10982034633E+04  0.71102002892E+03 0.  0.
        5    1    3    3  502    0 -0.23571941426E+03  0.20342827507E+03 -0.68339799497E+03  0.75100040938E+03  0.46999998093E+01 0.  1.
       -5    1    3    3    0  502  0.23571941426E+03 -0.20342827507E+03 -0.15356160101E+03  0.34720305394E+03  0.46999998093E+01 0. -1.
</event>
<event>
 5   0  0.1951465E-02  0.6977055E+03  0.7818609E-02  0.9721164E-01
       -1   -1    0    0    0  501  0.00000000000E+00  0.00000000000E+00  0.11766393821E+03  0.11766393832E+03  0.50400001928E-02 0. -1.
        1   -1    0    0  501    0  0.00000000000E+00  0.00000000000E+00 -0.10342865257E+04  0.10342865257E+04  0.50400001928E-02 0.  1.
    10030    2    1    2    0    0  0.00000000000E+00  0.00000000000E+00 -0.91662258752E+03  0.11519504641E+04  0.69770545626E+03 0.  0.
        4    1    3    3  502    0 -0.12092326310E+03 -0.32522934876E+03 -0.51784205101E+03  0.62334466192E+03  0.12699999809E+01 0. -1.
       -4    1    3    3    0  502  0.12092326310E+03  0.32522934876E+03 -0.39878053651E+03  0.52860580214E+03  0.12699999809E+01 0.  1.
</event>
<event>
 5   0  0.1884172E-02  0.7099205E+03  0.7818609E-02  0.9700416E-01
       -1   -1    0    0    0  501  0.00000000000E+00  0.00000000000E+00  0.18384003953E+03  0.18384003960E+03  0.50400001928E-02 0. -1.
        1   -1    0    0  501    0  0.00000000000E+00  0.00000000000E+00 -0.68536089335E+03  0.68536089337E+03  0.50400001928E-02 0.  1.
    10030    2    1    2    0    0  0.00000000000E+00  0.00000000000E+00 -0.50152085382E+03  0.86920093297E+03  0.70992048502E+03 0.  0.
        3    1    3    3  502    0  0.11791628787E+03 -0.19935940973E+02 -0.65995275234E+03  0.67070063233E+03  0.10100000352E+00 0.  1.
       -3    1    3    3    0  502 -0.11791628787E+03  0.19935940973E+02  0.15843189851E+03  0.19850030064E+03  0.10100000352E+00 0. -1.
</event>
<event>
 5   0  0.1233912E-02  0.7003940E+03  0.7818609E-02  0.9716559E-01
       -3   -1    0    0    0  501  0.00000000000E+00  0.00000000000E+00  0.17155665624E+03  0.17155668597E+03  0.10100000352E+00 0. -1.
        3   -1    0    0  501    0  0.00000000000E+00  0.00000000000E+00 -0.71485368458E+03  0.71485369172E+03  0.10100000352E+00 0.  1.
    10030    2    1    2    0    0  0.00000000000E+00  0.00000000000E+00 -0.54329702834E+03  0.88641037769E+03  0.70039395819E+03 0.  0.
        1    1    3    3  502    0  0.20609242858E+03  0.10301240825E+03 -0.60541914736E+03  0.64777927521E+03  0.50400001928E-02 0.  1.
       -1    1    3    3    0  502 -0.20609242858E+03 -0.10301240825E+03  0.62122119022E+02  0.23863110248E+03  0.50400001928E-02 0. -1.
</event>
<event>
 5   0  0.1858013E-02  0.6605732E+03  0.7818609E-02  0.9787139E-01
        1   -1    0    0  501    0  0.00000000000E+00  0.00000000000E+00  0.59676222073E+03  0.59676222076E+03  0.50400001928E-02 0.  1.
       -1   -1    0    0    0  501  0.00000000000E+00  0.00000000000E+00 -0.18280186233E+03  0.18280186240E+03  0.50400001928E-02 0. -1.
    10030    2    1    2    0    0  0.00000000000E+00  0.00000000000E+00  0.41396035840E+03  0.77956408316E+03  0.66057322185E+03 0.  0.
        2    1    3    3  502    0  0.26165947062E+03  0.68493617265E+01  0.44470195616E+03  0.51601591268E+03  0.25500000920E-02 0.  1.
       -2    1    3    3    0  502 -0.26165947062E+03 -0.68493617265E+01 -0.30741597761E+02  0.26354817048E+03  0.25500000920E-02 0. -1.
</event>
<event>
 5   0  0.1233912E-02  0.6960204E+03  0.7818609E-02  0.9724062E-01
       -3   -1    0    0    0  501  0.00000000000E+00  0.00000000000E+00  0.60784359233E+03  0.60784360072E+03  0.10100000352E+00 0. -1.
        3   -1    0    0  501    0  0.00000000000E+00  0.00000000000E+00 -0.19924710724E+03  0.19924713284E+03  0.10100000352E+00 0.  1.
    10030    2    1    2    0    0  0.00000000000E+00  0.00000000000E+00  0.40859648509E+03  0.80709073356E+03  0.69602037655E+03 0.  0.
        3    1    3    3  502    0  0.22240664856E+03 -0.23177099436E+03  0.49033363234E+02  0.32494121323E+03  0.10100000352E+00 0. -1.
       -3    1    3    3    0  502 -0.22240664856E+03  0.23177099436E+03  0.35956312186E+03  0.48214952032E+03  0.10100000352E+00 0.  1.
</event>
<event>
 5   0  0.3183963E-02  0.7076565E+03  0.7818609E-02  0.9704227E-01
        2   -1    0    0  501    0  0.00000000000E+00  0.00000000000E+00  0.11393029894E+04  0.11393029894E+04  0.25500000920E-02 0.  1.
       -2   -1    0    0    0  501  0.00000000000E+00  0.00000000000E+00 -0.10988685132E+03  0.10988685135E+03  0.25500000920E-02 0. -1.
    10030    2    1    2    0    0  0.00000000000E+00  0.00000000000E+00  0.10294161381E+04  0.12491898408E+04  0.70765646533E+03 0.  0.
        4    1    3    3  502    0  0.27465924284E+03 -0.15488373867E+02  0.12190461014E+03  0.30089854814E+03  0.12699999809E+01 0. -1.
       -4    1    3    3    0  502 -0.27465924284E+03  0.15488373867E+02  0.90751152799E+03  0.94829129266E+03  0.12699999809E+01 0.  1.
</event>
<event>
 5   0  0.1969818E-02  0.7092764E+03  0.7818609E-02  0.9701499E-01
       -1   -1    0    0    0  501  0.00000000000E+00  0.00000000000E+00  0.46844166110E+02  0.46844166381E+02  0.50400001928E-02 0. -1.
        1   -1    0    0  501    0  0.00000000000E+00  0.00000000000E+00 -0.26848219919E+04  0.26848219919E+04  0.50400001928E-02 0.  1.
    10030    2    1    2    0    0  0.00000000000E+00  0.00000000000E+00 -0.26379778258E+04  0.27316661583E+04  0.70927638546E+03 0.  0.
        1    1    3    3  502    0 -0.94327659944E+02 -0.33619393970E+03 -0.15577775779E+04  0.15964319762E+04  0.50400001928E-02 0.  1.
       -1    1    3    3    0  502  0.94327659944E+02  0.33619393970E+03 -0.10802002479E+04  0.11352341821E+04  0.50400001928E-02 0. -1.
</event>
<event>
 5   0  0.1884172E-02  0.6899039E+03  0.7818609E-02  0.9734655E-01
       -1   -1    0    0    0  501  0.00000000000E+00  0.00000000000E+00  0.66943852536E+03  0.66943852538E+03  0.50400001928E-02 0.  1.
        1   -1    0    0  501    0  0.00000000000E+00  0.00000000000E+00 -0.17774871094E+03  0.17774871101E+03  0.50400001928E-02 0. -1.
    10030    2    1    2    0    0  0.00000000000E+00  0.00000000000E+00  0.49168981442E+03  0.84718723639E+03  0.68990386280E+03 0.  0.
        3    1    3    3  502    0 -0.16671368544E+03 -0.18800700940E+03 -0.44362950235E+02  0.25516302642E+03  0.10100000352E+00 0. -1.
       -3    1    3    3    0  502  0.16671368544E+03  0.18800700940E+03  0.53605276465E+03  0.59202420997E+03  0.10100000352E+00 0.  1.
</event>
<event>
 5   0  0.2933851E-02  0.7002443E+03  0.7818609E-02  0.9716814E-01
        2   -1    0    0  501    0  0.00000000000E+00  0.00000000000E+00  0.52720644195E+03  0.52720644196E+03  0.25500000920E-02 0.  1.
       -2   -1    0    0    0  501  0.00000000000E+00  0.00000000000E+00 -0.23251901666E+03  0.23251901667E+03  0.25500000920E-02 0. -1.
    10030    2    1    2    0    0  0.00000000000E+00  0.00000000000E+00  0.29468742530E+03  0.75972545863E+03  0.70024431012E+03 0.  0.
        2    1    3    3  502    0 -0.10361424861E+03 -0.62043237234E+02  0.50389291323E+03  0.51816343349E+03  0.25500000920E-02 0.  1.
       -2    1    3    3    0  502  0.10361424861E+03  0.62043237234E+02 -0.20920548793E+03  0.24156202514E+03  0.25500000920E-02 0. -1.
</event>
<event>
 5   0  0.3183963E-02  0.6990155E+03  0.7818609E-02  0.9718917E-01
       -2   -1    0    0    0  501  0.00000000000E+00  0.00000000000E+00  0.14814391177E+03  0.14814391179E+03  0.25500000920E-02 0.  1.
        2   -1    0    0  501    0  0.00000000000E+00  0.00000000000E+00 -0.82457421978E+03  0.82457421978E+03  0.25500000920E-02 0. -1.
    10030    2    1    2    0    0  0.00000000000E+00  0.00000000000E+00 -0.67643030801E+03  0.97271813158E+03  0.69901545183E+03 0.  0.
        4    1    3    3  502    0  0.13082350555E+02  0.87118866255E+02 -0.80886760656E+03  0.81365180673E+03  0.12699999809E+01 0. -1.
       -4    1    3    3    0  502 -0.13082350555E+02 -0.87118866255E+02  0.13243729855E+03  0.15906632485E+03  0.12699999809E+01 0.  1.
</event>
<event>
 5   0  0.1839038E-02  0.6956597E+03  0.7818609E-02  0.9724684E-01
       -1   -1    0    0    0  501  0.00000000000E+00  0.00000000000E+00  0.19358464392E+03  0.19358464399E+03  0.50400001928E-02 0.  1.
        1   -1    0    0  501    0  0.00000000000E+00  0.00000000000E+00 -0.62497525895E+03  0.62497525897E+03  0.50400001928E-02 0. -1.
    10030    2    1    2    0    0  0.00000000000E+00  0.00000000000E+00 -0.43139061503E+03  0.81855990296E+03  0.69565972429E+03 0.  0.
        5    1    3    3  502    0  0.15650639430E+03  0.27787852937E+03 -0.37896308990E+03  0.49532397685E+03  0.46999998093E+01 0. -1.
       -5    1    3    3    0  502 -0.15650639430E+03 -0.27787852937E+03 -0.52427525125E+02  0.32323592611E+03  0.46999998093E+01 0.  1.
</event>
<event>
 5   0  0.3183963E-02  0.7032719E+03  0.7818609E-02  0.9711653E-01
       -2   -1    0    0    0  501  0.00000000000E+00  0.00000000000E+00  0.35848917084E+03  0.35848917085E+03  0.25500000920E-02 0.  1.
        2   -1    0    0  501    0  0.00000000000E+00  0.00000000000E+00 -0.34491378129E+03  0.34491378130E+03  0.25500000920E-02 0. -1.
    10030    2    1    2    0    0  0.00000000000E+00  0.00000000000E+00  0.13575389544E+02  0.70340295215E+03  0.70327194022E+03 0.  0.
        4    1    3    3  502    0 -0.18656563099E+02 -0.23779875436E+03  0.26519589809E+03  0.35668864881E+03  0.12699999809E+01 0.  1.
       -4    1    3    3    0  502  0.18656563099E+02  0.23779875436E+03 -0.25162050855E+03  0.34671430335E+03  0.12699999809E+01 0. -1.
</event>
<event>
 5   0  0.1858013E-02  0.7040752E+03  0.7818609E-02  0.9710288E-01
       -1   -1    0    0    0  501  0.00000000000E+00  0.00000000000E+00  0.11990726588E+03  0.11990726599E+03  0.50400001928E-02 0. -1.
        1   -1    0    0  501    0  0.00000000000E+00  0.00000000000E+00 -0.10335525527E+04  0.10335525527E+04  0.50400001928E-02 0.  1.
    10030    2    1    2    0    0  0.00000000000E+00  0.00000000000E+00 -0.91364528684E+03  0.11534598187E+04  0.70407516875E+03 0.  0.
        2    1    3    3  502    0 -0.83377197607E+02 -0.21168933167E+03 -0.16723266130E+02  0.22813109797E+03  0.25500000920E-02 0. -1.
       -2    1    3    3    0  502  0.83377197607E+02  0.21168933167E+03 -0.89692202071E+03  0.92532872076E+03  0.25500000920E-02 0.  1.
</event>
<event>
 5   0  0.3113940E-02  0.7011162E+03  0.7818609E-02  0.9715325E-01
        2   -1    0    0  501    0  0.00000000000E+00  0.00000000000E+00  0.28937296058E+03  0.28937296059E+03  0.25500000920E-02 0. -1.
       -2   -1    0    0    0  501  0.00000000000E+00  0.00000000000E+00 -0.42468030153E+03  0.42468030154E+03  0.25500000920E-02 0.  1.
    10030    2    1    2    0    0  0.00000000000E+00  0.00000000000E+00 -0.13530734096E+03  0.71405326213E+03  0.70111624189E+03 0.  0.
        5    1    3    3  502    0  0.53516729550E+02  0.34458519203E+03 -0.10388983387E+03  0.36389309212E+03  0.46999998093E+01 0.  1.
       -5    1    3    3    0  502 -0.53516729550E+02 -0.34458519203E+03 -0.31417507087E+02  0.35016017001E+03  0.46999998093E+01 0. -1.
</event>
<event>
 5   0  0.1858013E-02  0.7040364E+03  0.7818609E-02  0.9710354E-01
        1   -1    0    0  501    0  0.00000000000E+00  0.00000000000E+00  0.34520160643E+03  0.34520160647E+03  0.50400001928E-02 0. -1.
       -1   -1    0    0    0  501  0.00000000000E+00  0.00000000000E+00 -0.35896935655E+03  0.35896935658E+03  0.50400001928E-02 0.  1.
    10030    2    1    2    0    0  0.00000000000E+00  0.00000000000E+00 -0.13767750115E+02  0.70417096305E+03  0.70403635862E+03 0.  0.
        2    1    3    3  502    0  0.33120305697E+03 -0.11737945384E+03 -0.27944905180E+02  0.35249726079E+03  0.25500000920E-02 0. -1.
       -2    1    3    3    0  502 -0.33120305697E+03  0.11737945384E+03  0.14177155065E+02  0.35167370226E+03  0.25500000920E-02 0.  1.
</event>
<event>
 5   0  0.3184443E-02  0.7068507E+03  0.7818609E-02  0.9705588E-01
       -2   -1    0    0    0  501  0.00000000000E+00  0.00000000000E+00  0.75534033187E+02  0.75534033230E+02  0.25500000920E-02 0. -1.
        2   -1    0    0  501    0  0.00000000000E+00  0.00000000000E+00 -0.16536849344E+04  0.16536849344E+04  0.25500000920E-02 0.  1.
    10030    2    1    2    0    0  0.00000000000E+00  0.00000000000E+00 -0.15781509012E+04  0.17292189676E+04  0.70685074169E+03 0.  0.
        3    1    3    3  502    0  0.11019780931E+03  0.28644088194E+03 -0.12178367072E+04  0.12559132898E+04  0.10100000352E+00 0.  1.
       -3    1    3    3    0  502 -0.11019780931E+03 -0.28644088194E+03 -0.36031419406E+03  0.47330567783E+03  0.10100000352E+00 0. -1.
</event>
<event>
 5   0  0.1233912E-02  0.7024251E+03  0.7818609E-02  0.9713094E-01
       -4   -1    0    0    0  501  0.00000000000E+00  0.00000000000E+00  0.47656422318E+03  0.47656591539E+03  0.12699999809E+01 0.  1.
        4   -1    0    0  501    0  0.00000000000E+00  0.00000000000E+00 -0.25882865459E+03  0.25883177033E+03  0.12699999809E+01 0. -1.
    10030    2    1    2    0    0  0.00000000000E+00  0.00000000000E+00  0.21773556859E+03  0.73539768573E+03  0.70242506956E+03 0.  0.
        1    1    3    3  502    0  0.32499969793E+03 -0.97514076548E+02  0.13968212578E+02  0.33960110390E+03  0.50400001928E-02 0. -1.
       -1    1    3    3    0  502 -0.32499969793E+03  0.97514076548E+02  0.20376735601E+03  0.39579658182E+03  0.50400001928E-02 0.  1.
</event>
<event>
 5   0  0.2933851E-02  0.6945693E+03  0.7818609E-02  0.9726565E-01
        2   -1    0    0  501    0  0.00000000000E+00  0.00000000000E+00  0.62387256589E+03  0.62387256590E+03  0.25500000920E-02 0. -1.
       -2   -1    0    0    0  501  0.00000000000E+00  0.00000000000E+00 -0.19331935649E+03  0.19331935651E+03  0.25500000920E-02 0.  1.
    10030    2    1    2    0    0  0.00000000000E+00  0.00000000000E+00  0.43055320940E+03  0.81719192240E+03  0.69456934277E+03 0.  0.
        2    1    3    3  502    0 -0.31931067619E+03  0.13645581586E+03  0.20914666428E+03  0.40536628473E+03  0.25500000920E-02 0. -1.
       -2    1    3    3    0  502  0.31931067619E+03 -0.13645581586E+03  0.22140654513E+03  0.41182563767E+03  0.25500000920E-02 0.  1.
</event>
<event>
 5   0  0.1233912E-02  0.7041903E+03  0.7818609E-02  0.9710093E-01
        3   -1    0    0  501    0  0.00000000000E+00  0.00000000000E+00  0.20833186540E+04  0.20833186564E+04  0.10100000352E+00 0.  1.
       -3   -1    0    0    0  501  0.00000000000E+00  0.00000000000E+00 -0.59506452153E+02  0.59506537866E+02  0.10100000352E+00 0. -1.
    10030    2    1    2    0    0  0.00000000000E+00  0.00000000000E+00  0.20238122018E+04  0.21428251943E+04  0.70419030456E+03 0.  0.
        2    1    3    3  502    0 -0.22739203044E+02  0.34932854886E+03  0.11267145605E+04  0.11798445691E+04  0.25500000920E-02 0.  1.
       -2    1    3    3    0  502  0.22739203044E+02 -0.34932854886E+03  0.89709764126E+03  0.96298062512E+03  0.25500000920E-02 0. -1.
</event>
<event>
 5   0  0.3183963E-02  0.7038906E+03  0.7818609E-02  0.9710602E-01
       -2   -1    0    0    0  501  0.00000000000E+00  0.00000000000E+00  0.67176085831E+02  0.67176085879E+02  0.25500000920E-02 0.  1.
        2   -1    0    0  501    0  0.00000000000E+00  0.00000000000E+00 -0.18438927701E+04  0.18438927701E+04  0.25500000920E-02 0. -1.
    10030    2    1    2    0    0  0.00000000000E+00  0.00000000000E+00 -0.17767166842E+04  0.19110688559E+04  0.70389061376E+03 0.  0.
        4    1    3    3  502    0  0.18336147541E+03  0.16157686416E+03 -0.15759331743E+04  0.15947712991E+04  0.12699999809E+01 0. -1.
       -4    1    3    3    0  502 -0.18336147541E+03 -0.16157686416E+03 -0.20078350991E+03  0.31629755682E+03  0.12699999809E+01 0.  1.
</event>
<event>
 5   0  0.3113940E-02  0.7080694E+03  0.7818609E-02  0.9703531E-01
        2   -1    0    0  501    0  0.00000000000E+00  0.00000000000E+00  0.29053159428E+03  0.29053159429E+03  0.25500000920E-02 0.  1.
       -2   -1    0    0    0  501  0.00000000000E+00  0.00000000000E+00 -0.43141804380E+03  0.43141804381E+03  0.25500000920E-02 0. -1.
    10030    2    1    2    0    0  0.00000000000E+00  0.00000000000E+00 -0.14088644953E+03  0.72194963810E+03  0.70806940923E+03 0.  0.
        5    1    3    3  502    0  0.24736104011E+03 -0.80502496951E+02  0.17436839636E+03  0.31320051696E+03  0.46999998093E+01 0.  1.
       -5    1    3    3    0  502 -0.24736104011E+03  0.80502496951E+02 -0.31525484588E+03  0.40874912114E+03  0.46999998093E+01 0. -1.
</event>
<event>
 5   0  0.1951465E-02  0.6645213E+03  0.7818609E-02  0.9779906E-01
       -1   -1    0    0    0  501  0.00000000000E+00  0.00000000000E+00  0.56891683197E+03  0.56891683199E+03  0.50400001928E-02 0.  1.
        1   -1    0    0  501    0  0.00000000000E+00  0.00000000000E+00 -0.19404796032E+03  0.19404796039E+03  0.50400001928E-02 0. -1.
    10030    2    1    2    0    0  0.00000000000E+00  0.00000000000E+00  0.37486887165E+03  0.76296479238E+03  0.66452133410E+03 0.  0.
        4    1    3    3  502    0  0.17067618762E+03 -0.72245204426E+02  0.50405069023E+03  0.53704603323E+03  0.12699999809E+01 0.  1.
       -4    1    3    3    0  502 -0.17067618762E+03  0.72245204426E+02 -0.12918181859E+03  0.22591875915E+03  0.12699999809E+01 0. -1.
</event>
<event>
 5   0  0.1233912E-02  0.7055268E+03  0.7818609E-02  0.9707827E-01
        4   -1    0    0  501    0  0.00000000000E+00  0.00000000000E+00  0.51570354114E+03  0.51570510493E+03  0.12699999809E+01 0. -1.
       -4   -1    0    0    0  501  0.00000000000E+00  0.00000000000E+00 -0.24130176163E+03  0.24130510368E+03  0.12699999809E+01 0.  1.
    10030    2    1    2    0    0  0.00000000000E+00  0.00000000000E+00  0.27440177952E+03  0.75701020861E+03  0.70552683814E+03 0.  0.
        3    1    3    3  502    0  0.30015766972E+03  0.10532186044E+03  0.30082358995E+03  0.43781521610E+03  0.10100000352E+00 0.  1.
       -3    1    3    3    0  502 -0.30015766972E+03 -0.10532186044E+03 -0.26421810434E+02  0.31919499251E+03  0.10100000352E+00 0. -1.
</event>
<event>
 5   0  0.3113940E-02  0.7094653E+03  0.7818609E-02  0.9701181E-01
        2   -1    0    0  501    0  0.00000000000E+00  0.00000000000E+00  0.16844545919E+04  0.16844545919E+04  0.25500000920E-02 0.  1.
       -2   -1    0    0    0  501  0.00000000000E+00  0.00000000000E+00 -0.74703857729E+02  0.74703857772E+02  0.25500000920E-02 0. -1.
    10030    2    1    2    0    0  0.00000000000E+00  0.00000000000E+00  0.16097507342E+04  0.17591584497E+04  0.70946530915E+03 0.  0.
        5    1    3    3  502    0  0.57875934181E+02  0.22000552383E+03  0.14796657870E+04  0.14970587783E+04  0.46999998093E+01 0.  1.
       -5    1    3    3    0  502 -0.57875934181E+02 -0.22000552383E+03  0.13008494711E+03  0.26209967138E+03  0.46999998093E+01 0. -1.
</event>
<event>
 5   0  0.1884172E-02  0.6998407E+03  0.7818609E-02  0.9717505E-01
        1   -1    0    0  501    0  0.00000000000E+00  0.00000000000E+00  0.14820523429E+04  0.14820523429E+04  0.50400001928E-02 0. -1.
       -1   -1    0    0    0  501  0.00000000000E+00  0.00000000000E+00 -0.82618030308E+02  0.82618030462E+02  0.50400001928E-02 0.  1.
    10030    2    1    2    0    0  0.00000000000E+00  0.00000000000E+00  0.13994343126E+04  0.15646703733E+04  0.69984068332E+03 0.  0.
        3    1    3    3  502    0  0.42025457497E+02  0.21754996902E+03  0.94203349255E+02  0.24076629605E+03  0.10100000352E+00 0.  1.
       -3    1    3    3    0  502 -0.42025457497E+02 -0.21754996902E+03  0.13052309633E+04  0.13239040773E+04  0.10100000352E+00 0. -1.
</event>
<event>
 5   0  0.3290656E-02  0.7046414E+03  0.7818609E-02  0.9709328E-01
       -2   -1    0    0    0  501  0.00000000000E+00  0.00000000000E+00  0.68477531436E+03  0.68477531437E+03  0.25500000920E-02 0. -1.
        2   -1    0    0  501    0  0.00000000000E+00  0.00000000000E+00 -0.18127096129E+03  0.18127096130E+03  0.25500000920E-02 0.  1.
    10030    2    1    2    0    0  0.00000000000E+00  0.00000000000E+00  0.50350435308E+03  0.86604627567E+03  0.70464141096E+03 0.  0.
        1    1    3    3  502    0  0.19967477316E+02 -0.34285060328E+03  0.34840849725E+03  0.48921745400E+03  0.50400001928E-02 0.  1.
       -1    1    3    3    0  502 -0.19967477316E+02  0.34285060328E+03  0.15509585583E+03  0.37682882167E+03  0.50400001928E-02 0. -1.
</event>
<event>
 5   0  0.1969818E-02  0.7003720E+03  0.7818609E-02  0.9716596E-01
        1   -1    0    0  501    0  0.00000000000E+00  0.00000000000E+00  0.13532070914E+04  0.13532070914E+04  0.50400001928E-02 0. -1.
       -1   -1    0    0    0  501  0.00000000000E+00  0.00000000000E+00 -0.90621926403E+02  0.90621926543E+02  0.50400001928E-02 0.  1.
    10030    2    1    2    0    0  0.00000000000E+00  0.00000000000E+00  0.12625851650E+04  0.14438290180E+04  0.70037199703E+03 0.  0.
        1    1    3    3  502    0 -0.87434156798E+02 -0.29756011001E+03  0.96652523926E+03  0.10150654112E+04  0.50400001928E-02 0. -1.
       -1    1    3    3    0  502  0.87434156798E+02  0.29756011001E+03  0.29605992578E+03  0.42876360680E+03  0.50400001928E-02 0.  1.
</event>
<event>
 5   0  0.3290656E-02  0.7009263E+03  0.7818609E-02  0.9715649E-01
       -2   -1    0    0    0  501  0.00000000000E+00  0.00000000000E+00  0.20206558446E+03  0.20206558448E+03  0.25500000920E-02 0.  1.
        2   -1    0    0  501    0  0.00000000000E+00  0.00000000000E+00 -0.60784435882E+03  0.60784435883E+03  0.25500000920E-02 0. -1.
    10030    2    1    2    0    0  0.00000000000E+00  0.00000000000E+00 -0.40577877436E+03  0.80990994331E+03  0.70092631749E+03 0.  0.
        1    1    3    3  502    0  0.20778569226E+03 -0.14820468239E+03 -0.48041013088E+03  0.54399762469E+03  0.50400001928E-02 0. -1.
       -1    1    3    3    0  502 -0.20778569226E+03  0.14820468239E+03  0.74631356522E+02  0.26591231862E+03  0.50400001928E-02 0.  1.
</event>
<event>
 5   0  0.3290656E-02  0.7089041E+03  0.7818609E-02  0.9702125E-01
        2   -1    0    0  501    0  0.00000000000E+00  0.00000000000E+00  0.59520680524E+03  0.59520680524E+03  0.25500000920E-02 0.  1.
       -2   -1    0    0    0  501  0.00000000000E+00  0.00000000000E+00 -0.21108002364E+03  0.21108002365E+03  0.25500000920E-02 0. -1.
    10030    2    1    2    0    0  0.00000000000E+00  0.00000000000E+00  0.38412678160E+03  0.80628682889E+03  0.70890413040E+03 0.  0.
        1    1    3    3  502    0 -0.19269035561E+03  0.18227265484E+03 -0.75359958461E+02  0.27573903824E+03  0.50400001928E-02 0. -1.
       -1    1    3    3    0  502  0.19269035561E+03 -0.18227265484E+03  0.45948674006E+03  0.53054779065E+03  0.50400001928E-02 0.  1.
</event>
<event>
 5   0  0.3113940E-02  0.7057098E+03  0.7818609E-02  0.9707517E-01
        2   -1    0    0  501    0  0.00000000000E+00  0.00000000000E+00  0.98710321892E+03  0.98710321893E+03  0.25500000920E-02 0. -1.
       -2   -1    0    0    0  501  0.00000000000E+00  0.00000000000E+00 -0.12613331137E+03  0.12613331140E+03  0.25500000920E-02 0.  1.
    10030    2    1    2    0    0  0.00000000000E+00  0.00000000000E+00  0.86096990755E+03  0.11132365303E+04  0.70570984884E+03 0.  0.
        5    1    3    3  502    0  0.20721030618E+03  0.26315884371E+03  0.25556473441E+03  0.42133610275E+03  0.46999998093E+01 0.  1.
       -5    1    3    3    0  502 -0.20721030618E+03 -0.26315884371E+03  0.60540517314E+03  0.69190042757E+03  0.46999998093E+01 0. -1.
</event>
<event>
 5   0  0.3184443E-02  0.6954185E+03  0.7818609E-02  0.9725099E-01
        2   -1    0    0  501    0  0.00000000000E+00  0.00000000000E+00  0.14605347942E+04  0.14605347942E+04  0.25500000920E-02 0.  1.
       -2   -1    0    0    0  501  0.00000000000E+00  0.00000000000E+00 -0.82779077105E+02  0.82779077144E+02  0.25500000920E-02 0. -1.
    10030    2    1    2    0    0  0.00000000000E+00  0.00000000000E+00  0.13777557171E+04  0.15433138713E+04  0.69541849954E+03 0.  0.
        3    1    3    3  502    0 -0.67536728216E+02  0.16140190458E+03  0.22028599879E+02  0.17634356771E+03  0.10100000352E+00 0. -1.
       -3    1    3    3    0  502  0.67536728216E+02 -0.16140190458E+03  0.13557271172E+04  0.13669703036E+04  0.10100000352E+00 0.  1.
</event>
<event>
 5   0  0.1858013E-02  0.7015494E+03  0.7818609E-02  0.9714586E-01
        1   -1    0    0  501    0  0.00000000000E+00  0.00000000000E+00  0.93510422969E+03  0.93510422970E+03  0.50400001928E-02 0.  1.
       -1   -1    0    0    0  501  0.00000000000E+00  0.00000000000E+00 -0.13158202196E+03  0.13158202206E+03  0.50400001928E-02 0. -1.
    10030    2    1    2    0    0  0.00000000000E+00  0.00000000000E+00  0.80352220773E+03  0.10666862518E+04  0.70154944329E+03 0.  0.
        2    1    3    3  502    0 -0.37636684044E+02  0.16524992075E+03 -0.65196723389E+02  0.18158928669E+03  0.25500000920E-02 0. -1.
       -2    1    3    3    0  502  0.37636684044E+02 -0.16524992075E+03  0.86871893112E+03  0.88509696507E+03  0.25500000920E-02 0.  1.
</event>
<event>
 5   0  0.1884172E-02  0.7004800E+03  0.7818609E-02  0.9716412E-01
       -1   -1    0    0    0  501  0.00000000000E+00  0.00000000000E+00  0.30621825718E+03  0.30621825722E+03  0.50400001928E-02 0. -1.
        1   -1    0    0  501    0  0.00000000000E+00  0.00000000000E+00 -0.40059025600E+03  0.40059025603E+03  0.50400001928E-02 0.  1.
    10030    2    1    2    0    0  0.00000000000E+00  0.00000000000E+00 -0.94371998828E+02  0.70680851325E+03  0.70047997847E+03 0.  0.
        3    1    3    3  502    0  0.26238891434E+03 -0.61933714571E+02 -0.27277759020E+03  0.38352490308E+03  0.10100000352E+00 0.  1.
       -3    1    3    3    0  502 -0.26238891434E+03  0.61933714571E+02  0.17840559137E+03  0.32328361017E+03  0.10100000352E+00 0. -1.
</event>
<event>
 5   0  0.1233912E-02  0.6968197E+03  0.7818609E-02  0.9722686E-01
        3   -1    0    0  501    0  0.00000000000E+00  0.00000000000E+00  0.20642118192E+03  0.20642120662E+03  0.10100000352E+00 0.  1.
       -3   -1    0    0    0  501  0.00000000000E+00  0.00000000000E+00 -0.58806658417E+03  0.58806659284E+03  0.10100000352E+00 0. -1.
    10030    2    1    2    0    0  0.00000000000E+00  0.00000000000E+00 -0.38164540225E+03  0.79448779947E+03  0.69681966852E+03 0.  0.
        4    1    3    3  502    0  0.15350608838E+03 -0.27983443213E+03 -0.31540823743E+02  0.32073020600E+03  0.12699999809E+01 0. -1.
       -4    1    3    3    0  502 -0.15350608838E+03  0.27983443213E+03 -0.35010457851E+03  0.47375759347E+03  0.12699999809E+01 0.  1.
</event>
<event>
 5   0  0.1233912E-02  0.7010954E+03  0.7818609E-02  0.9715361E-01
       -3   -1    0    0    0  501  0.00000000000E+00  0.00000000000E+00  0.87089796948E+03  0.87089797534E+03  0.10100000352E+00 0.  1.
        3   -1    0    0  501    0  0.00000000000E+00  0.00000000000E+00 -0.14109997060E+03  0.14110000675E+03  0.10100000352E+00 0. -1.
    10030    2    1    2    0    0  0.00000000000E+00  0.00000000000E+00  0.72979799888E+03  0.10119979821E+04  0.70109542616E+03 0.  0.
        3    1    3    3  502    0  0.18015647979E+03 -0.25734638006E+03  0.58944831862E+03  0.66793176827E+03  0.10100000352E+00 0.  1.
       -3    1    3    3    0  502 -0.18015647979E+03  0.25734638006E+03  0.14034968026E+03  0.34406621382E+03  0.10100000352E+00 0. -1.
</event>
<event>
 5   0  0.1858013E-02  0.7022849E+03  0.7818609E-02  0.9713333E-01
        1   -1    0    0  501    0  0.00000000000E+00  0.00000000000E+00  0.45529489637E+03  0.45529489640E+03  0.50400001928E-02 0. -1.
       -1   -1    0    0    0  501  0.00000000000E+00  0.00000000000E+00 -0.27081572652E+03  0.27081572657E+03  0.50400001928E-02 0.  1.
    10030    2    1    2    0    0  0.00000000000E+00  0.00000000000E+00  0.18447916985E+03  0.72611062297E+03  0.70228489424E+03 0.  0.
        2    1    3    3  502    0 -0.11471263342E+03  0.70906733914E+02  0.42745215234E+03  0.44822103445E+03  0.25500000920E-02 0. -1.
       -2    1    3    3    0  502  0.11471263342E+03 -0.70906733914E+02 -0.24297298249E+03  0.27788958851E+03  0.25500000920E-02 0.  1.
</event>
<event>
 5   0  0.1969818E-02  0.6735143E+03  0.7818609E-02  0.9763630E-01
        1   -1    0    0  501    0  0.00000000000E+00  0.00000000000E+00  0.31856761006E+03  0.31856761010E+03  0.50400001928E-02 0.  1.
       -1   -1    0    0    0  501  0.00000000000E+00  0.00000000000E+00 -0.35598530780E+03  0.35598530784E+03  0.50400001928E-02 0. -1.
    10030    2    1    2    0    0  0.00000000000E+00  0.00000000000E+00 -0.37417697749E+02  0.67455291794E+03  0.67351433169E+03 0.  0.
        1    1    3    3  502    0  0.97048576051E+02 -0.32477499632E+02 -0.34003402765E+03  0.35510048448E+03  0.50400001928E-02 0. -1.
       -1    1    3    3    0  502 -0.97048576051E+02  0.32477499632E+02  0.30261632990E+03  0.31945243346E+03  0.50400001928E-02 0.  1.
</event>
<event>
 5   0  0.3183963E-02  0.6939762E+03  0.7818609E-02  0.9727589E-01
        2   -1    0    0  501    0  0.00000000000E+00  0.00000000000E+00  0.32807906462E+03  0.32807906463E+03  0.25500000920E-02 0. -1.
       -2   -1    0    0    0  501  0.00000000000E+00  0.00000000000E+00 -0.36698699609E+03  0.36698699610E+03  0.25500000920E-02 0.  1.
    10030    2    1    2    0    0  0.00000000000E+00  0.00000000000E+00 -0.38907931469E+02  0.69506606073E+03  0.69397622556E+03 0.  0.
        4    1    3    3  502    0  0.28813305867E+03  0.19324988583E+03 -0.25204030598E+02  0.34785490355E+03  0.12699999809E+01 0.  1.
       -4    1    3    3    0  502 -0.28813305867E+03 -0.19324988583E+03 -0.13703900871E+02  0.34721115718E+03  0.12699999809E+01 0. -1.
</event>
<event>
 5   0  0.1884172E-02  0.7068537E+03  0.7818609E-02  0.9705583E-01
       -1   -1    0    0    0  501  0.00000000000E+00  0.00000000000E+00  0.72203038136E+02  0.72203038312E+02  0.50400001928E-02 0. -1.
        1   -1    0    0  501    0  0.00000000000E+00  0.00000000000E+00 -0.17299899418E+04  0.17299899418E+04  0.50400001928E-02 0.  1.
    10030    2    1    2    0    0  0.00000000000E+00  0.00000000000E+00 -0.16577869036E+04  0.18021929801E+04  0.70685367625E+03 0.  0.
        3    1    3    3  502    0  0.34547566746E+03 -0.20013240839E+02 -0.64580897666E+03  0.73268220338E+03  0.10100000352E+00 0. -1.
       -3    1    3    3    0  502 -0.34547566746E+03  0.20013240839E+02 -0.10119779270E+04  0.10695107767E+04  0.10100000352E+00 0.  1.
</event>
<event>
 5   0  0.2933851E-02  0.6987095E+03  0.7818609E-02  0.9719442E-01
        2   -1    0    0  501    0  0.00000000000E+00  0.00000000000E+00  0.64344079304E+03  0.64344079304E+03  0.25500000920E-02 0. -1.
       -2   -1    0    0    0  501  0.00000000000E+00  0.00000000000E+00 -0.18968136970E+03  0.18968136971E+03  0.25500000920E-02 0.  1.
    10030    2    1    2    0    0  0.00000000000E+00  0.00000000000E+00  0.45375942334E+03  0.83312216275E+03  0.69870947024E+03 0.  0.
        2    1    3    3  502    0  0.24008785225E+03 -0.44697354223E+02 -0.70995681422E+02  0.25432344968E+03  0.25500000920E-02 0.  1.
       -2    1    3    3    0  502 -0.24008785225E+03  0.44697354223E+02  0.52475510476E+03  0.57879871307E+03  0.25500000920E-02 0. -1.
</event>
<event>
 5   0  0.1839038E-02  0.6712852E+03  0.7818609E-02  0.9767639E-01
        1   -1    0    0  501    0  0.00000000000E+00  0.00000000000E+00  0.17766616810E+03  0.17766616817E+03  0.50400001928E-02 0. -1.
       -1   -1    0    0    0  501  0.00000000000E+00  0.00000000000E+00 -0.63408790932E+03  0.63408790934E+03  0.50400001928E-02 0.  1.
    10030    2    1    2    0    0  0.00000000000E+00  0.00000000000E+00 -0.45642174123E+03  0.81175407751E+03  0.67128524227E+03 0.  0.
        5    1    3    3  502    0 -0.25161428742E+03 -0.80602369390E+02 -0.47846322432E+03  0.54658543578E+03  0.46999998093E+01 0.  1.
       -5    1    3    3    0  502  0.25161428742E+03  0.80602369390E+02  0.22041483091E+02  0.26516864173E+03  0.46999998093E+01 0. -1.
</event>
<event>
 5   0  0.3183963E-02  0.7005891E+03  0.7818609E-02  0.9716225E-01
       -2   -1    0    0    0  501  0.00000000000E+00  0.00000000000E+00  0.11097639869E+03  0.11097639872E+03  0.25500000920E-02 0.  1.
        2   -1    0    0  501    0  0.00000000000E+00  0.00000000000E+00 -0.11056970042E+04  0.11056970042E+04  0.25500000920E-02 0. -1.
    10030    2    1    2    0    0  0.00000000000E+00  0.00000000000E+00 -0.99472060548E+03  0.12166734029E+04  0.70058909952E+03 0.  0.
        4    1    3    3  502    0  0.21499481079E+03  0.99044812018E+02 -0.94577767524E+03  0.97495111023E+03  0.12699999809E+01 0. -1.
       -4    1    3    3    0  502 -0.21499481079E+03 -0.99044812018E+02 -0.48942930237E+02  0.24172229267E+03  0.12699999809E+01 0.  1.
</event>
<event>
 5   0  0.3290656E-02  0.6845239E+03  0.7818609E-02  0.9744071E-01
        2   -1    0    0  501    0  0.00000000000E+00  0.00000000000E+00  0.15584700957E+04  0.15584700957E+04  0.25500000920E-02 0. -1.
       -2   -1    0    0    0  501  0.00000000000E+00  0.00000000000E+00 -0.75165533394E+02  0.75165533438E+02  0.25500000920E-02 0.  1.
    10030    2    1    2    0    0  0.00000000000E+00  0.00000000000E+00  0.14833045623E+04  0.16336356291E+04  0.68452388141E+03 0.  0.
        1    1    3    3  502    0  0.28800037513E+03  0.14910963049E+03  0.10027055159E+04  0.10538483048E+04  0.50400001928E-02 0. -1.
       -1    1    3    3    0  502 -0.28800037513E+03 -0.14910963049E+03  0.48059904639E+03  0.57978732428E+03  0.50400001928E-02 0.  1.
</event>
<event>
 5   0  0.3290656E-02  0.7054714E+03  0.7818609E-02  0.9707921E-01
       -2   -1    0    0    0  501  0.00000000000E+00  0.00000000000E+00  0.36451001553E+03  0.36451001554E+03  0.25500000920E-02 0. -1.
        2   -1    0    0  501    0  0.00000000000E+00  0.00000000000E+00 -0.34134168880E+03  0.34134168881E+03  0.25500000920E-02 0.  1.
    10030    2    1    2    0    0  0.00000000000E+00  0.00000000000E+00  0.23168326726E+02  0.70585170434E+03  0.70547137232E+03 0.  0.
        1    1    3    3  502    0 -0.70589278223E+02  0.11292355422E+03 -0.31522304985E+03  0.34219898668E+03  0.50400001928E-02 0.  1.
       -1    1    3    3    0  502  0.70589278223E+02 -0.11292355422E+03  0.33839137658E+03  0.36365271767E+03  0.50400001928E-02 0. -1.
</event>
<event>
 5   0  0.1951465E-02  0.6987518E+03  0.7818609E-02  0.9719369E-01
       -1   -1    0    0    0  501  0.00000000000E+00  0.00000000000E+00  0.27314958330E+03  0.27314958335E+03  0.50400001928E-02 0.  1.
        1   -1    0    0  501    0  0.00000000000E+00  0.00000000000E+00 -0.44687428830E+03  0.44687428833E+03  0.50400001928E-02 0. -1.
    10030    2    1    2    0    0  0.00000000000E+00  0.00000000000E+00 -0.17372470500E+03  0.72002387168E+03  0.69875181764E+03 0.  0.
        4    1    3    3  502    0  0.26229131230E+03  0.19612901999E+03  0.38490459547E+02  0.32976727153E+03  0.12699999809E+01 0.  1.
       -4    1    3    3    0  502 -0.26229131230E+03 -0.19612901999E+03 -0.21221516455E+03  0.39025660015E+03  0.12699999809E+01 0. -1.
</event>
<event>
 5   0  0.3183963E-02  0.6867433E+03  0.7818609E-02  0.9740175E-01
       -2   -1    0    0    0  501  0.00000000000E+00  0.00000000000E+00  0.10334559808E+03  0.10334559811E+03  0.25500000920E-02 0. -1.
        2   -1    0    0  501    0  0.00000000000E+00  0.00000000000E+00 -0.11408718188E+04  0.11408718188E+04  0.25500000920E-02 0.  1.
    10030    2    1    2    0    0  0.00000000000E+00  0.00000000000E+00 -0.10375262207E+04  0.12442174169E+04  0.68674327218E+03 0.  0.
        4    1    3    3  502    0 -0.13006598110E+02 -0.34295824034E+03 -0.49950878240E+03  0.60605293730E+03  0.12699999809E+01 0.  1.
       -4    1    3    3    0  502  0.13006598110E+02  0.34295824034E+03 -0.53801743831E+03  0.63816447962E+03  0.12699999809E+01 0. -1.
</event>
<event>
 5   0  0.3183963E-02  0.6855711E+03  0.7818609E-02  0.9742231E-01
        2   -1    0    0  501    0  0.00000000000E+00  0.00000000000E+00  0.12248620635E+04  0.12248620635E+04  0.25500000920E-02 0.  1.
       -2   -1    0    0    0  501  0.00000000000E+00  0.00000000000E+00 -0.95930759428E+02  0.95930759462E+02  0.25500000920E-02 0. -1.
    10030    2    1    2    0    0  0.00000000000E+00  0.00000000000E+00  0.11289313041E+04  0.13207928230E+04  0.68557114284E+03 0.  0.
        4    1    3    3  502    0  0.84481594022E+02 -0.31828708025E+03  0.74780812458E+03  0.81710611873E+03  0.12699999809E+01 0.  1.
       -4    1    3    3    0  502 -0.84481594022E+02  0.31828708025E+03  0.38112317952E+03  0.50368670426E+03  0.12699999809E+01 0. -1.
</event>
<event>
 5   0  0.1233912E-02  0.7144863E+03  0.7818609E-02  0.9692775E-01
        4   -1    0    0  501    0  0.00000000000E+00  0.00000000000E+00  0.57566677794E+03  0.57566817884E+03  0.12699999809E+01 0. -1.
       -4   -1    0    0    0  501  0.00000000000E+00  0.00000000000E+00 -0.22169186939E+03  0.22169550707E+03  0.12699999809E+01 0.  1.
    10030    2    1    2    0    0  0.00000000000E+00  0.00000000000E+00  0.35397490855E+03  0.79736368590E+03  0.71448625719E+03 0.  0.
        3    1    3    3  502    0 -0.16942125746E+03  0.59231833376E+02 -0.16772823186E+03  0.24565166910E+03  0.10100000352E+00 0.  1.
       -3    1    3    3    0  502  0.16942125746E+03 -0.59231833376E+02  0.52170314042E+03  0.55171201681E+03  0.10100000352E+00 0. -1.
</event>
<event>
 5   0  0.3290656E-02  0.7056897E+03  0.7818609E-02  0.9707551E-01
       -2   -1    0    0    0  501  0.00000000000E+00  0.00000000000E+00  0.34370968429E+03  0.34370968430E+03  0.25500000920E-02 0. -1.
        2   -1    0    0  501    0  0.00000000000E+00  0.00000000000E+00 -0.36222285289E+03  0.36222285290E+03  0.25500000920E-02 0.  1.
    10030    2    1    2    0    0  0.00000000000E+00  0.00000000000E+00 -0.18513168598E+02  0.70593253720E+03  0.70568974037E+03 0.  0.
        1    1    3    3  502    0 -0.28372906025E+02 -0.22794974648E+03 -0.27717963814E+03  0.35999258401E+03  0.50400001928E-02 0.  1.
       -1    1    3    3    0  502  0.28372906025E+02  0.22794974648E+03  0.25866646954E+03  0.34593995318E+03  0.50400001928E-02 0. -1.
</event>
<event>
 5   0  0.1839038E-02  0.7357272E+03  0.7818609E-02  0.9658012E-01
       -1   -1    0    0    0  501  0.00000000000E+00  0.00000000000E+00  0.16564154289E+03  0.16564154297E+03  0.50400001928E-02 0. -1.
        1   -1    0    0  501    0  0.00000000000E+00  0.00000000000E+00 -0.81696669477E+03  0.81696669479E+03  0.50400001928E-02 0.  1.
    10030    2    1    2    0    0  0.00000000000E+00  0.00000000000E+00 -0.65132515188E+03  0.98260823776E+03  0.73572718819E+03 0.  0.
        5    1    3    3  502    0  0.12368164221E+03  0.21324160888E+03  0.38953785431E+02  0.24961694608E+03  0.46999998093E+01 0. -1.
       -5    1    3    3    0  502 -0.12368164221E+03 -0.21324160888E+03 -0.69027893731E+03  0.73299129167E+03  0.46999998093E+01 0.  1.
</event>
<event>
 5   0  0.1839038E-02  0.7087801E+03  0.7818609E-02  0.9702334E-01
        1   -1    0    0  501    0  0.00000000000E+00  0.00000000000E+00  0.54922661002E+03  0.54922661004E+03  0.50400001928E-02 0. -1.
       -1   -1    0    0    0  501  0.00000000000E+00  0.00000000000E+00 -0.22867116987E+03  0.22867116993E+03  0.50400001928E-02 0.  1.
    10030    2    1    2    0    0  0.00000000000E+00  0.00000000000E+00  0.32055544015E+03  0.77789777997E+03  0.70878005465E+03 0.  0.
        5    1    3    3  502    0  0.69512188735E+02 -0.27856249100E+03 -0.67681484614E+02  0.29501165932E+03  0.46999998093E+01 0.  1.
       -5    1    3    3    0  502 -0.69512188735E+02  0.27856249100E+03  0.38823692476E+03  0.48288612065E+03  0.46999998093E+01 0. -1.
</event>
<event>
 5   0  0.1839038E-02  0.6498842E+03  0.7818609E-02  0.9806997E-01
       -1   -1    0    0    0  501  0.00000000000E+00  0.00000000000E+00  0.62054780875E+03  0.62054780877E+03  0.50400001928E-02 0.  1.
        1   -1    0    0  501    0  0.00000000000E+00  0.00000000000E+00 -0.17015184927E+03  0.17015184935E+03  0.50400001928E-02 0. -1.
    10030    2    1    2    0    0  0.00000000000E+00  0.00000000000E+00  0.45039595948E+03  0.79069965811E+03  0.64988416586E+03 0.  0.
        5    1    3    3  502    0  0.62729382754E+02  0.12718404585E+03  0.58086458535E+03  0.59794357049E+03  0.46999998093E+01 0.  1.
       -5    1    3    3    0  502 -0.62729382754E+02 -0.12718404585E+03 -0.13046862587E+03  0.19275608762E+03  0.46999998093E+01 0. -1.
</event>
<event>
 5   0  0.1858013E-02  0.6970251E+03  0.7818609E-02  0.9722333E-01
       -1   -1    0    0    0  501  0.00000000000E+00  0.00000000000E+00  0.11210865294E+03  0.11210865306E+03  0.50400001928E-02 0. -1.
        1   -1    0    0  501    0  0.00000000000E+00  0.00000000000E+00 -0.10834220222E+04  0.10834220223E+04  0.50400001928E-02 0.  1.
    10030    2    1    2    0    0  0.00000000000E+00  0.00000000000E+00 -0.97131336930E+03  0.11955306753E+04  0.69702505998E+03 0.  0.
        2    1    3    3  502    0 -0.18821632398E+03  0.27047899298E+03 -0.68028895315E+03  0.75589505227E+03  0.25500000920E-02 0. -1.
       -2    1    3    3    0  502  0.18821632398E+03 -0.27047899298E+03 -0.29102441615E+03  0.43963562305E+03  0.25500000920E-02 0.  1.
</event>
<event>
 5   0  0.3184443E-02  0.6906678E+03  0.7818609E-02  0.9733326E-01
       -2   -1    0    0    0  501  0.00000000000E+00  0.00000000000E+00  0.88370101512E+03  0.88370101513E+03  0.25500000920E-02 0.  1.
        2   -1    0    0  501    0  0.00000000000E+00  0.00000000000E+00 -0.13495006296E+03  0.13495006298E+03  0.25500000920E-02 0. -1.
    10030    2    1    2    0    0  0.00000000000E+00  0.00000000000E+00  0.74875095217E+03  0.10186510781E+04  0.69066781491E+03 0.  0.
        3    1    3    3  502    0  0.84978898880E+02 -0.31698180964E+03  0.53292742417E+03  0.62586782193E+03  0.10100000352E+00 0.  1.
       -3    1    3    3    0  502 -0.84978898880E+02  0.31698180964E+03  0.21582352800E+03  0.39278325618E+03  0.10100000352E+00 0. -1.
</event>
<event>
 5   0  0.3113940E-02  0.7016943E+03  0.7818609E-02  0.9714339E-01
        2   -1    0    0  501    0  0.00000000000E+00  0.00000000000E+00  0.21220125754E+03  0.21220125755E+03  0.25500000920E-02 0. -1.
       -2   -1    0    0    0  501  0.00000000000E+00  0.00000000000E+00 -0.58008002167E+03  0.58008002167E+03  0.25500000920E-02 0.  1.
    10030    2    1    2    0    0  0.00000000000E+00  0.00000000000E+00 -0.36787876413E+03  0.79228127923E+03  0.70169426413E+03 0.  0.
        5    1    3    3  502    0 -0.31885955182E+03 -0.93905112619E+02 -0.57288875443E+02  0.33733320206E+03  0.46999998093E+01 0.  1.
       -5    1    3    3    0  502  0.31885955182E+03  0.93905112619E+02 -0.31058988869E+03  0.45494807717E+03  0.46999998093E+01 0. -1.
</event>
<event>
 5   0  0.2933851E-02  0.7030927E+03  0.7818609E-02  0.9711958E-01
       -2   -1    0    0    0  501  0.00000000000E+00  0.00000000000E+00  0.85848820603E+02  0.85848820641E+02  0.25500000920E-02 0.  1.
        2   -1    0    0  501    0  0.00000000000E+00  0.00000000000E+00 -0.14395637372E+04  0.14395637372E+04  0.25500000920E-02 0. -1.
    10030    2    1    2    0    0  0.00000000000E+00  0.00000000000E+00 -0.13537149166E+04  0.15254125579E+04  0.70309273657E+03 0.  0.
        2    1    3    3  502    0 -0.20141898104E+03  0.58508678794E+02 -0.64775816521E+02  0.21951942472E+03  0.25500000920E-02 0.  1.
       -2    1    3    3    0  502  0.20141898104E+03 -0.58508678794E+02 -0.12889391001E+04  0.13058931331E+04  0.25500000920E-02 0. -1.
</event>
<event>
 5   0  0.1858013E-02  0.6983707E+03  0.7818609E-02  0.9720023E-01
        1   -1    0    0  501    0  0.00000000000E+00  0.00000000000E+00  0.68783010257E+02  0.68783010442E+02  0.50400001928E-02 0.  1.
       -1   -1    0    0    0  501  0.00000000000E+00  0.00000000000E+00 -0.17726822680E+04  0.17726822680E+04  0.50400001928E-02 0. -1.
    10030    2    1    2    0    0  0.00000000000E+00  0.00000000000E+00 -0.17038992578E+04  0.18414652785E+04  0.69837074051E+03 0.  0.
        2    1    3    3  502    0  0.16260076922E+03 -0.12384456382E+02 -0.16661112078E+04  0.16740725617E+04  0.25500000920E-02 0. -1.
       -2    1    3    3    0  502 -0.16260076922E+03  0.12384456382E+02 -0.37788049943E+02  0.16739271680E+03  0.25500000920E-02 0.  1.
</event>
<event>
 5   0  0.3290656E-02  0.6984120E+03  0.7818609E-02  0.9719952E-01
       -2   -1    0    0    0  501  0.00000000000E+00  0.00000000000E+00  0.16634526161E+03  0.16634526163E+03  0.25500000920E-02 0. -1.
        2   -1    0    0  501    0  0.00000000000E+00  0.00000000000E+00 -0.73308261313E+03  0.73308261314E+03  0.25500000920E-02 0.  1.
    10030    2    1    2    0    0  0.00000000000E+00  0.00000000000E+00 -0.56673735153E+03  0.89942787476E+03  0.69841196746E+03 0.  0.
        1    1    3    3  502    0  0.76667406375E+02 -0.33644418026E+03 -0.35238711602E+03  0.49320305879E+03  0.50400001928E-02 0.  1.
       -1    1    3    3    0  502 -0.76667406375E+02  0.33644418026E+03 -0.21435023550E+03  0.40622481598E+03  0.50400001928E-02 0. -1.
</event>
<event>
 5   0  0.1233912E-02  0.7008523E+03  0.7818609E-02  0.9715776E-01
        3   -1    0    0  501    0  0.00000000000E+00  0.00000000000E+00  0.88697558224E+03  0.88697558799E+03  0.10100000352E+00 0.  1.
       -3   -1    0    0    0  501  0.00000000000E+00  0.00000000000E+00 -0.13844628860E+03  0.13844632544E+03  0.10100000352E+00 0. -1.
    10030    2    1    2    0    0  0.00000000000E+00  0.00000000000E+00  0.74852929364E+03  0.10254219134E+04  0.70085233616E+03 0.  0.
        4    1    3    3  502    0 -0.20991971380E+03  0.11828324312E+03  0.19918306149E+01  0.24096222138E+03  0.12699999809E+01 0. -1.
       -4    1    3    3    0  502  0.20991971380E+03 -0.11828324312E+03  0.74653746302E+03  0.78445969204E+03  0.12699999809E+01 0.  1.
</event>
<event>
 5   0  0.1233912E-02  0.6904353E+03  0.7818609E-02  0.9733730E-01
       -4   -1    0    0    0  501  0.00000000000E+00  0.00000000000E+00  0.31970155800E+03  0.31970408050E+03  0.12699999809E+01 0. -1.
        4   -1    0    0  501    0  0.00000000000E+00  0.00000000000E+00 -0.37276515905E+03  0.37276732247E+03  0.12699999809E+01 0.  1.
    10030    2    1    2    0    0  0.00000000000E+00  0.00000000000E+00 -0.53063601052E+02  0.69247140297E+03  0.69043529615E+03 0.  0.
        3    1    3    3  502    0 -0.58401881118E+02 -0.16713105693E+03  0.27070622305E+03  0.32345855887E+03  0.10100000352E+00 0. -1.
       -3    1    3    3    0  502  0.58401881118E+02  0.16713105693E+03 -0.32376982410E+03  0.36901284410E+03  0.10100000352E+00 0.  1.
</event>
<event>
 5   0  0.1969818E-02  0.6933784E+03  0.7818609E-02  0.9728624E-01
        1   -1    0    0  501    0  0.00000000000E+00  0.00000000000E+00  0.11907186116E+04  0.11907186116E+04  0.50400001928E-02 0. -1.
       -1   -1    0    0    0  501  0.00000000000E+00  0.00000000000E+00 -0.10094189138E+03  0.10094189151E+03  0.50400001928E-02 0.  1.
    10030    2    1    2    0    0  0.00000000000E+00  0.00000000000E+00  0.10897767202E+04  0.12916605031E+04  0.69337836378E+03 0.  0.
        1    1    3    3  502    0  0.44207022605E+02  0.44229265559E+02 -0.90348983728E+02  0.10987915028E+03  0.50400001928E-02 0.  1.
       -1    1    3    3    0  502 -0.44207022605E+02 -0.44229265559E+02  0.11801257039E+04  0.11817813528E+04  0.50400001928E-02 0. -1.
</event>
<event>
 5   0  0.1233912E-02  0.7029656E+03  0.7818609E-02  0.9712174E-01
       -3   -1    0    0    0  501  0.00000000000E+00  0.00000000000E+00  0.59246293506E+03  0.59246294366E+03  0.10100000352E+00 0. -1.
        3   -1    0    0  501    0  0.00000000000E+00  0.00000000000E+00 -0.20851962140E+03  0.20851964586E+03  0.10100000352E+00 0.  1.
    10030    2    1    2    0    0  0.00000000000E+00  0.00000000000E+00  0.38394331366E+03  0.80098258953E+03  0.70296560415E+03 0.  0.
        5    1    3    3  502    0  0.15814491337E+03 -0.31040209353E+03  0.24491299196E+03  0.42586821544E+03  0.46999998093E+01 0. -1.
       -5    1    3    3    0  502 -0.15814491337E+03  0.31040209353E+03  0.13903032170E+03  0.37511437408E+03  0.46999998093E+01 0.  1.
</event>
<event>
 5   0  0.1884172E-02  0.6960758E+03  0.7818609E-02  0.9723967E-01
        1   -1    0    0  501    0  0.00000000000E+00  0.00000000000E+00  0.11460512634E+04  0.11460512634E+04  0.50400001928E-02 0.  1.
       -1   -1    0    0    0  501  0.00000000000E+00  0.00000000000E+00 -0.10569368292E+03  0.10569368304E+03  0.50400001928E-02 0. -1.
    10030    2    1    2    0    0  0.00000000000E+00  0.00000000000E+00  0.10403575805E+04  0.12517449465E+04  0.69607579740E+03 0.  0.
        3    1    3    3  502    0 -0.16662454222E+03 -0.10847742308E+03  0.10338704029E+04  0.10528148506E+04  0.10100000352E+00 0.  1.
       -3    1    3    3    0  502  0.16662454222E+03  0.10847742308E+03  0.64871776113E+01  0.19893009592E+03  0.10100000352E+00 0. -1.
</event>
<event>
 5   0  0.1858013E-02  0.6955681E+03  0.7818609E-02  0.9724842E-01
        1   -1    0    0  501    0  0.00000000000E+00  0.00000000000E+00  0.37636325192E+03  0.37636325196E+03  0.50400001928E-02 0. -1.
       -1   -1    0    0    0  501  0.00000000000E+00  0.00000000000E+00 -0.32137499017E+03  0.32137499021E+03  0.50400001928E-02 0.  1.
    10030    2    1    2    0    0  0.00000000000E+00  0.00000000000E+00  0.54988261759E+02  0.69773824216E+03  0.69556807406E+03 0.  0.
        2    1    3    3  502    0  0.33082952202E+03 -0.87592032596E+02 -0.34611875461E+02  0.34397459026E+03  0.25500000920E-02 0. -1.
       -2    1    3    3    0  502 -0.33082952202E+03  0.87592032596E+02  0.89600137220E+02  0.35376365191E+03  0.25500000920E-02 0.  1.
</event>
<event>
 5   0  0.1884172E-02  0.6996723E+03  0.7818609E-02  0.9717793E-01
       -1   -1    0    0    0  501  0.00000000000E+00  0.00000000000E+00  0.81265465059E+03  0.81265465061E+03  0.50400001928E-02 0.  1.
        1   -1    0    0  501    0  0.00000000000E+00  0.00000000000E+00 -0.15059944311E+03  0.15059944319E+03  0.50400001928E-02 0. -1.
    10030    2    1    2    0    0  0.00000000000E+00  0.00000000000E+00  0.66205520749E+03  0.96325409380E+03  0.69967231720E+03 0.  0.
        3    1    3    3  502    0 -0.29931254562E+03 -0.30379972954E+02  0.85235979887E+02  0.31269174148E+03  0.10100000352E+00 0. -1.
       -3    1    3    3    0  502  0.29931254562E+03  0.30379972954E+02  0.57681922760E+03  0.65056235232E+03  0.10100000352E+00 0.  1.
</event>
<event>
 5   0  0.1951465E-02  0.6902202E+03  0.7818609E-02  0.9734105E-01
       -1   -1    0    0    0  501  0.00000000000E+00  0.00000000000E+00  0.36618374364E+03  0.36618374367E+03  0.50400001928E-02 0.  1.
        1   -1    0    0  501    0  0.00000000000E+00  0.00000000000E+00 -0.32524925952E+03  0.32524925956E+03  0.50400001928E-02 0. -1.
    10030    2    1    2    0    0  0.00000000000E+00  0.00000000000E+00  0.40934484118E+02  0.69143300323E+03  0.69022023004E+03 0.  0.
        4    1    3    3  502    0 -0.17215539147E+03  0.12267505902E+03 -0.25279903443E+03  0.32953848581E+03  0.12699999809E+01 0. -1.
       -4    1    3    3    0  502  0.17215539147E+03 -0.12267505902E+03  0.29373351855E+03  0.36189451742E+03  0.12699999809E+01 0.  1.
</event>
<event>
 5   0  0.1858013E-02  0.6811948E+03  0.7818609E-02  0.9749943E-01
       -1   -1    0    0    0  501  0.00000000000E+00  0.00000000000E+00  0.41993591988E+03  0.41993591991E+03  0.50400001928E-02 0. -1.
        1   -1    0    0  501    0  0.00000000000E+00  0.00000000000E+00 -0.27624828184E+03  0.27624828189E+03  0.50400001928E-02 0.  1.
    10030    2    1    2    0    0  0.00000000000E+00  0.00000000000E+00  0.14368763804E+03  0.69618420180E+03  0.68119476327E+03 0.  0.
        2    1    3    3  502    0  0.81617740669E+02  0.15772826725E+02 -0.26572160078E+03  0.27842091656E+03  0.25500000920E-02 0.  1.
       -2    1    3    3    0  502 -0.81617740669E+02 -0.15772826725E+02  0.40940923882E+03  0.41776328523E+03  0.25500000920E-02 0. -1.
</event>
<event>
 5   0  0.2933851E-02  0.7009154E+03  0.7818609E-02  0.9715668E-01
       -2   -1    0    0    0  501  0.00000000000E+00  0.00000000000E+00  0.79269624274E+02  0.79269624315E+02  0.25500000920E-02 0. -1.
        2   -1    0    0  501    0  0.00000000000E+00  0.00000000000E+00 -0.15494029885E+04  0.15494029885E+04  0.25500000920E-02 0.  1.
    10030    2    1    2    0    0  0.00000000000E+00  0.00000000000E+00 -0.14701333642E+04  0.16286726128E+04  0.70091538087E+03 0.  0.
        2    1    3    3  502    0 -0.33772046447E+03 -0.81658799385E+02 -0.62865221600E+03  0.71828050254E+03  0.25500000920E-02 0. -1.
       -2    1    3    3    0  502  0.33772046447E+03  0.81658799385E+02 -0.84148114824E+03  0.91039211030E+03  0.25500000920E-02 0.  1.
</event>
<event>
 5   0  0.1858013E-02  0.6978125E+03  0.7818609E-02  0.9720980E-01
       -1   -1    0    0    0  501  0.00000000000E+00  0.00000000000E+00  0.13681142668E+04  0.13681142668E+04  0.50400001928E-02 0. -1.
        1   -1    0    0  501    0  0.00000000000E+00  0.00000000000E+00 -0.88980570287E+02  0.88980570429E+02  0.50400001928E-02 0.  1.
    10030    2    1    2    0    0  0.00000000000E+00  0.00000000000E+00  0.12791336965E+04  0.14570948372E+04  0.69781254728E+03 0.  0.
        2    1    3    3  502    0 -0.24755521440E+03  0.23847207227E+03  0.51457636268E+03  0.61882254845E+03  0.25500000920E-02 0.  1.
       -2    1    3    3    0  502  0.24755521440E+03 -0.23847207227E+03  0.76455733380E+03  0.83827228876E+03  0.25500000920E-02 0. -1.
</event>
<event>
 5   0  0.1839038E-02  0.6933647E+03  0.7818609E-02  0.9728647E-01
        1   -1    0    0  501    0  0.00000000000E+00  0.00000000000E+00  0.13433839624E+04  0.13433839624E+04  0.50400001928E-02 0.  1.
       -1   -1    0    0    0  501  0.00000000000E+00  0.00000000000E+00 -0.89467088170E+02  0.89467088312E+02  0.50400001928E-02 0. -1.
    10030    2    1    2    0    0  0.00000000000E+00  0.00000000000E+00  0.12539168742E+04  0.14328510507E+04  0.69336469918E+03 0.  0.
        5    1    3    3  502    0  0.26356633436E+03 -0.17152475343E+03  0.32551146548E+03  0.45262319627E+03  0.46999998093E+01 0. -1.
       -5    1    3    3    0  502 -0.26356633436E+03  0.17152475343E+03  0.92840540873E+03  0.98022785443E+03  0.46999998093E+01 0.  1.
</event>
<event>
 5   0  0.1233912E-02  0.6919280E+03  0.7818609E-02  0.9731137E-01
        3   -1    0    0  501    0  0.00000000000E+00  0.00000000000E+00  0.77093477546E+02  0.77093543706E+02  0.10100000352E+00 0. -1.
       -3   -1    0    0    0  501  0.00000000000E+00  0.00000000000E+00 -0.15525441272E+04  0.15525441305E+04  0.10100000352E+00 0.  1.
    10030    2    1    2    0    0  0.00000000000E+00  0.00000000000E+00 -0.14754506496E+04  0.16296376742E+04  0.69192798005E+03 0.  0.
        2    1    3    3  502    0  0.56879485614E+02 -0.22992040981E+03 -0.13316519722E+04  0.13525515317E+04  0.25500000920E-02 0.  1.
       -2    1    3    3    0  502 -0.56879485614E+02  0.22992040981E+03 -0.14379867742E+03  0.27708614250E+03  0.25500000920E-02 0. -1.
</event>
<event>
 5   0  0.3184443E-02  0.6993407E+03  0.7818609E-02  0.9718360E-01
       -2   -1    0    0    0  501  0.00000000000E+00  0.00000000000E+00  0.45209304000E+03  0.45209304001E+03  0.25500000920E-02 0.  1.
        2   -1    0    0  501    0  0.00000000000E+00  0.00000000000E+00 -0.27045177201E+03  0.27045177202E+03  0.25500000920E-02 0. -1.
    10030    2    1    2    0    0  0.00000000000E+00  0.00000000000E+00  0.18164126799E+03  0.72254481203E+03  0.69934072894E+03 0.  0.
        3    1    3    3  502    0  0.86578919327E+02  0.68637396125E+02  0.43358475859E+03  0.44744022450E+03  0.10100000352E+00 0.  1.
       -3    1    3    3    0  502 -0.86578919327E+02 -0.68637396125E+02 -0.25194349061E+03  0.27510458753E+03  0.10100000352E+00 0. -1.
</event>
<event>
 5   0  0.3184443E-02  0.6981206E+03  0.7818609E-02  0.9720452E-01
       -2   -1    0    0    0  501  0.00000000000E+00  0.00000000000E+00  0.18070453531E+03  0.18070453533E+03  0.25500000920E-02 0. -1.
        2   -1    0    0  501    0  0.00000000000E+00  0.00000000000E+00 -0.67426691050E+03  0.67426691050E+03  0.25500000920E-02 0.  1.
    10030    2    1    2    0    0  0.00000000000E+00  0.00000000000E+00 -0.49356237519E+03  0.85497144583E+03  0.69812058771E+03 0.  0.
        3    1    3    3  502    0  0.15019090196E+03 -0.28432360328E+03 -0.41311120021E+03  0.52350558006E+03  0.10100000352E+00 0.  1.
       -3    1    3    3    0  502 -0.15019090196E+03  0.28432360328E+03 -0.80451174976E+02  0.33146586577E+03  0.10100000352E+00 0. -1.
</event>
<event>
 5   0  0.3183963E-02  0.7265006E+03  0.7818609E-02  0.9672956E-01
        2   -1    0    0  501    0  0.00000000000E+00  0.00000000000E+00  0.15582920673E+04  0.15582920673E+04  0.25500000920E-02 0. -1.
       -2   -1    0    0    0  501  0.00000000000E+00  0.00000000000E+00 -0.84676541626E+02  0.84676541664E+02  0.25500000920E-02 0.  1.
    10030    2    1    2    0    0  0.00000000000E+00  0.00000000000E+00  0.14736155257E+04  0.16429686090E+04  0.72650060739E+03 0.  0.
        4    1    3    3  502    0  0.11495058014E+03  0.34453078213E+03  0.75000880373E+03  0.83332461519E+03  0.12699999809E+01 0.  1.
       -4    1    3    3    0  502 -0.11495058014E+03 -0.34453078213E+03  0.72360672195E+03  0.80964399378E+03  0.12699999809E+01 0. -1.
</event>
<event>
 5   0  0.3184443E-02  0.6910758E+03  0.7818609E-02  0.9732617E-01
        2   -1    0    0  501    0  0.00000000000E+00  0.00000000000E+00  0.32084350708E+04  0.32084350708E+04  0.25500000920E-02 0.  1.
       -2   -1    0    0    0  501  0.00000000000E+00  0.00000000000E+00 -0.37213292841E+02  0.37213292929E+02  0.25500000920E-02 0. -1.
    10030    2    1    2    0    0  0.00000000000E+00  0.00000000000E+00  0.31712217780E+04  0.32456483637E+04  0.69107578165E+03 0.  0.
        3    1    3    3  502    0  0.24852430887E+03 -0.13654339198E+03  0.65826609815E+03  0.71674451248E+03  0.10100000352E+00 0. -1.
       -3    1    3    3    0  502 -0.24852430887E+03  0.13654339198E+03  0.25129556798E+04  0.25289038512E+04  0.10100000352E+00 0.  1.
</event>
<event>
 5   0  0.3290656E-02  0.6975752E+03  0.7818609E-02  0.9721388E-01
        2   -1    0    0  501    0  0.00000000000E+00  0.00000000000E+00  0.10277099525E+04  0.10277099525E+04  0.25500000920E-02 0.  1.
       -2   -1    0    0    0  501  0.00000000000E+00  0.00000000000E+00 -0.11837270117E+03  0.11837270120E+03  0.25500000920E-02 0. -1.
    10030    2    1    2    0    0  0.00000000000E+00  0.00000000000E+00  0.90933725130E+03  0.11460826537E+04  0.69757523784E+03 0.  0.
        1    1    3    3  502    0  0.16123943295E+03  0.43095193303E+02 -0.48507938822E+02  0.17380555393E+03  0.50400001928E-02 0. -1.
       -1    1    3    3    0  502 -0.16123943295E+03 -0.43095193303E+02  0.95784519013E+03  0.97227709975E+03  0.50400001928E-02 0.  1.
</event>
<event>
 5   0  0.3113940E-02  0.6882332E+03  0.7818609E-02  0.9737569E-01
        2   -1    0    0  501    0  0.00000000000E+00  0.00000000000E+00  0.73488831202E+03  0.73488831202E+03  0.25500000920E-02 0. -1.
       -2   -1    0    0    0  501  0.00000000000E+00  0.00000000000E+00 -0.16113501080E+03  0.16113501082E+03  0.25500000920E-02 0.  1.
    10030    2    1    2    0    0  0.00000000000E+00  0.00000000000E+00  0.57375330122E+03  0.89602332284E+03  0.68823320496E+03 0.  0.
        5    1    3    3  502    0 -0.37811844515E+02  0.31064644578E+03  0.10063773824E+03  0.32875674019E+03  0.46999998093E+01 0.  1.
       -5    1    3    3    0  502  0.37811844515E+02 -0.31064644578E+03  0.47311556298E+03  0.56726658265E+03  0.46999998093E+01 0. -1.
</event>
<event>
 5   0  0.3113940E-02  0.6993101E+03  0.7818609E-02  0.9718413E-01
        2   -1    0    0  501    0  0.00000000000E+00  0.00000000000E+00  0.20755170249E+04  0.20755170249E+04  0.25500000920E-02 0.  1.
       -2   -1    0    0    0  501  0.00000000000E+00  0.00000000000E+00 -0.58905163310E+02  0.58905163365E+02  0.25500000920E-02 0. -1.
    10030    2    1    2    0    0  0.00000000000E+00  0.00000000000E+00  0.20166118616E+04  0.21344221883E+04  0.69931014397E+03 0.  0.
        5    1    3    3  502    0 -0.83291741428E+02 -0.11766876731E+03  0.36133689661E+02  0.14869830704E+03  0.46999998093E+01 0. -1.
       -5    1    3    3    0  502  0.83291741428E+02  0.11766876731E+03  0.19804781720E+04  0.19857238813E+04  0.46999998093E+01 0.  1.
</event>
<event>
 5   0  0.1884172E-02  0.6964414E+03  0.7818609E-02  0.9723337E-01
       -1   -1    0    0    0  501  0.00000000000E+00  0.00000000000E+00  0.43008818862E+03  0.43008818865E+03  0.50400001928E-02 0.  1.
        1   -1    0    0  501    0  0.00000000000E+00  0.00000000000E+00 -0.28193676293E+03  0.28193676298E+03  0.50400001928E-02 0. -1.
    10030    2    1    2    0    0  0.00000000000E+00  0.00000000000E+00  0.14815142569E+03  0.71202495163E+03  0.69644144536E+03 0.  0.
        3    1    3    3  502    0 -0.69609277214E+02  0.29125984089E+03 -0.10760803660E+03  0.31820943753E+03  0.10100000352E+00 0. -1.
       -3    1    3    3    0  502  0.69609277214E+02 -0.29125984089E+03  0.25575946229E+03  0.39381551410E+03  0.10100000352E+00 0.  1.
</event>
<event>
 5   0  0.1233912E-02  0.6945892E+03  0.7818609E-02  0.9726530E-01
       -3   -1    0    0    0  501  0.00000000000E+00  0.00000000000E+00  0.41398969809E+03  0.41398971041E+03  0.10100000352E+00 0. -1.
        3   -1    0    0  501    0  0.00000000000E+00  0.00000000000E+00 -0.29134428195E+03  0.29134429946E+03  0.10100000352E+00 0.  1.
    10030    2    1    2    0    0  0.00000000000E+00  0.00000000000E+00  0.12264541614E+03  0.70533400986E+03  0.69458920764E+03 0.  0.
        5    1    3    3  502    0  0.73698372212E+02 -0.66229439474E+02  0.39929807861E+03  0.41143509123E+03  0.46999998093E+01 0. -1.
       -5    1    3    3    0  502 -0.73698372212E+02  0.66229439474E+02 -0.27665266247E+03  0.29389891863E+03  0.46999998093E+01 0.  1.
</event>
<event>
 5   0  0.1969818E-02  0.6925713E+03  0.7818609E-02  0.9730021E-01
        1   -1    0    0  501    0  0.00000000000E+00  0.00000000000E+00  0.11899312306E+04  0.11899312306E+04  0.50400001928E-02 0. -1.
       -1   -1    0    0    0  501  0.00000000000E+00  0.00000000000E+00 -0.10077369564E+03  0.10077369576E+03  0.50400001928E-02 0.  1.
    10030    2    1    2    0    0  0.00000000000E+00  0.00000000000E+00  0.10891575349E+04  0.12907049263E+04  0.69257134722E+03 0.  0.
        1    1    3    3  502    0 -0.27400655663E+03 -0.20858124599E+03  0.61249409109E+03  0.70266260816E+03  0.50400001928E-02 0.  1.
       -1    1    3    3    0  502  0.27400655663E+03  0.20858124599E+03  0.47666344385E+03  0.58804231819E+03  0.50400001928E-02 0. -1.
</event>
<event>
 5   0  0.1884172E-02  0.6962024E+03  0.7818609E-02  0.9723749E-01
        1   -1    0    0  501    0  0.00000000000E+00  0.00000000000E+00  0.19685691754E+03  0.19685691760E+03  0.50400001928E-02 0. -1.
       -1   -1    0    0    0  501  0.00000000000E+00  0.00000000000E+00 -0.61554570631E+03  0.61554570633E+03  0.50400001928E-02 0.  1.
    10030    2    1    2    0    0  0.00000000000E+00  0.00000000000E+00 -0.41868878878E+03  0.81240262393E+03  0.69620235674E+03 0.  0.
        3    1    3    3  502    0  0.25729878841E+03  0.10169044366E+03  0.37176196375E+02  0.27915173764E+03  0.10100000352E+00 0. -1.
       -3    1    3    3    0  502 -0.25729878841E+03 -0.10169044366E+03 -0.45586498515E+03  0.53325088630E+03  0.10100000352E+00 0.  1.
</event>
<event>
 5   0  0.1969818E-02  0.7073440E+03  0.7818609E-02  0.9704755E-01
       -1   -1    0    0    0  501  0.00000000000E+00  0.00000000000E+00  0.41634625338E+03  0.41634625341E+03  0.50400001928E-02 0.  1.
        1   -1    0    0  501    0  0.00000000000E+00  0.00000000000E+00 -0.30043234673E+03  0.30043234677E+03  0.50400001928E-02 0. -1.
    10030    2    1    2    0    0  0.00000000000E+00  0.00000000000E+00  0.11591390665E+03  0.71677860019E+03  0.70734399547E+03 0.  0.
        1    1    3    3  502    0  0.12284140349E+03 -0.24201333231E+03  0.28774891451E+03  0.39555012483E+03  0.50400001928E-02 0.  1.
       -1    1    3    3    0  502 -0.12284140349E+03  0.24201333231E+03 -0.17183500786E+03  0.32122847535E+03  0.50400001928E-02 0. -1.
</event>
<event>
 5   0  0.1951465E-02  0.6965674E+03  0.7818609E-02  0.9723120E-01
        1   -1    0    0  501    0  0.00000000000E+00  0.00000000000E+00  0.20830159856E+03  0.20830159862E+03  0.50400001928E-02 0.  1.
       -1   -1    0    0    0  501  0.00000000000E+00  0.00000000000E+00 -0.58233604334E+03  0.58233604337E+03  0.50400001928E-02 0. -1.
    10030    2    1    2    0    0  0.00000000000E+00  0.00000000000E+00 -0.37403444478E+03  0.79063764199E+03  0.69656738011E+03 0.  0.
        4    1    3    3  502    0  0.98331345458E+01 -0.27948403412E+03 -0.42263723558E+03  0.50678581438E+03  0.12699999809E+01 0.  1.
       -4    1    3    3    0  502 -0.98331345458E+01  0.27948403412E+03  0.48602790793E+02  0.28385182760E+03  0.12699999809E+01 0. -1.
</event>
<event>
 5   0  0.3183963E-02  0.6995419E+03  0.7818609E-02  0.9718016E-01
        2   -1    0    0  501    0  0.00000000000E+00  0.00000000000E+00  0.17669901913E+03  0.17669901914E+03  0.25500000920E-02 0.  1.
       -2   -1    0    0    0  501  0.00000000000E+00  0.00000000000E+00 -0.69236213199E+03  0.69236213199E+03  0.25500000920E-02 0. -1.
    10030    2    1    2    0    0  0.00000000000E+00  0.00000000000E+00 -0.51566311286E+03  0.86906115113E+03  0.69954187755E+03 0.  0.
        4    1    3    3  502    0 -0.48438069350E+02 -0.23991513130E+03  0.52583128938E+02  0.25034399362E+03  0.12699999809E+01 0.  1.
       -4    1    3    3    0  502  0.48438069350E+02  0.23991513130E+03 -0.56824624180E+03  0.61871715752E+03  0.12699999809E+01 0. -1.
</event>
<event>
 5   0  0.3113940E-02  0.7060777E+03  0.7818609E-02  0.9706895E-01
       -2   -1    0    0    0  501  0.00000000000E+00  0.00000000000E+00  0.79067975636E+02  0.79067975677E+02  0.25500000920E-02 0. -1.
        2   -1    0    0  501    0  0.00000000000E+00  0.00000000000E+00 -0.15763200882E+04  0.15763200882E+04  0.25500000920E-02 0.  1.
    10030    2    1    2    0    0  0.00000000000E+00  0.00000000000E+00 -0.14972521125E+04  0.16553880638E+04  0.70607772479E+03 0.  0.
        5    1    3    3  502    0  0.11978920067E+03  0.24789822901E+03 -0.23065227186E+03  0.35920125982E+03  0.46999998093E+01 0. -1.
       -5    1    3    3    0  502 -0.11978920067E+03 -0.24789822901E+03 -0.12665998407E+04  0.12961868040E+04  0.46999998093E+01 0.  1.
</event>
<event>
 5   0  0.1951465E-02  0.6772634E+03  0.7818609E-02  0.9756925E-01
        1   -1    0    0  501    0  0.00000000000E+00  0.00000000000E+00  0.10459926209E+04  0.10459926209E+04  0.50400001928E-02 0.  1.
       -1   -1    0    0    0  501  0.00000000000E+00  0.00000000000E+00 -0.10962930180E+03  0.10962930192E+03  0.50400001928E-02 0. -1.
    10030    2    1    2    0    0  0.00000000000E+00  0.00000000000E+00  0.93636331907E+03  0.11556219228E+04  0.67726343705E+03 0.  0.
        4    1    3    3  502    0  0.17338871103E+02  0.23280471448E+03  0.49626865454E+02  0.23866945806E+03  0.12699999809E+01 0. -1.
       -4    1    3    3    0  502 -0.17338871103E+02 -0.23280471448E+03  0.88673645361E+03  0.91695246474E+03  0.12699999809E+01 0.  1.
</event>
<event>
 5   0  0.3184443E-02  0.6985265E+03  0.7818609E-02  0.9719755E-01
        2   -1    0    0  501    0  0.00000000000E+00  0.00000000000E+00  0.11955245529E+04  0.11955245529E+04  0.25500000920E-02 0.  1.
       -2   -1    0    0    0  501  0.00000000000E+00  0.00000000000E+00 -0.10203456146E+03  0.10203456149E+03  0.25500000920E-02 0. -1.
    10030    2    1    2    0    0  0.00000000000E+00  0.00000000000E+00  0.10934899914E+04  0.12975591144E+04  0.69852651630E+03 0.  0.
        3    1    3    3  502    0 -0.61998115332E+02  0.22988284172E+03  0.10214064584E+04  0.10487902796E+04  0.10100000352E+00 0.  1.
       -3    1    3    3    0  502  0.61998115332E+02 -0.22988284172E+03  0.72083533079E+02  0.24876883479E+03  0.10100000352E+00 0. -1.
</event>
<event>
 5   0  0.3290656E-02  0.6915336E+03  0.7818609E-02  0.9731821E-01
        2   -1    0    0  501    0  0.00000000000E+00  0.00000000000E+00  0.13134509610E+04  0.13134509610E+04  0.25500000920E-02 0.  1.
       -2   -1    0    0    0  501  0.00000000000E+00  0.00000000000E+00 -0.91023322020E+02  0.91023322056E+02  0.25500000920E-02 0. -1.
    10030    2    1    2    0    0  0.00000000000E+00  0.00000000000E+00  0.12224276390E+04  0.14044742831E+04  0.69153357058E+03 0.  0.
        1    1    3    3  502    0  0.59374139881E+02 -0.29365725293E+03  0.96178059518E+03  0.10073637794E+04  0.50400001928E-02 0.  1.
       -1    1    3    3    0  502 -0.59374139881E+02  0.29365725293E+03  0.26064704383E+03  0.39711050373E+03  0.50400001928E-02 0. -1.
</event>
<event>
 5   0  0.2933851E-02  0.6755383E+03  0.7818609E-02  0.9760004E-01
       -2   -1    0    0    0  501  0.00000000000E+00  0.00000000000E+00  0.84714830226E+02  0.84714830264E+02  0.25500000920E-02 0.  1.
        2   -1    0    0  501    0  0.00000000000E+00  0.00000000000E+00 -0.13467298484E+04  0.13467298484E+04  0.25500000920E-02 0. -1.
    10030    2    1    2    0    0  0.00000000000E+00  0.00000000000E+00 -0.12620150182E+04  0.14314446787E+04  0.67553827574E+03 0.  0.
        2    1    3    3  502    0 -0.19900216343E+03 -0.10659006651E+03 -0.11633905675E+04  0.11850911002E+04  0.25500000920E-02 0. -1.
       -2    1    3    3    0  502  0.19900216343E+03  0.10659006651E+03 -0.98624450683E+02  0.24635357843E+03  0.25500000920E-02 0.  1.
</event>
<event>
 5   0  0.1233912E-02  0.8188411E+03  0.7818609E-02  0.9533139E-01
       -4   -1    0    0    0  501  0.00000000000E+00  0.00000000000E+00  0.22555833272E+03  0.22556190804E+03  0.12699999809E+01 0. -1.
        4   -1    0    0  501    0  0.00000000000E+00  0.00000000000E+00 -0.74314665568E+03  0.74314774086E+03  0.12699999809E+01 0.  1.
    10030    2    1    2    0    0  0.00000000000E+00  0.00000000000E+00 -0.51758832296E+03  0.96870964890E+03  0.81884107848E+03 0.  0.
        3    1    3    3  502    0  0.20883700799E+01  0.20264974526E+03  0.16206011896E+03  0.25948944660E+03  0.10100000352E+00 0. -1.
       -3    1    3    3    0  502 -0.20883700799E+01 -0.20264974526E+03 -0.67964844192E+03  0.70922020230E+03  0.10100000352E+00 0.  1.
</event>
<event>
 5   0  0.1951465E-02  0.7015504E+03  0.7818609E-02  0.9714584E-01
       -1   -1    0    0    0  501  0.00000000000E+00  0.00000000000E+00  0.26428869375E+03  0.26428869379E+03  0.50400001928E-02 0.  1.
        1   -1    0    0  501    0  0.00000000000E+00  0.00000000000E+00 -0.46556381223E+03  0.46556381225E+03  0.50400001928E-02 0. -1.
    10030    2    1    2    0    0  0.00000000000E+00  0.00000000000E+00 -0.20127511848E+03  0.72985250605E+03  0.70155043102E+03 0.  0.
        4    1    3    3  502    0  0.17811174812E+03  0.13300603102E+03 -0.38292754226E+03  0.44277478996E+03  0.12699999809E+01 0. -1.
       -4    1    3    3    0  502 -0.17811174812E+03 -0.13300603102E+03  0.18165242378E+03  0.28707771608E+03  0.12699999809E+01 0.  1.
</event>
<event>
 5   0  0.3113940E-02  0.7068925E+03  0.7818609E-02  0.9705517E-01
        2   -1    0    0  501    0  0.00000000000E+00  0.00000000000E+00  0.88614213563E+03  0.88614213564E+03  0.25500000920E-02 0. -1.
       -2   -1    0    0    0  501  0.00000000000E+00  0.00000000000E+00 -0.14097540802E+03  0.14097540804E+03  0.25500000920E-02 0.  1.
    10030    2    1    2    0    0  0.00000000000E+00  0.00000000000E+00  0.74516672761E+03  0.10271175437E+04  0.70689249296E+03 0.  0.
        5    1    3    3  502    0  0.10632622452E+03  0.29461103613E+03  0.61045581332E+03  0.68613360116E+03  0.46999998093E+01 0. -1.
       -5    1    3    3    0  502 -0.10632622452E+03 -0.29461103613E+03  0.13471091429E+03  0.34098394252E+03  0.46999998093E+01 0.  1.
</event>
<event>
 5   0  0.1233912E-02  0.6893549E+03  0.7818609E-02  0.9735612E-01
       -4   -1    0    0    0  501  0.00000000000E+00  0.00000000000E+00  0.23975882681E+03  0.23976219037E+03  0.12699999809E+01 0.  1.
        4   -1    0    0  501    0  0.00000000000E+00  0.00000000000E+00 -0.49550092926E+03  0.49550255681E+03  0.12699999809E+01 0. -1.
    10030    2    1    2    0    0  0.00000000000E+00  0.00000000000E+00 -0.25574210246E+03  0.73526474718E+03  0.68935493432E+03 0.  0.
        1    1    3    3  502    0  0.26926618729E+03  0.14130546712E+03  0.45204162137E+02  0.30743280722E+03  0.50400001928E-02 0.  1.
       -1    1    3    3    0  502 -0.26926618729E+03 -0.14130546712E+03 -0.30094626459E+03  0.42783193996E+03  0.50400001928E-02 0. -1.
</event>
<event>
 5   0  0.1839038E-02  0.7015356E+03  0.7818609E-02  0.9714610E-01
       -1   -1    0    0    0  501  0.00000000000E+00  0.00000000000E+00  0.45540868977E+03  0.45540868980E+03  0.50400001928E-02 0. -1.
        1   -1    0    0  501    0  0.00000000000E+00  0.00000000000E+00 -0.27017062632E+03  0.27017062636E+03  0.50400001928E-02 0.  1.
    10030    2    1    2    0    0  0.00000000000E+00  0.00000000000E+00  0.18523806345E+03  0.72557931616E+03  0.70153560415E+03 0.  0.
        5    1    3    3  502    0  0.27601592109E+03  0.59919580561E+02  0.30769016227E+03  0.41769662530E+03  0.46999998093E+01 0. -1.
       -5    1    3    3    0  502 -0.27601592109E+03 -0.59919580561E+02 -0.12245209882E+03  0.30788269086E+03  0.46999998093E+01 0.  1.
</event>
<event>
 5   0  0.1951465E-02  0.7011030E+03  0.7818609E-02  0.9715348E-01
       -1   -1    0    0    0  501  0.00000000000E+00  0.00000000000E+00  0.11250311862E+04  0.11250311862E+04  0.50400001928E-02 0. -1.
        1   -1    0    0  501    0  0.00000000000E+00  0.00000000000E+00 -0.10922930173E+03  0.10922930185E+03  0.50400001928E-02 0.  1.
    10030    2    1    2    0    0  0.00000000000E+00  0.00000000000E+00  0.10158018845E+04  0.12342604881E+04  0.70110304799E+03 0.  0.
        4    1    3    3  502    0  0.30677848725E+03  0.39402488889E+02  0.21745698588E+03  0.37809357305E+03  0.12699999809E+01 0.  1.
       -4    1    3    3    0  502 -0.30677848725E+03 -0.39402488889E+02  0.79834489860E+03  0.85616691503E+03  0.12699999809E+01 0. -1.
</event>
<event>
 5   0  0.1884172E-02  0.7013621E+03  0.7818609E-02  0.9714906E-01
       -1   -1    0    0    0  501  0.00000000000E+00  0.00000000000E+00  0.17338395020E+03  0.17338395028E+03  0.50400001928E-02 0.  1.
        1   -1    0    0  501    0  0.00000000000E+00  0.00000000000E+00 -0.70927665831E+03  0.70927665832E+03  0.50400001928E-02 0. -1.
    10030    2    1    2    0    0  0.00000000000E+00  0.00000000000E+00 -0.53589270810E+03  0.88266060860E+03  0.70136207153E+03 0.  0.
        3    1    3    3  502    0  0.14203537376E+03 -0.32061675592E+03 -0.26438077610E+03  0.43916552295E+03  0.10100000352E+00 0. -1.
       -3    1    3    3    0  502 -0.14203537376E+03  0.32061675592E+03 -0.27151193200E+03  0.44349508565E+03  0.10100000352E+00 0.  1.
</event>
<event>
 5   0  0.1233912E-02  0.6854312E+03  0.7818609E-02  0.9742476E-01
        3   -1    0    0  501    0  0.00000000000E+00  0.00000000000E+00  0.10706146466E+04  0.10706146513E+04  0.10100000352E+00 0. -1.
       -3   -1    0    0    0  501  0.00000000000E+00  0.00000000000E+00 -0.10970702800E+03  0.10970707450E+03  0.10100000352E+00 0.  1.
    10030    2    1    2    0    0  0.00000000000E+00  0.00000000000E+00  0.96090761855E+03  0.11803217258E+04  0.68543119643E+03 0.  0.
        1    1    3    3  502    0  0.18301046988E+03 -0.20338404340E+03  0.12505059482E+03  0.30082478703E+03  0.50400001928E-02 0.  1.
       -1    1    3    3    0  502 -0.18301046988E+03  0.20338404340E+03  0.83585702373E+03  0.87949693879E+03  0.50400001928E-02 0. -1.
</event>
<event>
 5   0  0.1839038E-02  0.7752885E+03  0.7818609E-02  0.9596491E-01
       -1   -1    0    0    0  501  0.00000000000E+00  0.00000000000E+00  0.10102563650E+03  0.10102563663E+03  0.50400001928E-02 0. -1.
        1   -1    0    0  501    0  0.00000000000E+00  0.00000000000E+00 -0.14874252168E+04  0.14874252168E+04  0.50400001928E-02 0.  1.
    10030    2    1    2    0    0  0.00000000000E+00  0.00000000000E+00 -0.13863995803E+04  0.15884508534E+04  0.77528853823E+03 0.  0.
        5    1    3    3  502    0  0.23923481222E+03 -0.46138243561E+02 -0.75533312922E+02  0.25512625160E+03  0.46999998093E+01 0. -1.
       -5    1    3    3    0  502 -0.23923481222E+03  0.46138243561E+02 -0.13108662674E+04  0.13333246018E+04  0.46999998093E+01 0.  1.
</event>
<event>
 5   0  0.1969818E-02  0.6777218E+03  0.7818609E-02  0.9756108E-01
        1   -1    0    0  501    0  0.00000000000E+00  0.00000000000E+00  0.72928339107E+03  0.72928339109E+03  0.50400001928E-02 0. -1.
       -1   -1    0    0    0  501  0.00000000000E+00  0.00000000000E+00 -0.15745142539E+03  0.15745142547E+03  0.50400001928E-02 0.  1.
    10030    2    1    2    0    0  0.00000000000E+00  0.00000000000E+00  0.57183196568E+03  0.88673481657E+03  0.67772179981E+03 0.  0.
        1    1    3    3  502    0  0.51284037451E+02  0.10205851190E+02  0.72397293612E+03  0.72585881833E+03  0.50400001928E-02 0. -1.
       -1    1    3    3    0  502 -0.51284037451E+02 -0.10205851190E+02 -0.15214097044E+03  0.16087599823E+03  0.50400001928E-02 0.  1.
</event>
<event>
 5   0  0.1233912E-02  0.7007546E+03  0.7818609E-02  0.9715943E-01
       -3   -1    0    0    0  501  0.00000000000E+00  0.00000000000E+00  0.88361504643E+03  0.88361505220E+03  0.10100000352E+00 0. -1.
        3   -1    0    0  501    0  0.00000000000E+00  0.00000000000E+00 -0.13893407307E+03  0.13893410978E+03  0.10100000352E+00 0.  1.
    10030    2    1    2    0    0  0.00000000000E+00  0.00000000000E+00  0.74468097336E+03  0.10225491620E+04  0.70075461937E+03 0.  0.
        2    1    3    3  502    0  0.30151551413E+03  0.83882408371E+02  0.60221328266E+03  0.67868159067E+03  0.25500000920E-02 0. -1.
       -2    1    3    3    0  502 -0.30151551413E+03 -0.83882408371E+02  0.14246769070E+03  0.34386757130E+03  0.25500000920E-02 0.  1.
</event>
<event>
 5   0  0.3290656E-02  0.6997207E+03  0.7818609E-02  0.9717710E-01
       -2   -1    0    0    0  501  0.00000000000E+00  0.00000000000E+00  0.18802357258E+03  0.18802357259E+03  0.25500000920E-02 0.  1.
        2   -1    0    0  501    0  0.00000000000E+00  0.00000000000E+00 -0.65099421933E+03  0.65099421933E+03  0.25500000920E-02 0. -1.
    10030    2    1    2    0    0  0.00000000000E+00  0.00000000000E+00 -0.46297064675E+03  0.83901779193E+03  0.69972068386E+03 0.  0.
        1    1    3    3  502    0  0.11386633614E+03 -0.22474590130E+03  0.59586338251E+02  0.25889533481E+03  0.50400001928E-02 0.  1.
       -1    1    3    3    0  502 -0.11386633614E+03  0.22474590130E+03 -0.52255698500E+03  0.58012245712E+03  0.50400001928E-02 0. -1.
</event>
<event>
 5   0  0.1969818E-02  0.7051978E+03  0.7818609E-02  0.9708384E-01
       -1   -1    0    0    0  501  0.00000000000E+00  0.00000000000E+00  0.14654808993E+03  0.14654809002E+03  0.50400001928E-02 0.  1.
        1   -1    0    0  501    0  0.00000000000E+00  0.00000000000E+00 -0.84836311166E+03  0.84836311168E+03  0.50400001928E-02 0. -1.
    10030    2    1    2    0    0  0.00000000000E+00  0.00000000000E+00 -0.70181502174E+03  0.99491120170E+03  0.70519782652E+03 0.  0.
        1    1    3    3  502    0 -0.76954661985E+02 -0.18188738468E+03  0.61191150795E+02  0.20675927468E+03  0.50400001928E-02 0.  1.
       -1    1    3    3    0  502  0.76954661985E+02  0.18188738468E+03 -0.76300617253E+03  0.78815192701E+03  0.50400001928E-02 0. -1.
</event>
<event>
 5   0  0.3183963E-02  0.6975067E+03  0.7818609E-02  0.9721506E-01
       -2   -1    0    0    0  501  0.00000000000E+00  0.00000000000E+00  0.14402819699E+03  0.14402819701E+03  0.25500000920E-02 0.  1.
        2   -1    0    0  501    0  0.00000000000E+00  0.00000000000E+00 -0.84447981149E+03  0.84447981149E+03  0.25500000920E-02 0. -1.
    10030    2    1    2    0    0  0.00000000000E+00  0.00000000000E+00 -0.70045161450E+03  0.98850800850E+03  0.69750671582E+03 0.  0.
        4    1    3    3  502    0 -0.22077530729E+03 -0.18759552523E+03 -0.75078742837E+02  0.29928623076E+03  0.12699999809E+01 0.  1.
       -4    1    3    3    0  502  0.22077530729E+03  0.18759552523E+03 -0.62537287166E+03  0.68922177774E+03  0.12699999809E+01 0. -1.
</event>
<event>
 5   0  0.3113940E-02  0.6881826E+03  0.7818609E-02  0.9737658E-01
       -2   -1    0    0    0  501  0.00000000000E+00  0.00000000000E+00  0.23399083358E+03  0.23399083360E+03  0.25500000920E-02 0. -1.
        2   -1    0    0  501    0  0.00000000000E+00  0.00000000000E+00 -0.50599771062E+03  0.50599771062E+03  0.25500000920E-02 0.  1.
    10030    2    1    2    0    0  0.00000000000E+00  0.00000000000E+00 -0.27200687703E+03  0.73998854422E+03  0.68818260980E+03 0.  0.
        5    1    3    3  502    0  0.18703797509E+03 -0.60346543668E+02 -0.43966625937E+03  0.48161542654E+03  0.46999998093E+01 0.  1.
       -5    1    3    3    0  502 -0.18703797509E+03  0.60346543668E+02  0.16765938233E+03  0.25837311768E+03  0.46999998093E+01 0. -1.
</event>
<event>
 5   0  0.1858013E-02  0.7039287E+03  0.7818609E-02  0.9710537E-01
       -1   -1    0    0    0  501  0.00000000000E+00  0.00000000000E+00  0.11056081551E+03  0.11056081563E+03  0.50400001928E-02 0. -1.
        1   -1    0    0  501    0  0.00000000000E+00  0.00000000000E+00 -0.11204593269E+04  0.11204593269E+04  0.50400001928E-02 0.  1.
    10030    2    1    2    0    0  0.00000000000E+00  0.00000000000E+00 -0.10098985114E+04  0.12310201426E+04  0.70392868107E+03 0.  0.
        2    1    3    3  502    0  0.56996353444E+01 -0.26168387882E+03 -0.91644538535E+03  0.95309132963E+03  0.25500000920E-02 0.  1.
       -2    1    3    3    0  502 -0.56996353444E+01  0.26168387882E+03 -0.93453126049E+02  0.27792881292E+03  0.25500000920E-02 0. -1.
</event>
<event>
 5   0  0.1969818E-02  0.6948837E+03  0.7818609E-02  0.9726022E-01
       -1   -1    0    0    0  501  0.00000000000E+00  0.00000000000E+00  0.12391803485E+03  0.12391803495E+03  0.50400001928E-02 0.  1.
        1   -1    0    0  501    0  0.00000000000E+00  0.00000000000E+00 -0.97415886636E+03  0.97415886638E+03  0.50400001928E-02 0. -1.
    10030    2    1    2    0    0  0.00000000000E+00  0.00000000000E+00 -0.85024083152E+03  0.10980769013E+04  0.69488373822E+03 0.  0.
        1    1    3    3  502    0 -0.14128962319E+03  0.29799970197E+03 -0.59785978849E+03  0.68279052917E+03  0.50400001928E-02 0. -1.
       -1    1    3    3    0  502  0.14128962319E+03 -0.29799970197E+03 -0.25238104302E+03  0.41528637216E+03  0.50400001928E-02 0.  1.
</event>
<event>
 5   0  0.2933851E-02  0.6827133E+03  0.7818609E-02  0.9747260E-01
       -2   -1    0    0    0  501  0.00000000000E+00  0.00000000000E+00  0.85270335095E+02  0.85270335133E+02  0.25500000920E-02 0. -1.
        2   -1    0    0  501    0  0.00000000000E+00  0.00000000000E+00 -0.13665288567E+04  0.13665288567E+04  0.25500000920E-02 0.  1.
    10030    2    1    2    0    0  0.00000000000E+00  0.00000000000E+00 -0.12812585216E+04  0.14517991919E+04  0.68271333240E+03 0.  0.
        2    1    3    3  502    0  0.74683265309E+02 -0.21998086034E+03 -0.10876612425E+03  0.25651362307E+03  0.25500000920E-02 0. -1.
       -2    1    3    3    0  502 -0.74683265309E+02  0.21998086034E+03 -0.11724923974E+04  0.11952855688E+04  0.25500000920E-02 0.  1.
</event>
<event>
 5   0  0.1884172E-02  0.6995911E+03  0.7818609E-02  0.9717932E-01
        1   -1    0    0  501    0  0.00000000000E+00  0.00000000000E+00  0.35538765787E+03  0.35538765790E+03  0.50400001928E-02 0.  1.
       -1   -1    0    0    0  501  0.00000000000E+00  0.00000000000E+00 -0.34429142399E+03  0.34429142402E+03  0.50400001928E-02 0. -1.
    10030    2    1    2    0    0  0.00000000000E+00  0.00000000000E+00  0.11096233878E+02  0.69967908193E+03  0.69959108862E+03 0.  0.
        3    1    3    3  502    0 -0.68158842346E+02 -0.26419569351E+03 -0.21336733174E+03  0.34636775357E+03  0.10100000352E+00 0. -1.
       -3    1    3    3    0  502  0.68158842346E+02  0.26419569351E+03  0.22446356561E+03  0.35331132836E+03  0.10100000352E+00 0.  1.
</event>
<event>
 5   0  0.1884172E-02  0.6877929E+03  0.7818609E-02  0.9738339E-01
        1   -1    0    0  501    0  0.00000000000E+00  0.00000000000E+00  0.19669604741E+03  0.19669604748E+03  0.50400001928E-02 0.  1.
       -1   -1    0    0    0  501  0.00000000000E+00  0.00000000000E+00 -0.60125644546E+03  0.60125644548E+03  0.50400001928E-02 0. -1.
    10030    2    1    2    0    0  0.00000000000E+00  0.00000000000E+00 -0.40456039805E+03  0.79795249296E+03  0.68779289423E+03 0.  0.
        3    1    3    3  502    0 -0.11995598565E+03  0.30481829206E+03 -0.32374402184E+03  0.46055817390E+03  0.10100000352E+00 0. -1.
       -3    1    3    3    0  502  0.11995598565E+03 -0.30481829206E+03 -0.80816376202E+02  0.33739431906E+03  0.10100000352E+00 0.  1.
</event>
<event>
 5   0  0.2933851E-02  0.7011914E+03  0.7818609E-02  0.9715197E-01
        2   -1    0    0  501    0  0.00000000000E+00  0.00000000000E+00  0.13229470016E+04  0.13229470016E+04  0.25500000920E-02 0.  1.
       -2   -1    0    0    0  501  0.00000000000E+00  0.00000000000E+00 -0.92911770481E+02  0.92911770516E+02  0.25500000920E-02 0. -1.
    10030    2    1    2    0    0  0.00000000000E+00  0.00000000000E+00  0.12300352311E+04  0.14158587721E+04  0.70119140953E+03 0.  0.
        2    1    3    3  502    0  0.13164668512E+03  0.30588469584E+03  0.39362936160E+03  0.51559710160E+03  0.25500000920E-02 0. -1.
       -2    1    3    3    0  502 -0.13164668512E+03 -0.30588469584E+03  0.83640586952E+03  0.90026167052E+03  0.25500000920E-02 0.  1.
</event>
<event>
 5   0  0.1839038E-02  0.7070783E+03  0.7818609E-02  0.9705203E-01
       -1   -1    0    0    0  501  0.00000000000E+00  0.00000000000E+00  0.60576722653E+03  0.60576722655E+03  0.50400001928E-02 0.  1.
        1   -1    0    0  501    0  0.00000000000E+00  0.00000000000E+00 -0.20633328301E+03  0.20633328307E+03  0.50400001928E-02 0. -1.
    10030    2    1    2    0    0  0.00000000000E+00  0.00000000000E+00  0.39943394353E+03  0.81210050962E+03  0.70707832839E+03 0.  0.
        5    1    3    3  502    0 -0.16267537709E+03 -0.48868659355E+02  0.55579162850E+03  0.58118658664E+03  0.46999998093E+01 0.  1.
       -5    1    3    3    0  502  0.16267537709E+03  0.48868659355E+02 -0.15635768497E+03  0.23091392298E+03  0.46999998093E+01 0. -1.
</event>
<event>
 5   0  0.3184443E-02  0.6569473E+03  0.7818609E-02  0.9793830E-01
        2   -1    0    0  501    0  0.00000000000E+00  0.00000000000E+00  0.70907677297E+03  0.70907677297E+03  0.25500000920E-02 0. -1.
       -2   -1    0    0    0  501  0.00000000000E+00  0.00000000000E+00 -0.15216258007E+03  0.15216258010E+03  0.25500000920E-02 0.  1.
    10030    2    1    2    0    0  0.00000000000E+00  0.00000000000E+00  0.55691419289E+03  0.86123935307E+03  0.65694733809E+03 0.  0.
        3    1    3    3  502    0 -0.31295466540E+03 -0.76381287277E+01  0.40887062851E+03  0.51495064294E+03  0.10100000352E+00 0.  1.
       -3    1    3    3    0  502  0.31295466540E+03  0.76381287277E+01  0.14804356439E+03  0.34628871013E+03  0.10100000352E+00 0. -1.
</event>
<event>
 5   0  0.3184443E-02  0.7064394E+03  0.7818609E-02  0.9706283E-01
       -2   -1    0    0    0  501  0.00000000000E+00  0.00000000000E+00  0.18175351498E+03  0.18175351499E+03  0.25500000920E-02 0. -1.
        2   -1    0    0  501    0  0.00000000000E+00  0.00000000000E+00 -0.68644691474E+03  0.68644691475E+03  0.25500000920E-02 0.  1.
    10030    2    1    2    0    0  0.00000000000E+00  0.00000000000E+00 -0.50469339977E+03  0.86820042974E+03  0.70643935227E+03 0.  0.
        3    1    3    3  502    0 -0.18518336268E+03  0.15783392155E+03  0.62329290339E+02  0.25117598460E+03  0.10100000352E+00 0. -1.
       -3    1    3    3    0  502  0.18518336268E+03 -0.15783392155E+03 -0.56702269011E+03  0.61702444514E+03  0.10100000352E+00 0.  1.
</event>
<event>
 5   0  0.2933851E-02  0.6950637E+03  0.7818609E-02  0.9725711E-01
       -2   -1    0    0    0  501  0.00000000000E+00  0.00000000000E+00  0.15512545514E+03  0.15512545516E+03  0.25500000920E-02 0. -1.
        2   -1    0    0  501    0  0.00000000000E+00  0.00000000000E+00 -0.77858511897E+03  0.77858511898E+03  0.25500000920E-02 0.  1.
    10030    2    1    2    0    0  0.00000000000E+00  0.00000000000E+00 -0.62345966384E+03  0.93371057413E+03  0.69506365451E+03 0.  0.
        2    1    3    3  502    0  0.16538470882E+03  0.30399082015E+03 -0.35454548318E+03  0.49544426558E+03  0.25500000920E-02 0.  1.
       -2    1    3    3    0  502 -0.16538470882E+03 -0.30399082015E+03 -0.26891418066E+03  0.43826630855E+03  0.25500000920E-02 0. -1.
</event>
<event>
 5   0  0.1951465E-02  0.6938532E+03  0.7818609E-02  0.9727802E-01
       -1   -1    0    0    0  501  0.00000000000E+00  0.00000000000E+00  0.23091006755E+03  0.23091006761E+03  0.50400001928E-02 0.  1.
        1   -1    0    0  501    0  0.00000000000E+00  0.00000000000E+00 -0.52123356679E+03  0.52123356681E+03  0.50400001928E-02 0. -1.
    10030    2    1    2    0    0  0.00000000000E+00  0.00000000000E+00 -0.29032349924E+03  0.75214363442E+03  0.69385323562E+03 0.  0.
        4    1    3    3  502    0  0.21679837238E+03  0.25247022517E+03 -0.38875075051E+02  0.33504571811E+03  0.12699999809E+01 0. -1.
       -4    1    3    3    0  502 -0.21679837238E+03 -0.25247022517E+03 -0.25144842419E+03  0.41709791631E+03  0.12699999809E+01 0.  1.
</event>
<event>
 5   0  0.3290656E-02  0.7055629E+03  0.7818609E-02  0.9707766E-01
        2   -1    0    0  501    0  0.00000000000E+00  0.00000000000E+00  0.15125242612E+04  0.15125242612E+04  0.25500000920E-02 0. -1.
       -2   -1    0    0    0  501  0.00000000000E+00  0.00000000000E+00 -0.82282818763E+02  0.82282818803E+02  0.25500000920E-02 0.  1.
    10030    2    1    2    0    0  0.00000000000E+00  0.00000000000E+00  0.14302414424E+04  0.15948070800E+04  0.70556292332E+03 0.  0.
        1    1    3    3  502    0  0.33076246619E+03 -0.11922537563E+03  0.64975603533E+03  0.73878373338E+03  0.50400001928E-02 0.  1.
       -1    1    3    3    0  502 -0.33076246619E+03  0.11922537563E+03  0.78048540707E+03  0.85602334659E+03  0.50400001928E-02 0. -1.
</event>
<event>
 5   0  0.2933851E-02  0.7028933E+03  0.7818609E-02  0.9712297E-01
        2   -1    0    0  501    0  0.00000000000E+00  0.00000000000E+00  0.75116606232E+03  0.75116606233E+03  0.25500000920E-02 0. -1.
       -2   -1    0    0    0  501  0.00000000000E+00  0.00000000000E+00 -0.16443067419E+03  0.16443067421E+03  0.25500000920E-02 0.  1.
    10030    2    1    2    0    0  0.00000000000E+00  0.00000000000E+00  0.58673538813E+03  0.91559673654E+03  0.70289328370E+03 0.  0.
        2    1    3    3  502    0  0.18886178236E+03 -0.10264680209E+01 -0.92708619212E+02  0.21039181200E+03  0.25500000920E-02 0.  1.
       -2    1    3    3    0  502 -0.18886178236E+03  0.10264680209E+01  0.67944400734E+03  0.70520492454E+03  0.25500000920E-02 0. -1.
</event>
<event>
 5   0  0.3290656E-02  0.7061169E+03  0.7818609E-02  0.9706828E-01
       -2   -1    0    0    0  501  0.00000000000E+00  0.00000000000E+00  0.39908910978E+03  0.39908910979E+03  0.25500000920E-02 0.  1.
        2   -1    0    0  501    0  0.00000000000E+00  0.00000000000E+00 -0.31233691080E+03  0.31233691081E+03  0.25500000920E-02 0. -1.
    10030    2    1    2    0    0  0.00000000000E+00  0.00000000000E+00  0.86752198977E+02  0.71142602060E+03  0.70611687330E+03 0.  0.
        1    1    3    3  502    0 -0.11868761347E+03 -0.11967784634E+03  0.35593552139E+03  0.39382690602E+03  0.50400001928E-02 0.  1.
       -1    1    3    3    0  502  0.11868761347E+03  0.11967784634E+03 -0.26918332241E+03  0.31759911458E+03  0.50400001928E-02 0. -1.
</event>
<event>
 5   0  0.3184443E-02  0.7054395E+03  0.7818609E-02  0.9707975E-01
       -2   -1    0    0    0  501  0.00000000000E+00  0.00000000000E+00  0.23637712171E+03  0.23637712172E+03  0.25500000920E-02 0.  1.
        2   -1    0    0  501    0  0.00000000000E+00  0.00000000000E+00 -0.52632508188E+03  0.52632508188E+03  0.25500000920E-02 0. -1.
    10030    2    1    2    0    0  0.00000000000E+00  0.00000000000E+00 -0.28994796017E+03  0.76270220360E+03  0.70543946004E+03 0.  0.
        3    1    3    3  502    0 -0.34864734229E+03  0.43626814303E+02 -0.17834931601E+03  0.39403902971E+03  0.10100000352E+00 0. -1.
       -3    1    3    3    0  502  0.34864734229E+03 -0.43626814303E+02 -0.11159864416E+03  0.36866317390E+03  0.10100000352E+00 0.  1.
</event>
<event>
 5   0  0.1233912E-02  0.6933751E+03  0.7818609E-02  0.9728629E-01
       -4   -1    0    0    0  501  0.00000000000E+00  0.00000000000E+00  0.34345745173E+03  0.34345979976E+03  0.12699999809E+01 0. -1.
        4   -1    0    0  501    0  0.00000000000E+00  0.00000000000E+00 -0.34994329015E+03  0.34994559466E+03  0.12699999809E+01 0.  1.
    10030    2    1    2    0    0  0.00000000000E+00  0.00000000000E+00 -0.64858384172E+01  0.69340539441E+03  0.69337506077E+03 0.  0.
        5    1    3    3  502    0 -0.10595171472E+03  0.80697155050E+02  0.31682163619E+03  0.34370894059E+03  0.46999998093E+01 0. -1.
       -5    1    3    3    0  502  0.10595171472E+03 -0.80697155050E+02 -0.32330747461E+03  0.34969645383E+03  0.46999998093E+01 0.  1.
</event>
<event>
 5   0  0.3184443E-02  0.7276072E+03  0.7818609E-02  0.9671151E-01
        2   -1    0    0  501    0  0.00000000000E+00  0.00000000000E+00  0.73608644353E+03  0.73608644354E+03  0.25500000920E-02 0. -1.
       -2   -1    0    0    0  501  0.00000000000E+00  0.00000000000E+00 -0.17980639279E+03  0.17980639281E+03  0.25500000920E-02 0.  1.
    10030    2    1    2    0    0  0.00000000000E+00  0.00000000000E+00  0.55628005074E+03  0.91589283635E+03  0.72760716930E+03 0.  0.
        3    1    3    3  502    0 -0.32172307807E+03 -0.14121758411E+03  0.39692514648E+03  0.53009218739E+03  0.10100000352E+00 0. -1.
       -3    1    3    3    0  502  0.32172307807E+03  0.14121758411E+03  0.15935490426E+03  0.38580064896E+03  0.10100000352E+00 0.  1.
</event>
<event>
 5   0  0.3183963E-02  0.6945459E+03  0.7818609E-02  0.9726605E-01
        2   -1    0    0  501    0  0.00000000000E+00  0.00000000000E+00  0.18825083623E+03  0.18825083625E+03  0.25500000920E-02 0. -1.
       -2   -1    0    0    0  501  0.00000000000E+00  0.00000000000E+00 -0.64062668508E+03  0.64062668509E+03  0.25500000920E-02 0.  1.
    10030    2    1    2    0    0  0.00000000000E+00  0.00000000000E+00 -0.45237584885E+03  0.82887752134E+03  0.69454592127E+03 0.  0.
        4    1    3    3  502    0 -0.14571082195E+03 -0.29468169136E+02  0.14835416849E+03  0.21002520999E+03  0.12699999809E+01 0. -1.
       -4    1    3    3    0  502  0.14571082195E+03  0.29468169136E+02 -0.60073001733E+03  0.61885231134E+03  0.12699999809E+01 0.  1.
</event>
<event>
 5   0  0.1969818E-02  0.7363375E+03  0.7818609E-02  0.9657032E-01
       -1   -1    0    0    0  501  0.00000000000E+00  0.00000000000E+00  0.21864206841E+03  0.21864206847E+03  0.50400001928E-02 0. -1.
        1   -1    0    0  501    0  0.00000000000E+00  0.00000000000E+00 -0.61995489074E+03  0.61995489076E+03  0.50400001928E-02 0.  1.
    10030    2    1    2    0    0  0.00000000000E+00  0.00000000000E+00 -0.40131282233E+03  0.83859695923E+03  0.73633747607E+03 0.  0.
        1    1    3    3  502    0  0.17096924911E+03  0.30069146607E+03 -0.57038895044E+02  0.35056993238E+03  0.50400001928E-02 0. -1.
       -1    1    3    3    0  502 -0.17096924911E+03 -0.30069146607E+03 -0.34427392728E+03  0.48802702686E+03  0.50400001928E-02 0.  1.
</event>
<event>
 5   0  0.1858013E-02  0.6980692E+03  0.7818609E-02  0.9720540E-01
       -1   -1    0    0    0  501  0.00000000000E+00  0.00000000000E+00  0.10386124931E+03  0.10386124943E+03  0.50400001928E-02 0.  1.
        1   -1    0    0  501    0  0.00000000000E+00  0.00000000000E+00 -0.11729606080E+04  0.11729606080E+04  0.50400001928E-02 0. -1.
    10030    2    1    2    0    0  0.00000000000E+00  0.00000000000E+00 -0.10690993587E+04  0.12768218575E+04  0.69806920640E+03 0.  0.
        2    1    3    3  502    0 -0.57464707159E+02  0.29426867342E+03 -0.20771820661E+03  0.36475073419E+03  0.25500000920E-02 0. -1.
       -2    1    3    3    0  502  0.57464707159E+02 -0.29426867342E+03 -0.86138115212E+03  0.91207112330E+03  0.25500000920E-02 0.  1.
</event>
<event>
 5   0  0.1839038E-02  0.6992185E+03  0.7818609E-02  0.9718570E-01
        1   -1    0    0  501    0  0.00000000000E+00  0.00000000000E+00  0.29100175292E+03  0.29100175297E+03  0.50400001928E-02 0. -1.
       -1   -1    0    0    0  501  0.00000000000E+00  0.00000000000E+00 -0.42002025016E+03  0.42002025019E+03  0.50400001928E-02 0.  1.
    10030    2    1    2    0    0  0.00000000000E+00  0.00000000000E+00 -0.12901849724E+03  0.71102200316E+03  0.69921850400E+03 0.  0.
        5    1    3    3  502    0 -0.15786904331E+03  0.25089976049E+03 -0.25292391727E+03  0.38969978519E+03  0.46999998093E+01 0.  1.
       -5    1    3    3    0  502  0.15786904331E+03 -0.25089976049E+03  0.12390542003E+03  0.32132221797E+03  0.46999998093E+01 0. -1.
</event>
<event>
 5   0  0.1233912E-02  0.7009789E+03  0.7818609E-02  0.9715560E-01
       -3   -1    0    0    0  501  0.00000000000E+00  0.00000000000E+00  0.12193264664E+03  0.12193268847E+03  0.10100000352E+00 0.  1.
        3   -1    0    0  501    0  0.00000000000E+00  0.00000000000E+00 -0.10074645281E+04  0.10074645332E+04  0.10100000352E+00 0. -1.
    10030    2    1    2    0    0  0.00000000000E+00  0.00000000000E+00 -0.88553188149E+03  0.11293972217E+04  0.70097886643E+03 0.  0.
        2    1    3    3  502    0 -0.67400878191E+02 -0.34196542333E+03 -0.50217457230E+03  0.61127942073E+03  0.25500000920E-02 0. -1.
       -2    1    3    3    0  502  0.67400878191E+02  0.34196542333E+03 -0.38335730919E+03  0.51811780094E+03  0.25500000920E-02 0.  1.
</event>
<event>
 5   0  0.1884172E-02  0.7009227E+03  0.7818609E-02  0.9715656E-01
        1   -1    0    0  501    0  0.00000000000E+00  0.00000000000E+00  0.36431334044E+03  0.36431334047E+03  0.50400001928E-02 0. -1.
       -1   -1    0    0    0  501  0.00000000000E+00  0.00000000000E+00 -0.33713601403E+03  0.33713601407E+03  0.50400001928E-02 0.  1.
    10030    2    1    2    0    0  0.00000000000E+00  0.00000000000E+00  0.27177326410E+02  0.70144935454E+03  0.70092267043E+03 0.  0.
        3    1    3    3  502    0 -0.15384878699E+03  0.31242771807E+03 -0.25716910908E+02  0.34920180123E+03  0.10100000352E+00 0.  1.
       -3    1    3    3    0  502  0.15384878699E+03 -0.31242771807E+03  0.52894237318E+02  0.35224755331E+03  0.10100000352E+00 0. -1.
</event>
<event>
 5   0  0.3183963E-02  0.6368341E+03  0.7818609E-02  0.9831802E-01
        2   -1    0    0  501    0  0.00000000000E+00  0.00000000000E+00  0.40136414844E+03  0.40136414844E+03  0.25500000920E-02 0.  1.
       -2   -1    0    0    0  501  0.00000000000E+00  0.00000000000E+00 -0.25261207443E+03  0.25261207445E+03  0.25500000920E-02 0. -1.
    10030    2    1    2    0    0  0.00000000000E+00  0.00000000000E+00  0.14875207400E+03  0.65397622289E+03  0.63683413899E+03 0.  0.
        4    1    3    3  502    0  0.27784627370E+03  0.78783970738E+02  0.21208393903E+03  0.35831086496E+03  0.12699999809E+01 0.  1.
       -4    1    3    3    0  502 -0.27784627370E+03 -0.78783970738E+02 -0.63331865028E+02  0.29566535793E+03  0.12699999809E+01 0. -1.
</event>
<event>
 5   0  0.1969818E-02  0.5815334E+03  0.7818609E-02  0.9944477E-01
       -1   -1    0    0    0  501  0.00000000000E+00  0.00000000000E+00  0.12511372974E+03  0.12511372985E+03  0.50400001928E-02 0.  1.
        1   -1    0    0  501    0  0.00000000000E+00  0.00000000000E+00 -0.67574745235E+03  0.67574745237E+03  0.50400001928E-02 0. -1.
    10030    2    1    2    0    0  0.00000000000E+00  0.00000000000E+00 -0.55063372260E+03  0.80086118221E+03  0.58153343559E+03 0.  0.
        1    1    3    3  502    0  0.69275696852E+02 -0.22728532411E+03 -0.44514933228E+02  0.24174225952E+03  0.50400001928E-02 0.  1.
       -1    1    3    3    0  502 -0.69275696852E+02  0.22728532411E+03 -0.50611878938E+03  0.55911892269E+03  0.50400001928E-02 0. -1.
</event>
<event>
 5   0  0.3113940E-02  0.6973133E+03  0.7818609E-02  0.9721838E-01
       -2   -1    0    0    0  501  0.00000000000E+00  0.00000000000E+00  0.24215319305E+03  0.24215319306E+03  0.25500000920E-02 0. -1.
        2   -1    0    0  501    0  0.00000000000E+00  0.00000000000E+00 -0.50200234781E+03  0.50200234782E+03  0.25500000920E-02 0.  1.
    10030    2    1    2    0    0  0.00000000000E+00  0.00000000000E+00 -0.25984915476E+03  0.74415554088E+03  0.69731333401E+03 0.  0.
        5    1    3    3  502    0  0.31779118146E+03  0.10965716693E+02 -0.28245188567E+03  0.42533826500E+03  0.46999998093E+01 0.  1.
       -5    1    3    3    0  502 -0.31779118146E+03 -0.10965716693E+02  0.22602730911E+02  0.31881727588E+03  0.46999998093E+01 0. -1.
</event>
<event>
 5   0  0.3113940E-02  0.7048330E+03  0.7818609E-02  0.9709003E-01
        2   -1    0    0  501    0  0.00000000000E+00  0.00000000000E+00  0.61564515830E+03  0.61564515831E+03  0.25500000920E-02 0. -1.
       -2   -1    0    0    0  501  0.00000000000E+00  0.00000000000E+00 -0.20173536854E+03  0.20173536856E+03  0.25500000920E-02 0.  1.
    10030    2    1    2    0    0  0.00000000000E+00  0.00000000000E+00  0.41390978976E+03  0.81738052687E+03  0.70483303813E+03 0.  0.
        5    1    3    3  502    0  0.23972547545E+03 -0.25758502021E+03  0.22886537446E+03  0.41978541643E+03  0.46999998093E+01 0.  1.
       -5    1    3    3    0  502 -0.23972547545E+03  0.25758502021E+03  0.18504441530E+03  0.39759511044E+03  0.46999998093E+01 0. -1.
</event>
<event>
 5   0  0.3113940E-02  0.6938367E+03  0.7818609E-02  0.9727831E-01
       -2   -1    0    0    0  501  0.00000000000E+00  0.00000000000E+00  0.12549140998E+03  0.12549141000E+03  0.25500000920E-02 0. -1.
        2   -1    0    0  501    0  0.00000000000E+00  0.00000000000E+00 -0.95904840003E+03  0.95904840003E+03  0.25500000920E-02 0.  1.
    10030    2    1    2    0    0  0.00000000000E+00  0.00000000000E+00 -0.83355699005E+03  0.10845398100E+04  0.69383668387E+03 0.  0.
        5    1    3    3  502    0 -0.16615213369E+03 -0.13046803615E+03 -0.84685068530E+03  0.87281533738E+03  0.46999998093E+01 0.  1.
       -5    1    3    3    0  502  0.16615213369E+03  0.13046803615E+03  0.13293695244E+02  0.21172447265E+03  0.46999998093E+01 0. -1.
</event>
<event>
 5   0  0.2933851E-02  0.7043281E+03  0.7818609E-02  0.9709859E-01
       -2   -1    0    0    0  501  0.00000000000E+00  0.00000000000E+00  0.83771165662E+02  0.83771165701E+02  0.25500000920E-02 0.  1.
        2   -1    0    0  501    0  0.00000000000E+00  0.00000000000E+00 -0.14804561158E+04  0.14804561158E+04  0.25500000920E-02 0. -1.
    10030    2    1    2    0    0  0.00000000000E+00  0.00000000000E+00 -0.13966849502E+04  0.15642272815E+04  0.70432814673E+03 0.  0.
        2    1    3    3  502    0  0.22756967614E+03  0.25277922124E+03 -0.49559386994E+03  0.60108117265E+03  0.25500000920E-02 0.  1.
       -2    1    3    3    0  502 -0.22756967614E+03 -0.25277922124E+03 -0.90109108024E+03  0.96314610889E+03  0.25500000920E-02 0. -1.
</event>
<event>
 5   0  0.1951465E-02  0.6976242E+03  0.7818609E-02  0.9721304E-01
       -1   -1    0    0    0  501  0.00000000000E+00  0.00000000000E+00  0.43768165777E+03  0.43768165779E+03  0.50400001928E-02 0.  1.
        1   -1    0    0  501    0  0.00000000000E+00  0.00000000000E+00 -0.27798714818E+03  0.27798714822E+03  0.50400001928E-02 0. -1.
    10030    2    1    2    0    0  0.00000000000E+00  0.00000000000E+00  0.15969450959E+03  0.71566880602E+03  0.69762418501E+03 0.  0.
        4    1    3    3  502    0  0.14653488155E+03  0.31624695552E+03  0.65944801149E+02  0.35473220616E+03  0.12699999809E+01 0. -1.
       -4    1    3    3    0  502 -0.14653488155E+03 -0.31624695552E+03  0.93749708439E+02  0.36093659986E+03  0.12699999809E+01 0.  1.
</event>
<event>
 5   0  0.3290656E-02  0.6966314E+03  0.7818609E-02  0.9723010E-01
        2   -1    0    0  501    0  0.00000000000E+00  0.00000000000E+00  0.19386440498E+03  0.19386440499E+03  0.25500000920E-02 0. -1.
       -2   -1    0    0    0  501  0.00000000000E+00  0.00000000000E+00 -0.62581800169E+03  0.62581800169E+03  0.25500000920E-02 0.  1.
    10030    2    1    2    0    0  0.00000000000E+00  0.00000000000E+00 -0.43195359671E+03  0.81968240669E+03  0.69663142200E+03 0.  0.
        1    1    3    3  502    0 -0.73294829805E+02 -0.24245407518E+03  0.65354470209E+02  0.26158615684E+03  0.50400001928E-02 0. -1.
       -1    1    3    3    0  502  0.73294829805E+02  0.24245407518E+03 -0.49730806692E+03  0.55809624985E+03  0.50400001928E-02 0.  1.
</event>
<event>
 5   0  0.3113940E-02  0.6984535E+03  0.7818609E-02  0.9719880E-01
       -2   -1    0    0    0  501  0.00000000000E+00  0.00000000000E+00  0.53827348739E+02  0.53827348800E+02  0.25500000920E-02 0.  1.
        2   -1    0    0  501    0  0.00000000000E+00  0.00000000000E+00 -0.22657504341E+04  0.22657504341E+04  0.25500000920E-02 0. -1.
    10030    2    1    2    0    0  0.00000000000E+00  0.00000000000E+00 -0.22119230854E+04  0.23195777829E+04  0.69845354562E+03 0.  0.
        5    1    3    3  502    0  0.29104661142E+03  0.17473256346E+03 -0.83417206338E+03  0.90061352425E+03  0.46999998093E+01 0. -1.
       -5    1    3    3    0  502 -0.29104661142E+03 -0.17473256346E+03 -0.13777510220E+04  0.14189642587E+04  0.46999998093E+01 0.  1.
</event>
<event>
 5   0  0.3183963E-02  0.7048406E+03  0.7818609E-02  0.9708990E-01
        2   -1    0    0  501    0  0.00000000000E+00  0.00000000000E+00  0.59804712073E+03  0.59804712073E+03  0.25500000920E-02 0.  1.
       -2   -1    0    0    0  501  0.00000000000E+00  0.00000000000E+00 -0.20767605551E+03  0.20767605553E+03  0.25500000920E-02 0. -1.
    10030    2    1    2    0    0  0.00000000000E+00  0.00000000000E+00  0.39037106521E+03  0.80572317626E+03  0.70484059773E+03 0.  0.
        4    1    3    3  502    0 -0.28947789755E+02 -0.16858499665E+02  0.59622037778E+03  0.59716206788E+03  0.12699999809E+01 0.  1.
       -4    1    3    3    0  502  0.28947789755E+02  0.16858499665E+02 -0.20584931257E+03  0.20856110837E+03  0.12699999809E+01 0. -1.
</event>
<event>
 5   0  0.3113940E-02  0.6971062E+03  0.7818609E-02  0.9722194E-01
        2   -1    0    0  501    0  0.00000000000E+00  0.00000000000E+00  0.10508308129E+04  0.10508308129E+04  0.25500000920E-02 0.  1.
       -2   -1    0    0    0  501  0.00000000000E+00  0.00000000000E+00 -0.11561257440E+03  0.11561257442E+03  0.25500000920E-02 0. -1.
    10030    2    1    2    0    0  0.00000000000E+00  0.00000000000E+00  0.93521823847E+03  0.11664433873E+04  0.69710617713E+03 0.  0.
        5    1    3    3  502    0  0.31652800125E+03 -0.13305547449E+03  0.56763385560E+03  0.66341843424E+03  0.46999998093E+01 0.  1.
       -5    1    3    3    0  502 -0.31652800125E+03  0.13305547449E+03  0.36758438287E+03  0.50302495306E+03  0.46999998093E+01 0. -1.
</event>
<event>
 5   0  0.3113940E-02  0.7031809E+03  0.7818609E-02  0.9711808E-01
        2   -1    0    0  501    0  0.00000000000E+00  0.00000000000E+00  0.14674893592E+04  0.14674893592E+04  0.25500000920E-02 0. -1.
       -2   -1    0    0    0  501  0.00000000000E+00  0.00000000000E+00 -0.84236290707E+02  0.84236290745E+02  0.25500000920E-02 0.  1.
    10030    2    1    2    0    0  0.00000000000E+00  0.00000000000E+00  0.13832530685E+04  0.15517256500E+04  0.70318094486E+03 0.  0.
        5    1    3    3  502    0  0.93382106258E+00  0.31985714368E+03  0.10135685002E+04  0.10628511933E+04  0.46999998093E+01 0. -1.
       -5    1    3    3    0  502 -0.93382106258E+00 -0.31985714368E+03  0.36968456829E+03  0.48887445670E+03  0.46999998093E+01 0.  1.
</event>
<event>
 5   0  0.1951465E-02  0.6986528E+03  0.7818609E-02  0.9719539E-01
       -1   -1    0    0    0  501  0.00000000000E+00  0.00000000000E+00  0.70753925551E+02  0.70753925730E+02  0.50400001928E-02 0. -1.
        1   -1    0    0  501    0  0.00000000000E+00  0.00000000000E+00 -0.17246951236E+04  0.17246951236E+04  0.50400001928E-02 0.  1.
    10030    2    1    2    0    0  0.00000000000E+00  0.00000000000E+00 -0.16539411980E+04  0.17954490493E+04  0.69865284810E+03 0.  0.
        4    1    3    3  502    0 -0.32196442522E+02  0.24855050392E+03 -0.20162290230E+03  0.32166344452E+03  0.12699999809E+01 0. -1.
       -4    1    3    3    0  502  0.32196442522E+02 -0.24855050392E+03 -0.14523182957E+04  0.14737856048E+04  0.12699999809E+01 0.  1.
</event>
<event>
 5   0  0.1884172E-02  0.7060917E+03  0.7818609E-02  0.9706871E-01
       -1   -1    0    0    0  501  0.00000000000E+00  0.00000000000E+00  0.38151365980E+03  0.38151365984E+03  0.50400001928E-02 0. -1.
        1   -1    0    0  501    0  0.00000000000E+00  0.00000000000E+00 -0.32670226933E+03  0.32670226937E+03  0.50400001928E-02 0.  1.
    10030    2    1    2    0    0  0.00000000000E+00  0.00000000000E+00  0.54811390473E+02  0.70821592921E+03  0.70609171774E+03 0.  0.
        3    1    3    3  502    0 -0.29344260100E+03 -0.94274124598E+02 -0.14529009386E+03  0.34074241331E+03  0.10100000352E+00 0.  1.
       -3    1    3    3    0  502  0.29344260100E+03  0.94274124598E+02  0.20010148434E+03  0.36747351590E+03  0.10100000352E+00 0. -1.
</event>
<event>
 5   0  0.1839038E-02  0.6724939E+03  0.7818609E-02  0.9765463E-01
        1   -1    0    0  501    0  0.00000000000E+00  0.00000000000E+00  0.11338937875E+04  0.11338937875E+04  0.50400001928E-02 0.  1.
       -1   -1    0    0    0  501  0.00000000000E+00  0.00000000000E+00 -0.99711294160E+02  0.99711294287E+02  0.50400001928E-02 0. -1.
    10030    2    1    2    0    0  0.00000000000E+00  0.00000000000E+00  0.10341824933E+04  0.12336050818E+04  0.67249391692E+03 0.  0.
        5    1    3    3  502    0 -0.29074721072E+03  0.16703939408E+03  0.47201536986E+03  0.57901355692E+03  0.46999998093E+01 0. -1.
       -5    1    3    3    0  502  0.29074721072E+03 -0.16703939408E+03  0.56216712344E+03  0.65459152484E+03  0.46999998093E+01 0.  1.
</event>
<event>
 5   0  0.3290656E-02  0.6825200E+03  0.7818609E-02  0.9747601E-01
        2   -1    0    0  501    0  0.00000000000E+00  0.00000000000E+00  0.16735068338E+04  0.16735068338E+04  0.25500000920E-02 0.  1.
       -2   -1    0    0    0  501  0.00000000000E+00  0.00000000000E+00 -0.69589431161E+02  0.69589431208E+02  0.25500000920E-02 0. -1.
    10030    2    1    2    0    0  0.00000000000E+00  0.00000000000E+00  0.16039174026E+04  0.17430962650E+04  0.68252000307E+03 0.  0.
        1    1    3    3  502    0  0.10465855327E+03  0.16824643522E+03  0.15115517138E+04  0.15244831450E+04  0.50400001928E-02 0.  1.
       -1    1    3    3    0  502 -0.10465855327E+03 -0.16824643522E+03  0.92365688755E+02  0.21861311997E+03  0.50400001928E-02 0. -1.
</event>
<event>
 5   0  0.3113940E-02  0.6991437E+03  0.7818609E-02  0.9718698E-01
       -2   -1    0    0    0  501  0.00000000000E+00  0.00000000000E+00  0.21754988032E+03  0.21754988034E+03  0.25500000920E-02 0.  1.
        2   -1    0    0  501    0  0.00000000000E+00  0.00000000000E+00 -0.56171252616E+03  0.56171252616E+03  0.25500000920E-02 0. -1.
    10030    2    1    2    0    0  0.00000000000E+00  0.00000000000E+00 -0.34416264584E+03  0.77926240650E+03  0.69914374158E+03 0.  0.
        5    1    3    3  502    0 -0.17041842055E+03 -0.27189605541E+03 -0.17604270140E+02  0.32140613457E+03  0.46999998093E+01 0.  1.
       -5    1    3    3    0  502  0.17041842055E+03  0.27189605541E+03 -0.32655837570E+03  0.45785627193E+03  0.46999998093E+01 0. -1.
</event>
<event>
 5   0  0.1839038E-02  0.7019482E+03  0.7818609E-02  0.9713906E-01
        1   -1    0    0  501    0  0.00000000000E+00  0.00000000000E+00  0.96216079298E+02  0.96216079430E+02  0.50400001928E-02 0. -1.
       -1   -1    0    0    0  501  0.00000000000E+00  0.00000000000E+00 -0.12802726694E+04  0.12802726694E+04  0.50400001928E-02 0.  1.
    10030    2    1    2    0    0  0.00000000000E+00  0.00000000000E+00 -0.11840565901E+04  0.13764887488E+04  0.70194819403E+03 0.  0.
        5    1    3    3  502    0  0.22080939622E+03 -0.26107282598E+03 -0.43706425326E+03  0.55494419666E+03  0.46999998093E+01 0. -1.
       -5    1    3    3    0  502 -0.22080939622E+03  0.26107282598E+03 -0.74699233680E+03  0.82154455215E+03  0.46999998093E+01 0.  1.
</event>
<event>
 5   0  0.1969818E-02  0.7021869E+03  0.7818609E-02  0.9713500E-01
        1   -1    0    0  501    0  0.00000000000E+00  0.00000000000E+00  0.55999329148E+03  0.55999329151E+03  0.50400001928E-02 0. -1.
       -1   -1    0    0    0  501  0.00000000000E+00  0.00000000000E+00 -0.22012159373E+03  0.22012159379E+03  0.50400001928E-02 0.  1.
    10030    2    1    2    0    0  0.00000000000E+00  0.00000000000E+00  0.33987169775E+03  0.78011488530E+03  0.70218691481E+03 0.  0.
        1    1    3    3  502    0  0.19574273592E+03  0.22410469783E+03  0.37697321306E+03  0.48025715783E+03  0.50400001928E-02 0. -1.
       -1    1    3    3    0  502 -0.19574273592E+03 -0.22410469783E+03 -0.37101515313E+02  0.29985772747E+03  0.50400001928E-02 0.  1.
</event>
<event>
 5   0  0.2933851E-02  0.7699940E+03  0.7818609E-02  0.9604495E-01
       -2   -1    0    0    0  501  0.00000000000E+00  0.00000000000E+00  0.51482633091E+03  0.51482633092E+03  0.25500000920E-02 0.  1.
        2   -1    0    0  501    0  0.00000000000E+00  0.00000000000E+00 -0.28790810451E+03  0.28790810453E+03  0.25500000920E-02 0. -1.
    10030    2    1    2    0    0  0.00000000000E+00  0.00000000000E+00  0.22691822640E+03  0.80273443544E+03  0.76999395607E+03 0.  0.
        2    1    3    3  502    0  0.16178897666E+03  0.19789222748E+03 -0.18668117427E+03  0.31652309158E+03  0.25500000920E-02 0. -1.
       -2    1    3    3    0  502 -0.16178897666E+03 -0.19789222748E+03  0.41359940067E+03  0.48621134387E+03  0.25500000920E-02 0.  1.
</event>
<event>
 5   0  0.1969818E-02  0.7002940E+03  0.7818609E-02  0.9716729E-01
        1   -1    0    0  501    0  0.00000000000E+00  0.00000000000E+00  0.51571520145E+03  0.51571520148E+03  0.50400001928E-02 0. -1.
       -1   -1    0    0    0  501  0.00000000000E+00  0.00000000000E+00 -0.23773379977E+03  0.23773379982E+03  0.50400001928E-02 0.  1.
    10030    2    1    2    0    0  0.00000000000E+00  0.00000000000E+00  0.27798140168E+03  0.75344900130E+03  0.70029403673E+03 0.  0.
        1    1    3    3  502    0 -0.21073900184E+03 -0.24789030136E+03 -0.22312489720E+00  0.32536222617E+03  0.50400001928E-02 0. -1.
       -1    1    3    3    0  502  0.21073900184E+03  0.24789030136E+03  0.27820452658E+03  0.42808677513E+03  0.50400001928E-02 0.  1.
</event>
<event>
 5   0  0.3183963E-02  0.7239766E+03  0.7818609E-02  0.9677085E-01
        2   -1    0    0  501    0  0.00000000000E+00  0.00000000000E+00  0.11598872019E+04  0.11598872019E+04  0.25500000920E-02 0. -1.
       -2   -1    0    0    0  501  0.00000000000E+00  0.00000000000E+00 -0.11297265028E+03  0.11297265031E+03  0.25500000920E-02 0.  1.
    10030    2    1    2    0    0  0.00000000000E+00  0.00000000000E+00  0.10469145517E+04  0.12728598522E+04  0.72397660527E+03 0.  0.
        4    1    3    3  502    0 -0.12047075138E+03 -0.33898734220E+03  0.59396543049E+03  0.69442218111E+03  0.12699999809E+01 0. -1.
       -4    1    3    3    0  502  0.12047075138E+03  0.33898734220E+03  0.45294912117E+03  0.57843767112E+03  0.12699999809E+01 0.  1.
</event>
<event>
 5   0  0.3290656E-02  0.6994637E+03  0.7818609E-02  0.9718150E-01
       -2   -1    0    0    0  501  0.00000000000E+00  0.00000000000E+00  0.26841615949E+03  0.26841615950E+03  0.25500000920E-02 0.  1.
        2   -1    0    0  501    0  0.00000000000E+00  0.00000000000E+00 -0.45568187044E+03  0.45568187045E+03  0.25500000920E-02 0. -1.
    10030    2    1    2    0    0  0.00000000000E+00  0.00000000000E+00 -0.18726571096E+03  0.72409802995E+03  0.69946373064E+03 0.  0.
        1    1    3    3  502    0  0.19914039692E+03  0.57800220181E+02  0.19791427733E+03  0.28664930548E+03  0.50400001928E-02 0.  1.
       -1    1    3    3    0  502 -0.19914039692E+03 -0.57800220181E+02 -0.38517998828E+03  0.43744872447E+03  0.50400001928E-02 0. -1.
</event>
<event>
 5   0  0.1233912E-02  0.7024229E+03  0.7818609E-02  0.9713098E-01
       -4   -1    0    0    0  501  0.00000000000E+00  0.00000000000E+00  0.35686373610E+03  0.35686599592E+03  0.12699999809E+01 0. -1.
        4   -1    0    0  501    0  0.00000000000E+00  0.00000000000E+00 -0.34564414665E+03  0.34564647982E+03  0.12699999809E+01 0.  1.
    10030    2    1    2    0    0  0.00000000000E+00  0.00000000000E+00  0.11219589452E+02  0.70251247574E+03  0.70242287789E+03 0.  0.
        4    1    3    3  502    0 -0.21465229346E+03 -0.15955171866E+02 -0.27194621160E+03  0.34682348465E+03  0.12699999809E+01 0.  1.
       -4    1    3    3    0  502  0.21465229346E+03  0.15955171866E+02  0.28316580105E+03  0.35568899109E+03  0.12699999809E+01 0. -1.
</event>
<event>
 5   0  0.1969818E-02  0.7042177E+03  0.7818609E-02  0.9710046E-01
        1   -1    0    0  501    0  0.00000000000E+00  0.00000000000E+00  0.13364978128E+04  0.13364978128E+04  0.50400001928E-02 0.  1.
       -1   -1    0    0    0  501  0.00000000000E+00  0.00000000000E+00 -0.92765324877E+02  0.92765325014E+02  0.50400001928E-02 0. -1.
    10030    2    1    2    0    0  0.00000000000E+00  0.00000000000E+00  0.12437324879E+04  0.14292631378E+04  0.70421773311E+03 0.  0.
        1    1    3    3  502    0  0.79812066862E+02  0.33882667834E+03  0.51433378274E+03  0.62105774616E+03  0.50400001928E-02 0.  1.
       -1    1    3    3    0  502 -0.79812066862E+02 -0.33882667834E+03  0.72939870520E+03  0.80820539168E+03  0.50400001928E-02 0. -1.
</event>
<event>
 5   0  0.1839038E-02  0.7032755E+03  0.7818609E-02  0.9711647E-01
       -1   -1    0    0    0  501  0.00000000000E+00  0.00000000000E+00  0.12503542839E+03  0.12503542849E+03  0.50400001928E-02 0.  1.
        1   -1    0    0  501    0  0.00000000000E+00  0.00000000000E+00 -0.98891261134E+03  0.98891261136E+03  0.50400001928E-02 0. -1.
    10030    2    1    2    0    0  0.00000000000E+00  0.00000000000E+00 -0.86387718295E+03  0.11139480398E+04  0.70327551376E+03 0.  0.
        5    1    3    3  502    0 -0.69130840153E+02  0.33470826200E+03 -0.56272975192E+03  0.65840379510E+03  0.46999998093E+01 0.  1.
       -5    1    3    3    0  502  0.69130840153E+02 -0.33470826200E+03 -0.30114743103E+03  0.45554424475E+03  0.46999998093E+01 0. -1.
</event>
<event>
 5   0  0.3183963E-02  0.6984779E+03  0.7818609E-02  0.9719839E-01
        2   -1    0    0  501    0  0.00000000000E+00  0.00000000000E+00  0.25404898983E+04  0.25404898983E+04  0.25500000920E-02 0.  1.
       -2   -1    0    0    0  501  0.00000000000E+00  0.00000000000E+00 -0.48009581595E+02  0.48009581663E+02  0.25500000920E-02 0. -1.
    10030    2    1    2    0    0  0.00000000000E+00  0.00000000000E+00  0.24924803167E+04  0.25884994800E+04  0.69847793711E+03 0.  0.
        4    1    3    3  502    0 -0.25126327086E+03  0.38265935841E+02  0.21338722833E+04  0.21489555713E+04  0.12699999809E+01 0.  1.
       -4    1    3    3    0  502  0.25126327086E+03 -0.38265935841E+02  0.35860803350E+03  0.43954390875E+03  0.12699999809E+01 0. -1.
</event>
<event>
 5   0  0.1233912E-02  0.6976297E+03  0.7818609E-02  0.9721294E-01
        3   -1    0    0  501    0  0.00000000000E+00  0.00000000000E+00  0.68262974506E+03  0.68262975253E+03  0.10100000352E+00 0.  1.
       -3   -1    0    0    0  501  0.00000000000E+00  0.00000000000E+00 -0.17823980102E+03  0.17823982963E+03  0.10100000352E+00 0. -1.
    10030    2    1    2    0    0  0.00000000000E+00  0.00000000000E+00  0.50438994404E+03  0.86086958217E+03  0.69762971686E+03 0.  0.
        5    1    3    3  502    0  0.22923171944E+03  0.15354480433E+03  0.51549120953E+03  0.58470203116E+03  0.46999998093E+01 0.  1.
       -5    1    3    3    0  502 -0.22923171944E+03 -0.15354480433E+03 -0.11101265491E+02  0.27616755101E+03  0.46999998093E+01 0. -1.
</event>
<event>
 5   0  0.1951465E-02  0.6294374E+03  0.7818609E-02  0.9846147E-01
        1   -1    0    0  501    0  0.00000000000E+00  0.00000000000E+00  0.46539510184E+03  0.46539510187E+03  0.50400001928E-02 0.  1.
       -1   -1    0    0    0  501  0.00000000000E+00  0.00000000000E+00 -0.21282532677E+03  0.21282532683E+03  0.50400001928E-02 0. -1.
    10030    2    1    2    0    0  0.00000000000E+00  0.00000000000E+00  0.25256977507E+03  0.67822042870E+03  0.62943741438E+03 0.  0.
        4    1    3    3  502    0 -0.16024335774E+02 -0.29626542131E+03  0.13191907248E+02  0.29699430721E+03  0.12699999809E+01 0. -1.
       -4    1    3    3    0  502  0.16024335774E+02  0.29626542131E+03  0.23937786782E+03  0.38122612149E+03  0.12699999809E+01 0.  1.
</event>
<event>
 5   0  0.3183963E-02  0.7015327E+03  0.7818609E-02  0.9714615E-01
       -2   -1    0    0    0  501  0.00000000000E+00  0.00000000000E+00  0.22576526990E+03  0.22576526992E+03  0.25500000920E-02 0. -1.
        2   -1    0    0  501    0  0.00000000000E+00  0.00000000000E+00 -0.54497766050E+03  0.54497766051E+03  0.25500000920E-02 0.  1.
    10030    2    1    2    0    0  0.00000000000E+00  0.00000000000E+00 -0.31921239060E+03  0.77074293043E+03  0.70153268954E+03 0.  0.
        4    1    3    3  502    0 -0.10736529268E+02  0.10683177729E+03  0.20726441736E+03  0.23342761898E+03  0.12699999809E+01 0. -1.
       -4    1    3    3    0  502  0.10736529268E+02 -0.10683177729E+03 -0.52647680796E+03  0.53731531145E+03  0.12699999809E+01 0.  1.
</event>
<event>
 5   0  0.1858013E-02  0.7005322E+03  0.7818609E-02  0.9716322E-01
        1   -1    0    0  501    0  0.00000000000E+00  0.00000000000E+00  0.71942571338E+03  0.71942571340E+03  0.50400001928E-02 0. -1.
       -1   -1    0    0    0  501  0.00000000000E+00  0.00000000000E+00 -0.17053373818E+03  0.17053373825E+03  0.50400001928E-02 0.  1.
    10030    2    1    2    0    0  0.00000000000E+00  0.00000000000E+00  0.54889197520E+03  0.88995945165E+03  0.70053224419E+03 0.  0.
        2    1    3    3  502    0  0.17983400354E+03 -0.13605628720E+03  0.61493998123E+03  0.65498302470E+03  0.25500000920E-02 0. -1.
       -2    1    3    3    0  502 -0.17983400354E+03  0.13605628720E+03 -0.66048006031E+02  0.23497642696E+03  0.25500000920E-02 0.  1.
</event>
<event>
 5   0  0.3290656E-02  0.7011178E+03  0.7818609E-02  0.9715323E-01
       -2   -1    0    0    0  501  0.00000000000E+00  0.00000000000E+00  0.15685062113E+03  0.15685062115E+03  0.25500000920E-02 0.  1.
        2   -1    0    0  501    0  0.00000000000E+00  0.00000000000E+00 -0.78349407768E+03  0.78349407768E+03  0.25500000920E-02 0. -1.
    10030    2    1    2    0    0  0.00000000000E+00  0.00000000000E+00 -0.62664345655E+03  0.94034469883E+03  0.70111777255E+03 0.  0.
        1    1    3    3  502    0  0.79228562261E+01  0.33589619398E+03 -0.44745933604E+03  0.55956133017E+03  0.50400001928E-02 0. -1.
       -1    1    3    3    0  502 -0.79228562261E+01 -0.33589619398E+03 -0.17918412051E+03  0.38078336866E+03  0.50400001928E-02 0.  1.
</event>
<event>
 5   0  0.1969818E-02  0.7032611E+03  0.7818609E-02  0.9711672E-01
       -1   -1    0    0    0  501  0.00000000000E+00  0.00000000000E+00  0.77330898659E+02  0.77330898823E+02  0.50400001928E-02 0.  1.
        1   -1    0    0  501    0  0.00000000000E+00  0.00000000000E+00 -0.15988956610E+04  0.15988956610E+04  0.50400001928E-02 0. -1.
    10030    2    1    2    0    0  0.00000000000E+00  0.00000000000E+00 -0.15215647623E+04  0.16762265598E+04  0.70326108514E+03 0.  0.
        1    1    3    3  502    0 -0.93802520857E+02 -0.20452057936E+03 -0.14048426553E+04  0.14227475063E+04  0.50400001928E-02 0. -1.
       -1    1    3    3    0  502  0.93802520857E+02  0.20452057936E+03 -0.11672210698E+03  0.25347905354E+03  0.50400001928E-02 0.  1.
</event>
<event>
 5   0  0.1969818E-02  0.7015646E+03  0.7818609E-02  0.9714560E-01
       -1   -1    0    0    0  501  0.00000000000E+00  0.00000000000E+00  0.10162202015E+03  0.10162202028E+03  0.50400001928E-02 0.  1.
        1   -1    0    0  501    0  0.00000000000E+00  0.00000000000E+00 -0.12108419593E+04  0.12108419593E+04  0.50400001928E-02 0. -1.
    10030    2    1    2    0    0  0.00000000000E+00  0.00000000000E+00 -0.11092199391E+04  0.13124639796E+04  0.70156455464E+03 0.  0.
        1    1    3    3  502    0 -0.55733889728E+02  0.13905855874E+03 -0.11479843567E+04  0.11577182872E+04  0.50400001928E-02 0. -1.
       -1    1    3    3    0  502  0.55733889728E+02 -0.13905855874E+03  0.38764417563E+02  0.15474569240E+03  0.50400001928E-02 0.  1.
</event>
<event>
 5   0  0.1884172E-02  0.6941460E+03  0.7818609E-02  0.9727296E-01
       -1   -1    0    0    0  501  0.00000000000E+00  0.00000000000E+00  0.17421488156E+03  0.17421488163E+03  0.50400001928E-02 0. -1.
        1   -1    0    0  501    0  0.00000000000E+00  0.00000000000E+00 -0.69144302108E+03  0.69144302110E+03  0.50400001928E-02 0.  1.
    10030    2    1    2    0    0  0.00000000000E+00  0.00000000000E+00 -0.51722813952E+03  0.86565790273E+03  0.69414599058E+03 0.  0.
        3    1    3    3  502    0  0.32135537935E+03 -0.84348517287E+02 -0.38379354548E+03  0.50762333276E+03  0.10100000352E+00 0.  1.
       -3    1    3    3    0  502 -0.32135537935E+03  0.84348517287E+02 -0.13343459404E+03  0.35803456997E+03  0.10100000352E+00 0. -1.
</event>
<event>
 5   0  0.3184443E-02  0.6893124E+03  0.7818609E-02  0.9735686E-01
       -2   -1    0    0    0  501  0.00000000000E+00  0.00000000000E+00  0.20892008518E+03  0.20892008520E+03  0.25500000920E-02 0.  1.
        2   -1    0    0  501    0  0.00000000000E+00  0.00000000000E+00 -0.56858060442E+03  0.56858060443E+03  0.25500000920E-02 0. -1.
    10030    2    1    2    0    0  0.00000000000E+00  0.00000000000E+00 -0.35966051924E+03  0.77750068962E+03  0.68931243516E+03 0.  0.
        3    1    3    3  502    0  0.80497133890E+02  0.14827098094E+03 -0.51881943605E+03  0.54556181114E+03  0.10100000352E+00 0. -1.
       -3    1    3    3    0  502 -0.80497133890E+02 -0.14827098094E+03  0.15915891680E+03  0.23193887848E+03  0.10100000352E+00 0.  1.
</event>
<event>
 5   0  0.2933851E-02  0.7013847E+03  0.7818609E-02  0.9714867E-01
       -2   -1    0    0    0  501  0.00000000000E+00  0.00000000000E+00  0.93484540466E+02  0.93484540500E+02  0.25500000920E-02 0.  1.
        2   -1    0    0  501    0  0.00000000000E+00  0.00000000000E+00 -0.13155662982E+04  0.13155662982E+04  0.25500000920E-02 0. -1.
    10030    2    1    2    0    0  0.00000000000E+00  0.00000000000E+00 -0.12220817578E+04  0.14090508387E+04  0.70138466156E+03 0.  0.
        2    1    3    3  502    0  0.21226661450E+02  0.31210282803E+02  0.89392061899E+02  0.97033981914E+02  0.25500000920E-02 0.  1.
       -2    1    3    3    0  502 -0.21226661450E+02 -0.31210282803E+02 -0.13114738197E+04  0.13120168568E+04  0.25500000920E-02 0. -1.
</event>
<event>
 5   0  0.1858013E-02  0.6967671E+03  0.7818609E-02  0.9722777E-01
       -1   -1    0    0    0  501  0.00000000000E+00  0.00000000000E+00  0.17923699682E+03  0.17923699689E+03  0.50400001928E-02 0.  1.
        1   -1    0    0  501    0  0.00000000000E+00  0.00000000000E+00 -0.67715427316E+03  0.67715427318E+03  0.50400001928E-02 0. -1.
    10030    2    1    2    0    0  0.00000000000E+00  0.00000000000E+00 -0.49791727634E+03  0.85639127007E+03  0.69676710124E+03 0.  0.
        2    1    3    3  502    0  0.30528465724E+03  0.12498025684E+03 -0.11125467043E+03  0.34813271642E+03  0.25500000920E-02 0.  1.
       -2    1    3    3    0  502 -0.30528465724E+03 -0.12498025684E+03 -0.38666260591E+03  0.50825855365E+03  0.25500000920E-02 0. -1.
</event>
<event>
 5   0  0.3290656E-02  0.6999244E+03  0.7818609E-02  0.9717362E-01
        2   -1    0    0  501    0  0.00000000000E+00  0.00000000000E+00  0.75838938943E+03  0.75838938943E+03  0.25500000920E-02 0. -1.
       -2   -1    0    0    0  501  0.00000000000E+00  0.00000000000E+00 -0.16149162571E+03  0.16149162573E+03  0.25500000920E-02 0.  1.
    10030    2    1    2    0    0  0.00000000000E+00  0.00000000000E+00  0.59689776372E+03  0.91988101516E+03  0.69992438285E+03 0.  0.
        1    1    3    3  502    0 -0.61736001735E+02  0.30364563727E+03  0.51223918143E+03  0.59866600535E+03  0.50400001928E-02 0. -1.
       -1    1    3    3    0  502  0.61736001735E+02 -0.30364563727E+03  0.84658582293E+02  0.32121500981E+03  0.50400001928E-02 0.  1.
</event>
<event>
 5   0  0.1233912E-02  0.7003806E+03  0.7818609E-02  0.9716582E-01
        4   -1    0    0  501    0  0.00000000000E+00  0.00000000000E+00  0.24805110010E+03  0.24805435123E+03  0.12699999809E+01 0. -1.
       -4   -1    0    0    0  501  0.00000000000E+00  0.00000000000E+00 -0.49437972286E+03  0.49438135409E+03  0.12699999809E+01 0.  1.
    10030    2    1    2    0    0  0.00000000000E+00  0.00000000000E+00 -0.24632862276E+03  0.74243570532E+03  0.70038060092E+03 0.  0.
        2    1    3    3  502    0 -0.14230654670E+03  0.27927995536E+03  0.42368594403E+02  0.31629660842E+03  0.25500000920E-02 0. -1.
       -2    1    3    3    0  502  0.14230654670E+03 -0.27927995536E+03 -0.28869721716E+03  0.42613909689E+03  0.25500000920E-02 0.  1.
</event>
<event>
 5   0  0.1951465E-02  0.7011609E+03  0.7818609E-02  0.9715249E-01
        1   -1    0    0  501    0  0.00000000000E+00  0.00000000000E+00  0.84053217224E+03  0.84053217226E+03  0.50400001928E-02 0. -1.
       -1   -1    0    0    0  501  0.00000000000E+00  0.00000000000E+00 -0.14622479219E+03  0.14622479228E+03  0.50400001928E-02 0.  1.
    10030    2    1    2    0    0  0.00000000000E+00  0.00000000000E+00  0.69430738006E+03  0.98675696454E+03  0.70116087245E+03 0.  0.
        4    1    3    3  502    0  0.46181595015E+02  0.27651879041E+03  0.50915068258E+02  0.28493742865E+03  0.12699999809E+01 0.  1.
       -4    1    3    3    0  502 -0.46181595015E+02 -0.27651879041E+03  0.64339231180E+03  0.70181953589E+03  0.12699999809E+01 0. -1.
</event>
<event>
 5   0  0.3290656E-02  0.6990175E+03  0.7818609E-02  0.9718914E-01
       -2   -1    0    0    0  501  0.00000000000E+00  0.00000000000E+00  0.19527219591E+03  0.19527219593E+03  0.25500000920E-02 0.  1.
        2   -1    0    0  501    0  0.00000000000E+00  0.00000000000E+00 -0.62556968400E+03  0.62556968400E+03  0.25500000920E-02 0. -1.
    10030    2    1    2    0    0  0.00000000000E+00  0.00000000000E+00 -0.43029748809E+03  0.82084187993E+03  0.69901749878E+03 0.  0.
        1    1    3    3  502    0 -0.92863946680E+02 -0.83676074355E+02  0.16812528752E+03  0.20950300795E+03  0.50400001928E-02 0.  1.
       -1    1    3    3    0  502  0.92863946680E+02  0.83676074355E+02 -0.59842277560E+03  0.61133887198E+03  0.50400001928E-02 0. -1.
</event>
<event>
 5   0  0.1969818E-02  0.7027296E+03  0.7818609E-02  0.9712576E-01
       -1   -1    0    0    0  501  0.00000000000E+00  0.00000000000E+00  0.26243651297E+03  0.26243651302E+03  0.50400001928E-02 0. -1.
        1   -1    0    0  501    0  0.00000000000E+00  0.00000000000E+00 -0.47042700506E+03  0.47042700508E+03  0.50400001928E-02 0.  1.
    10030    2    1    2    0    0  0.00000000000E+00  0.00000000000E+00 -0.20799049208E+03  0.73286351810E+03  0.70272960046E+03 0.  0.
        1    1    3    3  502    0 -0.19558623528E+03  0.22777013527E+03  0.86381325968E+02  0.31240189412E+03  0.50400001928E-02 0. -1.
       -1    1    3    3    0  502  0.19558623528E+03 -0.22777013527E+03 -0.29437181805E+03  0.42046162398E+03  0.50400001928E-02 0.  1.
</event>
<event>
 5   0  0.3290656E-02  0.7758928E+03  0.7818609E-02  0.9595582E-01
       -2   -1    0    0    0  501  0.00000000000E+00  0.00000000000E+00  0.12589115555E+03  0.12589115558E+03  0.25500000920E-02 0. -1.
        2   -1    0    0  501    0  0.00000000000E+00  0.00000000000E+00 -0.11954963549E+04  0.11954963549E+04  0.25500000920E-02 0.  1.
    10030    2    1    2    0    0  0.00000000000E+00  0.00000000000E+00 -0.10696051994E+04  0.13213875105E+04  0.77589282145E+03 0.  0.
        1    1    3    3  502    0 -0.14183243585E+03 -0.93739330827E+02  0.59070036455E+02  0.17997991897E+03  0.50400001928E-02 0. -1.
       -1    1    3    3    0  502  0.14183243585E+03  0.93739330827E+02 -0.11286752358E+04  0.11414075915E+04  0.50400001928E-02 0.  1.
</event>
<event>
 5   0  0.1951465E-02  0.6414187E+03  0.7818609E-02  0.9823016E-01
       -1   -1    0    0    0  501  0.00000000000E+00  0.00000000000E+00  0.75143269632E+03  0.75143269633E+03  0.50400001928E-02 0.  1.
        1   -1    0    0  501    0  0.00000000000E+00  0.00000000000E+00 -0.13687784829E+03  0.13687784839E+03  0.50400001928E-02 0. -1.
    10030    2    1    2    0    0  0.00000000000E+00  0.00000000000E+00  0.61455484802E+03  0.88831054472E+03  0.64141871086E+03 0.  0.
        4    1    3    3  502    0 -0.11602719947E+03  0.66055583501E+02  0.71111079078E+03  0.72353702103E+03  0.12699999809E+01 0.  1.
       -4    1    3    3    0  502  0.11602719947E+03 -0.66055583501E+02 -0.96555942763E+02  0.16477352369E+03  0.12699999809E+01 0. -1.
</event>
<event>
 5   0  0.2933851E-02  0.6966501E+03  0.7818609E-02  0.9722978E-01
       -2   -1    0    0    0  501  0.00000000000E+00  0.00000000000E+00  0.25617892325E+03  0.25617892326E+03  0.25500000920E-02 0. -1.
        2   -1    0    0  501    0  0.00000000000E+00  0.00000000000E+00 -0.47361568118E+03  0.47361568118E+03  0.25500000920E-02 0.  1.
    10030    2    1    2    0    0  0.00000000000E+00  0.00000000000E+00 -0.21743675792E+03  0.72979460445E+03  0.69665014246E+03 0.  0.
        2    1    3    3  502    0 -0.10628993649E+03  0.13311890027E+03 -0.42700279981E+03  0.45972772731E+03  0.25500000920E-02 0.  1.
       -2    1    3    3    0  502  0.10628993649E+03 -0.13311890027E+03  0.20956604188E+03  0.27006687714E+03  0.25500000920E-02 0. -1.
</event>
<event>
 5   0  0.2933851E-02  0.7085030E+03  0.7818609E-02  0.9702800E-01
        2   -1    0    0  501    0  0.00000000000E+00  0.00000000000E+00  0.69464432182E+03  0.69464432182E+03  0.25500000920E-02 0. -1.
       -2   -1    0    0    0  501  0.00000000000E+00  0.00000000000E+00 -0.18065956626E+03  0.18065956628E+03  0.25500000920E-02 0.  1.
    10030    2    1    2    0    0  0.00000000000E+00  0.00000000000E+00  0.51398475556E+03  0.87530388810E+03  0.70850304698E+03 0.  0.
        2    1    3    3  502    0 -0.15107667019E+03 -0.31790093865E+03  0.20743688955E+03  0.40855260398E+03  0.25500000920E-02 0.  1.
       -2    1    3    3    0  502  0.15107667019E+03  0.31790093865E+03  0.30654786601E+03  0.46675128412E+03  0.25500000920E-02 0. -1.
</event>
<event>
 5   0  0.1951465E-02  0.6919617E+03  0.7818609E-02  0.9731078E-01
       -1   -1    0    0    0  501  0.00000000000E+00  0.00000000000E+00  0.21105619582E+03  0.21105619588E+03  0.50400001928E-02 0. -1.
        1   -1    0    0  501    0  0.00000000000E+00  0.00000000000E+00 -0.56716052661E+03  0.56716052663E+03  0.50400001928E-02 0.  1.
    10030    2    1    2    0    0  0.00000000000E+00  0.00000000000E+00 -0.35610433079E+03  0.77821672251E+03  0.69196168448E+03 0.  0.
        4    1    3    3  502    0 -0.21372657731E+03  0.63299039714E+02 -0.47563989898E+03  0.52528158608E+03  0.12699999809E+01 0.  1.
       -4    1    3    3    0  502  0.21372657731E+03 -0.63299039714E+02  0.11953556819E+03  0.25293513642E+03  0.12699999809E+01 0. -1.
</event>
<event>
 5   0  0.1839038E-02  0.6918333E+03  0.7818609E-02  0.9731301E-01
        1   -1    0    0  501    0  0.00000000000E+00  0.00000000000E+00  0.30044357123E+03  0.30044357127E+03  0.50400001928E-02 0. -1.
       -1   -1    0    0    0  501  0.00000000000E+00  0.00000000000E+00 -0.39827219270E+03  0.39827219273E+03  0.50400001928E-02 0.  1.
    10030    2    1    2    0    0  0.00000000000E+00  0.00000000000E+00 -0.97828621470E+02  0.69871576400E+03  0.69183327448E+03 0.  0.
        5    1    3    3  502    0  0.34531274376E+03 -0.58302531636E+01 -0.68112548279E+02  0.35204586646E+03  0.46999998093E+01 0. -1.
       -5    1    3    3    0  502 -0.34531274376E+03  0.58302531636E+01 -0.29716073191E+02  0.34666989754E+03  0.46999998093E+01 0.  1.
</event>
<event>
 5   0  0.1233912E-02  0.6756033E+03  0.7818609E-02  0.9759888E-01
       -4   -1    0    0    0  501  0.00000000000E+00  0.00000000000E+00  0.15095963479E+04  0.15095968821E+04  0.12699999809E+01 0. -1.
        4   -1    0    0  501    0  0.00000000000E+00  0.00000000000E+00 -0.75583820021E+02  0.75594488880E+02  0.12699999809E+01 0.  1.
    10030    2    1    2    0    0  0.00000000000E+00  0.00000000000E+00  0.14340125279E+04  0.15851913710E+04  0.67560325085E+03 0.  0.
        5    1    3    3  502    0 -0.70634188470E+02 -0.30040834210E+03  0.10391767989E+04  0.10840409909E+04  0.46999998093E+01 0. -1.
       -5    1    3    3    0  502  0.70634188470E+02  0.30040834210E+03  0.39483572895E+03  0.50115038006E+03  0.46999998093E+01 0.  1.
</event>
<event>
 5   0  0.3184443E-02  0.6835509E+03  0.7818609E-02  0.9745783E-01
       -2   -1    0    0    0  501  0.00000000000E+00  0.00000000000E+00  0.25367218511E+03  0.25367218513E+03  0.25500000920E-02 0. -1.
        2   -1    0    0  501    0  0.00000000000E+00  0.00000000000E+00 -0.46047793275E+03  0.46047793275E+03  0.25500000920E-02 0.  1.
    10030    2    1    2    0    0  0.00000000000E+00  0.00000000000E+00 -0.20680574763E+03  0.71415011788E+03  0.68355085664E+03 0.  0.
        3    1    3    3  502    0  0.13042041348E+03  0.18018153175E+03  0.16770425225E+03  0.27856703872E+03  0.10100000352E+00 0. -1.
       -3    1    3    3    0  502 -0.13042041348E+03 -0.18018153175E+03 -0.37450999989E+03  0.43558307916E+03  0.10100000352E+00 0.  1.
</event>
<event>
 5   0  0.1858013E-02  0.6854435E+03  0.7818609E-02  0.9742455E-01
       -1   -1    0    0    0  501  0.00000000000E+00  0.00000000000E+00  0.16567377496E+03  0.16567377503E+03  0.50400001928E-02 0. -1.
        1   -1    0    0  501    0  0.00000000000E+00  0.00000000000E+00 -0.70897272051E+03  0.70897272053E+03  0.50400001928E-02 0.  1.
    10030    2    1    2    0    0  0.00000000000E+00  0.00000000000E+00 -0.54329894556E+03  0.87464649556E+03  0.68544346810E+03 0.  0.
        2    1    3    3  502    0 -0.15968597718E+02  0.21721723663E+03 -0.60930319876E+03  0.64706159833E+03  0.25500000920E-02 0.  1.
       -2    1    3    3    0  502  0.15968597718E+02 -0.21721723663E+03  0.66004253203E+02  0.22758489724E+03  0.25500000920E-02 0. -1.
</event>
<event>
 5   0  0.1969818E-02  0.7023729E+03  0.7818609E-02  0.9713183E-01
        1   -1    0    0  501    0  0.00000000000E+00  0.00000000000E+00  0.70199197291E+03  0.70199197293E+03  0.50400001928E-02 0. -1.
       -1   -1    0    0    0  501  0.00000000000E+00  0.00000000000E+00 -0.17568848391E+03  0.17568848398E+03  0.50400001928E-02 0.  1.
    10030    2    1    2    0    0  0.00000000000E+00  0.00000000000E+00  0.52630348901E+03  0.87768045691E+03  0.70237285106E+03 0.  0.
        1    1    3    3  502    0  0.29875033217E+03  0.36185452490E+02  0.36941665223E+02  0.30319273507E+03  0.50400001928E-02 0.  1.
       -1    1    3    3    0  502 -0.29875033217E+03 -0.36185452490E+02  0.48936182379E+03  0.57448772184E+03  0.50400001928E-02 0. -1.
</event>
<event>
 5   0  0.3290656E-02  0.6944206E+03  0.7818609E-02  0.9726822E-01
        2   -1    0    0  501    0  0.00000000000E+00  0.00000000000E+00  0.21013356969E+04  0.21013356969E+04  0.25500000920E-02 0. -1.
       -2   -1    0    0    0  501  0.00000000000E+00  0.00000000000E+00 -0.57370642844E+02  0.57370642901E+02  0.25500000920E-02 0.  1.
    10030    2    1    2    0    0  0.00000000000E+00  0.00000000000E+00  0.20439650541E+04  0.21587063398E+04  0.69442056371E+03 0.  0.
        1    1    3    3  502    0  0.32098416449E+03  0.12756793644E+03  0.11319146386E+04  0.11834420819E+04  0.50400001928E-02 0. -1.
       -1    1    3    3    0  502 -0.32098416449E+03 -0.12756793644E+03  0.91205041552E+03  0.97526425790E+03  0.50400001928E-02 0.  1.
</event>
<event>
 5   0  0.1839038E-02  0.6991284E+03  0.7818609E-02  0.9718724E-01
       -1   -1    0    0    0  501  0.00000000000E+00  0.00000000000E+00  0.11020324436E+03  0.11020324447E+03  0.50400001928E-02 0.  1.
        1   -1    0    0  501    0  0.00000000000E+00  0.00000000000E+00 -0.11088159874E+04  0.11088159874E+04  0.50400001928E-02 0. -1.
    10030    2    1    2    0    0  0.00000000000E+00  0.00000000000E+00 -0.99861274304E+03  0.12190192319E+04  0.69912836957E+03 0.  0.
        5    1    3    3  502    0 -0.11038475268E+03 -0.30991482543E+03 -0.29343253104E+03  0.44085908510E+03  0.46999998093E+01 0. -1.
       -5    1    3    3    0  502  0.11038475268E+03  0.30991482543E+03 -0.70518021201E+03  0.77816014679E+03  0.46999998093E+01 0.  1.
</event>
<event>
 5   0  0.1839038E-02  0.6852169E+03  0.7818609E-02  0.9742853E-01
        1   -1    0    0  501    0  0.00000000000E+00  0.00000000000E+00  0.53726066643E+03  0.53726066645E+03  0.50400001928E-02 0. -1.
       -1   -1    0    0    0  501  0.00000000000E+00  0.00000000000E+00 -0.21847970871E+03  0.21847970877E+03  0.50400001928E-02 0.  1.
    10030    2    1    2    0    0  0.00000000000E+00  0.00000000000E+00  0.31878095772E+03  0.75574037522E+03  0.68521691145E+03 0.  0.
        5    1    3    3  502    0 -0.26415201482E+03  0.69980630803E+02 -0.68476621869E+02  0.28175292964E+03  0.46999998093E+01 0.  1.
       -5    1    3    3    0  502  0.26415201482E+03 -0.69980630803E+02  0.38725757959E+03  0.47398744558E+03  0.46999998093E+01 0. -1.
</event>
<event>
 5   0  0.2933851E-02  0.7946965E+03  0.7818609E-02  0.9567726E-01
       -2   -1    0    0    0  501  0.00000000000E+00  0.00000000000E+00  0.22562919140E+03  0.22562919142E+03  0.25500000920E-02 0. -1.
        2   -1    0    0  501    0  0.00000000000E+00  0.00000000000E+00 -0.69975715447E+03  0.69975715448E+03  0.25500000920E-02 0.  1.
    10030    2    1    2    0    0  0.00000000000E+00  0.00000000000E+00 -0.47412796307E+03  0.92538634589E+03  0.79469652308E+03 0.  0.
        2    1    3    3  502    0  0.11217697752E+03  0.37394482436E+03 -0.15096348723E+03  0.41857900143E+03  0.25500000920E-02 0. -1.
       -2    1    3    3    0  502 -0.11217697752E+03 -0.37394482436E+03 -0.32316447584E+03  0.50680734447E+03  0.25500000920E-02 0.  1.
</event>
<event>
 5   0  0.2933851E-02  0.6801662E+03  0.7818609E-02  0.9751765E-01
       -2   -1    0    0    0  501  0.00000000000E+00  0.00000000000E+00  0.12791381748E+03  0.12791381751E+03  0.25500000920E-02 0. -1.
        2   -1    0    0  501    0  0.00000000000E+00  0.00000000000E+00 -0.90417522002E+03  0.90417522003E+03  0.25500000920E-02 0.  1.
    10030    2    1    2    0    0  0.00000000000E+00  0.00000000000E+00 -0.77626140254E+03  0.10320890375E+04  0.68016616818E+03 0.  0.
        2    1    3    3  502    0  0.86663292406E+02  0.32870440548E+03 -0.37300285593E+03  0.50466646706E+03  0.25500000920E-02 0.  1.
       -2    1    3    3    0  502 -0.86663292406E+02 -0.32870440548E+03 -0.40325854661E+03  0.52742257048E+03  0.25500000920E-02 0. -1.
</event>
<event>
 5   0  0.1884172E-02  0.6906920E+03  0.7818609E-02  0.9733284E-01
        1   -1    0    0  501    0  0.00000000000E+00  0.00000000000E+00  0.98226090707E+03  0.98226090708E+03  0.50400001928E-02 0. -1.
       -1   -1    0    0    0  501  0.00000000000E+00  0.00000000000E+00 -0.12141769801E+03  0.12141769811E+03  0.50400001928E-02 0.  1.
    10030    2    1    2    0    0  0.00000000000E+00  0.00000000000E+00  0.86084320906E+03  0.11036786052E+04  0.69069199573E+03 0.  0.
        3    1    3    3  502    0 -0.12399080604E+03  0.13014785002E+03  0.90161278451E+03  0.91935727889E+03  0.10100000352E+00 0. -1.
       -3    1    3    3    0  502  0.12399080604E+03 -0.13014785002E+03 -0.40769575451E+02  0.18432132630E+03  0.10100000352E+00 0.  1.
</event>
<event>
 5   0  0.3113940E-02  0.6946324E+03  0.7818609E-02  0.9726456E-01
       -2   -1    0    0    0  501  0.00000000000E+00  0.00000000000E+00  0.40933124750E+03  0.40933124751E+03  0.25500000920E-02 0. -1.
        2   -1    0    0  501    0  0.00000000000E+00  0.00000000000E+00 -0.29469665726E+03  0.29469665727E+03  0.25500000920E-02 0.  1.
    10030    2    1    2    0    0  0.00000000000E+00  0.00000000000E+00  0.11463459024E+03  0.70402790479E+03  0.69463242182E+03 0.  0.
        5    1    3    3  502    0  0.18793135712E+03 -0.75534838239E+02 -0.22860255268E+03  0.30545854689E+03  0.46999998093E+01 0.  1.
       -5    1    3    3    0  502 -0.18793135712E+03  0.75534838239E+02  0.34323714292E+03  0.39856935790E+03  0.46999998093E+01 0. -1.
</event>
<event>
 5   0  0.1951465E-02  0.6982536E+03  0.7818609E-02  0.9720223E-01
       -1   -1    0    0    0  501  0.00000000000E+00  0.00000000000E+00  0.33519966226E+03  0.33519966230E+03  0.50400001928E-02 0.  1.
        1   -1    0    0  501    0  0.00000000000E+00  0.00000000000E+00 -0.36363260135E+03  0.36363260138E+03  0.50400001928E-02 0. -1.
    10030    2    1    2    0    0  0.00000000000E+00  0.00000000000E+00 -0.28432939085E+02  0.69883226368E+03  0.69825360775E+03 0.  0.
        4    1    3    3  502    0  0.12749754644E+03 -0.27698938932E+03 -0.18438433118E+03  0.35633964224E+03  0.12699999809E+01 0. -1.
       -4    1    3    3    0  502 -0.12749754644E+03  0.27698938932E+03  0.15595139210E+03  0.34249262144E+03  0.12699999809E+01 0.  1.
</event>
<event>
 5   0  0.2933851E-02  0.6941434E+03  0.7818609E-02  0.9727300E-01
        2   -1    0    0  501    0  0.00000000000E+00  0.00000000000E+00  0.67036640761E+03  0.67036640762E+03  0.25500000920E-02 0.  1.
       -2   -1    0    0    0  501  0.00000000000E+00  0.00000000000E+00 -0.17969094317E+03  0.17969094319E+03  0.25500000920E-02 0. -1.
    10030    2    1    2    0    0  0.00000000000E+00  0.00000000000E+00  0.49067546444E+03  0.85005735081E+03  0.69414342052E+03 0.  0.
        2    1    3    3  502    0 -0.23958875750E+03  0.17305357359E+02 -0.61443265692E+02  0.24794661325E+03  0.25500000920E-02 0. -1.
       -2    1    3    3    0  502  0.23958875750E+03 -0.17305357359E+02  0.55211873013E+03  0.60211073756E+03  0.25500000920E-02 0.  1.
</event>
<event>
 5   0  0.1884172E-02  0.7046947E+03  0.7818609E-02  0.9709237E-01
        1   -1    0    0  501    0  0.00000000000E+00  0.00000000000E+00  0.99412809693E+03  0.99412809694E+03  0.50400001928E-02 0. -1.
       -1   -1    0    0    0  501  0.00000000000E+00  0.00000000000E+00 -0.12488194653E+03  0.12488194663E+03  0.50400001928E-02 0.  1.
    10030    2    1    2    0    0  0.00000000000E+00  0.00000000000E+00  0.86924615040E+03  0.11190100436E+04  0.70469469109E+03 0.  0.
        3    1    3    3  502    0  0.20514043253E+02  0.10315185218E+03 -0.99375757728E+02  0.14469513469E+03  0.10100000352E+00 0.  1.
       -3    1    3    3    0  502 -0.20514043253E+02 -0.10315185218E+03  0.96862190813E+03  0.97431490889E+03  0.10100000352E+00 0. -1.
</event>
<event>
 5   0  0.1839038E-02  0.7040897E+03  0.7818609E-02  0.9710264E-01
        1   -1    0    0  501    0  0.00000000000E+00  0.00000000000E+00  0.33910195561E+03  0.33910195565E+03  0.50400001928E-02 0.  1.
       -1   -1    0    0    0  501  0.00000000000E+00  0.00000000000E+00 -0.36548179148E+03  0.36548179151E+03  0.50400001928E-02 0. -1.
    10030    2    1    2    0    0  0.00000000000E+00  0.00000000000E+00 -0.26379835871E+02  0.70458374716E+03  0.70408973933E+03 0.  0.
        5    1    3    3  502    0  0.72667708631E+02 -0.44549858165E+02 -0.35496756325E+03  0.36508813552E+03  0.46999998093E+01 0. -1.
       -5    1    3    3    0  502 -0.72667708631E+02  0.44549858165E+02  0.32858772738E+03  0.33949561164E+03  0.46999998093E+01 0.  1.
</event>
<event>
 5   0  0.1858013E-02  0.7002119E+03  0.7818609E-02  0.9716870E-01
       -1   -1    0    0    0  501  0.00000000000E+00  0.00000000000E+00  0.59405347695E+03  0.59405347697E+03  0.50400001928E-02 0.  1.
        1   -1    0    0  501    0  0.00000000000E+00  0.00000000000E+00 -0.20633523948E+03  0.20633523954E+03  0.50400001928E-02 0. -1.
    10030    2    1    2    0    0  0.00000000000E+00  0.00000000000E+00  0.38771823747E+03  0.80038871652E+03  0.70021187212E+03 0.  0.
        2    1    3    3  502    0  0.20295632562E+03 -0.14116521932E+03 -0.89509059788E+02  0.26292729231E+03  0.25500000920E-02 0.  1.
       -2    1    3    3    0  502 -0.20295632562E+03  0.14116521932E+03  0.47722729726E+03  0.53746142420E+03  0.25500000920E-02 0. -1.
</event>
<event>
 5   0  0.1839038E-02  0.7150272E+03  0.7818609E-02  0.9691873E-01
        1   -1    0    0  501    0  0.00000000000E+00  0.00000000000E+00  0.96810416439E+03  0.96810416440E+03  0.50400001928E-02 0. -1.
       -1   -1    0    0    0  501  0.00000000000E+00  0.00000000000E+00 -0.13202708127E+03  0.13202708136E+03  0.50400001928E-02 0.  1.
    10030    2    1    2    0    0  0.00000000000E+00  0.00000000000E+00  0.83607708312E+03  0.11001312458E+04  0.71502718060E+03 0.  0.
        5    1    3    3  502    0  0.24334933211E+03  0.16234697559E+03  0.10190320981E+03  0.30980928341E+03  0.46999998093E+01 0. -1.
       -5    1    3    3    0  502 -0.24334933211E+03 -0.16234697559E+03  0.73417387331E+03  0.79032196235E+03  0.46999998093E+01 0.  1.
</event>
<event>
 5   0  0.2933851E-02  0.7079707E+03  0.7818609E-02  0.9703697E-01
        2   -1    0    0  501    0  0.00000000000E+00  0.00000000000E+00  0.41132547136E+03  0.41132547136E+03  0.25500000920E-02 0. -1.
       -2   -1    0    0    0  501  0.00000000000E+00  0.00000000000E+00 -0.30463865297E+03  0.30463865298E+03  0.25500000920E-02 0.  1.
    10030    2    1    2    0    0  0.00000000000E+00  0.00000000000E+00  0.10668681839E+03  0.71596412434E+03  0.70797072689E+03 0.  0.
        2    1    3    3  502    0  0.20691954648E+03 -0.26880530238E+03 -0.48960258153E+02  0.34273764921E+03  0.25500000920E-02 0.  1.
       -2    1    3    3    0  502 -0.20691954648E+03  0.26880530238E+03  0.15564707654E+03  0.37322647514E+03  0.25500000920E-02 0. -1.
</event>
<event>
 5   0  0.2933851E-02  0.7043863E+03  0.7818609E-02  0.9709760E-01
        2   -1    0    0  501    0  0.00000000000E+00  0.00000000000E+00  0.17848808173E+04  0.17848808173E+04  0.25500000920E-02 0. -1.
       -2   -1    0    0    0  501  0.00000000000E+00  0.00000000000E+00 -0.69494847687E+02  0.69494847733E+02  0.25500000920E-02 0.  1.
    10030    2    1    2    0    0  0.00000000000E+00  0.00000000000E+00  0.17153859697E+04  0.18543756651E+04  0.70438631612E+03 0.  0.
        2    1    3    3  502    0 -0.83435036468E+02  0.30103133117E+03  0.12859174684E+04  0.13233159121E+04  0.25500000920E-02 0. -1.
       -2    1    3    3    0  502  0.83435036468E+02 -0.30103133117E+03  0.42946850123E+03  0.53105975296E+03  0.25500000920E-02 0.  1.
</event>
<event>
 5   0  0.1858013E-02  0.7715024E+03  0.7818609E-02  0.9602208E-01
        1   -1    0    0  501    0  0.00000000000E+00  0.00000000000E+00  0.60050084784E+03  0.60050084786E+03  0.50400001928E-02 0.  1.
       -1   -1    0    0    0  501  0.00000000000E+00  0.00000000000E+00 -0.24779978917E+03  0.24779978922E+03  0.50400001928E-02 0. -1.
    10030    2    1    2    0    0  0.00000000000E+00  0.00000000000E+00  0.35270105867E+03  0.84830063708E+03  0.77150238761E+03 0.  0.
        2    1    3    3  502    0  0.20861637729E+03  0.28174209865E+03  0.35332099778E+03  0.49772997750E+03  0.25500000920E-02 0.  1.
       -2    1    3    3    0  502 -0.20861637729E+03 -0.28174209865E+03 -0.61993911434E+00  0.35057065958E+03  0.25500000920E-02 0. -1.
</event>
<event>
 5   0  0.3183963E-02  0.7194597E+03  0.7818609E-02  0.9684520E-01
        2   -1    0    0  501    0  0.00000000000E+00  0.00000000000E+00  0.79887145389E+03  0.79887145389E+03  0.25500000920E-02 0. -1.
       -2   -1    0    0    0  501  0.00000000000E+00  0.00000000000E+00 -0.16198546168E+03  0.16198546171E+03  0.25500000920E-02 0.  1.
    10030    2    1    2    0    0  0.00000000000E+00  0.00000000000E+00  0.63688599220E+03  0.96085691559E+03  0.71945968976E+03 0.  0.
        4    1    3    3  502    0 -0.27055404648E+03  0.23585949731E+03  0.28642506971E+03  0.45920597556E+03  0.12699999809E+01 0. -1.
       -4    1    3    3    0  502  0.27055404648E+03 -0.23585949731E+03  0.35046092249E+03  0.50165094003E+03  0.12699999809E+01 0.  1.
</event>
<event>
 5   0  0.1233912E-02  0.7003632E+03  0.7818609E-02  0.9716611E-01
        3   -1    0    0  501    0  0.00000000000E+00  0.00000000000E+00  0.68571634733E+02  0.68571709115E+02  0.10100000352E+00 0. -1.
       -3   -1    0    0    0  501  0.00000000000E+00  0.00000000000E+00 -0.17883063735E+04  0.17883063763E+04  0.10100000352E+00 0.  1.
    10030    2    1    2    0    0  0.00000000000E+00  0.00000000000E+00 -0.17197347388E+04  0.18568780855E+04  0.70036322902E+03 0.  0.
        2    1    3    3  502    0  0.17469223657E+03 -0.22373460956E+03 -0.14035638636E+04  0.14319797737E+04  0.25500000920E-02 0.  1.
       -2    1    3    3    0  502 -0.17469223657E+03  0.22373460956E+03 -0.31617087512E+03  0.42489831173E+03  0.25500000920E-02 0. -1.
</event>
<event>
 5   0  0.1839038E-02  0.7015788E+03  0.7818609E-02  0.9714536E-01
       -1   -1    0    0    0  501  0.00000000000E+00  0.00000000000E+00  0.34042476038E+03  0.34042476042E+03  0.50400001928E-02 0. -1.
        1   -1    0    0  501    0  0.00000000000E+00  0.00000000000E+00 -0.36146958516E+03  0.36146958519E+03  0.50400001928E-02 0.  1.
    10030    2    1    2    0    0  0.00000000000E+00  0.00000000000E+00 -0.21044824771E+02  0.70189434561E+03  0.70157878229E+03 0.  0.
        5    1    3    3  502    0  0.19546845668E+03 -0.12898878070E+03  0.25071777520E+03  0.34311443558E+03  0.46999998093E+01 0. -1.
       -5    1    3    3    0  502 -0.19546845668E+03  0.12898878070E+03 -0.27176259997E+03  0.35877991003E+03  0.46999998093E+01 0.  1.
</event>
<event>
 5   0  0.1884172E-02  0.6962510E+03  0.7818609E-02  0.9723665E-01
        1   -1    0    0  501    0  0.00000000000E+00  0.00000000000E+00  0.38981755879E+03  0.38981755883E+03  0.50400001928E-02 0. -1.
       -1   -1    0    0    0  501  0.00000000000E+00  0.00000000000E+00 -0.31089250176E+03  0.31089250180E+03  0.50400001928E-02 0.  1.
    10030    2    1    2    0    0  0.00000000000E+00  0.00000000000E+00  0.78925057034E+02  0.70071006063E+03  0.69625097805E+03 0.  0.
        3    1    3    3  502    0  0.29799799036E+02  0.85711331251E+02  0.37770558462E+03  0.38845331660E+03  0.10100000352E+00 0. -1.
       -3    1    3    3    0  502 -0.29799799036E+02 -0.85711331251E+02 -0.29878052758E+03  0.31225674403E+03  0.10100000352E+00 0.  1.
</event>
<event>
 5   0  0.2933851E-02  0.6606495E+03  0.7818609E-02  0.9786999E-01
        2   -1    0    0  501    0  0.00000000000E+00  0.00000000000E+00  0.53711516745E+03  0.53711516746E+03  0.25500000920E-02 0.  1.
       -2   -1    0    0    0  501  0.00000000000E+00  0.00000000000E+00 -0.20314903793E+03  0.20314903794E+03  0.25500000920E-02 0. -1.
    10030    2    1    2    0    0  0.00000000000E+00  0.00000000000E+00  0.33396612953E+03  0.74026420540E+03  0.66064946691E+03 0.  0.
        2    1    3    3  502    0  0.29559847940E+03  0.94453779983E+02  0.40140305849E+02  0.31290768885E+03  0.25500000920E-02 0.  1.
       -2    1    3    3    0  502 -0.29559847940E+03 -0.94453779983E+02  0.29382582368E+03  0.42735651656E+03  0.25500000920E-02 0. -1.
</event>
<event>
 5   0  0.1969818E-02  0.7011796E+03  0.7818609E-02  0.9715217E-01
       -1   -1    0    0    0  501  0.00000000000E+00  0.00000000000E+00  0.74359051842E+03  0.74359051844E+03  0.50400001928E-02 0. -1.
        1   -1    0    0  501    0  0.00000000000E+00  0.00000000000E+00 -0.16529688303E+03  0.16529688311E+03  0.50400001928E-02 0.  1.
    10030    2    1    2    0    0  0.00000000000E+00  0.00000000000E+00  0.57829363539E+03  0.90888740155E+03  0.70117956328E+03 0.  0.
        1    1    3    3  502    0  0.34299331442E+03 -0.60567141054E+02  0.34100239393E+03  0.48743761140E+03  0.50400001928E-02 0.  1.
       -1    1    3    3    0  502 -0.34299331442E+03  0.60567141054E+02  0.23729124146E+03  0.42144979015E+03  0.50400001928E-02 0. -1.
</event>
<event>
 5   0  0.2933851E-02  0.6666633E+03  0.7818609E-02  0.9776004E-01
       -2   -1    0    0    0  501  0.00000000000E+00  0.00000000000E+00  0.14204948814E+03  0.14204948816E+03  0.25500000920E-02 0.  1.
        2   -1    0    0  501    0  0.00000000000E+00  0.00000000000E+00 -0.78219222722E+03  0.78219222723E+03  0.25500000920E-02 0. -1.
    10030    2    1    2    0    0  0.00000000000E+00  0.00000000000E+00 -0.64014273908E+03  0.92424171539E+03  0.66666334988E+03 0.  0.
        2    1    3    3  502    0  0.14182071349E+03 -0.16031289029E+01  0.98130653887E+02  0.17246828704E+03  0.25500000920E-02 0.  1.
       -2    1    3    3    0  502 -0.14182071349E+03  0.16031289029E+01 -0.73827339297E+03  0.75177342835E+03  0.25500000920E-02 0. -1.
</event>
<event>
 5   0  0.2933851E-02  0.6949480E+03  0.7818609E-02  0.9725911E-01
       -2   -1    0    0    0  501  0.00000000000E+00  0.00000000000E+00  0.26984127167E+03  0.26984127168E+03  0.25500000920E-02 0.  1.
        2   -1    0    0  501    0  0.00000000000E+00  0.00000000000E+00 -0.44744154511E+03  0.44744154512E+03  0.25500000920E-02 0. -1.
    10030    2    1    2    0    0  0.00000000000E+00  0.00000000000E+00 -0.17760027344E+03  0.71728281681E+03  0.69494804278E+03 0.  0.
        2    1    3    3  502    0  0.88237574348E+02  0.21495963026E+03  0.17785283586E+03  0.29261774279E+03  0.25500000920E-02 0.  1.
       -2    1    3    3    0  502 -0.88237574348E+02 -0.21495963026E+03 -0.35545310930E+03  0.42466507401E+03  0.25500000920E-02 0. -1.
</event>
<event>
 5   0  0.1884172E-02  0.6995416E+03  0.7818609E-02  0.9718017E-01
        1   -1    0    0  501    0  0.00000000000E+00  0.00000000000E+00  0.17191245520E+03  0.17191245527E+03  0.50400001928E-02 0.  1.
       -1   -1    0    0    0  501  0.00000000000E+00  0.00000000000E+00 -0.71163893612E+03  0.71163893614E+03  0.50400001928E-02 0. -1.
    10030    2    1    2    0    0  0.00000000000E+00  0.00000000000E+00 -0.53972648092E+03  0.88355139141E+03  0.69954155492E+03 0.  0.
        3    1    3    3  502    0  0.14165733605E+03 -0.17593218547E+03 -0.60717070253E+03  0.64782343810E+03  0.10100000352E+00 0. -1.
       -3    1    3    3    0  502 -0.14165733605E+03  0.17593218547E+03  0.67444221614E+02  0.23572795331E+03  0.10100000352E+00 0.  1.
</event>
<event>
 5   0  0.1969818E-02  0.6733129E+03  0.7818609E-02  0.9763992E-01
        1   -1    0    0  501    0  0.00000000000E+00  0.00000000000E+00  0.25868605012E+03  0.25868605017E+03  0.50400001928E-02 0.  1.
       -1   -1    0    0    0  501  0.00000000000E+00  0.00000000000E+00 -0.43812779752E+03  0.43812779754E+03  0.50400001928E-02 0. -1.
    10030    2    1    2    0    0  0.00000000000E+00  0.00000000000E+00 -0.17944174739E+03  0.69681384772E+03  0.67331285274E+03 0.  0.
        1    1    3    3  502    0  0.31779470710E+03  0.60523489081E+02 -0.18614467882E+03  0.37323773935E+03  0.50400001928E-02 0. -1.
       -1    1    3    3    0  502 -0.31779470710E+03 -0.60523489081E+02  0.67029314314E+01  0.32357610837E+03  0.50400001928E-02 0.  1.
</event>
<event>
 5   0  0.1884172E-02  0.7183547E+03  0.7818609E-02  0.9686348E-01
        1   -1    0    0  501    0  0.00000000000E+00  0.00000000000E+00  0.71406622432E+03  0.71406622434E+03  0.50400001928E-02 0.  1.
       -1   -1    0    0    0  501  0.00000000000E+00  0.00000000000E+00 -0.18066723818E+03  0.18066723825E+03  0.50400001928E-02 0. -1.
    10030    2    1    2    0    0  0.00000000000E+00  0.00000000000E+00  0.53339898614E+03  0.89473346259E+03  0.71835471090E+03 0.  0.
        3    1    3    3  502    0 -0.30904117262E+03 -0.18247375954E+03  0.28454336473E+03  0.45800442783E+03  0.10100000352E+00 0.  1.
       -3    1    3    3    0  502  0.30904117262E+03  0.18247375954E+03  0.24885562141E+03  0.43672903476E+03  0.10100000352E+00 0. -1.
</event>
<event>
 5   0  0.1839038E-02  0.6993365E+03  0.7818609E-02  0.9718367E-01
        1   -1    0    0  501    0  0.00000000000E+00  0.00000000000E+00  0.12478962345E+03  0.12478962355E+03  0.50400001928E-02 0. -1.
       -1   -1    0    0    0  501  0.00000000000E+00  0.00000000000E+00 -0.97979220801E+03  0.97979220802E+03  0.50400001928E-02 0.  1.
    10030    2    1    2    0    0  0.00000000000E+00  0.00000000000E+00 -0.85500258456E+03  0.11045818316E+04  0.69933654490E+03 0.  0.
        5    1    3    3  502    0 -0.12541197871E+03  0.24453647270E+03 -0.86103236594E+02  0.28803143620E+03  0.46999998093E+01 0. -1.
       -5    1    3    3    0  502  0.12541197871E+03 -0.24453647270E+03 -0.76889934797E+03  0.81655039537E+03  0.46999998093E+01 0.  1.
</event>
<event>
 5   0  0.1951465E-02  0.7047539E+03  0.7818609E-02  0.9709137E-01
        1   -1    0    0  501    0  0.00000000000E+00  0.00000000000E+00  0.21081750378E+03  0.21081750384E+03  0.50400001928E-02 0.  1.
       -1   -1    0    0    0  501  0.00000000000E+00  0.00000000000E+00 -0.58899048371E+03  0.58899048373E+03  0.50400001928E-02 0. -1.
    10030    2    1    2    0    0  0.00000000000E+00  0.00000000000E+00 -0.37817297993E+03  0.79980798757E+03  0.70475386784E+03 0.  0.
        4    1    3    3  502    0 -0.19602843932E+03 -0.98022240430E+02 -0.50222247445E+03  0.54796399095E+03  0.12699999809E+01 0. -1.
       -4    1    3    3    0  502  0.19602843932E+03  0.98022240430E+02  0.12404949452E+03  0.25184399662E+03  0.12699999809E+01 0.  1.
</event>
<event>
 5   0  0.1951465E-02  0.6983944E+03  0.7818609E-02  0.9719982E-01
        1   -1    0    0  501    0  0.00000000000E+00  0.00000000000E+00  0.21474243274E+03  0.21474243280E+03  0.50400001928E-02 0. -1.
       -1   -1    0    0    0  501  0.00000000000E+00  0.00000000000E+00 -0.56783694956E+03  0.56783694958E+03  0.50400001928E-02 0.  1.
    10030    2    1    2    0    0  0.00000000000E+00  0.00000000000E+00 -0.35309451682E+03  0.78257938238E+03  0.69839441000E+03 0.  0.
        4    1    3    3  502    0  0.34314311482E+03  0.47609475774E+02 -0.22568799247E+03  0.41346165756E+03  0.12699999809E+01 0.  1.
       -4    1    3    3    0  502 -0.34314311482E+03 -0.47609475774E+02 -0.12740652435E+03  0.36911772482E+03  0.12699999809E+01 0. -1.
</event>
<event>
 5   0  0.3290656E-02  0.5931351E+03  0.7818609E-02  0.9919752E-01
       -2   -1    0    0    0  501  0.00000000000E+00  0.00000000000E+00  0.11596899405E+03  0.11596899408E+03  0.25500000920E-02 0.  1.
        2   -1    0    0  501    0  0.00000000000E+00  0.00000000000E+00 -0.75841226530E+03  0.75841226530E+03  0.25500000920E-02 0. -1.
    10030    2    1    2    0    0  0.00000000000E+00  0.00000000000E+00 -0.64244327125E+03  0.87438125938E+03  0.59313508578E+03 0.  0.
        1    1    3    3  502    0  0.22229669449E+03 -0.19397862385E+03 -0.27678135989E+03  0.40453856194E+03  0.50400001928E-02 0.  1.
       -1    1    3    3    0  502 -0.22229669449E+03  0.19397862385E+03 -0.36566191135E+03  0.46984269743E+03  0.50400001928E-02 0. -1.
</event>
<event>
 5   0  0.3184443E-02  0.7023227E+03  0.7818609E-02  0.9713268E-01
       -2   -1    0    0    0  501  0.00000000000E+00  0.00000000000E+00  0.10561731872E+03  0.10561731875E+03  0.25500000920E-02 0. -1.
        2   -1    0    0  501    0  0.00000000000E+00  0.00000000000E+00 -0.11675575525E+04  0.11675575525E+04  0.25500000920E-02 0.  1.
    10030    2    1    2    0    0  0.00000000000E+00  0.00000000000E+00 -0.10619402338E+04  0.12731748713E+04  0.70232271264E+03 0.  0.
        3    1    3    3  502    0 -0.71930401131E+02  0.20602602206E+03 -0.32222448654E+02  0.22058785272E+03  0.10100000352E+00 0. -1.
       -3    1    3    3    0  502  0.71930401131E+02 -0.20602602206E+03 -0.10297177852E+04  0.10525870186E+04  0.10100000352E+00 0.  1.
</event>
<event>
 5   0  0.1839038E-02  0.7008624E+03  0.7818609E-02  0.9715759E-01
       -1   -1    0    0    0  501  0.00000000000E+00  0.00000000000E+00  0.26248608176E+03  0.26248608181E+03  0.50400001928E-02 0.  1.
        1   -1    0    0  501    0  0.00000000000E+00  0.00000000000E+00 -0.46784198541E+03  0.46784198544E+03  0.50400001928E-02 0. -1.
    10030    2    1    2    0    0  0.00000000000E+00  0.00000000000E+00 -0.20535590365E+03  0.73032806725E+03  0.70086235357E+03 0.  0.
        5    1    3    3  502    0 -0.19373948474E+03  0.10077016548E+03 -0.38822468381E+03  0.44545494645E+03  0.46999998093E+01 0. -1.
       -5    1    3    3    0  502  0.19373948474E+03 -0.10077016548E+03  0.18286878016E+03  0.28487312080E+03  0.46999998093E+01 0.  1.
</event>
<event>
 5   0  0.2933851E-02  0.6956985E+03  0.7818609E-02  0.9724617E-01
        2   -1    0    0  501    0  0.00000000000E+00  0.00000000000E+00  0.33913737833E+03  0.33913737834E+03  0.25500000920E-02 0.  1.
       -2   -1    0    0    0  501  0.00000000000E+00  0.00000000000E+00 -0.35678491002E+03  0.35678491003E+03  0.25500000920E-02 0. -1.
    10030    2    1    2    0    0  0.00000000000E+00  0.00000000000E+00 -0.17647531692E+02  0.69592228836E+03  0.69569849509E+03 0.  0.
        2    1    3    3  502    0  0.21784613940E+03  0.18449711540E+03 -0.20764124949E+03  0.35300285344E+03  0.25500000920E-02 0. -1.
       -2    1    3    3    0  502 -0.21784613940E+03 -0.18449711540E+03  0.18999371779E+03  0.34291943492E+03  0.25500000920E-02 0.  1.
</event>
<event>
 5   0  0.3183963E-02  0.6881310E+03  0.7818609E-02  0.9737748E-01
       -2   -1    0    0    0  501  0.00000000000E+00  0.00000000000E+00  0.12753242563E+03  0.12753242566E+03  0.25500000920E-02 0.  1.
        2   -1    0    0  501    0  0.00000000000E+00  0.00000000000E+00 -0.92824299953E+03  0.92824299953E+03  0.25500000920E-02 0. -1.
    10030    2    1    2    0    0  0.00000000000E+00  0.00000000000E+00 -0.80071057390E+03  0.10557754252E+04  0.68813103788E+03 0.  0.
        4    1    3    3  502    0 -0.32013167034E+03  0.11284217041E+03 -0.31408337369E+03  0.46245823628E+03  0.12699999809E+01 0. -1.
       -4    1    3    3    0  502  0.32013167034E+03 -0.11284217041E+03 -0.48662720020E+03  0.59331718891E+03  0.12699999809E+01 0.  1.
</event>
<event>
 5   0  0.1951465E-02  0.6159769E+03  0.7818609E-02  0.9872802E-01
       -1   -1    0    0    0  501  0.00000000000E+00  0.00000000000E+00  0.42634571030E+03  0.42634571033E+03  0.50400001928E-02 0.  1.
        1   -1    0    0  501    0  0.00000000000E+00  0.00000000000E+00 -0.22248820897E+03  0.22248820903E+03  0.50400001928E-02 0. -1.
    10030    2    1    2    0    0  0.00000000000E+00  0.00000000000E+00  0.20385750133E+03  0.64883391936E+03  0.61597692656E+03 0.  0.
        4    1    3    3  502    0 -0.71445024765E+02 -0.27676128198E+03 -0.18880272003E+02  0.28645990354E+03  0.12699999809E+01 0. -1.
       -4    1    3    3    0  502  0.71445024765E+02  0.27676128198E+03  0.22273777334E+03  0.36237401582E+03  0.12699999809E+01 0.  1.
</event>
<event>
 5   0  0.3113940E-02  0.7379685E+03  0.7818609E-02  0.9654417E-01
       -2   -1    0    0    0  501  0.00000000000E+00  0.00000000000E+00  0.11484211221E+03  0.11484211224E+03  0.25500000920E-02 0.  1.
        2   -1    0    0  501    0  0.00000000000E+00  0.00000000000E+00 -0.11855352438E+04  0.11855352438E+04  0.25500000920E-02 0. -1.
    10030    2    1    2    0    0  0.00000000000E+00  0.00000000000E+00 -0.10706931316E+04  0.13003773560E+04  0.73796848584E+03 0.  0.
        5    1    3    3  502    0 -0.18313386171E+03  0.29111732335E+03 -0.29998871261E+03  0.45640182400E+03  0.46999998093E+01 0.  1.
       -5    1    3    3    0  502  0.18313386171E+03 -0.29111732335E+03 -0.77070441898E+03  0.84397553205E+03  0.46999998093E+01 0. -1.
</event>
<event>
 5   0  0.3184443E-02  0.7030364E+03  0.7818609E-02  0.9712054E-01
        2   -1    0    0  501    0  0.00000000000E+00  0.00000000000E+00  0.18056629641E+04  0.18056629641E+04  0.25500000920E-02 0.  1.
       -2   -1    0    0    0  501  0.00000000000E+00  0.00000000000E+00 -0.68431949099E+02  0.68431949147E+02  0.25500000920E-02 0. -1.
    10030    2    1    2    0    0  0.00000000000E+00  0.00000000000E+00  0.17372310150E+04  0.18740949132E+04  0.70303637486E+03 0.  0.
        3    1    3    3  502    0 -0.12723976296E+03 -0.62254959060E+01 -0.47320706144E+01  0.12747986810E+03  0.10100000352E+00 0. -1.
       -3    1    3    3    0  502  0.12723976296E+03  0.62254959060E+01  0.17419630856E+04  0.17466150451E+04  0.10100000352E+00 0.  1.
</event>
<event>
 5   0  0.1951465E-02  0.6997752E+03  0.7818609E-02  0.9717617E-01
        1   -1    0    0  501    0  0.00000000000E+00  0.00000000000E+00  0.11207796704E+03  0.11207796715E+03  0.50400001928E-02 0. -1.
       -1   -1    0    0    0  501  0.00000000000E+00  0.00000000000E+00 -0.10922872892E+04  0.10922872892E+04  0.50400001928E-02 0.  1.
    10030    2    1    2    0    0  0.00000000000E+00  0.00000000000E+00 -0.98020932219E+03  0.12043652564E+04  0.69977521784E+03 0.  0.
        4    1    3    3  502    0 -0.11423665862E+03  0.29008969557E+03 -0.21679673422E+03  0.37974265301E+03  0.12699999809E+01 0.  1.
       -4    1    3    3    0  502  0.11423665862E+03 -0.29008969557E+03 -0.76341258797E+03  0.82462260339E+03  0.12699999809E+01 0. -1.
</event>
<event>
 5   0  0.1233912E-02  0.7036333E+03  0.7818609E-02  0.9711039E-01
        3   -1    0    0  501    0  0.00000000000E+00  0.00000000000E+00  0.23489353546E+03  0.23489355717E+03  0.10100000352E+00 0. -1.
       -3   -1    0    0    0  501  0.00000000000E+00  0.00000000000E+00 -0.52694055746E+03  0.52694056714E+03  0.10100000352E+00 0.  1.
    10030    2    1    2    0    0  0.00000000000E+00  0.00000000000E+00 -0.29204702200E+03  0.76183412431E+03  0.70363326379E+03 0.  0.
        3    1    3    3  502    0 -0.99789295206E+02 -0.23944258330E+03 -0.40334606368E+03  0.47956095694E+03  0.10100000352E+00 0.  1.
       -3    1    3    3    0  502  0.99789295206E+02  0.23944258330E+03  0.11129904168E+03  0.28227316737E+03  0.10100000352E+00 0. -1.
</event>
<event>
 5   0  0.1969818E-02  0.7028970E+03  0.7818609E-02  0.9712291E-01
        1   -1    0    0  501    0  0.00000000000E+00  0.00000000000E+00  0.18955474851E+03  0.18955474858E+03  0.50400001928E-02 0.  1.
       -1   -1    0    0    0  501  0.00000000000E+00  0.00000000000E+00 -0.65161142241E+03  0.65161142243E+03  0.50400001928E-02 0. -1.
    10030    2    1    2    0    0  0.00000000000E+00  0.00000000000E+00 -0.46205667389E+03  0.84116617100E+03  0.70289697492E+03 0.  0.
        1    1    3    3  502    0 -0.20678561770E+03  0.12465649489E+03  0.74582596720E+02  0.25270951143E+03  0.50400001928E-02 0.  1.
       -1    1    3    3    0  502  0.20678561770E+03 -0.12465649489E+03 -0.53663927061E+03  0.58845665957E+03  0.50400001928E-02 0. -1.
</event>
<event>
 5   0  0.3183963E-02  0.7117452E+03  0.7818609E-02  0.9697355E-01
       -2   -1    0    0    0  501  0.00000000000E+00  0.00000000000E+00  0.34059661245E+03  0.34059661246E+03  0.25500000920E-02 0. -1.
        2   -1    0    0  501    0  0.00000000000E+00  0.00000000000E+00 -0.37183371787E+03  0.37183371788E+03  0.25500000920E-02 0.  1.
    10030    2    1    2    0    0  0.00000000000E+00  0.00000000000E+00 -0.31237105422E+02  0.71243033035E+03  0.71174519235E+03 0.  0.
        4    1    3    3  502    0 -0.30951392337E+03  0.17523340249E+03 -0.38565945192E+01  0.35569945225E+03  0.12699999809E+01 0.  1.
       -4    1    3    3    0  502  0.30951392337E+03 -0.17523340249E+03 -0.27380510903E+02  0.35673087810E+03  0.12699999809E+01 0. -1.
</event>
<event>
 5   0  0.3184443E-02  0.6848989E+03  0.7818609E-02  0.9743411E-01
       -2   -1    0    0    0  501  0.00000000000E+00  0.00000000000E+00  0.29359761797E+03  0.29359761798E+03  0.25500000920E-02 0. -1.
        2   -1    0    0  501    0  0.00000000000E+00  0.00000000000E+00 -0.39942973538E+03  0.39942973538E+03  0.25500000920E-02 0.  1.
    10030    2    1    2    0    0  0.00000000000E+00  0.00000000000E+00 -0.10583211741E+03  0.69302735336E+03  0.68489887971E+03 0.  0.
        3    1    3    3  502    0  0.45755804305E+02 -0.32980194575E+03  0.28088340849E+02  0.33414350531E+03  0.10100000352E+00 0.  1.
       -3    1    3    3    0  502 -0.45755804305E+02  0.32980194575E+03 -0.13392045826E+03  0.35888384805E+03  0.10100000352E+00 0. -1.
</event>
<event>
 5   0  0.2933851E-02  0.7160748E+03  0.7818609E-02  0.9690130E-01
        2   -1    0    0  501    0  0.00000000000E+00  0.00000000000E+00  0.19939392909E+04  0.19939392909E+04  0.25500000920E-02 0.  1.
       -2   -1    0    0    0  501  0.00000000000E+00  0.00000000000E+00 -0.64290206503E+02  0.64290206554E+02  0.25500000920E-02 0. -1.
    10030    2    1    2    0    0  0.00000000000E+00  0.00000000000E+00  0.19296490844E+04  0.20582294974E+04  0.71607476934E+03 0.  0.
        2    1    3    3  502    0 -0.26600181793E+03 -0.17631454341E+03  0.49827166120E+03  0.59170806461E+03  0.25500000920E-02 0. -1.
       -2    1    3    3    0  502  0.26600181793E+03  0.17631454341E+03  0.14313774232E+04  0.14665214328E+04  0.25500000920E-02 0.  1.
</event>
<event>
 5   0  0.2933851E-02  0.6988281E+03  0.7818609E-02  0.9719238E-01
        2   -1    0    0  501    0  0.00000000000E+00  0.00000000000E+00  0.15141281059E+04  0.15141281059E+04  0.25500000920E-02 0. -1.
       -2   -1    0    0    0  501  0.00000000000E+00  0.00000000000E+00 -0.80633990293E+02  0.80633990333E+02  0.25500000920E-02 0.  1.
    10030    2    1    2    0    0  0.00000000000E+00  0.00000000000E+00  0.14334941156E+04  0.15947620962E+04  0.69882813631E+03 0.  0.
        2    1    3    3  502    0  0.24440246610E+03 -0.23691256707E+03  0.89687109702E+03  0.95929030775E+03  0.25500000920E-02 0.  1.
       -2    1    3    3    0  502 -0.24440246610E+03  0.23691256707E+03  0.53662301855E+03  0.63547178845E+03  0.25500000920E-02 0. -1.
</event>
<event>
 5   0  0.3183963E-02  0.7263593E+03  0.7818609E-02  0.9673187E-01
       -2   -1    0    0    0  501  0.00000000000E+00  0.00000000000E+00  0.32268040910E+03  0.32268040912E+03  0.25500000920E-02 0. -1.
        2   -1    0    0  501    0  0.00000000000E+00  0.00000000000E+00 -0.40876185914E+03  0.40876185914E+03  0.25500000920E-02 0.  1.
    10030    2    1    2    0    0  0.00000000000E+00  0.00000000000E+00 -0.86081450030E+02  0.73144226826E+03  0.72635926080E+03 0.  0.
        4    1    3    3  502    0 -0.10695952224E+02  0.10813829862E+03  0.30592370296E+03  0.32465246026E+03  0.12699999809E+01 0. -1.
       -4    1    3    3    0  502  0.10695952224E+02 -0.10813829862E+03 -0.39200515299E+03  0.40678980800E+03  0.12699999809E+01 0.  1.
</event>
<event>
 5   0  0.3113940E-02  0.7102946E+03  0.7818609E-02  0.9699787E-01
       -2   -1    0    0    0  501  0.00000000000E+00  0.00000000000E+00  0.76299644129E+02  0.76299644171E+02  0.25500000920E-02 0.  1.
        2   -1    0    0  501    0  0.00000000000E+00  0.00000000000E+00 -0.16530824050E+04  0.16530824050E+04  0.25500000920E-02 0. -1.
    10030    2    1    2    0    0  0.00000000000E+00  0.00000000000E+00 -0.15767827608E+04  0.17293820491E+04  0.71029458467E+03 0.  0.
        5    1    3    3  502    0 -0.10396154467E+03 -0.25585886610E+03 -0.24486211883E+03  0.36912235013E+03  0.46999998093E+01 0.  1.
       -5    1    3    3    0  502  0.10396154467E+03  0.25585886610E+03 -0.13319206420E+04  0.13602596990E+04  0.46999998093E+01 0. -1.
</event>
<event>
 5   0  0.3113940E-02  0.7004667E+03  0.7818609E-02  0.9716434E-01
       -2   -1    0    0    0  501  0.00000000000E+00  0.00000000000E+00  0.26869144839E+03  0.26869144840E+03  0.25500000920E-02 0. -1.
        2   -1    0    0  501    0  0.00000000000E+00  0.00000000000E+00 -0.45652145643E+03  0.45652145643E+03  0.25500000920E-02 0.  1.
    10030    2    1    2    0    0  0.00000000000E+00  0.00000000000E+00 -0.18783000804E+03  0.72521290483E+03  0.70046673399E+03 0.  0.
        5    1    3    3  502    0 -0.14370057481E+03 -0.98662391358E+02 -0.40838422178E+03  0.44405392157E+03  0.46999998093E+01 0.  1.
       -5    1    3    3    0  502  0.14370057481E+03  0.98662391358E+02  0.22055421374E+03  0.28115898326E+03  0.46999998093E+01 0. -1.
</event>
<event>
 5   0  0.3184443E-02  0.7002272E+03  0.7818609E-02  0.9716844E-01
       -2   -1    0    0    0  501  0.00000000000E+00  0.00000000000E+00  0.34120232997E+03  0.34120232998E+03  0.25500000920E-02 0.  1.
        2   -1    0    0  501    0  0.00000000000E+00  0.00000000000E+00 -0.35925760964E+03  0.35925760965E+03  0.25500000920E-02 0. -1.
    10030    2    1    2    0    0  0.00000000000E+00  0.00000000000E+00 -0.18055279673E+02  0.70045993963E+03  0.70022720163E+03 0.  0.
        3    1    3    3  502    0  0.10209441958E+03 -0.59384768978E+02  0.32067211080E+03  0.34173152348E+03  0.10100000352E+00 0.  1.
       -3    1    3    3    0  502 -0.10209441958E+03  0.59384768978E+02 -0.33872739047E+03  0.35872841615E+03  0.10100000352E+00 0. -1.
</event>
<event>
 5   0  0.1969818E-02  0.6875177E+03  0.7818609E-02  0.9738820E-01
       -1   -1    0    0    0  501  0.00000000000E+00  0.00000000000E+00  0.36518770433E+03  0.36518770437E+03  0.50400001928E-02 0. -1.
        1   -1    0    0  501    0  0.00000000000E+00  0.00000000000E+00 -0.32358744025E+03  0.32358744029E+03  0.50400001928E-02 0.  1.
    10030    2    1    2    0    0  0.00000000000E+00  0.00000000000E+00  0.41600264083E+02  0.68877514465E+03  0.68751772189E+03 0.  0.
        1    1    3    3  502    0  0.52250455066E+02  0.33926547761E+03  0.23550466377E+01  0.34327353616E+03  0.50400001928E-02 0. -1.
       -1    1    3    3    0  502 -0.52250455066E+02 -0.33926547761E+03  0.39245217445E+02  0.34550160850E+03  0.50400001928E-02 0.  1.
</event>
<event>
 5   0  0.1969818E-02  0.7014332E+03  0.7818609E-02  0.9714784E-01
       -1   -1    0    0    0  501  0.00000000000E+00  0.00000000000E+00  0.96672375999E+02  0.96672376131E+02  0.50400001928E-02 0.  1.
        1   -1    0    0  501    0  0.00000000000E+00  0.00000000000E+00 -0.12723606554E+04  0.12723606555E+04  0.50400001928E-02 0. -1.
    10030    2    1    2    0    0  0.00000000000E+00  0.00000000000E+00 -0.11756882794E+04  0.13690330316E+04  0.70143318366E+03 0.  0.
        1    1    3    3  502    0  0.15631126319E+03  0.24478014228E+03 -0.97156141322E+03  0.10140424590E+04  0.50400001928E-02 0. -1.
       -1    1    3    3    0  502 -0.15631126319E+03 -0.24478014228E+03 -0.20412686622E+03  0.35499057254E+03  0.50400001928E-02 0.  1.
</event>
<event>
 5   0  0.2933851E-02  0.6964945E+03  0.7818609E-02  0.9723246E-01
       -2   -1    0    0    0  501  0.00000000000E+00  0.00000000000E+00  0.13894873952E+03  0.13894873954E+03  0.25500000920E-02 0.  1.
        2   -1    0    0  501    0  0.00000000000E+00  0.00000000000E+00 -0.87281223157E+03  0.87281223157E+03  0.25500000920E-02 0. -1.
    10030    2    1    2    0    0  0.00000000000E+00  0.00000000000E+00 -0.73386349205E+03  0.10117609711E+04  0.69649453529E+03 0.  0.
        2    1    3    3  502    0 -0.22485491789E+03  0.26016952865E+03 -0.44687015047E+03  0.56386243812E+03  0.25500000920E-02 0. -1.
       -2    1    3    3    0  502  0.22485491789E+03 -0.26016952865E+03 -0.28699334158E+03  0.44789853299E+03  0.25500000920E-02 0.  1.
</event>
<event>
 5   0  0.3183963E-02  0.6954476E+03  0.7818609E-02  0.9725049E-01
        2   -1    0    0  501    0  0.00000000000E+00  0.00000000000E+00  0.15733559906E+04  0.15733559906E+04  0.25500000920E-02 0.  1.
       -2   -1    0    0    0  501  0.00000000000E+00  0.00000000000E+00 -0.76849649408E+02  0.76849649450E+02  0.25500000920E-02 0. -1.
    10030    2    1    2    0    0  0.00000000000E+00  0.00000000000E+00  0.14965063412E+04  0.16502056401E+04  0.69544764378E+03 0.  0.
        4    1    3    3  502    0  0.12895071889E+02 -0.25991389984E+03  0.20100613486E+03  0.32882608984E+03  0.12699999809E+01 0. -1.
       -4    1    3    3    0  502 -0.12895071889E+02  0.25991389984E+03  0.12955002064E+04  0.13213795502E+04  0.12699999809E+01 0.  1.
</event>
<event>
 5   0  0.1839038E-02  0.7384540E+03  0.7818609E-02  0.9653640E-01
       -1   -1    0    0    0  501  0.00000000000E+00  0.00000000000E+00  0.16779453120E+03  0.16779453127E+03  0.50400001928E-02 0. -1.
        1   -1    0    0  501    0  0.00000000000E+00  0.00000000000E+00 -0.81247326568E+03  0.81247326569E+03  0.50400001928E-02 0.  1.
    10030    2    1    2    0    0  0.00000000000E+00  0.00000000000E+00 -0.64467873448E+03  0.98026779697E+03  0.73845398169E+03 0.  0.
        5    1    3    3  502    0  0.23245499200E+03 -0.25060857235E+03 -0.50754971476E+03  0.61193854495E+03  0.46999998093E+01 0. -1.
       -5    1    3    3    0  502 -0.23245499200E+03  0.25060857235E+03 -0.13712901972E+03  0.36832925202E+03  0.46999998093E+01 0.  1.
</event>
<event>
 5   0  0.1233912E-02  0.7007007E+03  0.7818609E-02  0.9716035E-01
       -3   -1    0    0    0  501  0.00000000000E+00  0.00000000000E+00  0.69780821479E+03  0.69780822210E+03  0.10100000352E+00 0. -1.
        3   -1    0    0  501    0  0.00000000000E+00  0.00000000000E+00 -0.17590128714E+03  0.17590131614E+03  0.10100000352E+00 0.  1.
    10030    2    1    2    0    0  0.00000000000E+00  0.00000000000E+00  0.52190692765E+03  0.87370953824E+03  0.70070073219E+03 0.  0.
        4    1    3    3  502    0  0.21508580436E+03  0.10843289501E+03 -0.56271788216E+02  0.24736152289E+03  0.12699999809E+01 0.  1.
       -4    1    3    3    0  502 -0.21508580436E+03 -0.10843289501E+03  0.57817871586E+03  0.62634801535E+03  0.12699999809E+01 0. -1.
</event>
<event>
 5   0  0.3290656E-02  0.7006626E+03  0.7818609E-02  0.9716100E-01
       -2   -1    0    0    0  501  0.00000000000E+00  0.00000000000E+00  0.11527490466E+03  0.11527490469E+03  0.25500000920E-02 0.  1.
        2   -1    0    0  501    0  0.00000000000E+00  0.00000000000E+00 -0.10646899788E+04  0.10646899788E+04  0.25500000920E-02 0. -1.
    10030    2    1    2    0    0  0.00000000000E+00  0.00000000000E+00 -0.94941507417E+03  0.11799648835E+04  0.70066264584E+03 0.  0.
        1    1    3    3  502    0  0.24884447712E+03 -0.21239626881E+03 -0.68569593931E+03  0.75974645114E+03  0.50400001928E-02 0.  1.
       -1    1    3    3    0  502 -0.24884447712E+03  0.21239626881E+03 -0.26371913486E+03  0.42021843238E+03  0.50400001928E-02 0. -1.
</event>
<event>
 5   0  0.1839038E-02  0.6906105E+03  0.7818609E-02  0.9733426E-01
       -1   -1    0    0    0  501  0.00000000000E+00  0.00000000000E+00  0.58852649260E+03  0.58852649262E+03  0.50400001928E-02 0.  1.
        1   -1    0    0  501    0  0.00000000000E+00  0.00000000000E+00 -0.20260043127E+03  0.20260043133E+03  0.50400001928E-02 0. -1.
    10030    2    1    2    0    0  0.00000000000E+00  0.00000000000E+00  0.38592606133E+03  0.79112692396E+03  0.69061051613E+03 0.  0.
        5    1    3    3  502    0 -0.58665382955E+01  0.34381110088E+03  0.15722743202E+03  0.37813098886E+03  0.46999998093E+01 0. -1.
       -5    1    3    3    0  502  0.58665382955E+01 -0.34381110088E+03  0.22869862931E+03  0.41299593510E+03  0.46999998093E+01 0.  1.
</event>
<event>
 5   0  0.1951465E-02  0.6922352E+03  0.7818609E-02  0.9730604E-01
       -1   -1    0    0    0  501  0.00000000000E+00  0.00000000000E+00  0.21895901871E+03  0.21895901877E+03  0.50400001928E-02 0.  1.
        1   -1    0    0  501    0  0.00000000000E+00  0.00000000000E+00 -0.54712240626E+03  0.54712240628E+03  0.50400001928E-02 0. -1.
    10030    2    1    2    0    0  0.00000000000E+00  0.00000000000E+00 -0.32816338755E+03  0.76608142505E+03  0.69223517744E+03 0.  0.
        4    1    3    3  502    0  0.23507876731E+03  0.27771516161E+02 -0.44353155340E+03  0.50274758648E+03  0.12699999809E+01 0. -1.
       -4    1    3    3    0  502 -0.23507876731E+03 -0.27771516161E+02  0.11536816585E+03  0.26333383858E+03  0.12699999809E+01 0.  1.
</event>
<event>
 5   0  0.1951465E-02  0.6974177E+03  0.7818609E-02  0.9721659E-01
        1   -1    0    0  501    0  0.00000000000E+00  0.00000000000E+00  0.19226056459E+04  0.19226056459E+04  0.50400001928E-02 0.  1.
       -1   -1    0    0    0  501  0.00000000000E+00  0.00000000000E+00 -0.63246380569E+02  0.63246380770E+02  0.50400001928E-02 0. -1.
    10030    2    1    2    0    0  0.00000000000E+00  0.00000000000E+00  0.18593592653E+04  0.19858520267E+04  0.69741766130E+03 0.  0.
        4    1    3    3  502    0  0.18486255341E+02 -0.13738975718E+03  0.18595616479E+02  0.13987529041E+03  0.12699999809E+01 0. -1.
       -4    1    3    3    0  502 -0.18486255341E+02  0.13738975718E+03  0.18407636489E+04  0.18459767363E+04  0.12699999809E+01 0.  1.
</event>
<event>
 5   0  0.1969818E-02  0.6990637E+03  0.7818609E-02  0.9718835E-01
        1   -1    0    0  501    0  0.00000000000E+00  0.00000000000E+00  0.14477139174E+03  0.14477139183E+03  0.50400001928E-02 0. -1.
       -1   -1    0    0    0  501  0.00000000000E+00  0.00000000000E+00 -0.84389945577E+03  0.84389945579E+03  0.50400001928E-02 0.  1.
    10030    2    1    2    0    0  0.00000000000E+00  0.00000000000E+00 -0.69912806403E+03  0.98867084761E+03  0.69906365590E+03 0.  0.
        1    1    3    3  502    0  0.13856236824E+03 -0.30616134889E+03 -0.48549819605E+03  0.59045982069E+03  0.50400001928E-02 0.  1.
       -1    1    3    3    0  502 -0.13856236824E+03  0.30616134889E+03 -0.21362986798E+03  0.39821102693E+03  0.50400001928E-02 0. -1.
</event>
<event>
 5   0  0.1969818E-02  0.7036976E+03  0.7818609E-02  0.9710930E-01
        1   -1    0    0  501    0  0.00000000000E+00  0.00000000000E+00  0.41631731996E+03  0.41631731999E+03  0.50400001928E-02 0.  1.
       -1   -1    0    0    0  501  0.00000000000E+00  0.00000000000E+00 -0.29736348427E+03  0.29736348432E+03  0.50400001928E-02 0. -1.
    10030    2    1    2    0    0  0.00000000000E+00  0.00000000000E+00  0.11895383568E+03  0.71368080430E+03  0.70369757382E+03 0.  0.
        1    1    3    3  502    0 -0.23151729879E+03  0.23569070548E+03  0.18221950579E+03  0.37729871005E+03  0.50400001928E-02 0.  1.
       -1    1    3    3    0  502  0.23151729879E+03 -0.23569070548E+03 -0.63265670108E+02  0.33638209425E+03  0.50400001928E-02 0. -1.
</event>
<event>
 5   0  0.1233912E-02  0.7062605E+03  0.7818609E-02  0.9706585E-01
        4   -1    0    0  501    0  0.00000000000E+00  0.00000000000E+00  0.33089733075E+03  0.33089976790E+03  0.12699999809E+01 0. -1.
       -4   -1    0    0    0  501  0.00000000000E+00  0.00000000000E+00 -0.37685211553E+03  0.37685425548E+03  0.12699999809E+01 0.  1.
    10030    2    1    2    0    0  0.00000000000E+00  0.00000000000E+00 -0.45954784777E+02  0.70775402339E+03  0.70626051523E+03 0.  0.
        3    1    3    3  502    0 -0.22854429949E+03  0.21996160078E+03 -0.17850018467E+03  0.36397517604E+03  0.10100000352E+00 0.  1.
       -3    1    3    3    0  502  0.22854429949E+03 -0.21996160078E+03  0.13254539990E+03  0.34377884734E+03  0.10100000352E+00 0. -1.
</event>
<event>
 5   0  0.1839038E-02  0.6981576E+03  0.7818609E-02  0.9720388E-01
        1   -1    0    0  501    0  0.00000000000E+00  0.00000000000E+00  0.14898306911E+03  0.14898306920E+03  0.50400001928E-02 0.  1.
       -1   -1    0    0    0  501  0.00000000000E+00  0.00000000000E+00 -0.81791845217E+03  0.81791845218E+03  0.50400001928E-02 0. -1.
    10030    2    1    2    0    0  0.00000000000E+00  0.00000000000E+00 -0.66893538305E+03  0.96690152138E+03  0.69815757917E+03 0.  0.
        5    1    3    3  502    0  0.58335171290E+02 -0.33327514333E+03 -0.45327039530E+03  0.56564251486E+03  0.46999998093E+01 0. -1.
       -5    1    3    3    0  502 -0.58335171290E+02  0.33327514333E+03 -0.21566498776E+03  0.40125900652E+03  0.46999998093E+01 0.  1.
</event>
<event>
 5   0  0.3184443E-02  0.7010972E+03  0.7818609E-02  0.9715358E-01
       -2   -1    0    0    0  501  0.00000000000E+00  0.00000000000E+00  0.10796176530E+03  0.10796176533E+03  0.25500000920E-02 0.  1.
        2   -1    0    0  501    0  0.00000000000E+00  0.00000000000E+00 -0.11382207132E+04  0.11382207132E+04  0.25500000920E-02 0. -1.
    10030    2    1    2    0    0  0.00000000000E+00  0.00000000000E+00 -0.10302589479E+04  0.12461824786E+04  0.70109719019E+03 0.  0.
        3    1    3    3  502    0  0.23921645924E+02  0.34215085924E+03 -0.38640236358E+03  0.51666841631E+03  0.10100000352E+00 0.  1.
       -3    1    3    3    0  502 -0.23921645924E+02 -0.34215085924E+03 -0.64385658434E+03  0.72951406225E+03  0.10100000352E+00 0. -1.
</event>
<event>
 5   0  0.1884172E-02  0.7104019E+03  0.7818609E-02  0.9699607E-01
       -1   -1    0    0    0  501  0.00000000000E+00  0.00000000000E+00  0.50041226382E+03  0.50041226384E+03  0.50400001928E-02 0.  1.
        1   -1    0    0  501    0  0.00000000000E+00  0.00000000000E+00 -0.25212754195E+03  0.25212754200E+03  0.50400001928E-02 0. -1.
    10030    2    1    2    0    0  0.00000000000E+00  0.00000000000E+00  0.24828472187E+03  0.75253980585E+03  0.71040189771E+03 0.  0.
        3    1    3    3  502    0  0.88149045125E+01 -0.35504973957E+03  0.11837091316E+03  0.37436573480E+03  0.10100000352E+00 0. -1.
       -3    1    3    3    0  502 -0.88149045125E+01  0.35504973957E+03  0.12991380871E+03  0.37817407104E+03  0.10100000352E+00 0.  1.
</event>
<event>
 5   0  0.1858013E-02  0.6923262E+03  0.7818609E-02  0.9730446E-01
       -1   -1    0    0    0  501  0.00000000000E+00  0.00000000000E+00  0.35691235475E+03  0.35691235479E+03  0.50400001928E-02 0.  1.
        1   -1    0    0  501    0  0.00000000000E+00  0.00000000000E+00 -0.33573753599E+03  0.33573753603E+03  0.50400001928E-02 0. -1.
    10030    2    1    2    0    0  0.00000000000E+00  0.00000000000E+00  0.21174818758E+02  0.69264989082E+03  0.69232615024E+03 0.  0.
        2    1    3    3  502    0 -0.21260289341E+03  0.24440281595E+03  0.13269425750E+03  0.35005784195E+03  0.25500000920E-02 0.  1.
       -2    1    3    3    0  502  0.21260289341E+03 -0.24440281595E+03 -0.11151943874E+03  0.34259204887E+03  0.25500000920E-02 0. -1.
</event>
<event>
 5   0  0.3113940E-02  0.6840173E+03  0.7818609E-02  0.9744962E-01
       -2   -1    0    0    0  501  0.00000000000E+00  0.00000000000E+00  0.13696163880E+03  0.13696163882E+03  0.25500000920E-02 0. -1.
        2   -1    0    0  501    0  0.00000000000E+00  0.00000000000E+00 -0.85403415546E+03  0.85403415546E+03  0.25500000920E-02 0.  1.
    10030    2    1    2    0    0  0.00000000000E+00  0.00000000000E+00 -0.71707251666E+03  0.99099579429E+03  0.68401730252E+03 0.  0.
        5    1    3    3  502    0  0.22316815401E+03 -0.25011333635E+03 -0.45666016894E+03  0.56649916671E+03  0.46999998093E+01 0. -1.
       -5    1    3    3    0  502 -0.22316815401E+03  0.25011333635E+03 -0.26041234772E+03  0.42449662758E+03  0.46999998093E+01 0.  1.
</event>
<event>
 5   0  0.3184443E-02  0.6992589E+03  0.7818609E-02  0.9718500E-01
       -2   -1    0    0    0  501  0.00000000000E+00  0.00000000000E+00  0.43454530744E+03  0.43454530744E+03  0.25500000920E-02 0.  1.
        2   -1    0    0  501    0  0.00000000000E+00  0.00000000000E+00 -0.28130722998E+03  0.28130722999E+03  0.25500000920E-02 0. -1.
    10030    2    1    2    0    0  0.00000000000E+00  0.00000000000E+00  0.15323807745E+03  0.71585253743E+03  0.69925885548E+03 0.  0.
        3    1    3    3  502    0  0.15638423762E+03  0.17778087222E+03  0.33997586055E+03  0.41430141716E+03  0.10100000352E+00 0.  1.
       -3    1    3    3    0  502 -0.15638423762E+03 -0.17778087222E+03 -0.18673778310E+03  0.30155112028E+03  0.10100000352E+00 0. -1.
</event>
<event>
 5   0  0.1969818E-02  0.6985388E+03  0.7818609E-02  0.9719734E-01
       -1   -1    0    0    0  501  0.00000000000E+00  0.00000000000E+00  0.69991544918E+03  0.69991544920E+03  0.50400001928E-02 0.  1.
        1   -1    0    0  501    0  0.00000000000E+00  0.00000000000E+00 -0.17429123708E+03  0.17429123715E+03  0.50400001928E-02 0. -1.
    10030    2    1    2    0    0  0.00000000000E+00  0.00000000000E+00  0.52562421210E+03  0.87420668636E+03  0.69853884511E+03 0.  0.
        1    1    3    3  502    0  0.29362807229E+03 -0.14193977729E+03  0.41924589963E+03  0.53116049325E+03  0.50400001928E-02 0.  1.
       -1    1    3    3    0  502 -0.29362807229E+03  0.14193977729E+03  0.10637831248E+03  0.34304619310E+03  0.50400001928E-02 0. -1.
</event>
<event>
 5   0  0.3183963E-02  0.7000314E+03  0.7818609E-02  0.9717179E-01
       -2   -1    0    0    0  501  0.00000000000E+00  0.00000000000E+00  0.10190400149E+03  0.10190400152E+03  0.25500000920E-02 0. -1.
        2   -1    0    0  501    0  0.00000000000E+00  0.00000000000E+00 -0.12022195052E+04  0.12022195052E+04  0.25500000920E-02 0.  1.
    10030    2    1    2    0    0  0.00000000000E+00  0.00000000000E+00 -0.11003155037E+04  0.13041235067E+04  0.70003136577E+03 0.  0.
        4    1    3    3  502    0  0.11916690024E+03 -0.11515439939E+03  0.24187317040E+02  0.16747514746E+03  0.12699999809E+01 0. -1.
       -4    1    3    3    0  502 -0.11916690024E+03  0.11515439939E+03 -0.11245028207E+04  0.11366483592E+04  0.12699999809E+01 0.  1.
</event>
<event>
 5   0  0.3290656E-02  0.6977904E+03  0.7818609E-02  0.9721018E-01
        2   -1    0    0  501    0  0.00000000000E+00  0.00000000000E+00  0.23368121272E+04  0.23368121272E+04  0.25500000920E-02 0. -1.
       -2   -1    0    0    0  501  0.00000000000E+00  0.00000000000E+00 -0.52091417262E+02  0.52091417325E+02  0.25500000920E-02 0.  1.
    10030    2    1    2    0    0  0.00000000000E+00  0.00000000000E+00  0.22847207099E+04  0.23889035445E+04  0.69779038588E+03 0.  0.
        1    1    3    3  502    0  0.52702805651E+02  0.15249162630E+03  0.83297275939E+02  0.18157565370E+03  0.50400001928E-02 0.  1.
       -1    1    3    3    0  502 -0.52702805651E+02 -0.15249162630E+03  0.22014234340E+04  0.22073278908E+04  0.50400001928E-02 0. -1.
</event>
<event>
 5   0  0.3184443E-02  0.6971160E+03  0.7818609E-02  0.9722177E-01
        2   -1    0    0  501    0  0.00000000000E+00  0.00000000000E+00  0.14376060731E+04  0.14376060731E+04  0.25500000920E-02 0.  1.
       -2   -1    0    0    0  501  0.00000000000E+00  0.00000000000E+00 -0.84510410899E+02  0.84510410938E+02  0.25500000920E-02 0. -1.
    10030    2    1    2    0    0  0.00000000000E+00  0.00000000000E+00  0.13530956622E+04  0.15221164840E+04  0.69711600176E+03 0.  0.
        3    1    3    3  502    0 -0.90415143814E+01 -0.89671904836E+02 -0.58628746821E+02  0.10751808989E+03  0.10100000352E+00 0. -1.
       -3    1    3    3    0  502  0.90415143814E+01  0.89671904836E+02  0.14117244090E+04  0.14145983941E+04  0.10100000352E+00 0.  1.
</event>
<event>
 5   0  0.1839038E-02  0.7043453E+03  0.7818609E-02  0.9709830E-01
       -1   -1    0    0    0  501  0.00000000000E+00  0.00000000000E+00  0.68630804361E+02  0.68630804546E+02  0.50400001928E-02 0.  1.
        1   -1    0    0  501    0  0.00000000000E+00  0.00000000000E+00 -0.18071415211E+04  0.18071415211E+04  0.50400001928E-02 0. -1.
    10030    2    1    2    0    0  0.00000000000E+00  0.00000000000E+00 -0.17385107167E+04  0.18757723256E+04  0.70434530271E+03 0.  0.
        5    1    3    3  502    0 -0.10026101379E+03  0.24237765524E+03 -0.14949766122E+04  0.15178196071E+04  0.46999998093E+01 0. -1.
       -5    1    3    3    0  502  0.10026101379E+03 -0.24237765524E+03 -0.24353410450E+03  0.35795271852E+03  0.46999998093E+01 0.  1.
</event>
<event>
 5   0  0.1858013E-02  0.6918433E+03  0.7818609E-02  0.9731284E-01
        1   -1    0    0  501    0  0.00000000000E+00  0.00000000000E+00  0.77446672768E+03  0.77446672770E+03  0.50400001928E-02 0. -1.
       -1   -1    0    0    0  501  0.00000000000E+00  0.00000000000E+00 -0.15450863154E+03  0.15450863162E+03  0.50400001928E-02 0.  1.
    10030    2    1    2    0    0  0.00000000000E+00  0.00000000000E+00  0.61995809614E+03  0.92897535933E+03  0.69184331843E+03 0.  0.
        2    1    3    3  502    0 -0.22797964707E+03 -0.24228958264E+03  0.43724232619E+03  0.54941770371E+03  0.25500000920E-02 0. -1.
       -2    1    3    3    0  502  0.22797964707E+03  0.24228958264E+03  0.18271576995E+03  0.37955765561E+03  0.25500000920E-02 0.  1.
</event>
<event>
 5   0  0.1969818E-02  0.7136247E+03  0.7818609E-02  0.9694212E-01
        1   -1    0    0  501    0  0.00000000000E+00  0.00000000000E+00  0.23358057703E+03  0.23358057708E+03  0.50400001928E-02 0.  1.
       -1   -1    0    0    0  501  0.00000000000E+00  0.00000000000E+00 -0.54505834442E+03  0.54505834444E+03  0.50400001928E-02 0. -1.
    10030    2    1    2    0    0  0.00000000000E+00  0.00000000000E+00 -0.31147776739E+03  0.77863892153E+03  0.71362467063E+03 0.  0.
        1    1    3    3  502    0  0.75443457659E+02 -0.23060325498E+03  0.12971673510E+03  0.27512907498E+03  0.50400001928E-02 0.  1.
       -1    1    3    3    0  502 -0.75443457659E+02  0.23060325498E+03 -0.44119450249E+03  0.50350984654E+03  0.50400001928E-02 0. -1.
</event>
<event>
 5   0  0.2933851E-02  0.6929213E+03  0.7818609E-02  0.9729415E-01
       -2   -1    0    0    0  501  0.00000000000E+00  0.00000000000E+00  0.33847126865E+03  0.33847126866E+03  0.25500000920E-02 0. -1.
        2   -1    0    0  501    0  0.00000000000E+00  0.00000000000E+00 -0.35463860247E+03  0.35463860248E+03  0.25500000920E-02 0.  1.
    10030    2    1    2    0    0  0.00000000000E+00  0.00000000000E+00 -0.16167333819E+02  0.69310987113E+03  0.69292128758E+03 0.  0.
        2    1    3    3  502    0  0.50381452608E+01  0.18421584523E+03  0.28538008709E+03  0.33970966230E+03  0.25500000920E-02 0. -1.
       -2    1    3    3    0  502 -0.50381452608E+01 -0.18421584523E+03 -0.30154742091E+03  0.35340020884E+03  0.25500000920E-02 0.  1.
</event>
<event>
 5   0  0.3183963E-02  0.6713081E+03  0.7818609E-02  0.9767598E-01
        2   -1    0    0  501    0  0.00000000000E+00  0.00000000000E+00  0.39043059040E+03  0.39043059040E+03  0.25500000920E-02 0.  1.
       -2   -1    0    0    0  501  0.00000000000E+00  0.00000000000E+00 -0.28856253880E+03  0.28856253882E+03  0.25500000920E-02 0. -1.
    10030    2    1    2    0    0  0.00000000000E+00  0.00000000000E+00  0.10186805159E+03  0.67899312922E+03  0.67130810333E+03 0.  0.
        4    1    3    3  502    0  0.47306454794E+02  0.94979640063E+02  0.37301782851E+03  0.38781818676E+03  0.12699999809E+01 0.  1.
       -4    1    3    3    0  502 -0.47306454794E+02 -0.94979640063E+02 -0.27114977692E+03  0.29117494246E+03  0.12699999809E+01 0. -1.
</event>
<event>
 5   0  0.1858013E-02  0.7057979E+03  0.7818609E-02  0.9707368E-01
        1   -1    0    0  501    0  0.00000000000E+00  0.00000000000E+00  0.14980909280E+04  0.14980909280E+04  0.50400001928E-02 0. -1.
       -1   -1    0    0    0  501  0.00000000000E+00  0.00000000000E+00 -0.83130924743E+02  0.83130924895E+02  0.50400001928E-02 0.  1.
    10030    2    1    2    0    0  0.00000000000E+00  0.00000000000E+00  0.14149600032E+04  0.15812218529E+04  0.70579794366E+03 0.  0.
        2    1    3    3  502    0  0.67560903862E+02 -0.28520125314E+03  0.11478261345E+04  0.11846556738E+04  0.25500000920E-02 0. -1.
       -2    1    3    3    0  502 -0.67560903862E+02  0.28520125314E+03  0.26713386874E+03  0.39656617904E+03  0.25500000920E-02 0.  1.
</event>
<event>
 5   0  0.1233912E-02  0.6899377E+03  0.7818609E-02  0.9734597E-01
        3   -1    0    0  501    0  0.00000000000E+00  0.00000000000E+00  0.45629565547E+03  0.45629566665E+03  0.10100000352E+00 0.  1.
       -3   -1    0    0    0  501  0.00000000000E+00  0.00000000000E+00 -0.26080345790E+03  0.26080347745E+03  0.10100000352E+00 0. -1.
    10030    2    1    2    0    0  0.00000000000E+00  0.00000000000E+00  0.19549219758E+03  0.71709914411E+03  0.68993766614E+03 0.  0.
        5    1    3    3  502    0  0.30083635519E+03 -0.12313451187E+03  0.21768748001E+03  0.39124742756E+03  0.46999998093E+01 0.  1.
       -5    1    3    3    0  502 -0.30083635519E+03  0.12313451187E+03 -0.22195282430E+02  0.32585171655E+03  0.46999998093E+01 0. -1.
</event>
<event>
 5   0  0.1839038E-02  0.7102667E+03  0.7818609E-02  0.9699834E-01
       -1   -1    0    0    0  501  0.00000000000E+00  0.00000000000E+00  0.19796690867E+03  0.19796690874E+03  0.50400001928E-02 0. -1.
        1   -1    0    0  501    0  0.00000000000E+00  0.00000000000E+00 -0.63707467632E+03  0.63707467634E+03  0.50400001928E-02 0.  1.
    10030    2    1    2    0    0  0.00000000000E+00  0.00000000000E+00 -0.43910776765E+03  0.83504158508E+03  0.71026672258E+03 0.  0.
        5    1    3    3  502    0 -0.26932130806E+03 -0.23113104679E+03 -0.20553985198E+03  0.41015149459E+03  0.46999998093E+01 0. -1.
       -5    1    3    3    0  502  0.26932130806E+03  0.23113104679E+03 -0.23356791567E+03  0.42489009049E+03  0.46999998093E+01 0.  1.
</event>
<event>
 5   0  0.1858013E-02  0.6970023E+03  0.7818609E-02  0.9722372E-01
       -1   -1    0    0    0  501  0.00000000000E+00  0.00000000000E+00  0.27662198970E+03  0.27662198974E+03  0.50400001928E-02 0.  1.
        1   -1    0    0  501    0  0.00000000000E+00  0.00000000000E+00 -0.43905779518E+03  0.43905779521E+03  0.50400001928E-02 0. -1.
    10030    2    1    2    0    0  0.00000000000E+00  0.00000000000E+00 -0.16243580548E+03  0.71567978495E+03  0.69700226950E+03 0.  0.
        2    1    3    3  502    0  0.75435103127E+02  0.33962475603E+03 -0.10220105045E+03  0.36260237784E+03  0.25500000920E-02 0. -1.
       -2    1    3    3    0  502 -0.75435103127E+02 -0.33962475603E+03 -0.60234755031E+02  0.35307740711E+03  0.25500000920E-02 0.  1.
</event>
<event>
 5   0  0.1233912E-02  0.6990483E+03  0.7818609E-02  0.9718861E-01
        3   -1    0    0  501    0  0.00000000000E+00  0.00000000000E+00  0.20185839735E+03  0.20185842262E+03  0.10100000352E+00 0. -1.
       -3   -1    0    0    0  501  0.00000000000E+00  0.00000000000E+00 -0.60521204365E+03  0.60521205208E+03  0.10100000352E+00 0.  1.
    10030    2    1    2    0    0  0.00000000000E+00  0.00000000000E+00 -0.40335364630E+03  0.80707047470E+03  0.69904834392E+03 0.  0.
        4    1    3    3  502    0  0.18893190185E+03  0.45712457156E+02 -0.53704794231E+03  0.57114533835E+03  0.12699999809E+01 0.  1.
       -4    1    3    3    0  502 -0.18893190185E+03 -0.45712457156E+02  0.13369429601E+03  0.23592513635E+03  0.12699999809E+01 0. -1.
</event>
<event>
 5   0  0.2933851E-02  0.6958726E+03  0.7818609E-02  0.9724317E-01
        2   -1    0    0  501    0  0.00000000000E+00  0.00000000000E+00  0.18115434761E+04  0.18115434761E+04  0.25500000920E-02 0.  1.
       -2   -1    0    0    0  501  0.00000000000E+00  0.00000000000E+00 -0.66826800828E+02  0.66826800877E+02  0.25500000920E-02 0. -1.
    10030    2    1    2    0    0  0.00000000000E+00  0.00000000000E+00  0.17447166753E+04  0.18783702770E+04  0.69587256050E+03 0.  0.
        2    1    3    3  502    0 -0.20920154993E+03  0.68731505666E+02  0.15995202024E+04  0.16146065112E+04  0.25500000920E-02 0.  1.
       -2    1    3    3    0  502  0.20920154993E+03 -0.68731505666E+02  0.14519647290E+03  0.26376376573E+03  0.25500000920E-02 0. -1.
</event>
<event>
 5   0  0.3184443E-02  0.7152975E+03  0.7818609E-02  0.9691423E-01
       -2   -1    0    0    0  501  0.00000000000E+00  0.00000000000E+00  0.23453015592E+03  0.23453015593E+03  0.25500000920E-02 0.  1.
        2   -1    0    0  501    0  0.00000000000E+00  0.00000000000E+00 -0.54539945009E+03  0.54539945009E+03  0.25500000920E-02 0. -1.
    10030    2    1    2    0    0  0.00000000000E+00  0.00000000000E+00 -0.31086929417E+03  0.77992960602E+03  0.71529747119E+03 0.  0.
        3    1    3    3  502    0  0.42024899284E+02 -0.33883821360E+03 -0.27152147413E+03  0.43623542757E+03  0.10100000352E+00 0. -1.
       -3    1    3    3    0  502 -0.42024899284E+02  0.33883821360E+03 -0.39347820038E+02  0.34369417845E+03  0.10100000352E+00 0.  1.
</event>
<event>
 5   0  0.2933851E-02  0.6915082E+03  0.7818609E-02  0.9731866E-01
       -2   -1    0    0    0  501  0.00000000000E+00  0.00000000000E+00  0.54672921049E+03  0.54672921050E+03  0.25500000920E-02 0. -1.
        2   -1    0    0  501    0  0.00000000000E+00  0.00000000000E+00 -0.21865650009E+03  0.21865650010E+03  0.25500000920E-02 0.  1.
    10030    2    1    2    0    0  0.00000000000E+00  0.00000000000E+00  0.32807271041E+03  0.76538571060E+03  0.69150819423E+03 0.  0.
        2    1    3    3  502    0 -0.14925593738E+03 -0.58988496170E+02 -0.17493170828E+03  0.23739856801E+03  0.25500000920E-02 0.  1.
       -2    1    3    3    0  502  0.14925593738E+03  0.58988496170E+02  0.50300441869E+03  0.52798714260E+03  0.25500000920E-02 0. -1.
</event>
<event>
 5   0  0.1884172E-02  0.7002661E+03  0.7818609E-02  0.9716777E-01
       -1   -1    0    0    0  501  0.00000000000E+00  0.00000000000E+00  0.21922514930E+03  0.21922514936E+03  0.50400001928E-02 0. -1.
        1   -1    0    0  501    0  0.00000000000E+00  0.00000000000E+00 -0.55921117951E+03  0.55921117953E+03  0.50400001928E-02 0.  1.
    10030    2    1    2    0    0  0.00000000000E+00  0.00000000000E+00 -0.33998603020E+03  0.77843632889E+03  0.70026610471E+03 0.  0.
        3    1    3    3  502    0 -0.34853235798E+02  0.18394848524E+03  0.15890905913E+03  0.24556850886E+03  0.10100000352E+00 0. -1.
       -3    1    3    3    0  502  0.34853235798E+02 -0.18394848524E+03 -0.49889508933E+03  0.53286782004E+03  0.10100000352E+00 0.  1.
</event>
<event>
 5   0  0.1839038E-02  0.7041022E+03  0.7818609E-02  0.9710242E-01
       -1   -1    0    0    0  501  0.00000000000E+00  0.00000000000E+00  0.28468648393E+03  0.28468648398E+03  0.50400001928E-02 0.  1.
        1   -1    0    0  501    0  0.00000000000E+00  0.00000000000E+00 -0.43535605351E+03  0.43535605353E+03  0.50400001928E-02 0. -1.
    10030    2    1    2    0    0  0.00000000000E+00  0.00000000000E+00 -0.15066956957E+03  0.72004253751E+03  0.70410222030E+03 0.  0.
        5    1    3    3  502    0 -0.15923221224E+03 -0.79032348723E+02  0.23538078061E+03  0.29500374818E+03  0.46999998093E+01 0.  1.
       -5    1    3    3    0  502  0.15923221224E+03  0.79032348723E+02 -0.38605035018E+03  0.42503878933E+03  0.46999998093E+01 0. -1.
</event>
<event>
 5   0  0.3113940E-02  0.7010032E+03  0.7818609E-02  0.9715518E-01
       -2   -1    0    0    0  501  0.00000000000E+00  0.00000000000E+00  0.21722959240E+03  0.21722959242E+03  0.25500000920E-02 0.  1.
        2   -1    0    0  501    0  0.00000000000E+00  0.00000000000E+00 -0.56553694823E+03  0.56553694823E+03  0.25500000920E-02 0. -1.
    10030    2    1    2    0    0  0.00000000000E+00  0.00000000000E+00 -0.34830735583E+03  0.78276654065E+03  0.70100316907E+03 0.  0.
        5    1    3    3  502    0 -0.34331948174E+03 -0.87860883060E+01 -0.25218906731E+03  0.42610665045E+03  0.46999998093E+01 0. -1.
       -5    1    3    3    0  502  0.34331948174E+03  0.87860883060E+01 -0.96118288517E+02  0.35665989020E+03  0.46999998093E+01 0.  1.
</event>
<event>
 5   0  0.1839038E-02  0.7089584E+03  0.7818609E-02  0.9702034E-01
       -1   -1    0    0    0  501  0.00000000000E+00  0.00000000000E+00  0.29117105930E+03  0.29117105935E+03  0.50400001928E-02 0.  1.
        1   -1    0    0  501    0  0.00000000000E+00  0.00000000000E+00 -0.43155213630E+03  0.43155213633E+03  0.50400001928E-02 0. -1.
    10030    2    1    2    0    0  0.00000000000E+00  0.00000000000E+00 -0.14038107699E+03  0.72272319567E+03  0.70895837028E+03 0.  0.
        5    1    3    3  502    0  0.80522135553E+02 -0.23772502690E+03  0.18494129701E+03  0.31180502893E+03  0.46999998093E+01 0.  1.
       -5    1    3    3    0  502 -0.80522135553E+02  0.23772502690E+03 -0.32532237400E+03  0.41091816674E+03  0.46999998093E+01 0. -1.
</event>
<event>
 5   0  0.1858013E-02  0.6343672E+03  0.7818609E-02  0.9836563E-01
       -1   -1    0    0    0  501  0.00000000000E+00  0.00000000000E+00  0.91009156213E+02  0.91009156352E+02  0.50400001928E-02 0. -1.
        1   -1    0    0  501    0  0.00000000000E+00  0.00000000000E+00 -0.11054430338E+04  0.11054430338E+04  0.50400001928E-02 0.  1.
    10030    2    1    2    0    0  0.00000000000E+00  0.00000000000E+00 -0.10144338776E+04  0.11964521901E+04  0.63436720545E+03 0.  0.
        2    1    3    3  502    0  0.13313477905E+03  0.68922764085E+02  0.19969405375E+02  0.15124150872E+03  0.25500000920E-02 0. -1.
       -2    1    3    3    0  502 -0.13313477905E+03 -0.68922764085E+02 -0.10344032829E+04  0.10452106814E+04  0.25500000920E-02 0.  1.
</event>
<event>
 5   0  0.3113940E-02  0.7202641E+03  0.7818609E-02  0.9683192E-01
       -2   -1    0    0    0  501  0.00000000000E+00  0.00000000000E+00  0.40920535862E+03  0.40920535863E+03  0.25500000920E-02 0.  1.
        2   -1    0    0  501    0  0.00000000000E+00  0.00000000000E+00 -0.31694380608E+03  0.31694380609E+03  0.25500000920E-02 0. -1.
    10030    2    1    2    0    0  0.00000000000E+00  0.00000000000E+00  0.92261552538E+02  0.72614916472E+03  0.72026412888E+03 0.  0.
        5    1    3    3  502    0  0.33992120023E+03 -0.42334179273E+02  0.15809859659E+03  0.37730075714E+03  0.46999998093E+01 0.  1.
       -5    1    3    3    0  502 -0.33992120023E+03  0.42334179273E+02 -0.65837044047E+02  0.34884840758E+03  0.46999998093E+01 0. -1.
</event>
<event>
 5   0  0.1969818E-02  0.7104593E+03  0.7818609E-02  0.9699511E-01
        1   -1    0    0  501    0  0.00000000000E+00  0.00000000000E+00  0.74644117897E+03  0.74644117898E+03  0.50400001928E-02 0. -1.
       -1   -1    0    0    0  501  0.00000000000E+00  0.00000000000E+00 -0.16905299518E+03  0.16905299526E+03  0.50400001928E-02 0.  1.
    10030    2    1    2    0    0  0.00000000000E+00  0.00000000000E+00  0.57738818378E+03  0.91549417424E+03  0.71045933613E+03 0.  0.
        1    1    3    3  502    0 -0.19678605990E+03 -0.89222505886E+02 -0.74640979325E+02  0.22859721072E+03  0.50400001928E-02 0.  1.
       -1    1    3    3    0  502  0.19678605990E+03  0.89222505886E+02  0.65202916311E+03  0.68689696352E+03  0.50400001928E-02 0. -1.
</event>
<event>
 5   0  0.3184443E-02  0.7008511E+03  0.7818609E-02  0.9715778E-01
       -2   -1    0    0    0  501  0.00000000000E+00  0.00000000000E+00  0.41259274090E+03  0.41259274090E+03  0.25500000920E-02 0. -1.
        2   -1    0    0  501    0  0.00000000000E+00  0.00000000000E+00 -0.29762538072E+03  0.29762538073E+03  0.25500000920E-02 0.  1.
    10030    2    1    2    0    0  0.00000000000E+00  0.00000000000E+00  0.11496736017E+03  0.71021812164E+03  0.70085111571E+03 0.  0.
        3    1    3    3  502    0 -0.85763035507E+02 -0.19154403608E+03  0.34186516213E+03  0.40114363425E+03  0.10100000352E+00 0. -1.
       -3    1    3    3    0  502  0.85763035507E+02  0.19154403608E+03 -0.22689780196E+03  0.30907448739E+03  0.10100000352E+00 0.  1.
</event>
<event>
 5   0  0.3290656E-02  0.7000791E+03  0.7818609E-02  0.9717097E-01
        2   -1    0    0  501    0  0.00000000000E+00  0.00000000000E+00  0.16451691082E+04  0.16451691082E+04  0.25500000920E-02 0. -1.
       -2   -1    0    0    0  501  0.00000000000E+00  0.00000000000E+00 -0.74477251921E+02  0.74477251965E+02  0.25500000920E-02 0.  1.
    10030    2    1    2    0    0  0.00000000000E+00  0.00000000000E+00  0.15706918562E+04  0.17196463601E+04  0.70007906457E+03 0.  0.
        1    1    3    3  502    0 -0.89688293254E+02  0.18684701289E+03  0.92443859015E+02  0.22693977895E+03  0.50400001928E-02 0.  1.
       -1    1    3    3    0  502  0.89688293254E+02 -0.18684701289E+03  0.14782479972E+04  0.14927065812E+04  0.50400001928E-02 0. -1.
</event>
<event>
 5   0  0.3184443E-02  0.6891384E+03  0.7818609E-02  0.9735989E-01
        2   -1    0    0  501    0  0.00000000000E+00  0.00000000000E+00  0.16317872961E+04  0.16317872961E+04  0.25500000920E-02 0. -1.
       -2   -1    0    0    0  501  0.00000000000E+00  0.00000000000E+00 -0.72759440261E+02  0.72759440306E+02  0.25500000920E-02 0.  1.
    10030    2    1    2    0    0  0.00000000000E+00  0.00000000000E+00  0.15590278559E+04  0.17045467364E+04  0.68913839055E+03 0.  0.
        3    1    3    3  502    0 -0.57888122981E+02 -0.31289526843E+03  0.11064716736E+04  0.11513184001E+04  0.10100000352E+00 0. -1.
       -3    1    3    3    0  502  0.57888122981E+02  0.31289526843E+03  0.45255618226E+03  0.55322833630E+03  0.10100000352E+00 0.  1.
</event>
<event>
 5   0  0.1233912E-02  0.7081033E+03  0.7818609E-02  0.9703474E-01
        4   -1    0    0  501    0  0.00000000000E+00  0.00000000000E+00  0.65600077083E+03  0.65600200017E+03  0.12699999809E+01 0.  1.
       -4   -1    0    0    0  501  0.00000000000E+00  0.00000000000E+00 -0.19108251685E+03  0.19108673723E+03  0.12699999809E+01 0. -1.
    10030    2    1    2    0    0  0.00000000000E+00  0.00000000000E+00  0.46491825398E+03  0.84708873740E+03  0.70810334426E+03 0.  0.
        5    1    3    3  502    0  0.87229953022E+02 -0.20266288092E+03  0.56365585893E+03  0.60531919292E+03  0.46999998093E+01 0.  1.
       -5    1    3    3    0  502 -0.87229953022E+02  0.20266288092E+03 -0.98737604952E+02  0.24176954448E+03  0.46999998093E+01 0. -1.
</event>
<event>
 5   0  0.3183963E-02  0.6940365E+03  0.7818609E-02  0.9727485E-01
        2   -1    0    0  501    0  0.00000000000E+00  0.00000000000E+00  0.12997742862E+04  0.12997742862E+04  0.25500000920E-02 0.  1.
       -2   -1    0    0    0  501  0.00000000000E+00  0.00000000000E+00 -0.92648128147E+02  0.92648128182E+02  0.25500000920E-02 0. -1.
    10030    2    1    2    0    0  0.00000000000E+00  0.00000000000E+00  0.12071261580E+04  0.13924224143E+04  0.69403646778E+03 0.  0.
        4    1    3    3  502    0  0.29623440674E+03  0.15902362206E+03  0.77587683214E+03  0.84559435172E+03  0.12699999809E+01 0.  1.
       -4    1    3    3    0  502 -0.29623440674E+03 -0.15902362206E+03  0.43124932586E+03  0.54682806262E+03  0.12699999809E+01 0. -1.
</event>
<event>
 5   0  0.1839038E-02  0.6814426E+03  0.7818609E-02  0.9749505E-01
       -1   -1    0    0    0  501  0.00000000000E+00  0.00000000000E+00  0.32766084867E+03  0.32766084871E+03  0.50400001928E-02 0. -1.
        1   -1    0    0  501    0  0.00000000000E+00  0.00000000000E+00 -0.35430232782E+03  0.35430232786E+03  0.50400001928E-02 0.  1.
    10030    2    1    2    0    0  0.00000000000E+00  0.00000000000E+00 -0.26641479150E+02  0.68196317657E+03  0.68144259170E+03 0.  0.
        5    1    3    3  502    0 -0.22443210550E+02  0.91312613211E+02 -0.34102657483E+03  0.35378369913E+03  0.46999998093E+01 0.  1.
       -5    1    3    3    0  502  0.22443210550E+02 -0.91312613211E+02  0.31438509568E+03  0.32817947744E+03  0.46999998093E+01 0. -1.
</event>
<event>
 5   0  0.1233912E-02  0.7152677E+03  0.7818609E-02  0.9691473E-01
        4   -1    0    0  501    0  0.00000000000E+00  0.00000000000E+00  0.42809618031E+03  0.42809806411E+03  0.12699999809E+01 0. -1.
       -4   -1    0    0    0  501  0.00000000000E+00  0.00000000000E+00 -0.29876539132E+03  0.29876809058E+03  0.12699999809E+01 0.  1.
    10030    2    1    2    0    0  0.00000000000E+00  0.00000000000E+00  0.12933078899E+03  0.72686615470E+03  0.71526774977E+03 0.  0.
        1    1    3    3  502    0 -0.17006490909E+03 -0.31440721104E+03  0.53167295591E+02  0.36138722861E+03  0.50400001928E-02 0. -1.
       -1    1    3    3    0  502  0.17006490909E+03  0.31440721104E+03  0.76163493400E+02  0.36547892608E+03  0.50400001928E-02 0.  1.
</event>
<event>
 5   0  0.1233912E-02  0.6963460E+03  0.7818609E-02  0.9723502E-01
        3   -1    0    0  501    0  0.00000000000E+00  0.00000000000E+00  0.30706567185E+03  0.30706568846E+03  0.10100000352E+00 0. -1.
       -3   -1    0    0    0  501  0.00000000000E+00  0.00000000000E+00 -0.39478334603E+03  0.39478335895E+03  0.10100000352E+00 0.  1.
    10030    2    1    2    0    0  0.00000000000E+00  0.00000000000E+00 -0.87717674180E+02  0.70184904741E+03  0.69634595926E+03 0.  0.
        3    1    3    3  502    0 -0.29513591431E+03  0.10735759973E+03 -0.19535823463E+03  0.36985904366E+03  0.10100000352E+00 0.  1.
       -3    1    3    3    0  502  0.29513591431E+03 -0.10735759973E+03  0.10764056045E+03  0.33199000375E+03  0.10100000352E+00 0. -1.
</event>
<event>
 5   0  0.1233912E-02  0.7007318E+03  0.7818609E-02  0.9715982E-01
       -3   -1    0    0    0  501  0.00000000000E+00  0.00000000000E+00  0.73370307760E+03  0.73370308455E+03  0.10100000352E+00 0. -1.
        3   -1    0    0  501    0  0.00000000000E+00  0.00000000000E+00 -0.16731051752E+03  0.16731054801E+03  0.10100000352E+00 0.  1.
    10030    2    1    2    0    0  0.00000000000E+00  0.00000000000E+00  0.56639256008E+03  0.90101363256E+03  0.70073178459E+03 0.  0.
        3    1    3    3  502    0  0.28411918051E+03 -0.65592170480E+02  0.33435560335E+02  0.29350296159E+03  0.10100000352E+00 0.  1.
       -3    1    3    3    0  502 -0.28411918051E+03  0.65592170480E+02  0.53295699975E+03  0.60751067097E+03  0.10100000352E+00 0. -1.
</event>
<event>
 5   0  0.1233912E-02  0.6975868E+03  0.7818609E-02  0.9721368E-01
        3   -1    0    0  501    0  0.00000000000E+00  0.00000000000E+00  0.22054014461E+03  0.22054016774E+03  0.10100000352E+00 0. -1.
       -3   -1    0    0    0  501  0.00000000000E+00  0.00000000000E+00 -0.55163114088E+03  0.55163115013E+03  0.10100000352E+00 0.  1.
    10030    2    1    2    0    0  0.00000000000E+00  0.00000000000E+00 -0.33109099627E+03  0.77217131787E+03  0.69758676616E+03 0.  0.
        2    1    3    3  502    0  0.17037561211E+02  0.33652132498E+03 -0.65800314505E+02  0.34331699937E+03  0.25500000920E-02 0.  1.
       -2    1    3    3    0  502 -0.17037561211E+02 -0.33652132498E+03 -0.26529068177E+03  0.42885431850E+03  0.25500000920E-02 0. -1.
</event>
<event>
 5   0  0.1858013E-02  0.7017839E+03  0.7818609E-02  0.9714186E-01
       -1   -1    0    0    0  501  0.00000000000E+00  0.00000000000E+00  0.45472035535E+03  0.45472035537E+03  0.50400001928E-02 0. -1.
        1   -1    0    0  501    0  0.00000000000E+00  0.00000000000E+00 -0.27077115350E+03  0.27077115355E+03  0.50400001928E-02 0.  1.
    10030    2    1    2    0    0  0.00000000000E+00  0.00000000000E+00  0.18394920185E+03  0.72549150892E+03  0.70178388458E+03 0.  0.
        2    1    3    3  502    0  0.26291197662E+03 -0.22909163526E+03  0.51677383448E+02  0.35252834888E+03  0.25500000920E-02 0.  1.
       -2    1    3    3    0  502 -0.26291197662E+03  0.22909163526E+03  0.13227181840E+03  0.37296316004E+03  0.25500000920E-02 0. -1.
</event>
<event>
 5   0  0.1884172E-02  0.7008398E+03  0.7818609E-02  0.9715797E-01
       -1   -1    0    0    0  501  0.00000000000E+00  0.00000000000E+00  0.30767960229E+03  0.30767960233E+03  0.50400001928E-02 0.  1.
        1   -1    0    0  501    0  0.00000000000E+00  0.00000000000E+00 -0.39909735502E+03  0.39909735505E+03  0.50400001928E-02 0. -1.
    10030    2    1    2    0    0  0.00000000000E+00  0.00000000000E+00 -0.91417752732E+02  0.70677695738E+03  0.70083982619E+03 0.  0.
        3    1    3    3  502    0 -0.14326945046E+03 -0.55700985855E+02 -0.36328191694E+03  0.39446482307E+03  0.10100000352E+00 0. -1.
       -3    1    3    3    0  502  0.14326945046E+03  0.55700985855E+02  0.27186416421E+03  0.31231213432E+03  0.10100000352E+00 0.  1.
</event>
<event>
 5   0  0.1839038E-02  0.7026579E+03  0.7818609E-02  0.9712698E-01
        1   -1    0    0  501    0  0.00000000000E+00  0.00000000000E+00  0.63517283717E+03  0.63517283719E+03  0.50400001928E-02 0. -1.
       -1   -1    0    0    0  501  0.00000000000E+00  0.00000000000E+00 -0.19432823286E+03  0.19432823292E+03  0.50400001928E-02 0.  1.
    10030    2    1    2    0    0  0.00000000000E+00  0.00000000000E+00  0.44084460431E+03  0.82950107012E+03  0.70265785427E+03 0.  0.
        5    1    3    3  502    0  0.28145276222E+03 -0.13349290895E+03  0.41213916472E+03  0.51663990864E+03  0.46999998093E+01 0. -1.
       -5    1    3    3    0  502 -0.28145276222E+03  0.13349290895E+03  0.28705439597E+02  0.31286116148E+03  0.46999998093E+01 0.  1.
</event>
<event>
 5   0  0.3113940E-02  0.6951713E+03  0.7818609E-02  0.9725526E-01
       -2   -1    0    0    0  501  0.00000000000E+00  0.00000000000E+00  0.62851535755E+02  0.62851535806E+02  0.25500000920E-02 0. -1.
        2   -1    0    0  501    0  0.00000000000E+00  0.00000000000E+00 -0.19222406831E+04  0.19222406831E+04  0.25500000920E-02 0.  1.
    10030    2    1    2    0    0  0.00000000000E+00  0.00000000000E+00 -0.18593891473E+04  0.19850922189E+04  0.69517128559E+03 0.  0.
        5    1    3    3  502    0 -0.22122493054E+03  0.11419743705E+03 -0.16221988249E+04  0.16411985383E+04  0.46999998093E+01 0.  1.
       -5    1    3    3    0  502  0.22122493054E+03 -0.11419743705E+03 -0.23719032245E+03  0.34389368064E+03  0.46999998093E+01 0. -1.
</event>
<event>
 5   0  0.1969818E-02  0.6199756E+03  0.7818609E-02  0.9864808E-01
       -1   -1    0    0    0  501  0.00000000000E+00  0.00000000000E+00  0.89245496375E+02  0.89245496517E+02  0.50400001928E-02 0.  1.
        1   -1    0    0  501    0  0.00000000000E+00  0.00000000000E+00 -0.10767203603E+04  0.10767203603E+04  0.50400001928E-02 0. -1.
    10030    2    1    2    0    0  0.00000000000E+00  0.00000000000E+00 -0.98747486390E+03  0.11659658568E+04  0.61997562242E+03 0.  0.
        1    1    3    3  502    0 -0.22585500308E+03  0.18770616583E+03 -0.68037243091E+03  0.74104705105E+03  0.50400001928E-02 0. -1.
       -1    1    3    3    0  502  0.22585500308E+03 -0.18770616583E+03 -0.30710243299E+03  0.42491880575E+03  0.50400001928E-02 0.  1.
</event>
<event>
 5   0  0.1839038E-02  0.7156562E+03  0.7818609E-02  0.9690826E-01
        1   -1    0    0  501    0  0.00000000000E+00  0.00000000000E+00  0.82307481622E+03  0.82307481623E+03  0.50400001928E-02 0.  1.
       -1   -1    0    0    0  501  0.00000000000E+00  0.00000000000E+00 -0.15556415235E+03  0.15556415244E+03  0.50400001928E-02 0. -1.
    10030    2    1    2    0    0  0.00000000000E+00  0.00000000000E+00  0.66751066386E+03  0.97863896867E+03  0.71565616369E+03 0.  0.
        5    1    3    3  502    0  0.15512533248E+03 -0.18079375358E+03  0.69881780434E+03  0.73832151788E+03  0.46999998093E+01 0.  1.
       -5    1    3    3    0  502 -0.15512533248E+03  0.18079375358E+03 -0.31307140476E+02  0.24031745079E+03  0.46999998093E+01 0. -1.
</event>
<event>
 5   0  0.1951465E-02  0.6913352E+03  0.7818609E-02  0.9732166E-01
       -1   -1    0    0    0  501  0.00000000000E+00  0.00000000000E+00  0.12295108051E+03  0.12295108062E+03  0.50400001928E-02 0. -1.
        1   -1    0    0  501    0  0.00000000000E+00  0.00000000000E+00 -0.97181817177E+03  0.97181817179E+03  0.50400001928E-02 0.  1.
    10030    2    1    2    0    0  0.00000000000E+00  0.00000000000E+00 -0.84886709126E+03  0.10947692524E+04  0.69133521347E+03 0.  0.
        4    1    3    3  502    0  0.34073807652E+02  0.34323737875E+03 -0.38861716154E+03  0.51961315773E+03  0.12699999809E+01 0.  1.
       -4    1    3    3    0  502 -0.34073807652E+02 -0.34323737875E+03 -0.46024992972E+03  0.57515609468E+03  0.12699999809E+01 0. -1.
</event>
<event>
 5   0  0.1858013E-02  0.6948805E+03  0.7818609E-02  0.9726027E-01
       -1   -1    0    0    0  501  0.00000000000E+00  0.00000000000E+00  0.12359146836E+03  0.12359146847E+03  0.50400001928E-02 0. -1.
        1   -1    0    0  501    0  0.00000000000E+00  0.00000000000E+00 -0.97672379572E+03  0.97672379573E+03  0.50400001928E-02 0.  1.
    10030    2    1    2    0    0  0.00000000000E+00  0.00000000000E+00 -0.85313232735E+03  0.11003152642E+04  0.69488050242E+03 0.  0.
        2    1    3    3  502    0  0.20081898600E+03 -0.38354589705E+02  0.18257477839E+02  0.20526245442E+03  0.25500000920E-02 0. -1.
       -2    1    3    3    0  502 -0.20081898600E+03  0.38354589705E+02 -0.87138980519E+03  0.89505280978E+03  0.25500000920E-02 0.  1.
</event>
<event>
 5   0  0.2933851E-02  0.7031681E+03  0.7818609E-02  0.9711830E-01
        2   -1    0    0  501    0  0.00000000000E+00  0.00000000000E+00  0.56488118593E+03  0.56488118593E+03  0.25500000920E-02 0.  1.
       -2   -1    0    0    0  501  0.00000000000E+00  0.00000000000E+00 -0.21882718772E+03  0.21882718774E+03  0.25500000920E-02 0. -1.
    10030    2    1    2    0    0  0.00000000000E+00  0.00000000000E+00  0.34605399821E+03  0.78370837367E+03  0.70316814866E+03 0.  0.
        2    1    3    3  502    0 -0.23050181064E+03  0.14647312590E+03 -0.73751935110E+02  0.28288656606E+03  0.25500000920E-02 0. -1.
       -2    1    3    3    0  502  0.23050181064E+03 -0.14647312590E+03  0.41980593332E+03  0.50082180761E+03  0.25500000920E-02 0.  1.
</event>
<event>
 5   0  0.3184443E-02  0.6622896E+03  0.7818609E-02  0.9783988E-01
       -2   -1    0    0    0  501  0.00000000000E+00  0.00000000000E+00  0.36504319053E+03  0.36504319054E+03  0.25500000920E-02 0. -1.
        2   -1    0    0  501    0  0.00000000000E+00  0.00000000000E+00 -0.30039428377E+03  0.30039428378E+03  0.25500000920E-02 0.  1.
    10030    2    1    2    0    0  0.00000000000E+00  0.00000000000E+00  0.64648906764E+02  0.66543747432E+03  0.66228962779E+03 0.  0.
        3    1    3    3  502    0  0.22824616156E+03 -0.55514247760E+02  0.26684063306E+03  0.35550256768E+03  0.10100000352E+00 0. -1.
       -3    1    3    3    0  502 -0.22824616156E+03  0.55514247760E+02 -0.20219172630E+03  0.30993490664E+03  0.10100000352E+00 0.  1.
</event>
<event>
 5   0  0.3183963E-02  0.7079456E+03  0.7818609E-02  0.9703740E-01
        2   -1    0    0  501    0  0.00000000000E+00  0.00000000000E+00  0.66413981582E+03  0.66413981583E+03  0.25500000920E-02 0.  1.
       -2   -1    0    0    0  501  0.00000000000E+00  0.00000000000E+00 -0.18866018590E+03  0.18866018592E+03  0.25500000920E-02 0. -1.
    10030    2    1    2    0    0  0.00000000000E+00  0.00000000000E+00  0.47547962992E+03  0.85280000174E+03  0.70794559431E+03 0.  0.
        4    1    3    3  502    0 -0.11676260387E+03  0.24027642879E+02 -0.16374917546E+03  0.20254934867E+03  0.12699999809E+01 0. -1.
       -4    1    3    3    0  502  0.11676260387E+03 -0.24027642879E+02  0.63922880538E+03  0.65025065307E+03  0.12699999809E+01 0.  1.
</event>
<event>
 5   0  0.1839038E-02  0.7016169E+03  0.7818609E-02  0.9714471E-01
        1   -1    0    0  501    0  0.00000000000E+00  0.00000000000E+00  0.36714676298E+03  0.36714676302E+03  0.50400001928E-02 0.  1.
       -1   -1    0    0    0  501  0.00000000000E+00  0.00000000000E+00 -0.33519718750E+03  0.33519718754E+03  0.50400001928E-02 0. -1.
    10030    2    1    2    0    0  0.00000000000E+00  0.00000000000E+00  0.31949575479E+02  0.70234395056E+03  0.70161688229E+03 0.  0.
        5    1    3    3  502    0 -0.32920164276E+03  0.11495410704E+03  0.54175885703E+02  0.35290974046E+03  0.46999998093E+01 0. -1.
       -5    1    3    3    0  502  0.32920164276E+03 -0.11495410704E+03 -0.22226310224E+02  0.34943421010E+03  0.46999998093E+01 0.  1.
</event>
<event>
 5   0  0.3290656E-02  0.7043455E+03  0.7818609E-02  0.9709830E-01
       -2   -1    0    0    0  501  0.00000000000E+00  0.00000000000E+00  0.39986955906E+03  0.39986955907E+03  0.25500000920E-02 0.  1.
        2   -1    0    0  501    0  0.00000000000E+00  0.00000000000E+00 -0.31016521731E+03  0.31016521732E+03  0.25500000920E-02 0. -1.
    10030    2    1    2    0    0  0.00000000000E+00  0.00000000000E+00  0.89704341753E+02  0.71003477639E+03  0.70434545129E+03 0.  0.
        1    1    3    3  502    0 -0.21867960953E+03 -0.60191018581E+01  0.32306808670E+03  0.39016661810E+03  0.50400001928E-02 0.  1.
       -1    1    3    3    0  502  0.21867960953E+03  0.60191018581E+01 -0.23336374494E+03  0.31986815829E+03  0.50400001928E-02 0. -1.
</event>
<event>
 5   0  0.3113940E-02  0.6735173E+03  0.7818609E-02  0.9763625E-01
       -2   -1    0    0    0  501  0.00000000000E+00  0.00000000000E+00  0.45602629748E+02  0.45602629819E+02  0.25500000920E-02 0. -1.
        2   -1    0    0  501    0  0.00000000000E+00  0.00000000000E+00 -0.24868390598E+04  0.24868390598E+04  0.25500000920E-02 0.  1.
    10030    2    1    2    0    0  0.00000000000E+00  0.00000000000E+00 -0.24412364301E+04  0.25324416896E+04  0.67351733750E+03 0.  0.
        5    1    3    3  502    0 -0.47589319038E+02 -0.33301118707E+03 -0.11644543497E+04  0.12120797072E+04  0.46999998093E+01 0.  1.
       -5    1    3    3    0  502  0.47589319038E+02  0.33301118707E+03 -0.12767820804E+04  0.13203619825E+04  0.46999998093E+01 0. -1.
</event>
<event>
 5   0  0.1951465E-02  0.6973068E+03  0.7818609E-02  0.9721849E-01
        1   -1    0    0  501    0  0.00000000000E+00  0.00000000000E+00  0.54497657407E+03  0.54497657410E+03  0.50400001928E-02 0.  1.
       -1   -1    0    0    0  501  0.00000000000E+00  0.00000000000E+00 -0.22305394777E+03  0.22305394783E+03  0.50400001928E-02 0. -1.
    10030    2    1    2    0    0  0.00000000000E+00  0.00000000000E+00  0.32192262630E+03  0.76803052193E+03  0.69730675121E+03 0.  0.
        4    1    3    3  502    0 -0.14078157033E+02  0.26843588369E+03 -0.83598376885E+02  0.28150722846E+03  0.12699999809E+01 0. -1.
       -4    1    3    3    0  502  0.14078157033E+02 -0.26843588369E+03  0.40552100319E+03  0.48652329346E+03  0.12699999809E+01 0.  1.
</event>
<event>
 5   0  0.1858013E-02  0.7005927E+03  0.7818609E-02  0.9716219E-01
       -1   -1    0    0    0  501  0.00000000000E+00  0.00000000000E+00  0.14126627284E+04  0.14126627284E+04  0.50400001928E-02 0.  1.
        1   -1    0    0  501    0  0.00000000000E+00  0.00000000000E+00 -0.86862594524E+02  0.86862594670E+02  0.50400001928E-02 0. -1.
    10030    2    1    2    0    0  0.00000000000E+00  0.00000000000E+00  0.13258001339E+04  0.14995253231E+04  0.70059274873E+03 0.  0.
        2    1    3    3  502    0 -0.28423491398E+03 -0.16328419870E+02  0.22607936810E+03  0.36354914978E+03  0.25500000920E-02 0.  1.
       -2    1    3    3    0  502  0.28423491398E+03  0.16328419870E+02  0.10997207658E+04  0.11359761733E+04  0.25500000920E-02 0. -1.
</event>
<event>
 5   0  0.1858013E-02  0.6916618E+03  0.7818609E-02  0.9731599E-01
        1   -1    0    0  501    0  0.00000000000E+00  0.00000000000E+00  0.38972972871E+03  0.38972972874E+03  0.50400001928E-02 0.  1.
       -1   -1    0    0    0  501  0.00000000000E+00  0.00000000000E+00 -0.30687682521E+03  0.30687682525E+03  0.50400001928E-02 0. -1.
    10030    2    1    2    0    0  0.00000000000E+00  0.00000000000E+00  0.82852903501E+02  0.69660655399E+03  0.69166183026E+03 0.  0.
        2    1    3    3  502    0  0.86287510419E+02  0.21215159440E+01  0.37870709956E+03  0.38841872065E+03  0.25500000920E-02 0.  1.
       -2    1    3    3    0  502 -0.86287510419E+02 -0.21215159440E+01 -0.29585419606E+03  0.30818783334E+03  0.25500000920E-02 0. -1.
</event>
<event>
 5   0  0.1884172E-02  0.7013461E+03  0.7818609E-02  0.9714933E-01
       -1   -1    0    0    0  501  0.00000000000E+00  0.00000000000E+00  0.13699756044E+03  0.13699756053E+03  0.50400001928E-02 0. -1.
        1   -1    0    0  501    0  0.00000000000E+00  0.00000000000E+00 -0.89761882695E+03  0.89761882696E+03  0.50400001928E-02 0.  1.
    10030    2    1    2    0    0  0.00000000000E+00  0.00000000000E+00 -0.76062126651E+03  0.10346163875E+04  0.70134610443E+03 0.  0.
        3    1    3    3  502    0  0.30788812828E+03 -0.96634255482E+02 -0.58278396243E+03  0.66616096849E+03  0.10100000352E+00 0.  1.
       -3    1    3    3    0  502 -0.30788812828E+03  0.96634255482E+02 -0.17783730408E+03  0.36845541900E+03  0.10100000352E+00 0. -1.
</event>
<event>
 5   0  0.1858013E-02  0.7040254E+03  0.7818609E-02  0.9710373E-01
       -1   -1    0    0    0  501  0.00000000000E+00  0.00000000000E+00  0.31763142599E+03  0.31763142603E+03  0.50400001928E-02 0.  1.
        1   -1    0    0  501    0  0.00000000000E+00  0.00000000000E+00 -0.39011552844E+03  0.39011552847E+03  0.50400001928E-02 0. -1.
    10030    2    1    2    0    0  0.00000000000E+00  0.00000000000E+00 -0.72484102454E+02  0.70774695450E+03  0.70402543029E+03 0.  0.
        2    1    3    3  502    0 -0.12281269269E+02 -0.15540143228E+03 -0.35352491681E+03  0.38636809074E+03  0.25500000920E-02 0. -1.
       -2    1    3    3    0  502  0.12281269269E+02  0.15540143228E+03  0.28104081436E+03  0.32137886376E+03  0.25500000920E-02 0.  1.
</event>
<event>
 5   0  0.2933851E-02  0.7022172E+03  0.7818609E-02  0.9713448E-01
        2   -1    0    0  501    0  0.00000000000E+00  0.00000000000E+00  0.50488885650E+03  0.50488885651E+03  0.25500000920E-02 0. -1.
       -2   -1    0    0    0  501  0.00000000000E+00  0.00000000000E+00 -0.24416708899E+03  0.24416708901E+03  0.25500000920E-02 0.  1.
    10030    2    1    2    0    0  0.00000000000E+00  0.00000000000E+00  0.26072176751E+03  0.74905594551E+03  0.70221718112E+03 0.  0.
        2    1    3    3  502    0 -0.17462603765E+03 -0.21620543288E+02 -0.19373999980E+03  0.26171910218E+03  0.25500000920E-02 0.  1.
       -2    1    3    3    0  502  0.17462603765E+03  0.21620543288E+02  0.45446176731E+03  0.48733684333E+03  0.25500000920E-02 0. -1.
</event>
<event>
 5   0  0.2933851E-02  0.6998819E+03  0.7818609E-02  0.9717434E-01
        2   -1    0    0  501    0  0.00000000000E+00  0.00000000000E+00  0.45476247894E+03  0.45476247895E+03  0.25500000920E-02 0. -1.
       -2   -1    0    0    0  501  0.00000000000E+00  0.00000000000E+00 -0.26928051041E+03  0.26928051042E+03  0.25500000920E-02 0.  1.
    10030    2    1    2    0    0  0.00000000000E+00  0.00000000000E+00  0.18548196853E+03  0.72404298936E+03  0.69988191132E+03 0.  0.
        2    1    3    3  502    0 -0.33613690293E+03 -0.74736889675E+02  0.28259056069E+02  0.34550281395E+03  0.25500000920E-02 0.  1.
       -2    1    3    3    0  502  0.33613690293E+03  0.74736889675E+02  0.15722291246E+03  0.37854017541E+03  0.25500000920E-02 0. -1.
</event>
<event>
 5   0  0.3184443E-02  0.6851404E+03  0.7818609E-02  0.9742987E-01
        2   -1    0    0  501    0  0.00000000000E+00  0.00000000000E+00  0.24844764124E+03  0.24844764125E+03  0.25500000920E-02 0. -1.
       -2   -1    0    0    0  501  0.00000000000E+00  0.00000000000E+00 -0.47235046101E+03  0.47235046102E+03  0.25500000920E-02 0.  1.
    10030    2    1    2    0    0  0.00000000000E+00  0.00000000000E+00 -0.22390281977E+03  0.72079810227E+03  0.68514044657E+03 0.  0.
        3    1    3    3  502    0  0.16372859350E+03  0.89238044749E+02  0.19037886217E+03  0.26648565125E+03  0.10100000352E+00 0. -1.
       -3    1    3    3    0  502 -0.16372859350E+03 -0.89238044749E+02 -0.41428168194E+03  0.45431245102E+03  0.10100000352E+00 0.  1.
</event>
<event>
 5   0  0.1233912E-02  0.7012627E+03  0.7818609E-02  0.9715075E-01
       -3   -1    0    0    0  501  0.00000000000E+00  0.00000000000E+00  0.15381675014E+03  0.15381678330E+03  0.10100000352E+00 0. -1.
        3   -1    0    0  501    0  0.00000000000E+00  0.00000000000E+00 -0.79927791293E+03  0.79927791931E+03  0.10100000352E+00 0.  1.
    10030    2    1    2    0    0  0.00000000000E+00  0.00000000000E+00 -0.64546116279E+03  0.95309470261E+03  0.70126271786E+03 0.  0.
        3    1    3    3  502    0  0.27867303871E+03  0.20899608900E+03 -0.37716827456E+03  0.51341400960E+03  0.10100000352E+00 0. -1.
       -3    1    3    3    0  502 -0.27867303871E+03 -0.20899608900E+03 -0.26829288823E+03  0.43968069300E+03  0.10100000352E+00 0.  1.
</event>
<event>
 5   0  0.1969818E-02  0.7041625E+03  0.7818609E-02  0.9710140E-01
       -1   -1    0    0    0  501  0.00000000000E+00  0.00000000000E+00  0.92143819557E+02  0.92143819695E+02  0.50400001928E-02 0.  1.
        1   -1    0    0  501    0  0.00000000000E+00  0.00000000000E+00 -0.13453014118E+04  0.13453014118E+04  0.50400001928E-02 0. -1.
    10030    2    1    2    0    0  0.00000000000E+00  0.00000000000E+00 -0.12531575922E+04  0.14374452315E+04  0.70416251147E+03 0.  0.
        1    1    3    3  502    0  0.30947550624E+02  0.11016504124E+03  0.53125157377E+02  0.12616009501E+03  0.50400001928E-02 0.  1.
       -1    1    3    3    0  502 -0.30947550624E+02 -0.11016504124E+03 -0.13062827496E+04  0.13112851365E+04  0.50400001928E-02 0. -1.
</event>
<event>
 5   0  0.1858013E-02  0.7032971E+03  0.7818609E-02  0.9711610E-01
       -1   -1    0    0    0  501  0.00000000000E+00  0.00000000000E+00  0.66665009500E+02  0.66665009690E+02  0.50400001928E-02 0. -1.
        1   -1    0    0  501    0  0.00000000000E+00  0.00000000000E+00 -0.18548964460E+04  0.18548964460E+04  0.50400001928E-02 0.  1.
    10030    2    1    2    0    0  0.00000000000E+00  0.00000000000E+00 -0.17882314365E+04  0.19215614557E+04  0.70329706209E+03 0.  0.
        2    1    3    3  502    0  0.16465964342E+03  0.26065016892E+03 -0.43201212972E+03  0.53074079263E+03  0.25500000920E-02 0.  1.
       -2    1    3    3    0  502 -0.16465964342E+03 -0.26065016892E+03 -0.13562193068E+04  0.13908206631E+04  0.25500000920E-02 0. -1.
</event>
<event>
 5   0  0.1858013E-02  0.6838671E+03  0.7818609E-02  0.9745226E-01
       -1   -1    0    0    0  501  0.00000000000E+00  0.00000000000E+00  0.22072161397E+03  0.22072161403E+03  0.50400001928E-02 0.  1.
        1   -1    0    0  501    0  0.00000000000E+00  0.00000000000E+00 -0.52971046199E+03  0.52971046201E+03  0.50400001928E-02 0. -1.
    10030    2    1    2    0    0  0.00000000000E+00  0.00000000000E+00 -0.30898884801E+03  0.75043207604E+03  0.68386708691E+03 0.  0.
        2    1    3    3  502    0  0.26468766204E+03 -0.76229595778E+02 -0.37681819005E+03  0.46675738673E+03  0.25500000920E-02 0. -1.
       -2    1    3    3    0  502 -0.26468766204E+03  0.76229595778E+02  0.67829342040E+02  0.28367468931E+03  0.25500000920E-02 0.  1.
</event>
<event>
 5   0  0.3184443E-02  0.6940196E+03  0.7818609E-02  0.9727514E-01
        2   -1    0    0  501    0  0.00000000000E+00  0.00000000000E+00  0.41957306351E+03  0.41957306352E+03  0.25500000920E-02 0. -1.
       -2   -1    0    0    0  501  0.00000000000E+00  0.00000000000E+00 -0.28699603443E+03  0.28699603444E+03  0.25500000920E-02 0.  1.
    10030    2    1    2    0    0  0.00000000000E+00  0.00000000000E+00  0.13257702908E+03  0.70656909796E+03  0.69401961180E+03 0.  0.
        3    1    3    3  502    0 -0.25026514482E+03 -0.20538665480E+03 -0.60867785007E+02  0.32942558816E+03  0.10100000352E+00 0.  1.
       -3    1    3    3    0  502  0.25026514482E+03  0.20538665480E+03  0.19344481409E+03  0.37714350980E+03  0.10100000352E+00 0. -1.
</event>
<event>
 5   0  0.2933851E-02  0.7114603E+03  0.7818609E-02  0.9697832E-01
       -2   -1    0    0    0  501  0.00000000000E+00  0.00000000000E+00  0.73659640621E+03  0.73659640622E+03  0.25500000920E-02 0. -1.
        2   -1    0    0  501    0  0.00000000000E+00  0.00000000000E+00 -0.17179550515E+03  0.17179550517E+03  0.25500000920E-02 0.  1.
    10030    2    1    2    0    0  0.00000000000E+00  0.00000000000E+00  0.56480090106E+03  0.90839191138E+03  0.71146033398E+03 0.  0.
        2    1    3    3  502    0 -0.13443761854E+03 -0.24443860326E+03  0.56422401934E+03  0.62942231296E+03  0.25500000920E-02 0. -1.
       -2    1    3    3    0  502  0.13443761854E+03  0.24443860326E+03  0.57688172330E+00  0.27896959842E+03  0.25500000920E-02 0.  1.
</event>
<event>
 5   0  0.2933851E-02  0.6663563E+03  0.7818609E-02  0.9776563E-01
       -2   -1    0    0    0  501  0.00000000000E+00  0.00000000000E+00  0.70959992412E+02  0.70959992457E+02  0.25500000920E-02 0.  1.
        2   -1    0    0  501    0  0.00000000000E+00  0.00000000000E+00 -0.15643698405E+04  0.15643698405E+04  0.25500000920E-02 0. -1.
    10030    2    1    2    0    0  0.00000000000E+00  0.00000000000E+00 -0.14934098481E+04  0.16353298330E+04  0.66635627723E+03 0.  0.
        2    1    3    3  502    0 -0.22820128016E+03  0.87642199848E+02 -0.13022876517E+04  0.13250321156E+04  0.25500000920E-02 0. -1.
       -2    1    3    3    0  502  0.22820128016E+03 -0.87642199848E+02 -0.19112219636E+03  0.31029771738E+03  0.25500000920E-02 0.  1.
</event>
<event>
 5   0  0.1951465E-02  0.7022475E+03  0.7818609E-02  0.9713396E-01
       -1   -1    0    0    0  501  0.00000000000E+00  0.00000000000E+00  0.49992258129E+02  0.49992258383E+02  0.50400001928E-02 0. -1.
        1   -1    0    0  501    0  0.00000000000E+00  0.00000000000E+00 -0.24661396833E+04  0.24661396833E+04  0.50400001928E-02 0.  1.
    10030    2    1    2    0    0  0.00000000000E+00  0.00000000000E+00 -0.24161474252E+04  0.25161319417E+04  0.70224751180E+03 0.  0.
        4    1    3    3  502    0 -0.24104974640E+01 -0.33257489706E+03 -0.16114468901E+04  0.16454101511E+04  0.12699999809E+01 0.  1.
       -4    1    3    3    0  502  0.24104974640E+01  0.33257489706E+03 -0.80470053502E+03  0.87072179059E+03  0.12699999809E+01 0. -1.
</event>
<event>
 5   0  0.1839038E-02  0.6946626E+03  0.7818609E-02  0.9726404E-01
       -1   -1    0    0    0  501  0.00000000000E+00  0.00000000000E+00  0.24585312176E+03  0.24585312182E+03  0.50400001928E-02 0. -1.
        1   -1    0    0  501    0  0.00000000000E+00  0.00000000000E+00 -0.49069554335E+03  0.49069554338E+03  0.50400001928E-02 0.  1.
    10030    2    1    2    0    0  0.00000000000E+00  0.00000000000E+00 -0.24484242159E+03  0.73654866519E+03  0.69466259780E+03 0.  0.
        5    1    3    3  502    0 -0.90734564710E+02  0.33150302393E+03 -0.17532912879E+03  0.38586190471E+03  0.46999998093E+01 0.  1.
       -5    1    3    3    0  502  0.90734564710E+02 -0.33150302393E+03 -0.69513292798E+02  0.35068676048E+03  0.46999998093E+01 0. -1.
</event>
<event>
 5   0  0.3290656E-02  0.6926131E+03  0.7818609E-02  0.9729949E-01
       -2   -1    0    0    0  501  0.00000000000E+00  0.00000000000E+00  0.80457746347E+02  0.80457746387E+02  0.25500000920E-02 0.  1.
        2   -1    0    0  501    0  0.00000000000E+00  0.00000000000E+00 -0.14905740993E+04  0.14905740993E+04  0.25500000920E-02 0. -1.
    10030    2    1    2    0    0  0.00000000000E+00  0.00000000000E+00 -0.14101163530E+04  0.15710318457E+04  0.69261311806E+03 0.  0.
        1    1    3    3  502    0  0.19598985512E+03  0.15645692861E+03 -0.16333890679E+03  0.29928313069E+03  0.50400001928E-02 0.  1.
       -1    1    3    3    0  502 -0.19598985512E+03 -0.15645692861E+03 -0.12467774462E+04  0.12717487150E+04  0.50400001928E-02 0. -1.
</event>
<event>
 5   0  0.3184443E-02  0.6998988E+03  0.7818609E-02  0.9717405E-01
       -2   -1    0    0    0  501  0.00000000000E+00  0.00000000000E+00  0.21650675223E+03  0.21650675225E+03  0.25500000920E-02 0. -1.
        2   -1    0    0  501    0  0.00000000000E+00  0.00000000000E+00 -0.56563862339E+03  0.56563862340E+03  0.25500000920E-02 0.  1.
    10030    2    1    2    0    0  0.00000000000E+00  0.00000000000E+00 -0.34913187116E+03  0.78214537564E+03  0.69989879639E+03 0.  0.
        3    1    3    3  502    0 -0.30407400144E+02 -0.94521941347E+02 -0.54956670585E+03  0.55846448567E+03  0.10100000352E+00 0.  1.
       -3    1    3    3    0  502  0.30407400144E+02  0.94521941347E+02  0.20043483469E+03  0.22368088997E+03  0.10100000352E+00 0. -1.
</event>
<event>
 5   0  0.1233912E-02  0.7002208E+03  0.7818609E-02  0.9716855E-01
        4   -1    0    0  501    0  0.00000000000E+00  0.00000000000E+00  0.78886136231E+02  0.78896358530E+02  0.12699999809E+01 0. -1.
       -4   -1    0    0    0  501  0.00000000000E+00  0.00000000000E+00 -0.15537396746E+04  0.15537401936E+04  0.12699999809E+01 0.  1.
    10030    2    1    2    0    0  0.00000000000E+00  0.00000000000E+00 -0.14748535383E+04  0.16326365521E+04  0.70022078791E+03 0.  0.
        3    1    3    3  502    0  0.24456827567E+02  0.30254623149E+03 -0.11442557926E+04  0.11838300924E+04  0.10100000352E+00 0.  1.
       -3    1    3    3    0  502 -0.24456827567E+02 -0.30254623149E+03 -0.33059774575E+03  0.44880645973E+03  0.10100000352E+00 0. -1.
</event>
<event>
 5   0  0.3184443E-02  0.7067546E+03  0.7818609E-02  0.9705750E-01
        2   -1    0    0  501    0  0.00000000000E+00  0.00000000000E+00  0.31301296709E+03  0.31301296710E+03  0.25500000920E-02 0. -1.
       -2   -1    0    0    0  501  0.00000000000E+00  0.00000000000E+00 -0.39894673395E+03  0.39894673396E+03  0.25500000920E-02 0.  1.
    10030    2    1    2    0    0  0.00000000000E+00  0.00000000000E+00 -0.85933766861E+02  0.71195970106E+03  0.70675455686E+03 0.  0.
        3    1    3    3  502    0  0.20333852925E+03 -0.21432011715E+02 -0.33330754350E+03  0.39102406238E+03  0.10100000352E+00 0.  1.
       -3    1    3    3    0  502 -0.20333852925E+03  0.21432011715E+02  0.24737377664E+03  0.32093563868E+03  0.10100000352E+00 0. -1.
</event>
<event>
 5   0  0.2933851E-02  0.6992984E+03  0.7818609E-02  0.9718433E-01
       -2   -1    0    0    0  501  0.00000000000E+00  0.00000000000E+00  0.56167399815E+03  0.56167399815E+03  0.25500000920E-02 0.  1.
        2   -1    0    0  501    0  0.00000000000E+00  0.00000000000E+00 -0.21766106361E+03  0.21766106362E+03  0.25500000920E-02 0. -1.
    10030    2    1    2    0    0  0.00000000000E+00  0.00000000000E+00  0.34401293454E+03  0.77933506178E+03  0.69929839081E+03 0.  0.
        2    1    3    3  502    0 -0.25425656912E+03 -0.63858258600E+01  0.43939939200E+03  0.50769972169E+03  0.25500000920E-02 0.  1.
       -2    1    3    3    0  502  0.25425656912E+03  0.63858258600E+01 -0.95386457459E+02  0.27163534009E+03  0.25500000920E-02 0. -1.
</event>
<event>
 5   0  0.3113940E-02  0.7045676E+03  0.7818609E-02  0.9709453E-01
       -2   -1    0    0    0  501  0.00000000000E+00  0.00000000000E+00  0.16088898054E+03  0.16088898056E+03  0.25500000920E-02 0. -1.
        2   -1    0    0  501    0  0.00000000000E+00  0.00000000000E+00 -0.77136342645E+03  0.77136342645E+03  0.25500000920E-02 0.  1.
    10030    2    1    2    0    0  0.00000000000E+00  0.00000000000E+00 -0.61047444591E+03  0.93225240701E+03  0.70456759880E+03 0.  0.
        5    1    3    3  502    0  0.31644436327E+03 -0.15361725392E+03 -0.28060770382E+03  0.44999785464E+03  0.46999998093E+01 0. -1.
       -5    1    3    3    0  502 -0.31644436327E+03  0.15361725392E+03 -0.32986674209E+03  0.48225455237E+03  0.46999998093E+01 0.  1.
</event>
<event>
 5   0  0.1884172E-02  0.7678238E+03  0.7818609E-02  0.9607795E-01
        1   -1    0    0  501    0  0.00000000000E+00  0.00000000000E+00  0.74597672194E+03  0.74597672196E+03  0.50400001928E-02 0.  1.
       -1   -1    0    0    0  501  0.00000000000E+00  0.00000000000E+00 -0.19757769803E+03  0.19757769809E+03  0.50400001928E-02 0. -1.
    10030    2    1    2    0    0  0.00000000000E+00  0.00000000000E+00  0.54839902391E+03  0.94355442005E+03  0.76782384319E+03 0.  0.
        3    1    3    3  502    0 -0.30794096193E+03  0.10272344476E+03  0.52606839797E+03  0.61816479331E+03  0.10100000352E+00 0.  1.
       -3    1    3    3    0  502  0.30794096193E+03 -0.10272344476E+03  0.22330625937E+02  0.32538962675E+03  0.10100000352E+00 0. -1.
</event>
<event>
 5   0  0.1839038E-02  0.7067185E+03  0.7818609E-02  0.9705811E-01
       -1   -1    0    0    0  501  0.00000000000E+00  0.00000000000E+00  0.29405027823E+03  0.29405027827E+03  0.50400001928E-02 0.  1.
        1   -1    0    0  501    0  0.00000000000E+00  0.00000000000E+00 -0.42463065253E+03  0.42463065256E+03  0.50400001928E-02 0. -1.
    10030    2    1    2    0    0  0.00000000000E+00  0.00000000000E+00 -0.13058037430E+03  0.71868093084E+03  0.70671850563E+03 0.  0.
        5    1    3    3  502    0  0.20323996365E+03  0.16626472797E+03 -0.30570299594E+03  0.40302215114E+03  0.46999998093E+01 0. -1.
       -5    1    3    3    0  502 -0.20323996365E+03 -0.16626472797E+03  0.17512262163E+03  0.31565877969E+03  0.46999998093E+01 0.  1.
</event>
<event>
 5   0  0.3290656E-02  0.6710510E+03  0.7818609E-02  0.9768061E-01
       -2   -1    0    0    0  501  0.00000000000E+00  0.00000000000E+00  0.60572720542E+03  0.60572720543E+03  0.25500000920E-02 0.  1.
        2   -1    0    0  501    0  0.00000000000E+00  0.00000000000E+00 -0.18585489509E+03  0.18585489511E+03  0.25500000920E-02 0. -1.
    10030    2    1    2    0    0  0.00000000000E+00  0.00000000000E+00  0.41987231033E+03  0.79158210054E+03  0.67105101513E+03 0.  0.
        1    1    3    3  502    0 -0.13029137765E+03 -0.15726494478E+03  0.52396488122E+03  0.56235869579E+03  0.50400001928E-02 0.  1.
       -1    1    3    3    0  502  0.13029137765E+03  0.15726494478E+03 -0.10409257089E+03  0.22922340475E+03  0.50400001928E-02 0. -1.
</event>
<event>
 5   0  0.1858013E-02  0.7005635E+03  0.7818609E-02  0.9716269E-01
        1   -1    0    0  501    0  0.00000000000E+00  0.00000000000E+00  0.59274750272E+03  0.59274750274E+03  0.50400001928E-02 0.  1.
       -1   -1    0    0    0  501  0.00000000000E+00  0.00000000000E+00 -0.20699757471E+03  0.20699757478E+03  0.50400001928E-02 0. -1.
    10030    2    1    2    0    0  0.00000000000E+00  0.00000000000E+00  0.38574992800E+03  0.79974507751E+03  0.70056347468E+03 0.  0.
        2    1    3    3  502    0 -0.14600273695E+03 -0.92071838537E+02 -0.15507724008E+03  0.23204088659E+03  0.25500000920E-02 0. -1.
       -2    1    3    3    0  502  0.14600273695E+03  0.92071838537E+02  0.54082716808E+03  0.56770419093E+03  0.25500000920E-02 0.  1.
</event>
<event>
 5   0  0.2933851E-02  0.7019390E+03  0.7818609E-02  0.9713922E-01
        2   -1    0    0  501    0  0.00000000000E+00  0.00000000000E+00  0.12632527630E+04  0.12632527630E+04  0.25500000920E-02 0. -1.
       -2   -1    0    0    0  501  0.00000000000E+00  0.00000000000E+00 -0.97509845473E+02  0.97509845507E+02  0.25500000920E-02 0.  1.
    10030    2    1    2    0    0  0.00000000000E+00  0.00000000000E+00  0.11657429175E+04  0.13607626085E+04  0.70193897666E+03 0.  0.
        2    1    3    3  502    0 -0.29435097269E+03  0.18655018012E+03  0.50209729110E+03  0.61118340501E+03  0.25500000920E-02 0. -1.
       -2    1    3    3    0  502  0.29435097269E+03 -0.18655018012E+03  0.66364562644E+03  0.74957920351E+03  0.25500000920E-02 0.  1.
</event>
<event>
 5   0  0.1969818E-02  0.6934765E+03  0.7818609E-02  0.9728454E-01
        1   -1    0    0  501    0  0.00000000000E+00  0.00000000000E+00  0.12575460895E+04  0.12575460895E+04  0.50400001928E-02 0. -1.
       -1   -1    0    0    0  501  0.00000000000E+00  0.00000000000E+00 -0.95604780333E+02  0.95604780466E+02  0.50400001928E-02 0.  1.
    10030    2    1    2    0    0  0.00000000000E+00  0.00000000000E+00  0.11619413092E+04  0.13531508700E+04  0.69347651076E+03 0.  0.
        1    1    3    3  502    0  0.32470643773E+03  0.11900033018E+03  0.53191415961E+03  0.63445096147E+03  0.50400001928E-02 0. -1.
       -1    1    3    3    0  502 -0.32470643773E+03 -0.11900033018E+03  0.63002714958E+03  0.71869990853E+03  0.50400001928E-02 0.  1.
</event>
<event>
 5   0  0.3183963E-02  0.6732853E+03  0.7818609E-02  0.9764041E-01
       -2   -1    0    0    0  501  0.00000000000E+00  0.00000000000E+00  0.19346691803E+03  0.19346691805E+03  0.25500000920E-02 0. -1.
        2   -1    0    0  501    0  0.00000000000E+00  0.00000000000E+00 -0.58577589737E+03  0.58577589738E+03  0.25500000920E-02 0.  1.
    10030    2    1    2    0    0  0.00000000000E+00  0.00000000000E+00 -0.39230897934E+03  0.77924281542E+03  0.67328525167E+03 0.  0.
        4    1    3    3  502    0 -0.19513093061E+03  0.12602205759E+03 -0.47815740150E+03  0.53159547834E+03  0.12699999809E+01 0.  1.
       -4    1    3    3    0  502  0.19513093061E+03 -0.12602205759E+03  0.85848422157E+02  0.24764733709E+03  0.12699999809E+01 0. -1.
</event>
<event>
 5   0  0.1951465E-02  0.6990755E+03  0.7818609E-02  0.9718814E-01
        1   -1    0    0  501    0  0.00000000000E+00  0.00000000000E+00  0.35990147967E+03  0.35990147970E+03  0.50400001928E-02 0.  1.
       -1   -1    0    0    0  501  0.00000000000E+00  0.00000000000E+00 -0.33947248552E+03  0.33947248556E+03  0.50400001928E-02 0. -1.
    10030    2    1    2    0    0  0.00000000000E+00  0.00000000000E+00  0.20428994146E+02  0.69937396527E+03  0.69907553203E+03 0.  0.
        4    1    3    3  502    0 -0.21617990606E+03  0.16523837002E+03  0.22971090843E+03  0.35609856088E+03  0.12699999809E+01 0.  1.
       -4    1    3    3    0  502  0.21617990606E+03 -0.16523837002E+03 -0.20928191428E+03  0.34327540439E+03  0.12699999809E+01 0. -1.
</event>
<event>
 5   0  0.1233912E-02  0.6790844E+03  0.7818609E-02  0.9753685E-01
        4   -1    0    0  501    0  0.00000000000E+00  0.00000000000E+00  0.50440490751E+03  0.50440650632E+03  0.12699999809E+01 0. -1.
       -4   -1    0    0    0  501  0.00000000000E+00  0.00000000000E+00 -0.22856046575E+03  0.22856399411E+03  0.12699999809E+01 0.  1.
    10030    2    1    2    0    0  0.00000000000E+00  0.00000000000E+00  0.27584444176E+03  0.73297050043E+03  0.67908438242E+03 0.  0.
        2    1    3    3  502    0  0.20415964126E+03 -0.25585391805E+03  0.40502106832E+02  0.32982238730E+03  0.25500000920E-02 0.  1.
       -2    1    3    3    0  502 -0.20415964126E+03  0.25585391805E+03  0.23534233493E+03  0.40314811312E+03  0.25500000920E-02 0. -1.
</event>
<event>
 5   0  0.1858013E-02  0.6867479E+03  0.7818609E-02  0.9740167E-01
       -1   -1    0    0    0  501  0.00000000000E+00  0.00000000000E+00  0.97438827037E+02  0.97438827167E+02  0.50400001928E-02 0.  1.
        1   -1    0    0  501    0  0.00000000000E+00  0.00000000000E+00 -0.12100482783E+04  0.12100482783E+04  0.50400001928E-02 0. -1.
    10030    2    1    2    0    0  0.00000000000E+00  0.00000000000E+00 -0.11126094512E+04  0.13074871054E+04  0.68674794498E+03 0.  0.
        2    1    3    3  502    0 -0.44445870468E+02 -0.30779830034E+03 -0.83345173462E+03  0.88958249929E+03  0.25500000920E-02 0. -1.
       -2    1    3    3    0  502  0.44445870468E+02  0.30779830034E+03 -0.27915771660E+03  0.41790460615E+03  0.25500000920E-02 0.  1.
</event>
<event>
 5   0  0.1839038E-02  0.6713480E+03  0.7818609E-02  0.9767526E-01
        1   -1    0    0  501    0  0.00000000000E+00  0.00000000000E+00  0.20197356694E+03  0.20197356700E+03  0.50400001928E-02 0.  1.
       -1   -1    0    0    0  501  0.00000000000E+00  0.00000000000E+00 -0.55788010669E+03  0.55788010671E+03  0.50400001928E-02 0. -1.
    10030    2    1    2    0    0  0.00000000000E+00  0.00000000000E+00 -0.35590653975E+03  0.75985367371E+03  0.67134800247E+03 0.  0.
        5    1    3    3  502    0 -0.21242424513E+03 -0.25926880088E+03 -0.15800685408E+03  0.37058416988E+03  0.46999998093E+01 0.  1.
       -5    1    3    3    0  502  0.21242424513E+03  0.25926880088E+03 -0.19789968567E+03  0.38926950384E+03  0.46999998093E+01 0. -1.
</event>
<event>
 5   0  0.3290656E-02  0.7506908E+03  0.7818609E-02  0.9634267E-01
        2   -1    0    0  501    0  0.00000000000E+00  0.00000000000E+00  0.22334627727E+03  0.22334627728E+03  0.25500000920E-02 0.  1.
       -2   -1    0    0    0  501  0.00000000000E+00  0.00000000000E+00 -0.63078813950E+03  0.63078813950E+03  0.25500000920E-02 0. -1.
    10030    2    1    2    0    0  0.00000000000E+00  0.00000000000E+00 -0.40744186223E+03  0.85413441678E+03  0.75069083572E+03 0.  0.
        1    1    3    3  502    0  0.27567232195E+03 -0.24041368434E+03 -0.29952738783E+03  0.47276910305E+03  0.50400001928E-02 0. -1.
       -1    1    3    3    0  502 -0.27567232195E+03  0.24041368434E+03 -0.10791447440E+03  0.38136531374E+03  0.50400001928E-02 0.  1.
</event>
<event>
 5   0  0.1884172E-02  0.6949771E+03  0.7818609E-02  0.9725861E-01
        1   -1    0    0  501    0  0.00000000000E+00  0.00000000000E+00  0.12588736548E+04  0.12588736548E+04  0.50400001928E-02 0. -1.
       -1   -1    0    0    0  501  0.00000000000E+00  0.00000000000E+00 -0.95917726712E+02  0.95917726845E+02  0.50400001928E-02 0.  1.
    10030    2    1    2    0    0  0.00000000000E+00  0.00000000000E+00  0.11629559281E+04  0.13547913816E+04  0.69497711986E+03 0.  0.
        3    1    3    3  502    0  0.14368581152E+03 -0.60942726461E+02 -0.23744293787E+02  0.15787156181E+03  0.10100000352E+00 0.  1.
       -3    1    3    3    0  502 -0.14368581152E+03  0.60942726461E+02  0.11867002219E+04  0.11969198198E+04  0.10100000352E+00 0. -1.
</event>
<event>
 5   0  0.3290656E-02  0.7073712E+03  0.7818609E-02  0.9704709E-01
        2   -1    0    0  501    0  0.00000000000E+00  0.00000000000E+00  0.10268782224E+04  0.10268782224E+04  0.25500000920E-02 0.  1.
       -2   -1    0    0    0  501  0.00000000000E+00  0.00000000000E+00 -0.12181920600E+03  0.12181920603E+03  0.25500000920E-02 0. -1.
    10030    2    1    2    0    0  0.00000000000E+00  0.00000000000E+00  0.90505901639E+03  0.11486974284E+04  0.70737116064E+03 0.  0.
        1    1    3    3  502    0  0.27122683431E+03  0.17896298921E+03  0.22575459548E+03  0.39567269878E+03  0.50400001928E-02 0.  1.
       -1    1    3    3    0  502 -0.27122683431E+03 -0.17896298921E+03  0.67930442091E+03  0.75302472964E+03  0.50400001928E-02 0. -1.
</event>
<event>
 5   0  0.1884172E-02  0.6768046E+03  0.7818609E-02  0.9757743E-01
        1   -1    0    0  501    0  0.00000000000E+00  0.00000000000E+00  0.28189234437E+03  0.28189234442E+03  0.50400001928E-02 0. -1.
       -1   -1    0    0    0  501  0.00000000000E+00  0.00000000000E+00 -0.40624057673E+03  0.40624057676E+03  0.50400001928E-02 0.  1.
    10030    2    1    2    0    0  0.00000000000E+00  0.00000000000E+00 -0.12434823236E+03  0.68813292118E+03  0.67680457617E+03 0.  0.
        3    1    3    3  502    0 -0.13192401969E+01  0.33683002482E+03 -0.29073206386E+02  0.33808500047E+03  0.10100000352E+00 0.  1.
       -3    1    3    3    0  502  0.13192401969E+01 -0.33683002482E+03 -0.95275025972E+02  0.35004792071E+03  0.10100000352E+00 0. -1.
</event>
<event>
 5   0  0.1839038E-02  0.6654606E+03  0.7818609E-02  0.9778193E-01
        1   -1    0    0  501    0  0.00000000000E+00  0.00000000000E+00  0.17889141943E+04  0.17889141943E+04  0.50400001928E-02 0.  1.
       -1   -1    0    0    0  501  0.00000000000E+00  0.00000000000E+00 -0.61886391360E+02  0.61886391565E+02  0.50400001928E-02 0. -1.
    10030    2    1    2    0    0  0.00000000000E+00  0.00000000000E+00  0.17270278029E+04  0.18508005859E+04  0.66546057474E+03 0.  0.
        5    1    3    3  502    0  0.32527322703E+03 -0.16146785662E+02  0.10526369602E+04  0.11018756967E+04  0.46999998093E+01 0.  1.
       -5    1    3    3    0  502 -0.32527322703E+03  0.16146785662E+02  0.67439084270E+03  0.74892488918E+03  0.46999998093E+01 0. -1.
</event>
<event>
 5   0  0.3183963E-02  0.6697915E+03  0.7818609E-02  0.9770335E-01
        2   -1    0    0  501    0  0.00000000000E+00  0.00000000000E+00  0.75367718175E+03  0.75367718176E+03  0.25500000920E-02 0.  1.
       -2   -1    0    0    0  501  0.00000000000E+00  0.00000000000E+00 -0.14881061900E+03  0.14881061902E+03  0.25500000920E-02 0. -1.
    10030    2    1    2    0    0  0.00000000000E+00  0.00000000000E+00  0.60486656275E+03  0.90248780078E+03  0.66979151370E+03 0.  0.
        4    1    3    3  502    0  0.27143607702E+03  0.18805091768E+03  0.37760971840E+03  0.50162875105E+03  0.12699999809E+01 0.  1.
       -4    1    3    3    0  502 -0.27143607702E+03 -0.18805091768E+03  0.22725684435E+03  0.40085904973E+03  0.12699999809E+01 0. -1.
</event>
<event>
 5   0  0.2933851E-02  0.7218526E+03  0.7818609E-02  0.9680574E-01
       -2   -1    0    0    0  501  0.00000000000E+00  0.00000000000E+00  0.19656563962E+03  0.19656563964E+03  0.25500000920E-02 0. -1.
        2   -1    0    0  501    0  0.00000000000E+00  0.00000000000E+00 -0.66271909478E+03  0.66271909478E+03  0.25500000920E-02 0.  1.
    10030    2    1    2    0    0  0.00000000000E+00  0.00000000000E+00 -0.46615345516E+03  0.85928473442E+03  0.72185262419E+03 0.  0.
        2    1    3    3  502    0 -0.14759410161E+03  0.28031829507E+03 -0.27220677179E+02  0.31796749936E+03  0.25500000920E-02 0. -1.
       -2    1    3    3    0  502  0.14759410161E+03 -0.28031829507E+03 -0.43893277798E+03  0.54131723506E+03  0.25500000920E-02 0.  1.
</event>
<event>
 5   0  0.1951465E-02  0.7001555E+03  0.7818609E-02  0.9716966E-01
       -1   -1    0    0    0  501  0.00000000000E+00  0.00000000000E+00  0.67256976465E+02  0.67256976654E+02  0.50400001928E-02 0. -1.
        1   -1    0    0  501    0  0.00000000000E+00  0.00000000000E+00 -0.18221814468E+04  0.18221814468E+04  0.50400001928E-02 0.  1.
    10030    2    1    2    0    0  0.00000000000E+00  0.00000000000E+00 -0.17549244703E+04  0.18894384235E+04  0.70015545379E+03 0.  0.
        4    1    3    3  502    0  0.35621056341E+02  0.16315680023E+03 -0.47171416055E+02  0.17353891929E+03  0.12699999809E+01 0. -1.
       -4    1    3    3    0  502 -0.35621056341E+02 -0.16315680023E+03 -0.17077530543E+04  0.17158995042E+04  0.12699999809E+01 0.  1.
</event>
<event>
 5   0  0.1233912E-02  0.7056716E+03  0.7818609E-02  0.9707582E-01
        3   -1    0    0  501    0  0.00000000000E+00  0.00000000000E+00  0.41762126197E+03  0.41762127419E+03  0.10100000352E+00 0.  1.
       -3   -1    0    0    0  501  0.00000000000E+00  0.00000000000E+00 -0.29810045806E+03  0.29810047517E+03  0.10100000352E+00 0. -1.
    10030    2    1    2    0    0  0.00000000000E+00  0.00000000000E+00  0.11952080391E+03  0.71572174936E+03  0.70567159496E+03 0.  0.
        1    1    3    3  502    0  0.30016448603E+03 -0.17623384568E+03  0.11795827501E+01  0.34807826487E+03  0.50400001928E-02 0. -1.
       -1    1    3    3    0  502 -0.30016448603E+03  0.17623384568E+03  0.11834122116E+03  0.36764348449E+03  0.50400001928E-02 0.  1.
</event>
<event>
 5   0  0.3113940E-02  0.6996166E+03  0.7818609E-02  0.9717888E-01
        2   -1    0    0  501    0  0.00000000000E+00  0.00000000000E+00  0.78479378978E+03  0.78479378978E+03  0.25500000920E-02 0. -1.
       -2   -1    0    0    0  501  0.00000000000E+00  0.00000000000E+00 -0.15592102171E+03  0.15592102173E+03  0.25500000920E-02 0.  1.
    10030    2    1    2    0    0  0.00000000000E+00  0.00000000000E+00  0.62887276807E+03  0.94071481151E+03  0.69961660799E+03 0.  0.
        5    1    3    3  502    0  0.30418961846E+03 -0.45343306876E+02  0.90420095603E+02  0.32060134613E+03  0.46999998093E+01 0.  1.
       -5    1    3    3    0  502 -0.30418961846E+03  0.45343306876E+02  0.53845267247E+03  0.62011346538E+03  0.46999998093E+01 0. -1.
</event>
<event>
 5   0  0.1969818E-02  0.7109367E+03  0.7818609E-02  0.9698710E-01
       -1   -1    0    0    0  501  0.00000000000E+00  0.00000000000E+00  0.15052199219E+03  0.15052199227E+03  0.50400001928E-02 0.  1.
        1   -1    0    0  501    0  0.00000000000E+00  0.00000000000E+00 -0.83946374917E+03  0.83946374919E+03  0.50400001928E-02 0. -1.
    10030    2    1    2    0    0  0.00000000000E+00  0.00000000000E+00 -0.68894175699E+03  0.98998574146E+03  0.71093672276E+03 0.  0.
        1    1    3    3  502    0  0.10030397032E+03  0.92059925434E+02 -0.80171840025E+03  0.81319635370E+03  0.50400001928E-02 0. -1.
       -1    1    3    3    0  502 -0.10030397032E+03 -0.92059925434E+02  0.11277664327E+03  0.17678938776E+03  0.50400001928E-02 0.  1.
</event>
<event>
 5   0  0.3183963E-02  0.6951300E+03  0.7818609E-02  0.9725597E-01
        2   -1    0    0  501    0  0.00000000000E+00  0.00000000000E+00  0.16804125337E+04  0.16804125337E+04  0.25500000920E-02 0. -1.
       -2   -1    0    0    0  501  0.00000000000E+00  0.00000000000E+00 -0.71887955051E+02  0.71887955096E+02  0.25500000920E-02 0.  1.
    10030    2    1    2    0    0  0.00000000000E+00  0.00000000000E+00  0.16085245786E+04  0.17523004888E+04  0.69512997556E+03 0.  0.
        4    1    3    3  502    0  0.27402614479E+03  0.26384749452E+02  0.26943555084E+03  0.38520593452E+03  0.12699999809E+01 0.  1.
       -4    1    3    3    0  502 -0.27402614479E+03 -0.26384749452E+02  0.13390890278E+04  0.13670945543E+04  0.12699999809E+01 0. -1.
</event>
<event>
 5   0  0.1858013E-02  0.6984140E+03  0.7818609E-02  0.9719948E-01
       -1   -1    0    0    0  501  0.00000000000E+00  0.00000000000E+00  0.89320099836E+02  0.89320099978E+02  0.50400001928E-02 0.  1.
        1   -1    0    0  501    0  0.00000000000E+00  0.00000000000E+00 -0.13652640577E+04  0.13652640577E+04  0.50400001928E-02 0. -1.
    10030    2    1    2    0    0  0.00000000000E+00  0.00000000000E+00 -0.12759439579E+04  0.14545841577E+04  0.69841398052E+03 0.  0.
        2    1    3    3  502    0 -0.60654871690E+02 -0.34073362839E+03 -0.54101798317E+03  0.64224518456E+03  0.25500000920E-02 0. -1.
       -2    1    3    3    0  502  0.60654871690E+02  0.34073362839E+03 -0.73492597471E+03  0.81233897314E+03  0.25500000920E-02 0.  1.
</event>
<event>
 5   0  0.1858013E-02  0.6958756E+03  0.7818609E-02  0.9724312E-01
        1   -1    0    0  501    0  0.00000000000E+00  0.00000000000E+00  0.45359679551E+03  0.45359679554E+03  0.50400001928E-02 0.  1.
       -1   -1    0    0    0  501  0.00000000000E+00  0.00000000000E+00 -0.26689057365E+03  0.26689057369E+03  0.50400001928E-02 0. -1.
    10030    2    1    2    0    0  0.00000000000E+00  0.00000000000E+00  0.18670622186E+03  0.72048736923E+03  0.69587558941E+03 0.  0.
        2    1    3    3  502    0 -0.10080610169E+03  0.28084890696E+03  0.27863115115E+03  0.40825641095E+03  0.25500000920E-02 0.  1.
       -2    1    3    3    0  502  0.10080610169E+03 -0.28084890696E+03 -0.91924929290E+02  0.31223095828E+03  0.25500000920E-02 0. -1.
</event>
<event>
 5   0  0.2933851E-02  0.7038554E+03  0.7818609E-02  0.9710662E-01
        2   -1    0    0  501    0  0.00000000000E+00  0.00000000000E+00  0.31180037596E+03  0.31180037597E+03  0.25500000920E-02 0. -1.
       -2   -1    0    0    0  501  0.00000000000E+00  0.00000000000E+00 -0.39721919981E+03  0.39721919982E+03  0.25500000920E-02 0.  1.
    10030    2    1    2    0    0  0.00000000000E+00  0.00000000000E+00 -0.85418823855E+02  0.70901957579E+03  0.70385537107E+03 0.  0.
        2    1    3    3  502    0  0.44105140052E+02  0.14499147578E+03  0.27724547761E+03  0.31596336226E+03  0.25500000920E-02 0. -1.
       -2    1    3    3    0  502 -0.44105140052E+02 -0.14499147578E+03 -0.36266430147E+03  0.39305621353E+03  0.25500000920E-02 0.  1.
</event>
<event>
 5   0  0.1839038E-02  0.7305720E+03  0.7818609E-02  0.9666333E-01
       -1   -1    0    0    0  501  0.00000000000E+00  0.00000000000E+00  0.40976891093E+03  0.40976891096E+03  0.50400001928E-02 0. -1.
        1   -1    0    0  501    0  0.00000000000E+00  0.00000000000E+00 -0.32563198093E+03  0.32563198097E+03  0.50400001928E-02 0.  1.
    10030    2    1    2    0    0  0.00000000000E+00  0.00000000000E+00  0.84136929996E+02  0.73540089194E+03  0.73057200115E+03 0.  0.
        5    1    3    3  502    0  0.20777843051E+03  0.37245726513E+02 -0.25798339644E+03  0.33337162921E+03  0.46999998093E+01 0.  1.
       -5    1    3    3    0  502 -0.20777843051E+03 -0.37245726513E+02  0.34212032643E+03  0.40202926272E+03  0.46999998093E+01 0. -1.
</event>
<event>
 5   0  0.1951465E-02  0.7236461E+03  0.7818609E-02  0.9677627E-01
        1   -1    0    0  501    0  0.00000000000E+00  0.00000000000E+00  0.64380250913E+03  0.64380250915E+03  0.50400001928E-02 0. -1.
       -1   -1    0    0    0  501  0.00000000000E+00  0.00000000000E+00 -0.20334796002E+03  0.20334796008E+03  0.50400001928E-02 0.  1.
    10030    2    1    2    0    0  0.00000000000E+00  0.00000000000E+00  0.44045454911E+03  0.84715046923E+03  0.72364612048E+03 0.  0.
        4    1    3    3  502    0 -0.33871422187E+03  0.10263708221E+03  0.13221176953E+03  0.37781378964E+03  0.12699999809E+01 0.  1.
       -4    1    3    3    0  502  0.33871422187E+03 -0.10263708221E+03  0.30824277958E+03  0.46933667959E+03  0.12699999809E+01 0. -1.
</event>
<event>
 5   0  0.1839038E-02  0.6988179E+03  0.7818609E-02  0.9719256E-01
       -1   -1    0    0    0  501  0.00000000000E+00  0.00000000000E+00  0.61484296242E+02  0.61484296448E+02  0.50400001928E-02 0.  1.
        1   -1    0    0  501    0  0.00000000000E+00  0.00000000000E+00 -0.19856552220E+04  0.19856552220E+04  0.50400001928E-02 0. -1.
    10030    2    1    2    0    0  0.00000000000E+00  0.00000000000E+00 -0.19241709258E+04  0.20471395185E+04  0.69881789938E+03 0.  0.
        5    1    3    3  502    0  0.25477585498E+03 -0.75055063918E+02 -0.16270118418E+04  0.16485550104E+04  0.46999998093E+01 0. -1.
       -5    1    3    3    0  502 -0.25477585498E+03  0.75055063918E+02 -0.29715908396E+03  0.39858450807E+03  0.46999998093E+01 0.  1.
</event>
<event>
 5   0  0.2933851E-02  0.6932905E+03  0.7818609E-02  0.9728776E-01
       -2   -1    0    0    0  501  0.00000000000E+00  0.00000000000E+00  0.23216605911E+03  0.23216605913E+03  0.25500000920E-02 0. -1.
        2   -1    0    0  501    0  0.00000000000E+00  0.00000000000E+00 -0.51757316482E+03  0.51757316483E+03  0.25500000920E-02 0.  1.
    10030    2    1    2    0    0  0.00000000000E+00  0.00000000000E+00 -0.28540710571E+03  0.74973922396E+03  0.69329047877E+03 0.  0.
        2    1    3    3  502    0 -0.14343715980E+03  0.15023826076E+03 -0.44281929028E+03  0.48911622101E+03  0.25500000920E-02 0.  1.
       -2    1    3    3    0  502  0.14343715980E+03 -0.15023826076E+03  0.15741218457E+03  0.26062300295E+03  0.25500000920E-02 0. -1.
</event>
<event>
 5   0  0.2933851E-02  0.7176268E+03  0.7818609E-02  0.9687554E-01
       -2   -1    0    0    0  501  0.00000000000E+00  0.00000000000E+00  0.23822252030E+03  0.23822252032E+03  0.25500000920E-02 0.  1.
        2   -1    0    0  501    0  0.00000000000E+00  0.00000000000E+00 -0.54044868582E+03  0.54044868582E+03  0.25500000920E-02 0. -1.
    10030    2    1    2    0    0  0.00000000000E+00  0.00000000000E+00 -0.30222616551E+03  0.77867120614E+03  0.71762677775E+03 0.  0.
        2    1    3    3  502    0 -0.33347753891E+03 -0.11793560887E+03 -0.21649638992E+03  0.41471286892E+03  0.25500000920E-02 0. -1.
       -2    1    3    3    0  502  0.33347753891E+03  0.11793560887E+03 -0.85729775594E+02  0.36395833721E+03  0.25500000920E-02 0.  1.
</event>
<event>
 5   0  0.1969818E-02  0.7085283E+03  0.7818609E-02  0.9702758E-01
        1   -1    0    0  501    0  0.00000000000E+00  0.00000000000E+00  0.42023494121E+03  0.42023494124E+03  0.50400001928E-02 0. -1.
       -1   -1    0    0    0  501  0.00000000000E+00  0.00000000000E+00 -0.29864981266E+03  0.29864981271E+03  0.50400001928E-02 0.  1.
    10030    2    1    2    0    0  0.00000000000E+00  0.00000000000E+00  0.12158512855E+03  0.71888475394E+03  0.70852829581E+03 0.  0.
        1    1    3    3  502    0  0.20373462337E+03 -0.86407597669E+02  0.34147493827E+03  0.40691424550E+03  0.50400001928E-02 0. -1.
       -1    1    3    3    0  502 -0.20373462337E+03  0.86407597669E+02 -0.21988980973E+03  0.31197050845E+03  0.50400001928E-02 0.  1.
</event>
<event>
 5   0  0.3184443E-02  0.6980592E+03  0.7818609E-02  0.9720557E-01
       -2   -1    0    0    0  501  0.00000000000E+00  0.00000000000E+00  0.29945914632E+03  0.29945914633E+03  0.25500000920E-02 0.  1.
        2   -1    0    0  501    0  0.00000000000E+00  0.00000000000E+00 -0.40680566271E+03  0.40680566271E+03  0.25500000920E-02 0. -1.
    10030    2    1    2    0    0  0.00000000000E+00  0.00000000000E+00 -0.10734651638E+03  0.70626480905E+03  0.69805924241E+03 0.  0.
        3    1    3    3  502    0 -0.91561604059E+02 -0.20348783756E+03 -0.32521370112E+03  0.39440434705E+03  0.10100000352E+00 0. -1.
       -3    1    3    3    0  502  0.91561604059E+02  0.20348783756E+03  0.21786718474E+03  0.31186046200E+03  0.10100000352E+00 0.  1.
</event>
<event>
 5   0  0.3184443E-02  0.6989717E+03  0.7818609E-02  0.9718992E-01
       -2   -1    0    0    0  501  0.00000000000E+00  0.00000000000E+00  0.16102910992E+03  0.16102910994E+03  0.25500000920E-02 0.  1.
        2   -1    0    0  501    0  0.00000000000E+00  0.00000000000E+00 -0.75849861618E+03  0.75849861619E+03  0.25500000920E-02 0. -1.
    10030    2    1    2    0    0  0.00000000000E+00  0.00000000000E+00 -0.59746950626E+03  0.91952772612E+03  0.69897169342E+03 0.  0.
        3    1    3    3  502    0 -0.72076673691E+02 -0.34107398773E+03 -0.26614125207E+03  0.43858601009E+03  0.10100000352E+00 0.  1.
       -3    1    3    3    0  502  0.72076673691E+02  0.34107398773E+03 -0.33132825420E+03  0.48094171604E+03  0.10100000352E+00 0. -1.
</event>
<event>
 5   0  0.3183963E-02  0.6905801E+03  0.7818609E-02  0.9733479E-01
       -2   -1    0    0    0  501  0.00000000000E+00  0.00000000000E+00  0.19248946188E+03  0.19248946190E+03  0.25500000920E-02 0.  1.
        2   -1    0    0  501    0  0.00000000000E+00  0.00000000000E+00 -0.61938560464E+03  0.61938560464E+03  0.25500000920E-02 0. -1.
    10030    2    1    2    0    0  0.00000000000E+00  0.00000000000E+00 -0.42689614275E+03  0.81187506654E+03  0.69058005110E+03 0.  0.
        4    1    3    3  502    0  0.26338887430E+03  0.86382280504E+02 -0.45549333789E+03  0.53320858137E+03  0.12699999809E+01 0.  1.
       -4    1    3    3    0  502 -0.26338887430E+03 -0.86382280504E+02  0.28597195133E+02  0.27866648517E+03  0.12699999809E+01 0. -1.
</event>
<event>
 5   0  0.1951465E-02  0.7049881E+03  0.7818609E-02  0.9708740E-01
       -1   -1    0    0    0  501  0.00000000000E+00  0.00000000000E+00  0.35389278949E+03  0.35389278953E+03  0.50400001928E-02 0.  1.
        1   -1    0    0  501    0  0.00000000000E+00  0.00000000000E+00 -0.35110079084E+03  0.35110079088E+03  0.50400001928E-02 0. -1.
    10030    2    1    2    0    0  0.00000000000E+00  0.00000000000E+00  0.27919986511E+01  0.70499358040E+03  0.70498805178E+03 0.  0.
        4    1    3    3  502    0 -0.67705191209E+02  0.16000121139E+03 -0.30530828853E+03  0.35128214374E+03  0.12699999809E+01 0. -1.
       -4    1    3    3    0  502  0.67705191209E+02 -0.16000121139E+03  0.30810028718E+03  0.35371143666E+03  0.12699999809E+01 0.  1.
</event>
<event>
 5   0  0.1951465E-02  0.6809834E+03  0.7818609E-02  0.9750317E-01
        1   -1    0    0  501    0  0.00000000000E+00  0.00000000000E+00  0.55938646851E+03  0.55938646854E+03  0.50400001928E-02 0.  1.
       -1   -1    0    0    0  501  0.00000000000E+00  0.00000000000E+00 -0.20725313048E+03  0.20725313054E+03  0.50400001928E-02 0. -1.
    10030    2    1    2    0    0  0.00000000000E+00  0.00000000000E+00  0.35213333803E+03  0.76663959908E+03  0.68098339710E+03 0.  0.
        4    1    3    3  502    0  0.17784636382E+03 -0.22954012246E+03  0.37623770082E+03  0.47526247207E+03  0.12699999809E+01 0.  1.
       -4    1    3    3    0  502 -0.17784636382E+03  0.22954012246E+03 -0.24104362787E+02  0.29137712701E+03  0.12699999809E+01 0. -1.
</event>
<event>
 5   0  0.3113940E-02  0.7074635E+03  0.7818609E-02  0.9704553E-01
        2   -1    0    0  501    0  0.00000000000E+00  0.00000000000E+00  0.22666548762E+04  0.22666548762E+04  0.25500000920E-02 0. -1.
       -2   -1    0    0    0  501  0.00000000000E+00  0.00000000000E+00 -0.55202997832E+02  0.55202997891E+02  0.25500000920E-02 0.  1.
    10030    2    1    2    0    0  0.00000000000E+00  0.00000000000E+00  0.22114518784E+04  0.23218578741E+04  0.70746348114E+03 0.  0.
        5    1    3    3  502    0 -0.76783254462E+02  0.24182268140E+03  0.19145124110E+04  0.19312570361E+04  0.46999998093E+01 0. -1.
       -5    1    3    3    0  502  0.76783254462E+02 -0.24182268140E+03  0.29693946736E+03  0.39060083804E+03  0.46999998093E+01 0.  1.
</event>
<event>
 5   0  0.1951465E-02  0.6959694E+03  0.7818609E-02  0.9724150E-01
       -1   -1    0    0    0  501  0.00000000000E+00  0.00000000000E+00  0.11154150947E+03  0.11154150959E+03  0.50400001928E-02 0. -1.
        1   -1    0    0  501    0  0.00000000000E+00  0.00000000000E+00 -0.10856347231E+04  0.10856347231E+04  0.50400001928E-02 0.  1.
    10030    2    1    2    0    0  0.00000000000E+00  0.00000000000E+00 -0.97409321365E+03  0.11971762327E+04  0.69596935515E+03 0.  0.
        4    1    3    3  502    0 -0.15713205695E+03 -0.23402899701E+03 -0.83802459133E+03  0.88416451147E+03  0.12699999809E+01 0.  1.
       -4    1    3    3    0  502  0.15713205695E+03  0.23402899701E+03 -0.13606862232E+03  0.31301172125E+03  0.12699999809E+01 0. -1.
</event>
<event>
 5   0  0.3184443E-02  0.6980230E+03  0.7818609E-02  0.9720619E-01
       -2   -1    0    0    0  501  0.00000000000E+00  0.00000000000E+00  0.20238958627E+03  0.20238958629E+03  0.25500000920E-02 0.  1.
        2   -1    0    0  501    0  0.00000000000E+00  0.00000000000E+00 -0.60185426769E+03  0.60185426770E+03  0.25500000920E-02 0. -1.
    10030    2    1    2    0    0  0.00000000000E+00  0.00000000000E+00 -0.39946468142E+03  0.80424385399E+03  0.69802302610E+03 0.  0.
        3    1    3    3  502    0  0.77390742987E+02 -0.20524388752E+03 -0.51251017541E+03  0.55747741709E+03  0.10100000352E+00 0. -1.
       -3    1    3    3    0  502 -0.77390742987E+02  0.20524388752E+03  0.11304549399E+03  0.24676643689E+03  0.10100000352E+00 0.  1.
</event>
<event>
 5   0  0.3113940E-02  0.7012155E+03  0.7818609E-02  0.9715156E-01
       -2   -1    0    0    0  501  0.00000000000E+00  0.00000000000E+00  0.11963192030E+03  0.11963192033E+03  0.25500000920E-02 0.  1.
        2   -1    0    0  501    0  0.00000000000E+00  0.00000000000E+00 -0.10275334179E+04  0.10275334179E+04  0.25500000920E-02 0. -1.
    10030    2    1    2    0    0  0.00000000000E+00  0.00000000000E+00 -0.90790149759E+03  0.11471653382E+04  0.70121550461E+03 0.  0.
        5    1    3    3  502    0  0.15553037930E+03  0.34271377246E+02  0.56983156920E+02  0.16921405483E+03  0.46999998093E+01 0.  1.
       -5    1    3    3    0  502 -0.15553037930E+03 -0.34271377246E+02 -0.96488465451E+03  0.97795128339E+03  0.46999998093E+01 0. -1.
</event>
<event>
 5   0  0.1951465E-02  0.7088877E+03  0.7818609E-02  0.9702153E-01
       -1   -1    0    0    0  501  0.00000000000E+00  0.00000000000E+00  0.99478842978E+03  0.99478842980E+03  0.50400001928E-02 0. -1.
        1   -1    0    0  501    0  0.00000000000E+00  0.00000000000E+00 -0.12628860644E+03  0.12628860654E+03  0.50400001928E-02 0.  1.
    10030    2    1    2    0    0  0.00000000000E+00  0.00000000000E+00  0.86849982335E+03  0.11210770363E+04  0.70888770496E+03 0.  0.
        4    1    3    3  502    0 -0.34937658034E+02 -0.30248728325E+03  0.14735717925E+03  0.33828234901E+03  0.12699999809E+01 0. -1.
       -4    1    3    3    0  502  0.34937658034E+02  0.30248728325E+03  0.72114264409E+03  0.78279468732E+03  0.12699999809E+01 0.  1.
</event>
<event>
 5   0  0.1884172E-02  0.6870018E+03  0.7818609E-02  0.9739723E-01
       -1   -1    0    0    0  501  0.00000000000E+00  0.00000000000E+00  0.49914534693E+02  0.49914534947E+02  0.50400001928E-02 0.  1.
        1   -1    0    0  501    0  0.00000000000E+00  0.00000000000E+00 -0.23638979358E+04  0.23638979358E+04  0.50400001928E-02 0. -1.
    10030    2    1    2    0    0  0.00000000000E+00  0.00000000000E+00 -0.23139834011E+04  0.24138124707E+04  0.68700179283E+03 0.  0.
        3    1    3    3  502    0  0.33379027609E+03  0.38387874246E+02 -0.14079897139E+04  0.14475236171E+04  0.10100000352E+00 0. -1.
       -3    1    3    3    0  502 -0.33379027609E+03 -0.38387874246E+02 -0.90599368719E+03  0.96628885367E+03  0.10100000352E+00 0.  1.
</event>
<event>
 5   0  0.1951465E-02  0.6883708E+03  0.7818609E-02  0.9737329E-01
        1   -1    0    0  501    0  0.00000000000E+00  0.00000000000E+00  0.55453362904E+03  0.55453362906E+03  0.50400001928E-02 0.  1.
       -1   -1    0    0    0  501  0.00000000000E+00  0.00000000000E+00 -0.21362742703E+03  0.21362742708E+03  0.50400001928E-02 0. -1.
    10030    2    1    2    0    0  0.00000000000E+00  0.00000000000E+00  0.34090620202E+03  0.76816105615E+03  0.68837080822E+03 0.  0.
        4    1    3    3  502    0  0.27096464830E+03 -0.21222315266E+03  0.17180715220E+03  0.38468144952E+03  0.12699999809E+01 0. -1.
       -4    1    3    3    0  502 -0.27096464830E+03  0.21222315266E+03  0.16909904981E+03  0.38347960663E+03  0.12699999809E+01 0.  1.
</event>
<event>
 5   0  0.3113940E-02  0.7042912E+03  0.7818609E-02  0.9709922E-01
       -2   -1    0    0    0  501  0.00000000000E+00  0.00000000000E+00  0.16411927890E+03  0.16411927892E+03  0.25500000920E-02 0.  1.
        2   -1    0    0  501    0  0.00000000000E+00  0.00000000000E+00 -0.75558769422E+03  0.75558769423E+03  0.25500000920E-02 0. -1.
    10030    2    1    2    0    0  0.00000000000E+00  0.00000000000E+00 -0.59146841532E+03  0.91970697315E+03  0.70429115438E+03 0.  0.
        5    1    3    3  502    0  0.39729431008E+02 -0.94776974795E+02 -0.73552730965E+03  0.74268675489E+03  0.46999998093E+01 0. -1.
       -5    1    3    3    0  502 -0.39729431008E+02  0.94776974795E+02  0.14405889433E+03  0.17702021826E+03  0.46999998093E+01 0.  1.
</event>
<event>
 5   0  0.1951465E-02  0.7003859E+03  0.7818609E-02  0.9716572E-01
       -1   -1    0    0    0  501  0.00000000000E+00  0.00000000000E+00  0.49479106124E+03  0.49479106126E+03  0.50400001928E-02 0.  1.
        1   -1    0    0  501    0  0.00000000000E+00  0.00000000000E+00 -0.24785233053E+03  0.24785233058E+03  0.50400001928E-02 0. -1.
    10030    2    1    2    0    0  0.00000000000E+00  0.00000000000E+00  0.24693873071E+03  0.74264339185E+03  0.70038594413E+03 0.  0.
        4    1    3    3  502    0 -0.33574348809E+03  0.88050413876E+02  0.74224393711E+02  0.35494709282E+03  0.12699999809E+01 0. -1.
       -4    1    3    3    0  502  0.33574348809E+03 -0.88050413876E+02  0.17271433699E+03  0.38769629903E+03  0.12699999809E+01 0.  1.
</event>
<event>
 5   0  0.1233912E-02  0.7169051E+03  0.7818609E-02  0.9688751E-01
       -3   -1    0    0    0  501  0.00000000000E+00  0.00000000000E+00  0.43183668214E+03  0.43183669395E+03  0.10100000352E+00 0. -1.
        3   -1    0    0  501    0  0.00000000000E+00  0.00000000000E+00 -0.29753892964E+03  0.29753894678E+03  0.10100000352E+00 0.  1.
    10030    2    1    2    0    0  0.00000000000E+00  0.00000000000E+00  0.13429775250E+03  0.72937564073E+03  0.71690511154E+03 0.  0.
        4    1    3    3  502    0  0.33257638478E+03 -0.33755837580E+02 -0.64485335696E+02  0.34045040712E+03  0.12699999809E+01 0.  1.
       -4    1    3    3    0  502 -0.33257638478E+03  0.33755837580E+02  0.19878308820E+03  0.38892523361E+03  0.12699999809E+01 0. -1.
</event>
<event>
 5   0  0.1858013E-02  0.7039306E+03  0.7818609E-02  0.9710534E-01
        1   -1    0    0  501    0  0.00000000000E+00  0.00000000000E+00  0.90783886154E+03  0.90783886156E+03  0.50400001928E-02 0.  1.
       -1   -1    0    0    0  501  0.00000000000E+00  0.00000000000E+00 -0.13645547367E+03  0.13645547377E+03  0.50400001928E-02 0. -1.
    10030    2    1    2    0    0  0.00000000000E+00  0.00000000000E+00  0.77138338787E+03  0.10442943353E+04  0.70393062706E+03 0.  0.
        2    1    3    3  502    0  0.12379052337E+03 -0.32946576474E+03  0.38154895381E+03  0.51908707167E+03  0.25500000920E-02 0. -1.
       -2    1    3    3    0  502 -0.12379052337E+03  0.32946576474E+03  0.38983443406E+03  0.52520726365E+03  0.25500000920E-02 0.  1.
</event>
<event>
 5   0  0.1839038E-02  0.6995466E+03  0.7818609E-02  0.9718008E-01
       -1   -1    0    0    0  501  0.00000000000E+00  0.00000000000E+00  0.26500442075E+03  0.26500442080E+03  0.50400001928E-02 0. -1.
        1   -1    0    0  501    0  0.00000000000E+00  0.00000000000E+00 -0.46165777651E+03  0.46165777653E+03  0.50400001928E-02 0.  1.
    10030    2    1    2    0    0  0.00000000000E+00  0.00000000000E+00 -0.19665335576E+03  0.72666219733E+03  0.69954657222E+03 0.  0.
        5    1    3    3  502    0 -0.17790674103E+03 -0.43462726517E+02 -0.40783486873E+03  0.44709192259E+03  0.46999998093E+01 0.  1.
       -5    1    3    3    0  502  0.17790674103E+03  0.43462726517E+02  0.21118151297E+03  0.27957027474E+03  0.46999998093E+01 0. -1.
</event>
<event>
 5   0  0.2933851E-02  0.6888717E+03  0.7818609E-02  0.9736455E-01
        2   -1    0    0  501    0  0.00000000000E+00  0.00000000000E+00  0.39772962761E+03  0.39772962762E+03  0.25500000920E-02 0.  1.
       -2   -1    0    0    0  501  0.00000000000E+00  0.00000000000E+00 -0.29828314984E+03  0.29828314985E+03  0.25500000920E-02 0. -1.
    10030    2    1    2    0    0  0.00000000000E+00  0.00000000000E+00  0.99446477768E+02  0.69601277747E+03  0.68887167489E+03 0.  0.
        2    1    3    3  502    0  0.18423968180E+02 -0.17858947626E+03 -0.24726673899E+03  0.30557238725E+03  0.25500000920E-02 0. -1.
       -2    1    3    3    0  502 -0.18423968180E+02  0.17858947626E+03  0.34671321676E+03  0.39044039022E+03  0.25500000920E-02 0.  1.
</event>
<event>
 5   0  0.3183963E-02  0.7148304E+03  0.7818609E-02  0.9692201E-01
       -2   -1    0    0    0  501  0.00000000000E+00  0.00000000000E+00  0.10200643983E+03  0.10200643987E+03  0.25500000920E-02 0.  1.
        2   -1    0    0  501    0  0.00000000000E+00  0.00000000000E+00 -0.12523290183E+04  0.12523290183E+04  0.25500000920E-02 0. -1.
    10030    2    1    2    0    0  0.00000000000E+00  0.00000000000E+00 -0.11503225785E+04  0.13543354582E+04  0.71483039857E+03 0.  0.
        4    1    3    3  502    0  0.61522699998E+02 -0.18392040646E+02  0.90983812609E+02  0.11136865282E+03  0.12699999809E+01 0.  1.
       -4    1    3    3    0  502 -0.61522699998E+02  0.18392040646E+02 -0.12413063911E+04  0.12429668053E+04  0.12699999809E+01 0. -1.
</event>
<event>
 5   0  0.3184443E-02  0.7021828E+03  0.7818609E-02  0.9713507E-01
       -2   -1    0    0    0  501  0.00000000000E+00  0.00000000000E+00  0.10758968438E+03  0.10758968441E+03  0.25500000920E-02 0.  1.
        2   -1    0    0  501    0  0.00000000000E+00  0.00000000000E+00 -0.11456969860E+04  0.11456969860E+04  0.25500000920E-02 0. -1.
    10030    2    1    2    0    0  0.00000000000E+00  0.00000000000E+00 -0.10381073017E+04  0.12532866704E+04  0.70218281706E+03 0.  0.
        3    1    3    3  502    0 -0.14154390048E+03 -0.32025026183E+03 -0.56526218468E+03  0.66491823077E+03  0.10100000352E+00 0.  1.
       -3    1    3    3    0  502  0.14154390048E+03  0.32025026183E+03 -0.47284511697E+03  0.58836843968E+03  0.10100000352E+00 0. -1.
</event>
<event>
 5   0  0.1951465E-02  0.6978613E+03  0.7818609E-02  0.9720897E-01
        1   -1    0    0  501    0  0.00000000000E+00  0.00000000000E+00  0.25596008394E+03  0.25596008399E+03  0.50400001928E-02 0. -1.
       -1   -1    0    0    0  501  0.00000000000E+00  0.00000000000E+00 -0.47567026222E+03  0.47567026225E+03  0.50400001928E-02 0.  1.
    10030    2    1    2    0    0  0.00000000000E+00  0.00000000000E+00 -0.21971017828E+03  0.73163034624E+03  0.69786130506E+03 0.  0.
        4    1    3    3  502    0 -0.10971177698E+03 -0.32721975589E+03 -0.55972112868E+02  0.34963399859E+03  0.12699999809E+01 0. -1.
       -4    1    3    3    0  502  0.10971177698E+03  0.32721975589E+03 -0.16373806541E+03  0.38199634765E+03  0.12699999809E+01 0.  1.
</event>
<event>
 5   0  0.1884172E-02  0.7419589E+03  0.7818609E-02  0.9648051E-01
        1   -1    0    0  501    0  0.00000000000E+00  0.00000000000E+00  0.70117279485E+03  0.70117279487E+03  0.50400001928E-02 0.  1.
       -1   -1    0    0    0  501  0.00000000000E+00  0.00000000000E+00 -0.19627934268E+03  0.19627934274E+03  0.50400001928E-02 0. -1.
    10030    2    1    2    0    0  0.00000000000E+00  0.00000000000E+00  0.50489345218E+03  0.89745213761E+03  0.74195885415E+03 0.  0.
        3    1    3    3  502    0 -0.19906621082E+03  0.89022426291E+01  0.63094615011E+03  0.66166431123E+03  0.10100000352E+00 0.  1.
       -3    1    3    3    0  502  0.19906621082E+03 -0.89022426291E+01 -0.12605269793E+03  0.23578782639E+03  0.10100000352E+00 0. -1.
</event>
<event>
 5   0  0.1839038E-02  0.6986320E+03  0.7818609E-02  0.9719575E-01
       -1   -1    0    0    0  501  0.00000000000E+00  0.00000000000E+00  0.24779665869E+03  0.24779665874E+03  0.50400001928E-02 0.  1.
        1   -1    0    0  501    0  0.00000000000E+00  0.00000000000E+00 -0.49242655715E+03  0.49242655717E+03  0.50400001928E-02 0. -1.
    10030    2    1    2    0    0  0.00000000000E+00  0.00000000000E+00 -0.24462989846E+03  0.74022321591E+03  0.69863196473E+03 0.  0.
        5    1    3    3  502    0 -0.25480109994E+02  0.39593302937E+02  0.24438537898E+03  0.24892402274E+03  0.46999998093E+01 0.  1.
       -5    1    3    3    0  502  0.25480109994E+02 -0.39593302937E+02 -0.48901527744E+03  0.49129919317E+03  0.46999998093E+01 0. -1.
</event>
<event>
 5   0  0.1839038E-02  0.6583230E+03  0.7818609E-02  0.9791286E-01
        1   -1    0    0  501    0  0.00000000000E+00  0.00000000000E+00  0.15733195075E+04  0.15733195075E+04  0.50400001928E-02 0. -1.
       -1   -1    0    0    0  501  0.00000000000E+00  0.00000000000E+00 -0.68865399777E+02  0.68865399962E+02  0.50400001928E-02 0.  1.
    10030    2    1    2    0    0  0.00000000000E+00  0.00000000000E+00  0.15044541077E+04  0.16421849074E+04  0.65832295119E+03 0.  0.
        5    1    3    3  502    0 -0.12873587940E+03 -0.30154487392E+03  0.82378693703E+03  0.88665057675E+03  0.46999998093E+01 0. -1.
       -5    1    3    3    0  502  0.12873587940E+03  0.30154487392E+03  0.68066717065E+03  0.75553433068E+03  0.46999998093E+01 0.  1.
</event>
<event>
 5   0  0.2933851E-02  0.7011533E+03  0.7818609E-02  0.9715262E-01
        2   -1    0    0  501    0  0.00000000000E+00  0.00000000000E+00  0.78758890176E+03  0.78758890176E+03  0.25500000920E-02 0. -1.
       -2   -1    0    0    0  501  0.00000000000E+00  0.00000000000E+00 -0.15605091854E+03  0.15605091857E+03  0.25500000920E-02 0.  1.
    10030    2    1    2    0    0  0.00000000000E+00  0.00000000000E+00  0.63153798322E+03  0.94363982033E+03  0.70115325448E+03 0.  0.
        2    1    3    3  502    0  0.73145531401E+02  0.18606316917E+02  0.77652501434E+03  0.78018431264E+03  0.25500000920E-02 0. -1.
       -2    1    3    3    0  502 -0.73145531401E+02 -0.18606316917E+02 -0.14498703112E+03  0.16345550769E+03  0.25500000920E-02 0.  1.
</event>
<event>
 5   0  0.2933851E-02  0.6971830E+03  0.7818609E-02  0.9722062E-01
       -2   -1    0    0    0  501  0.00000000000E+00  0.00000000000E+00  0.71203980997E+02  0.71203981042E+02  0.25500000920E-02 0.  1.
        2   -1    0    0  501    0  0.00000000000E+00  0.00000000000E+00 -0.17065905989E+04  0.17065905989E+04  0.25500000920E-02 0. -1.
    10030    2    1    2    0    0  0.00000000000E+00  0.00000000000E+00 -0.16353866179E+04  0.17777945799E+04  0.69718303082E+03 0.  0.
        2    1    3    3  502    0  0.21873111454E+02  0.34733103098E+03 -0.86861397944E+03  0.93573902525E+03  0.25500000920E-02 0. -1.
       -2    1    3    3    0  502 -0.21873111454E+02 -0.34733103098E+03 -0.76677263845E+03  0.84205555468E+03  0.25500000920E-02 0.  1.
</event>
<event>
 5   0  0.1884172E-02  0.7018619E+03  0.7818609E-02  0.9714053E-01
       -1   -1    0    0    0  501  0.00000000000E+00  0.00000000000E+00  0.11819427941E+04  0.11819427941E+04  0.50400001928E-02 0.  1.
        1   -1    0    0  501    0  0.00000000000E+00  0.00000000000E+00 -0.10419501623E+03  0.10419501635E+03  0.50400001928E-02 0. -1.
    10030    2    1    2    0    0  0.00000000000E+00  0.00000000000E+00  0.10777477778E+04  0.12861378104E+04  0.70186194851E+03 0.  0.
        3    1    3    3  502    0 -0.65926191248E+02  0.33792574875E+03  0.41442176599E+03  0.53878148139E+03  0.10100000352E+00 0. -1.
       -3    1    3    3    0  502  0.65926191248E+02 -0.33792574875E+03  0.66332601184E+03  0.74735632903E+03  0.10100000352E+00 0.  1.
</event>
<event>
 5   0  0.1969818E-02  0.6964485E+03  0.7818609E-02  0.9723325E-01
       -1   -1    0    0    0  501  0.00000000000E+00  0.00000000000E+00  0.23849940394E+03  0.23849940399E+03  0.50400001928E-02 0.  1.
        1   -1    0    0  501    0  0.00000000000E+00  0.00000000000E+00 -0.50842948034E+03  0.50842948037E+03  0.50400001928E-02 0. -1.
    10030    2    1    2    0    0  0.00000000000E+00  0.00000000000E+00 -0.26993007640E+03  0.74692888436E+03  0.69644849928E+03 0.  0.
        1    1    3    3  502    0 -0.31420676930E+03 -0.13303854488E+03 -0.60391014656E+02  0.34651439072E+03  0.50400001928E-02 0.  1.
       -1    1    3    3    0  502  0.31420676930E+03  0.13303854488E+03 -0.20953906175E+03  0.40041449364E+03  0.50400001928E-02 0. -1.
</event>
<event>
 5   0  0.3184443E-02  0.7111026E+03  0.7818609E-02  0.9698431E-01
        2   -1    0    0  501    0  0.00000000000E+00  0.00000000000E+00  0.21828051518E+03  0.21828051519E+03  0.25500000920E-02 0.  1.
       -2   -1    0    0    0  501  0.00000000000E+00  0.00000000000E+00 -0.57914801263E+03  0.57914801263E+03  0.25500000920E-02 0. -1.
    10030    2    1    2    0    0  0.00000000000E+00  0.00000000000E+00 -0.36086749745E+03  0.79742852782E+03  0.71110259898E+03 0.  0.
        3    1    3    3  502    0  0.50857812558E+01  0.41988308487E+02 -0.57631690539E+03  0.57786682624E+03  0.10100000352E+00 0. -1.
       -3    1    3    3    0  502 -0.50857812558E+01 -0.41988308487E+02  0.21544940794E+03  0.21956170159E+03  0.10100000352E+00 0.  1.
</event>
<event>
 5   0  0.3113940E-02  0.6923746E+03  0.7818609E-02  0.9730362E-01
        2   -1    0    0  501    0  0.00000000000E+00  0.00000000000E+00  0.59806360925E+03  0.59806360926E+03  0.25500000920E-02 0.  1.
       -2   -1    0    0    0  501  0.00000000000E+00  0.00000000000E+00 -0.20038946480E+03  0.20038946482E+03  0.25500000920E-02 0. -1.
    10030    2    1    2    0    0  0.00000000000E+00  0.00000000000E+00  0.39767414445E+03  0.79845307408E+03  0.69237459972E+03 0.  0.
        5    1    3    3  502    0  0.24023071987E+02 -0.58142203755E+02 -0.19370494621E+03  0.20371872774E+03  0.46999998093E+01 0. -1.
       -5    1    3    3    0  502 -0.24023071987E+02  0.58142203755E+02  0.59137909066E+03  0.59473434634E+03  0.46999998093E+01 0.  1.
</event>
<event>
 5   0  0.1858013E-02  0.7022141E+03  0.7818609E-02  0.9713453E-01
        1   -1    0    0  501    0  0.00000000000E+00  0.00000000000E+00  0.10401245618E+04  0.10401245619E+04  0.50400001928E-02 0. -1.
       -1   -1    0    0    0  501  0.00000000000E+00  0.00000000000E+00 -0.11852058224E+03  0.11852058235E+03  0.50400001928E-02 0.  1.
    10030    2    1    2    0    0  0.00000000000E+00  0.00000000000E+00  0.92160397961E+03  0.11586451442E+04  0.70221412330E+03 0.  0.
        2    1    3    3  502    0 -0.15983665268E+03  0.10239373222E+03  0.94816045406E+03  0.96697491104E+03  0.25500000920E-02 0. -1.
       -2    1    3    3    0  502  0.15983665268E+03 -0.10239373222E+03 -0.26556474451E+02  0.19167023316E+03  0.25500000920E-02 0.  1.
</event>
<event>
 5   0  0.1858013E-02  0.7174658E+03  0.7818609E-02  0.9687821E-01
       -1   -1    0    0    0  501  0.00000000000E+00  0.00000000000E+00  0.24215657138E+03  0.24215657144E+03  0.50400001928E-02 0. -1.
        1   -1    0    0  501    0  0.00000000000E+00  0.00000000000E+00 -0.53143010772E+03  0.53143010774E+03  0.50400001928E-02 0.  1.
    10030    2    1    2    0    0  0.00000000000E+00  0.00000000000E+00 -0.28927353634E+03  0.77358667918E+03  0.71746579805E+03 0.  0.
        2    1    3    3  502    0  0.21735100534E+03  0.83556398830E+02  0.14959344333E+03  0.27676945207E+03  0.25500000920E-02 0. -1.
       -2    1    3    3    0  502 -0.21735100534E+03 -0.83556398830E+02 -0.43886697966E+03  0.49681722711E+03  0.25500000920E-02 0.  1.
</event>
<event>
 5   0  0.1884172E-02  0.7326748E+03  0.7818609E-02  0.9662930E-01
        1   -1    0    0  501    0  0.00000000000E+00  0.00000000000E+00  0.50422326615E+03  0.50422326618E+03  0.50400001928E-02 0.  1.
       -1   -1    0    0    0  501  0.00000000000E+00  0.00000000000E+00 -0.26615808265E+03  0.26615808270E+03  0.50400001928E-02 0. -1.
    10030    2    1    2    0    0  0.00000000000E+00  0.00000000000E+00  0.23806518350E+03  0.77038134887E+03  0.73267481948E+03 0.  0.
        3    1    3    3  502    0 -0.11416028303E+03 -0.41143036330E+02  0.48247704410E+03  0.49750319390E+03  0.10100000352E+00 0.  1.
       -3    1    3    3    0  502  0.11416028303E+03  0.41143036330E+02 -0.24441186059E+03  0.27287815497E+03  0.10100000352E+00 0. -1.
</event>
<event>
 5   0  0.3184443E-02  0.7067325E+03  0.7818609E-02  0.9705787E-01
       -2   -1    0    0    0  501  0.00000000000E+00  0.00000000000E+00  0.66888156710E+02  0.66888156759E+02  0.25500000920E-02 0.  1.
        2   -1    0    0  501    0  0.00000000000E+00  0.00000000000E+00 -0.18668136140E+04  0.18668136140E+04  0.25500000920E-02 0. -1.
    10030    2    1    2    0    0  0.00000000000E+00  0.00000000000E+00 -0.17999254573E+04  0.19337017708E+04  0.70673254237E+03 0.  0.
        3    1    3    3  502    0  0.28637022149E+03 -0.15873290073E+03 -0.12636054712E+04  0.13053362917E+04  0.10100000352E+00 0.  1.
       -3    1    3    3    0  502 -0.28637022149E+03  0.15873290073E+03 -0.53631998613E+03  0.62836547904E+03  0.10100000352E+00 0. -1.
</event>
<event>
 5   0  0.1839038E-02  0.7463824E+03  0.7818609E-02  0.9641043E-01
        1   -1    0    0  501    0  0.00000000000E+00  0.00000000000E+00  0.14514728522E+03  0.14514728531E+03  0.50400001928E-02 0.  1.
       -1   -1    0    0    0  501  0.00000000000E+00  0.00000000000E+00 -0.95951974142E+03  0.95951974143E+03  0.50400001928E-02 0. -1.
    10030    2    1    2    0    0  0.00000000000E+00  0.00000000000E+00 -0.81437245620E+03  0.11046670267E+04  0.74638243719E+03 0.  0.
        5    1    3    3  502    0  0.34493432584E+03 -0.75609088854E+02 -0.58573168869E+03  0.68395915419E+03  0.46999998093E+01 0. -1.
       -5    1    3    3    0  502 -0.34493432584E+03  0.75609088854E+02 -0.22864076751E+03  0.42070787255E+03  0.46999998093E+01 0.  1.
</event>
<event>
 5   0  0.1858013E-02  0.7043985E+03  0.7818609E-02  0.9709740E-01
       -1   -1    0    0    0  501  0.00000000000E+00  0.00000000000E+00  0.11346866801E+03  0.11346866812E+03  0.50400001928E-02 0.  1.
        1   -1    0    0  501    0  0.00000000000E+00  0.00000000000E+00 -0.10932032056E+04  0.10932032056E+04  0.50400001928E-02 0. -1.
    10030    2    1    2    0    0  0.00000000000E+00  0.00000000000E+00 -0.97973453761E+03  0.12066718738E+04  0.70439849994E+03 0.  0.
        2    1    3    3  502    0  0.13997810574E+03  0.28732150043E+02  0.61578540248E+02  0.15559988162E+03  0.25500000920E-02 0.  1.
       -2    1    3    3    0  502 -0.13997810574E+03 -0.28732150043E+02 -0.10413130779E+04  0.10510719921E+04  0.25500000920E-02 0. -1.
</event>
<event>
 5   0  0.3184443E-02  0.7160358E+03  0.7818609E-02  0.9690195E-01
       -2   -1    0    0    0  501  0.00000000000E+00  0.00000000000E+00  0.14510783827E+03  0.14510783829E+03  0.25500000920E-02 0. -1.
        2   -1    0    0  501    0  0.00000000000E+00  0.00000000000E+00 -0.88332118260E+03  0.88332118260E+03  0.25500000920E-02 0.  1.
    10030    2    1    2    0    0  0.00000000000E+00  0.00000000000E+00 -0.73821334433E+03  0.10284290209E+04  0.71603582959E+03 0.  0.
        3    1    3    3  502    0 -0.34953052973E+02  0.67652905998E+02 -0.87155519498E+03  0.87487547668E+03  0.10100000352E+00 0.  1.
       -3    1    3    3    0  502  0.34953052973E+02 -0.67652905998E+02  0.13334185065E+03  0.15355354421E+03  0.10100000352E+00 0. -1.
</event>
<event>
 5   0  0.3113940E-02  0.7021417E+03  0.7818609E-02  0.9713577E-01
       -2   -1    0    0    0  501  0.00000000000E+00  0.00000000000E+00  0.14484081630E+03  0.14484081633E+03  0.25500000920E-02 0.  1.
        2   -1    0    0  501    0  0.00000000000E+00  0.00000000000E+00 -0.85093938791E+03  0.85093938792E+03  0.25500000920E-02 0. -1.
    10030    2    1    2    0    0  0.00000000000E+00  0.00000000000E+00 -0.70609857161E+03  0.99578020424E+03  0.70214173949E+03 0.  0.
        5    1    3    3  502    0 -0.19847712218E+02 -0.33643319945E+03 -0.49234721348E+03  0.59666497969E+03  0.46999998093E+01 0. -1.
       -5    1    3    3    0  502  0.19847712218E+02  0.33643319945E+03 -0.21375135813E+03  0.39911522455E+03  0.46999998093E+01 0.  1.
</event>
<event>
 5   0  0.3113940E-02  0.6908104E+03  0.7818609E-02  0.9733078E-01
        2   -1    0    0  501    0  0.00000000000E+00  0.00000000000E+00  0.79433957052E+03  0.79433957052E+03  0.25500000920E-02 0. -1.
       -2   -1    0    0    0  501  0.00000000000E+00  0.00000000000E+00 -0.15019364658E+03  0.15019364661E+03  0.25500000920E-02 0.  1.
    10030    2    1    2    0    0  0.00000000000E+00  0.00000000000E+00  0.64414592394E+03  0.94453321713E+03  0.69081041317E+03 0.  0.
        5    1    3    3  502    0 -0.18750984236E+03 -0.25170690087E+03  0.12504014410E+03  0.33789559418E+03  0.46999998093E+01 0. -1.
       -5    1    3    3    0  502  0.18750984236E+03  0.25170690087E+03  0.51910577983E+03  0.60663762295E+03  0.46999998093E+01 0.  1.
</event>
<event>
 5   0  0.3113940E-02  0.7035909E+03  0.7818609E-02  0.9711111E-01
       -2   -1    0    0    0  501  0.00000000000E+00  0.00000000000E+00  0.28404366664E+03  0.28404366665E+03  0.25500000920E-02 0. -1.
        2   -1    0    0  501    0  0.00000000000E+00  0.00000000000E+00 -0.43570773901E+03  0.43570773902E+03  0.25500000920E-02 0.  1.
    10030    2    1    2    0    0  0.00000000000E+00  0.00000000000E+00 -0.15166407238E+03  0.71975140567E+03  0.70359085775E+03 0.  0.
        5    1    3    3  502    0 -0.20416211391E+03 -0.28317078680E+03 -0.31594459685E+02  0.35055408019E+03  0.46999998093E+01 0. -1.
       -5    1    3    3    0  502  0.20416211391E+03  0.28317078680E+03 -0.12006961269E+03  0.36919732548E+03  0.46999998093E+01 0.  1.
</event>
<event>
 5   0  0.2933851E-02  0.6967456E+03  0.7818609E-02  0.9722814E-01
        2   -1    0    0  501    0  0.00000000000E+00  0.00000000000E+00  0.67894750124E+03  0.67894750124E+03  0.25500000920E-02 0. -1.
       -2   -1    0    0    0  501  0.00000000000E+00  0.00000000000E+00 -0.17875256828E+03  0.17875256830E+03  0.25500000920E-02 0.  1.
    10030    2    1    2    0    0  0.00000000000E+00  0.00000000000E+00  0.50019493296E+03  0.85770006954E+03  0.69674560518E+03 0.  0.
        2    1    3    3  502    0  0.19620847036E+03 -0.29496588339E+02  0.60259574719E+03  0.63442056012E+03  0.25500000920E-02 0. -1.
       -2    1    3    3    0  502 -0.19620847036E+03  0.29496588339E+02 -0.10240081423E+03  0.22327950942E+03  0.25500000920E-02 0.  1.
</event>
<event>
 5   0  0.3183963E-02  0.6980513E+03  0.7818609E-02  0.9720571E-01
        2   -1    0    0  501    0  0.00000000000E+00  0.00000000000E+00  0.12380334031E+04  0.12380334031E+04  0.25500000920E-02 0.  1.
       -2   -1    0    0    0  501  0.00000000000E+00  0.00000000000E+00 -0.98397110864E+02  0.98397110897E+02  0.25500000920E-02 0. -1.
    10030    2    1    2    0    0  0.00000000000E+00  0.00000000000E+00  0.11396362922E+04  0.13364305140E+04  0.69805131627E+03 0.  0.
        4    1    3    3  502    0  0.29806531808E+03  0.15743387069E+03  0.39656829577E+03  0.52047707307E+03  0.12699999809E+01 0. -1.
       -4    1    3    3    0  502 -0.29806531808E+03 -0.15743387069E+03  0.74306799642E+03  0.81595344088E+03  0.12699999809E+01 0.  1.
</event>
<event>
 5   0  0.3113940E-02  0.7017870E+03  0.7818609E-02  0.9714181E-01
       -2   -1    0    0    0  501  0.00000000000E+00  0.00000000000E+00  0.85155639844E+03  0.85155639844E+03  0.25500000920E-02 0.  1.
        2   -1    0    0  501    0  0.00000000000E+00  0.00000000000E+00 -0.14458965078E+03  0.14458965080E+03  0.25500000920E-02 0. -1.
    10030    2    1    2    0    0  0.00000000000E+00  0.00000000000E+00  0.70696674766E+03  0.99614604924E+03  0.70178698273E+03 0.  0.
        5    1    3    3  502    0  0.12760793726E+03  0.11327281487E+03  0.78865211569E+03  0.80691310922E+03  0.46999998093E+01 0.  1.
       -5    1    3    3    0  502 -0.12760793726E+03 -0.11327281487E+03 -0.81685368038E+02  0.18923294003E+03  0.46999998093E+01 0. -1.
</event>
<event>
 5   0  0.3113940E-02  0.7085913E+03  0.7818609E-02  0.9702652E-01
        2   -1    0    0  501    0  0.00000000000E+00  0.00000000000E+00  0.96303568927E+03  0.96303568928E+03  0.25500000920E-02 0. -1.
       -2   -1    0    0    0  501  0.00000000000E+00  0.00000000000E+00 -0.13034346532E+03  0.13034346535E+03  0.25500000920E-02 0.  1.
    10030    2    1    2    0    0  0.00000000000E+00  0.00000000000E+00  0.83269222395E+03  0.10933791546E+04  0.70859130388E+03 0.  0.
        5    1    3    3  502    0 -0.22669029679E+03  0.52301762434E+02  0.82859669459E+03  0.86065006669E+03  0.46999998093E+01 0. -1.
       -5    1    3    3    0  502  0.22669029679E+03 -0.52301762434E+02  0.40955293584E+01  0.23272908793E+03  0.46999998093E+01 0.  1.
</event>
<event>
 5   0  0.3183963E-02  0.7033219E+03  0.7818609E-02  0.9711568E-01
        2   -1    0    0  501    0  0.00000000000E+00  0.00000000000E+00  0.12018208490E+04  0.12018208490E+04  0.25500000920E-02 0. -1.
       -2   -1    0    0    0  501  0.00000000000E+00  0.00000000000E+00 -0.10289837030E+03  0.10289837033E+03  0.25500000920E-02 0.  1.
    10030    2    1    2    0    0  0.00000000000E+00  0.00000000000E+00  0.10989224787E+04  0.13047192194E+04  0.70332185172E+03 0.  0.
        4    1    3    3  502    0  0.87624762516E+02 -0.11716035156E+03 -0.43756366301E+02  0.15271175291E+03  0.12699999809E+01 0.  1.
       -4    1    3    3    0  502 -0.87624762516E+02  0.11716035156E+03  0.11426788450E+04  0.11520074665E+04  0.12699999809E+01 0. -1.
</event>
<event>
 5   0  0.1233912E-02  0.6915235E+03  0.7818609E-02  0.9731839E-01
       -3   -1    0    0    0  501  0.00000000000E+00  0.00000000000E+00  0.82551703263E+03  0.82551703881E+03  0.10100000352E+00 0. -1.
        3   -1    0    0  501    0  0.00000000000E+00  0.00000000000E+00 -0.14481973576E+03  0.14481977098E+03  0.10100000352E+00 0.  1.
    10030    2    1    2    0    0  0.00000000000E+00  0.00000000000E+00  0.68069729687E+03  0.97033680980E+03  0.69152347355E+03 0.  0.
        2    1    3    3  502    0  0.26215302903E+03 -0.22537682487E+03  0.33237948498E+03  0.47957798725E+03  0.25500000920E-02 0.  1.
       -2    1    3    3    0  502 -0.26215302903E+03  0.22537682487E+03  0.34831781189E+03  0.49075882254E+03  0.25500000920E-02 0. -1.
</event>
<event>
 5   0  0.3290656E-02  0.6993836E+03  0.7818609E-02  0.9718287E-01
        2   -1    0    0  501    0  0.00000000000E+00  0.00000000000E+00  0.81741571217E+03  0.81741571218E+03  0.25500000920E-02 0.  1.
       -2   -1    0    0    0  501  0.00000000000E+00  0.00000000000E+00 -0.14959871691E+03  0.14959871693E+03  0.25500000920E-02 0. -1.
    10030    2    1    2    0    0  0.00000000000E+00  0.00000000000E+00  0.66781699527E+03  0.96701442910E+03  0.69938356210E+03 0.  0.
        1    1    3    3  502    0 -0.26572434408E+03  0.39113241469E+02  0.64353038265E+03  0.69733107353E+03  0.50400001928E-02 0.  1.
       -1    1    3    3    0  502  0.26572434408E+03 -0.39113241469E+02  0.24286612613E+02  0.26968335557E+03  0.50400001928E-02 0. -1.
</event>
<event>
 5   0  0.1858013E-02  0.6974792E+03  0.7818609E-02  0.9721553E-01
       -1   -1    0    0    0  501  0.00000000000E+00  0.00000000000E+00  0.90810812808E+02  0.90810812948E+02  0.50400001928E-02 0. -1.
        1   -1    0    0  501    0  0.00000000000E+00  0.00000000000E+00 -0.13392602943E+04  0.13392602943E+04  0.50400001928E-02 0.  1.
    10030    2    1    2    0    0  0.00000000000E+00  0.00000000000E+00 -0.12484494815E+04  0.14300711073E+04  0.69747922118E+03 0.  0.
        2    1    3    3  502    0 -0.25425507193E+03  0.19279398736E+03 -0.33568576028E+03  0.46314154729E+03  0.25500000920E-02 0. -1.
       -2    1    3    3    0  502  0.25425507193E+03 -0.19279398736E+03 -0.91276372121E+03  0.96692955996E+03  0.25500000920E-02 0.  1.
</event>
<event>
 5   0  0.3184443E-02  0.7146599E+03  0.7818609E-02  0.9692485E-01
       -2   -1    0    0    0  501  0.00000000000E+00  0.00000000000E+00  0.10950745534E+03  0.10950745537E+03  0.25500000920E-02 0. -1.
        2   -1    0    0  501    0  0.00000000000E+00  0.00000000000E+00 -0.11659907599E+04  0.11659907599E+04  0.25500000920E-02 0.  1.
    10030    2    1    2    0    0  0.00000000000E+00  0.00000000000E+00 -0.10564833046E+04  0.12754982153E+04  0.71465986618E+03 0.  0.
        3    1    3    3  502    0  0.30078580588E+03  0.16950216229E+03 -0.69261031360E+03  0.77389414053E+03  0.10100000352E+00 0.  1.
       -3    1    3    3    0  502 -0.30078580588E+03 -0.16950216229E+03 -0.36387299096E+03  0.50160407474E+03  0.10100000352E+00 0. -1.
</event>
<event>
 5   0  0.1951465E-02  0.7020207E+03  0.7818609E-02  0.9713783E-01
        1   -1    0    0  501    0  0.00000000000E+00  0.00000000000E+00  0.59650558707E+03  0.59650558710E+03  0.50400001928E-02 0. -1.
       -1   -1    0    0    0  501  0.00000000000E+00  0.00000000000E+00 -0.20655008781E+03  0.20655008787E+03  0.50400001928E-02 0.  1.
    10030    2    1    2    0    0  0.00000000000E+00  0.00000000000E+00  0.38995549927E+03  0.80305567496E+03  0.70202074448E+03 0.  0.
        4    1    3    3  502    0  0.62908315127E+02 -0.16719744067E+03 -0.15065697721E+03  0.23369120215E+03  0.12699999809E+01 0.  1.
       -4    1    3    3    0  502 -0.62908315127E+02  0.16719744067E+03  0.54061247648E+03  0.56936447282E+03  0.12699999809E+01 0. -1.
</event>
<event>
 5   0  0.1969818E-02  0.7015411E+03  0.7818609E-02  0.9714600E-01
        1   -1    0    0  501    0  0.00000000000E+00  0.00000000000E+00  0.36473531483E+03  0.36473531487E+03  0.50400001928E-02 0. -1.
       -1   -1    0    0    0  501  0.00000000000E+00  0.00000000000E+00 -0.33734041892E+03  0.33734041895E+03  0.50400001928E-02 0.  1.
    10030    2    1    2    0    0  0.00000000000E+00  0.00000000000E+00  0.27394895915E+02  0.70207573382E+03  0.70154105774E+03 0.  0.
        1    1    3    3  502    0 -0.21662021328E+02  0.40569532490E+02 -0.33431006424E+03  0.33745866296E+03  0.50400001928E-02 0.  1.
       -1    1    3    3    0  502  0.21662021328E+02 -0.40569532490E+02  0.36170496015E+03  0.36461707085E+03  0.50400001928E-02 0. -1.
</event>
<event>
 5   0  0.1839038E-02  0.6999754E+03  0.7818609E-02  0.9717274E-01
        1   -1    0    0  501    0  0.00000000000E+00  0.00000000000E+00  0.47254638649E+03  0.47254638652E+03  0.50400001928E-02 0.  1.
       -1   -1    0    0    0  501  0.00000000000E+00  0.00000000000E+00 -0.25921561990E+03  0.25921561994E+03  0.50400001928E-02 0. -1.
    10030    2    1    2    0    0  0.00000000000E+00  0.00000000000E+00  0.21333076660E+03  0.73176200647E+03  0.69997544109E+03 0.  0.
        5    1    3    3  502    0  0.18127150048E+03  0.16690898505E+02 -0.20579075074E+03  0.27479058584E+03  0.46999998093E+01 0. -1.
       -5    1    3    3    0  502 -0.18127150048E+03 -0.16690898505E+02  0.41912151734E+03  0.45697142063E+03  0.46999998093E+01 0.  1.
</event>
<event>
 5   0  0.3183963E-02  0.7014987E+03  0.7818609E-02  0.9714673E-01
       -2   -1    0    0    0  501  0.00000000000E+00  0.00000000000E+00  0.99104890263E+02  0.99104890295E+02  0.25500000920E-02 0. -1.
        2   -1    0    0  501    0  0.00000000000E+00  0.00000000000E+00 -0.12413626169E+04  0.12413626169E+04  0.25500000920E-02 0.  1.
    10030    2    1    2    0    0  0.00000000000E+00  0.00000000000E+00 -0.11422577267E+04  0.13404675072E+04  0.70149869836E+03 0.  0.
        4    1    3    3  502    0 -0.23820164424E+03  0.10446766166E+02 -0.10626862355E+04  0.10891064256E+04  0.12699999809E+01 0.  1.
       -4    1    3    3    0  502  0.23820164424E+03 -0.10446766166E+02 -0.79571491125E+02  0.25136108160E+03  0.12699999809E+01 0. -1.
</event>
<event>
 5   0  0.1858013E-02  0.5776665E+03  0.7818609E-02  0.9952856E-01
       -1   -1    0    0    0  501  0.00000000000E+00  0.00000000000E+00  0.12241516854E+03  0.12241516864E+03  0.50400001928E-02 0. -1.
        1   -1    0    0  501    0  0.00000000000E+00  0.00000000000E+00 -0.68148946612E+03  0.68148946614E+03  0.50400001928E-02 0.  1.
    10030    2    1    2    0    0  0.00000000000E+00  0.00000000000E+00 -0.55907429758E+03  0.80390463478E+03  0.57766650553E+03 0.  0.
        2    1    3    3  502    0  0.22809043170E+03 -0.74769949379E+02 -0.50310622680E+03  0.55743310434E+03  0.25500000920E-02 0. -1.
       -2    1    3    3    0  502 -0.22809043170E+03  0.74769949379E+02 -0.55968070774E+02  0.24647153044E+03  0.25500000920E-02 0.  1.
</event>
<event>
 5   0  0.2933851E-02  0.6928308E+03  0.7818609E-02  0.9729572E-01
        2   -1    0    0  501    0  0.00000000000E+00  0.00000000000E+00  0.24017014318E+03  0.24017014319E+03  0.25500000920E-02 0. -1.
       -2   -1    0    0    0  501  0.00000000000E+00  0.00000000000E+00 -0.49966095689E+03  0.49966095690E+03  0.25500000920E-02 0.  1.
    10030    2    1    2    0    0  0.00000000000E+00  0.00000000000E+00 -0.25949081371E+03  0.73983110009E+03  0.69283084102E+03 0.  0.
        2    1    3    3  502    0 -0.14752759681E+03 -0.78000616026E+02  0.19441889742E+03  0.25621708687E+03  0.25500000920E-02 0. -1.
       -2    1    3    3    0  502  0.14752759681E+03  0.78000616026E+02 -0.45390971113E+03  0.48361401323E+03  0.25500000920E-02 0.  1.
</event>
<event>
 5   0  0.1233912E-02  0.6967491E+03  0.7818609E-02  0.9722808E-01
        3   -1    0    0  501    0  0.00000000000E+00  0.00000000000E+00  0.27026364161E+03  0.27026366049E+03  0.10100000352E+00 0. -1.
       -3   -1    0    0    0  501  0.00000000000E+00  0.00000000000E+00 -0.44906088609E+03  0.44906089745E+03  0.10100000352E+00 0.  1.
    10030    2    1    2    0    0  0.00000000000E+00  0.00000000000E+00 -0.17879724448E+03  0.71932455794E+03  0.69674914067E+03 0.  0.
        5    1    3    3  502    0 -0.17662776029E+03 -0.45920051454E+02  0.21692494306E+03  0.28352167069E+03  0.46999998093E+01 0. -1.
       -5    1    3    3    0  502  0.17662776029E+03  0.45920051454E+02 -0.39572218753E+03  0.43580288725E+03  0.46999998093E+01 0.  1.
</event>
<event>
 5   0  0.3290656E-02  0.7000529E+03  0.7818609E-02  0.9717142E-01
        2   -1    0    0  501    0  0.00000000000E+00  0.00000000000E+00  0.11503708872E+04  0.11503708872E+04  0.25500000920E-02 0.  1.
       -2   -1    0    0    0  501  0.00000000000E+00  0.00000000000E+00 -0.10650350182E+03  0.10650350185E+03  0.25500000920E-02 0. -1.
    10030    2    1    2    0    0  0.00000000000E+00  0.00000000000E+00  0.10438673854E+04  0.12568743891E+04  0.70005293487E+03 0.  0.
        1    1    3    3  502    0  0.30907170715E+03  0.14772494594E+03  0.65103459746E+03  0.73565890665E+03  0.50400001928E-02 0.  1.
       -1    1    3    3    0  502 -0.30907170715E+03 -0.14772494594E+03  0.39283278792E+03  0.52121548241E+03  0.50400001928E-02 0. -1.
</event>
<event>
 5   0  0.3113940E-02  0.6988287E+03  0.7818609E-02  0.9719237E-01
       -2   -1    0    0    0  501  0.00000000000E+00  0.00000000000E+00  0.23043827942E+03  0.23043827944E+03  0.25500000920E-02 0. -1.
        2   -1    0    0  501    0  0.00000000000E+00  0.00000000000E+00 -0.52981812358E+03  0.52981812359E+03  0.25500000920E-02 0.  1.
    10030    2    1    2    0    0  0.00000000000E+00  0.00000000000E+00 -0.29937984416E+03  0.76025640303E+03  0.69882866803E+03 0.  0.
        5    1    3    3  502    0  0.10177009708E+03  0.22833501953E+03  0.11584318457E+03  0.27556445201E+03  0.46999998093E+01 0. -1.
       -5    1    3    3    0  502 -0.10177009708E+03 -0.22833501953E+03 -0.41522302873E+03  0.48469195102E+03  0.46999998093E+01 0.  1.
</event>
<event>
 5   0  0.1858013E-02  0.6941034E+03  0.7818609E-02  0.9727370E-01
        1   -1    0    0  501    0  0.00000000000E+00  0.00000000000E+00  0.22976708863E+03  0.22976708869E+03  0.50400001928E-02 0.  1.
       -1   -1    0    0    0  501  0.00000000000E+00  0.00000000000E+00 -0.52420421885E+03  0.52420421888E+03  0.50400001928E-02 0. -1.
    10030    2    1    2    0    0  0.00000000000E+00  0.00000000000E+00 -0.29443713022E+03  0.75397130757E+03  0.69410338494E+03 0.  0.
        2    1    3    3  502    0 -0.19105345142E+02  0.68549155928E+02  0.22175697162E+03  0.23289515980E+03  0.25500000920E-02 0.  1.
       -2    1    3    3    0  502  0.19105345142E+02 -0.68549155928E+02 -0.51619410184E+03  0.52107614777E+03  0.25500000920E-02 0. -1.
</event>
<event>
 5   0  0.1951465E-02  0.6907091E+03  0.7818609E-02  0.9733254E-01
       -1   -1    0    0    0  501  0.00000000000E+00  0.00000000000E+00  0.20685550736E+03  0.20685550743E+03  0.50400001928E-02 0. -1.
        1   -1    0    0  501    0  0.00000000000E+00  0.00000000000E+00 -0.57658490501E+03  0.57658490503E+03  0.50400001928E-02 0.  1.
    10030    2    1    2    0    0  0.00000000000E+00  0.00000000000E+00 -0.36972939765E+03  0.78344041246E+03  0.69070909389E+03 0.  0.
        4    1    3    3  502    0 -0.33247563618E+03 -0.92804033707E+02 -0.19705532437E+03  0.39747333381E+03  0.12699999809E+01 0.  1.
       -4    1    3    3    0  502  0.33247563618E+03  0.92804033707E+02 -0.17267407327E+03  0.38596707865E+03  0.12699999809E+01 0. -1.
</event>
<event>
 5   0  0.3183963E-02  0.6915694E+03  0.7818609E-02  0.9731759E-01
        2   -1    0    0  501    0  0.00000000000E+00  0.00000000000E+00  0.27149316404E+03  0.27149316405E+03  0.25500000920E-02 0.  1.
       -2   -1    0    0    0  501  0.00000000000E+00  0.00000000000E+00 -0.44040546805E+03  0.44040546805E+03  0.25500000920E-02 0. -1.
    10030    2    1    2    0    0  0.00000000000E+00  0.00000000000E+00 -0.16891230401E+03  0.71189863210E+03  0.69156944405E+03 0.  0.
        4    1    3    3  502    0  0.33751058094E+03 -0.62754304086E+02 -0.41839092300E+02  0.34583755938E+03  0.12699999809E+01 0. -1.
       -4    1    3    3    0  502 -0.33751058094E+03  0.62754304086E+02 -0.12707321171E+03  0.36606107273E+03  0.12699999809E+01 0.  1.
</event>
<event>
 5   0  0.3184443E-02  0.7063478E+03  0.7818609E-02  0.9706438E-01
        2   -1    0    0  501    0  0.00000000000E+00  0.00000000000E+00  0.48916843018E+03  0.48916843019E+03  0.25500000920E-02 0.  1.
       -2   -1    0    0    0  501  0.00000000000E+00  0.00000000000E+00 -0.25498746068E+03  0.25498746069E+03  0.25500000920E-02 0. -1.
    10030    2    1    2    0    0  0.00000000000E+00  0.00000000000E+00  0.23418096950E+03  0.74415589088E+03  0.70634783460E+03 0.  0.
        3    1    3    3  502    0 -0.30455859552E+03 -0.13214689981E+03  0.24400896629E+03  0.41201835768E+03  0.10100000352E+00 0.  1.
       -3    1    3    3    0  502  0.30455859552E+03  0.13214689981E+03 -0.98279967843E+01  0.33213753320E+03  0.10100000352E+00 0. -1.
</event>
<event>
 5   0  0.1969818E-02  0.7000206E+03  0.7818609E-02  0.9717197E-01
        1   -1    0    0  501    0  0.00000000000E+00  0.00000000000E+00  0.56839003591E+03  0.56839003593E+03  0.50400001928E-02 0.  1.
       -1   -1    0    0    0  501  0.00000000000E+00  0.00000000000E+00 -0.21553371289E+03  0.21553371295E+03  0.50400001928E-02 0. -1.
    10030    2    1    2    0    0  0.00000000000E+00  0.00000000000E+00  0.35285632302E+03  0.78392374889E+03  0.70002061353E+03 0.  0.
        1    1    3    3  502    0  0.18052740783E+03  0.13281171630E+03  0.47749741803E+03  0.52747784902E+03  0.50400001928E-02 0.  1.
       -1    1    3    3    0  502 -0.18052740783E+03 -0.13281171630E+03 -0.12464109501E+03  0.25644589986E+03  0.50400001928E-02 0. -1.
</event>
<event>
 5   0  0.1969818E-02  0.6956515E+03  0.7818609E-02  0.9724698E-01
       -1   -1    0    0    0  501  0.00000000000E+00  0.00000000000E+00  0.80891590345E+03  0.80891590347E+03  0.50400001928E-02 0.  1.
        1   -1    0    0  501    0  0.00000000000E+00  0.00000000000E+00 -0.14956160706E+03  0.14956160715E+03  0.50400001928E-02 0. -1.
    10030    2    1    2    0    0  0.00000000000E+00  0.00000000000E+00  0.65935429639E+03  0.95847751062E+03  0.69565152928E+03 0.  0.
        1    1    3    3  502    0 -0.24084803993E+02  0.26252587199E+03  0.64230054581E+03  0.69429813655E+03  0.50400001928E-02 0.  1.
       -1    1    3    3    0  502  0.24084803993E+02 -0.26252587199E+03  0.17053750583E+02  0.26417937407E+03  0.50400001928E-02 0. -1.
</event>
<event>
 5   0  0.1858013E-02  0.6929977E+03  0.7818609E-02  0.9729282E-01
        1   -1    0    0  501    0  0.00000000000E+00  0.00000000000E+00  0.75626405421E+03  0.75626405423E+03  0.50400001928E-02 0.  1.
       -1   -1    0    0    0  501  0.00000000000E+00  0.00000000000E+00 -0.15875601372E+03  0.15875601380E+03  0.50400001928E-02 0. -1.
    10030    2    1    2    0    0  0.00000000000E+00  0.00000000000E+00  0.59750804049E+03  0.91502006803E+03  0.69299773913E+03 0.  0.
        2    1    3    3  502    0  0.13127797202E+03 -0.96602853954E+02  0.70248682395E+03  0.72114752663E+03  0.25500000920E-02 0.  1.
       -2    1    3    3    0  502 -0.13127797202E+03  0.96602853954E+02 -0.10497878346E+03  0.19387254141E+03  0.25500000920E-02 0. -1.
</event>
<event>
 5   0  0.1858013E-02  0.7607682E+03  0.7818609E-02  0.9618607E-01
        1   -1    0    0  501    0  0.00000000000E+00  0.00000000000E+00  0.44457508765E+03  0.44457508768E+03  0.50400001928E-02 0.  1.
       -1   -1    0    0    0  501  0.00000000000E+00  0.00000000000E+00 -0.32546147695E+03  0.32546147699E+03  0.50400001928E-02 0. -1.
    10030    2    1    2    0    0  0.00000000000E+00  0.00000000000E+00  0.11911361069E+03  0.77003656467E+03  0.76076820298E+03 0.  0.
        2    1    3    3  502    0 -0.19215940470E+03  0.27666417669E+03 -0.11929840796E+03  0.35735194644E+03  0.25500000920E-02 0. -1.
       -2    1    3    3    0  502  0.19215940470E+03 -0.27666417669E+03  0.23841201866E+03  0.41268461823E+03  0.25500000920E-02 0.  1.
</event>
<event>
 5   0  0.3113940E-02  0.6973911E+03  0.7818609E-02  0.9721704E-01
       -2   -1    0    0    0  501  0.00000000000E+00  0.00000000000E+00  0.48698732817E+03  0.48698732817E+03  0.25500000920E-02 0. -1.
        2   -1    0    0  501    0  0.00000000000E+00  0.00000000000E+00 -0.24967503910E+03  0.24967503911E+03  0.25500000920E-02 0.  1.
    10030    2    1    2    0    0  0.00000000000E+00  0.00000000000E+00  0.23731228907E+03  0.73666236728E+03  0.69739108169E+03 0.  0.
        5    1    3    3  502    0  0.32293288147E+03  0.93400383230E+01  0.25716438267E+03  0.41295095588E+03  0.46999998093E+01 0.  1.
       -5    1    3    3    0  502 -0.32293288147E+03 -0.93400383230E+01 -0.19852093601E+02  0.32371141140E+03  0.46999998093E+01 0. -1.
</event>
<event>
 5   0  0.1839038E-02  0.7116708E+03  0.7818609E-02  0.9697479E-01
        1   -1    0    0  501    0  0.00000000000E+00  0.00000000000E+00  0.74905410268E+03  0.74905410270E+03  0.50400001928E-02 0. -1.
       -1   -1    0    0    0  501  0.00000000000E+00  0.00000000000E+00 -0.16903828682E+03  0.16903828690E+03  0.50400001928E-02 0.  1.
    10030    2    1    2    0    0  0.00000000000E+00  0.00000000000E+00  0.58001581585E+03  0.91809238960E+03  0.71167077303E+03 0.  0.
        5    1    3    3  502    0  0.35179080947E+03  0.52763070525E+02  0.29966324461E+03  0.46514606889E+03  0.46999998093E+01 0. -1.
       -5    1    3    3    0  502 -0.35179080947E+03 -0.52763070525E+02  0.28035257124E+03  0.45294632070E+03  0.46999998093E+01 0.  1.
</event>
<event>
 5   0  0.1884172E-02  0.7261649E+03  0.7818609E-02  0.9673504E-01
       -1   -1    0    0    0  501  0.00000000000E+00  0.00000000000E+00  0.11498330676E+03  0.11498330687E+03  0.50400001928E-02 0.  1.
        1   -1    0    0  501    0  0.00000000000E+00  0.00000000000E+00 -0.11465043973E+04  0.11465043973E+04  0.50400001928E-02 0. -1.
    10030    2    1    2    0    0  0.00000000000E+00  0.00000000000E+00 -0.10315210905E+04  0.12614877041E+04  0.72616490383E+03 0.  0.
        3    1    3    3  502    0 -0.14281339050E+03  0.25401394774E+03 -0.89201441570E+03  0.93840741587E+03  0.10100000352E+00 0. -1.
       -3    1    3    3    0  502  0.14281339050E+03 -0.25401394774E+03 -0.13950667481E+03  0.32308028827E+03  0.10100000352E+00 0.  1.
</event>
<event>
 5   0  0.1839038E-02  0.7033008E+03  0.7818609E-02  0.9711604E-01
        1   -1    0    0  501    0  0.00000000000E+00  0.00000000000E+00  0.63374843931E+03  0.63374843933E+03  0.50400001928E-02 0.  1.
       -1   -1    0    0    0  501  0.00000000000E+00  0.00000000000E+00 -0.19512159981E+03  0.19512159987E+03  0.50400001928E-02 0. -1.
    10030    2    1    2    0    0  0.00000000000E+00  0.00000000000E+00  0.43862683950E+03  0.82887003920E+03  0.70330081584E+03 0.  0.
        5    1    3    3  502    0  0.29149431523E+03  0.54538594040E+02  0.44196919211E+03  0.53226144969E+03  0.46999998093E+01 0.  1.
       -5    1    3    3    0  502 -0.29149431523E+03 -0.54538594040E+02 -0.33423526145E+01  0.29660858951E+03  0.46999998093E+01 0. -1.
</event>
<event>
 5   0  0.1951465E-02  0.7150745E+03  0.7818609E-02  0.9691794E-01
        1   -1    0    0  501    0  0.00000000000E+00  0.00000000000E+00  0.38534200435E+03  0.38534200439E+03  0.50400001928E-02 0.  1.
       -1   -1    0    0    0  501  0.00000000000E+00  0.00000000000E+00 -0.33173881222E+03  0.33173881226E+03  0.50400001928E-02 0. -1.
    10030    2    1    2    0    0  0.00000000000E+00  0.00000000000E+00  0.53603192129E+02  0.71708081665E+03  0.71507453835E+03 0.  0.
        4    1    3    3  502    0  0.10378780227E+03 -0.25467991479E+03  0.25591036975E+03  0.37566673681E+03  0.12699999809E+01 0.  1.
       -4    1    3    3    0  502 -0.10378780227E+03  0.25467991479E+03 -0.20230717762E+03  0.34141407984E+03  0.12699999809E+01 0. -1.
</event>
<event>
 5   0  0.2933851E-02  0.7005270E+03  0.7818609E-02  0.9716331E-01
        2   -1    0    0  501    0  0.00000000000E+00  0.00000000000E+00  0.49955438007E+03  0.49955438008E+03  0.25500000920E-02 0.  1.
       -2   -1    0    0    0  501  0.00000000000E+00  0.00000000000E+00 -0.24558794687E+03  0.24558794688E+03  0.25500000920E-02 0. -1.
    10030    2    1    2    0    0  0.00000000000E+00  0.00000000000E+00  0.25396643320E+03  0.74514232696E+03  0.70052704319E+03 0.  0.
        2    1    3    3  502    0 -0.52558566699E+02 -0.13518806786E+03  0.46610848761E+03  0.48815503568E+03  0.25500000920E-02 0.  1.
       -2    1    3    3    0  502  0.52558566699E+02  0.13518806786E+03 -0.21214205441E+03  0.25698729128E+03  0.25500000920E-02 0. -1.
</event>
<event>
 5   0  0.3290656E-02  0.7075246E+03  0.7818609E-02  0.9704450E-01
        2   -1    0    0  501    0  0.00000000000E+00  0.00000000000E+00  0.56861134128E+03  0.56861134129E+03  0.25500000920E-02 0. -1.
       -2   -1    0    0    0  501  0.00000000000E+00  0.00000000000E+00 -0.22009368087E+03  0.22009368089E+03  0.25500000920E-02 0.  1.
    10030    2    1    2    0    0  0.00000000000E+00  0.00000000000E+00  0.34851766041E+03  0.78870502218E+03  0.70752459490E+03 0.  0.
        1    1    3    3  502    0  0.20964072038E+02 -0.97609375927E+02 -0.20406429179E+03  0.22717684256E+03  0.50400001928E-02 0.  1.
       -1    1    3    3    0  502 -0.20964072038E+02  0.97609375927E+02  0.55258195220E+03  0.56152817962E+03  0.50400001928E-02 0. -1.
</event>
<event>
 5   0  0.1839038E-02  0.6975429E+03  0.7818609E-02  0.9721443E-01
       -1   -1    0    0    0  501  0.00000000000E+00  0.00000000000E+00  0.39945349311E+03  0.39945349314E+03  0.50400001928E-02 0.  1.
        1   -1    0    0  501    0  0.00000000000E+00  0.00000000000E+00 -0.30451986053E+03  0.30451986058E+03  0.50400001928E-02 0. -1.
    10030    2    1    2    0    0  0.00000000000E+00  0.00000000000E+00  0.94933632576E+02  0.70397335372E+03  0.69754289341E+03 0.  0.
        5    1    3    3  502    0  0.25056956663E+03 -0.71372834865E+02  0.28142331558E+03  0.38353664992E+03  0.46999998093E+01 0.  1.
       -5    1    3    3    0  502 -0.25056956663E+03  0.71372834865E+02 -0.18648968301E+03  0.32043670380E+03  0.46999998093E+01 0. -1.
</event>
<event>
 5   0  0.1858013E-02  0.7073862E+03  0.7818609E-02  0.9704684E-01
       -1   -1    0    0    0  501  0.00000000000E+00  0.00000000000E+00  0.42563430467E+03  0.42563430470E+03  0.50400001928E-02 0.  1.
        1   -1    0    0  501    0  0.00000000000E+00  0.00000000000E+00 -0.29391147507E+03  0.29391147511E+03  0.50400001928E-02 0. -1.
    10030    2    1    2    0    0  0.00000000000E+00  0.00000000000E+00  0.13172282960E+03  0.71954577981E+03  0.70738619255E+03 0.  0.
        2    1    3    3  502    0  0.26348071239E+03  0.76799893113E+02  0.29280752391E+03  0.40131852119E+03  0.25500000920E-02 0.  1.
       -2    1    3    3    0  502 -0.26348071239E+03 -0.76799893113E+02 -0.16108469431E+03  0.31822725862E+03  0.25500000920E-02 0. -1.
</event>
<event>
 5   0  0.1884172E-02  0.7085377E+03  0.7818609E-02  0.9702742E-01
        1   -1    0    0  501    0  0.00000000000E+00  0.00000000000E+00  0.44533789633E+03  0.44533789636E+03  0.50400001928E-02 0.  1.
       -1   -1    0    0    0  501  0.00000000000E+00  0.00000000000E+00 -0.28182286937E+03  0.28182286941E+03  0.50400001928E-02 0. -1.
    10030    2    1    2    0    0  0.00000000000E+00  0.00000000000E+00  0.16351502696E+03  0.72716076577E+03  0.70853765972E+03 0.  0.
        3    1    3    3  502    0 -0.32310565580E+03  0.89089513722E+02  0.19954426632E+03  0.39006682849E+03  0.10100000352E+00 0. -1.
       -3    1    3    3    0  502  0.32310565580E+03 -0.89089513722E+02 -0.36029239355E+02  0.33709393729E+03  0.10100000352E+00 0.  1.
</event>
<event>
 5   0  0.2933851E-02  0.7002547E+03  0.7818609E-02  0.9716797E-01
        2   -1    0    0  501    0  0.00000000000E+00  0.00000000000E+00  0.83587023094E+03  0.83587023095E+03  0.25500000920E-02 0.  1.
       -2   -1    0    0    0  501  0.00000000000E+00  0.00000000000E+00 -0.14666053453E+03  0.14666053455E+03  0.25500000920E-02 0. -1.
    10030    2    1    2    0    0  0.00000000000E+00  0.00000000000E+00  0.68920969642E+03  0.98253076549E+03  0.70025473901E+03 0.  0.
        2    1    3    3  502    0  0.17402462555E+03 -0.20016672065E+03  0.66529299549E+03  0.71621648697E+03  0.25500000920E-02 0.  1.
       -2    1    3    3    0  502 -0.17402462555E+03  0.20016672065E+03  0.23916700922E+02  0.26631427852E+03  0.25500000920E-02 0. -1.
</event>
<event>
 5   0  0.3290656E-02  0.6986596E+03  0.7818609E-02  0.9719527E-01
       -2   -1    0    0    0  501  0.00000000000E+00  0.00000000000E+00  0.66428609632E+02  0.66428609681E+02  0.25500000920E-02 0.  1.
        2   -1    0    0  501    0  0.00000000000E+00  0.00000000000E+00 -0.18370293543E+04  0.18370293543E+04  0.25500000920E-02 0. -1.
    10030    2    1    2    0    0  0.00000000000E+00  0.00000000000E+00 -0.17706007447E+04  0.19034579640E+04  0.69865959067E+03 0.  0.
        1    1    3    3  502    0 -0.14302979367E+03 -0.16030929410E+03 -0.16357580402E+04  0.16498063394E+04  0.50400001928E-02 0. -1.
       -1    1    3    3    0  502  0.14302979367E+03  0.16030929410E+03 -0.13484270450E+03  0.25365162454E+03  0.50400001928E-02 0.  1.
</event>
<event>
 5   0  0.1969818E-02  0.6900315E+03  0.7818609E-02  0.9734433E-01
        1   -1    0    0  501    0  0.00000000000E+00  0.00000000000E+00  0.63072854706E+03  0.63072854708E+03  0.50400001928E-02 0.  1.
       -1   -1    0    0    0  501  0.00000000000E+00  0.00000000000E+00 -0.18872758901E+03  0.18872758908E+03  0.50400001928E-02 0. -1.
    10030    2    1    2    0    0  0.00000000000E+00  0.00000000000E+00  0.44200095805E+03  0.81945613616E+03  0.69003152984E+03 0.  0.
        1    1    3    3  502    0 -0.20843465343E+03  0.25779396196E+02  0.54606824599E+03  0.58506419419E+03  0.50400001928E-02 0.  1.
       -1    1    3    3    0  502  0.20843465343E+03 -0.25779396196E+02 -0.10406728793E+03  0.23439194198E+03  0.50400001928E-02 0. -1.
</event>
<event>
 5   0  0.2933851E-02  0.6988560E+03  0.7818609E-02  0.9719191E-01
       -2   -1    0    0    0  501  0.00000000000E+00  0.00000000000E+00  0.27935723372E+03  0.27935723373E+03  0.25500000920E-02 0. -1.
        2   -1    0    0  501    0  0.00000000000E+00  0.00000000000E+00 -0.43707445861E+03  0.43707445862E+03  0.25500000920E-02 0.  1.
    10030    2    1    2    0    0  0.00000000000E+00  0.00000000000E+00 -0.15771722489E+03  0.71643169235E+03  0.69885595567E+03 0.  0.
        2    1    3    3  502    0  0.12584528636E+03  0.29044418821E+03  0.72867117080E+02  0.32481453066E+03  0.25500000920E-02 0. -1.
       -2    1    3    3    0  502 -0.12584528636E+03 -0.29044418821E+03 -0.23058434197E+03  0.39161716170E+03  0.25500000920E-02 0.  1.
</event>
<event>
 5   0  0.1951465E-02  0.7001397E+03  0.7818609E-02  0.9716993E-01
        1   -1    0    0  501    0  0.00000000000E+00  0.00000000000E+00  0.11078480650E+04  0.11078480651E+04  0.50400001928E-02 0.  1.
       -1   -1    0    0    0  501  0.00000000000E+00  0.00000000000E+00 -0.11061887292E+03  0.11061887303E+03  0.50400001928E-02 0. -1.
    10030    2    1    2    0    0  0.00000000000E+00  0.00000000000E+00  0.99722919213E+03  0.12184669381E+04  0.70013971291E+03 0.  0.
        4    1    3    3  502    0 -0.27495300636E+02 -0.33837373074E+03  0.64725173807E+03  0.73088247930E+03  0.12699999809E+01 0. -1.
       -4    1    3    3    0  502  0.27495300636E+02  0.33837373074E+03  0.34997745406E+03  0.48758445880E+03  0.12699999809E+01 0.  1.
</event>
<event>
 5   0  0.1233912E-02  0.7041812E+03  0.7818609E-02  0.9710108E-01
       -3   -1    0    0    0  501  0.00000000000E+00  0.00000000000E+00  0.12885107596E+03  0.12885111554E+03  0.10100000352E+00 0. -1.
        3   -1    0    0  501    0  0.00000000000E+00  0.00000000000E+00 -0.96210115407E+03  0.96210115937E+03  0.10100000352E+00 0.  1.
    10030    2    1    2    0    0  0.00000000000E+00  0.00000000000E+00 -0.83325007812E+03  0.10909522749E+04  0.70418120783E+03 0.  0.
        1    1    3    3  502    0  0.31536748093E+03  0.15529557486E+03 -0.38585655154E+03  0.52197571015E+03  0.50400001928E-02 0. -1.
       -1    1    3    3    0  502 -0.31536748093E+03 -0.15529557486E+03 -0.44739352658E+03  0.56897656476E+03  0.50400001928E-02 0.  1.
</event>
<event>
 5   0  0.1884172E-02  0.6772852E+03  0.7818609E-02  0.9756886E-01
        1   -1    0    0  501    0  0.00000000000E+00  0.00000000000E+00  0.15586318522E+04  0.15586318522E+04  0.50400001928E-02 0. -1.
       -1   -1    0    0    0  501  0.00000000000E+00  0.00000000000E+00 -0.73576585766E+02  0.73576585939E+02  0.50400001928E-02 0.  1.
    10030    2    1    2    0    0  0.00000000000E+00  0.00000000000E+00  0.14850552665E+04  0.16322084382E+04  0.67728519931E+03 0.  0.
        3    1    3    3  502    0 -0.20672174172E+03 -0.18559321870E+03  0.27584662908E+03  0.39149724687E+03  0.10100000352E+00 0.  1.
       -3    1    3    3    0  502  0.20672174172E+03  0.18559321870E+03  0.12092086374E+04  0.12407111913E+04  0.10100000352E+00 0. -1.
</event>
<event>
 5   0  0.3113940E-02  0.6928269E+03  0.7818609E-02  0.9729578E-01
        2   -1    0    0  501    0  0.00000000000E+00  0.00000000000E+00  0.16362382022E+04  0.16362382022E+04  0.25500000920E-02 0.  1.
       -2   -1    0    0    0  501  0.00000000000E+00  0.00000000000E+00 -0.73340349043E+02  0.73340349087E+02  0.25500000920E-02 0. -1.
    10030    2    1    2    0    0  0.00000000000E+00  0.00000000000E+00  0.15628978531E+04  0.17095785513E+04  0.69282690740E+03 0.  0.
        5    1    3    3  502    0  0.24937489663E+03  0.20161645489E+03  0.11045286594E+04  0.11501489831E+04  0.46999998093E+01 0. -1.
       -5    1    3    3    0  502 -0.24937489663E+03 -0.20161645489E+03  0.45836919377E+03  0.55942956818E+03  0.46999998093E+01 0.  1.
</event>
<event>
 5   0  0.2933851E-02  0.6992955E+03  0.7818609E-02  0.9718438E-01
        2   -1    0    0  501    0  0.00000000000E+00  0.00000000000E+00  0.11416740011E+04  0.11416740011E+04  0.25500000920E-02 0.  1.
       -2   -1    0    0    0  501  0.00000000000E+00  0.00000000000E+00 -0.10708270079E+03  0.10708270082E+03  0.25500000920E-02 0. -1.
    10030    2    1    2    0    0  0.00000000000E+00  0.00000000000E+00  0.10345913003E+04  0.12487567019E+04  0.69929546111E+03 0.  0.
        2    1    3    3  502    0  0.28865169583E+03 -0.79718138619E+02  0.19497780807E+03  0.35733895502E+03  0.25500000920E-02 0. -1.
       -2    1    3    3    0  502 -0.28865169583E+03  0.79718138619E+02  0.83961349225E+03  0.89141774691E+03  0.25500000920E-02 0.  1.
</event>
<event>
 5   0  0.1233912E-02  0.6939047E+03  0.7818609E-02  0.9727713E-01
       -3   -1    0    0    0  501  0.00000000000E+00  0.00000000000E+00  0.22096456447E+04  0.22096456470E+04  0.10100000352E+00 0. -1.
        3   -1    0    0  501    0  0.00000000000E+00  0.00000000000E+00 -0.54477438281E+02  0.54477531906E+02  0.10100000352E+00 0.  1.
    10030    2    1    2    0    0  0.00000000000E+00  0.00000000000E+00  0.21551682064E+04  0.22641231789E+04  0.69390472785E+03 0.  0.
        2    1    3    3  502    0 -0.24775626943E+03 -0.13178259921E+02  0.18689173612E+04  0.18853140159E+04  0.25500000920E-02 0. -1.
       -2    1    3    3    0  502  0.24775626943E+03  0.13178259921E+02  0.28625084519E+03  0.37880916298E+03  0.25500000920E-02 0.  1.
</event>
<event>
 5   0  0.1839038E-02  0.6994728E+03  0.7818609E-02  0.9718134E-01
       -1   -1    0    0    0  501  0.00000000000E+00  0.00000000000E+00  0.34983601931E+03  0.34983601935E+03  0.50400001928E-02 0. -1.
        1   -1    0    0  501    0  0.00000000000E+00  0.00000000000E+00 -0.34963680665E+03  0.34963680669E+03  0.50400001928E-02 0.  1.
    10030    2    1    2    0    0  0.00000000000E+00  0.00000000000E+00  0.19921266046E+00  0.69947282603E+03  0.69947279767E+03 0.  0.
        5    1    3    3  502    0 -0.29076525981E+03 -0.94940792579E+02  0.16961441570E+03  0.34978469151E+03  0.46999998093E+01 0.  1.
       -5    1    3    3    0  502  0.29076525981E+03  0.94940792579E+02 -0.16941520304E+03  0.34968813452E+03  0.46999998093E+01 0. -1.
</event>
<event>
 5   0  0.1858013E-02  0.6971141E+03  0.7818609E-02  0.9722180E-01
       -1   -1    0    0    0  501  0.00000000000E+00  0.00000000000E+00  0.10800523765E+03  0.10800523776E+03  0.50400001928E-02 0. -1.
        1   -1    0    0  501    0  0.00000000000E+00  0.00000000000E+00 -0.11248714714E+04  0.11248714715E+04  0.50400001928E-02 0.  1.
    10030    2    1    2    0    0  0.00000000000E+00  0.00000000000E+00 -0.10168662338E+04  0.12328767092E+04  0.69711408155E+03 0.  0.
        2    1    3    3  502    0  0.67631687665E+02 -0.83365136937E+02 -0.10949079621E+04  0.11001578236E+04  0.25500000920E-02 0.  1.
       -2    1    3    3    0  502 -0.67631687665E+02  0.83365136937E+02  0.78041728345E+02  0.13271888563E+03  0.25500000920E-02 0. -1.
</event>
<event>
 5   0  0.1969818E-02  0.6946876E+03  0.7818609E-02  0.9726361E-01
       -1   -1    0    0    0  501  0.00000000000E+00  0.00000000000E+00  0.12951331838E+03  0.12951331848E+03  0.50400001928E-02 0.  1.
        1   -1    0    0  501    0  0.00000000000E+00  0.00000000000E+00 -0.93154669800E+03  0.93154669801E+03  0.50400001928E-02 0. -1.
    10030    2    1    2    0    0  0.00000000000E+00  0.00000000000E+00 -0.80203337962E+03  0.10610600165E+04  0.69468756760E+03 0.  0.
        1    1    3    3  502    0  0.23334620809E+03  0.46478376702E+02 -0.14502046723E+02  0.23837156231E+03  0.50400001928E-02 0.  1.
       -1    1    3    3    0  502 -0.23334620809E+03 -0.46478376702E+02 -0.78753133289E+03  0.82268845418E+03  0.50400001928E-02 0. -1.
</event>
<event>
 5   0  0.2933851E-02  0.6966693E+03  0.7818609E-02  0.9722945E-01
        2   -1    0    0  501    0  0.00000000000E+00  0.00000000000E+00  0.68720921014E+03  0.68720921015E+03  0.25500000920E-02 0. -1.
       -2   -1    0    0    0  501  0.00000000000E+00  0.00000000000E+00 -0.17656491980E+03  0.17656491982E+03  0.25500000920E-02 0.  1.
    10030    2    1    2    0    0  0.00000000000E+00  0.00000000000E+00  0.51064429034E+03  0.86377412996E+03  0.69666933070E+03 0.  0.
        2    1    3    3  502    0  0.70111116573E+02 -0.31860256954E+03  0.40673708291E+03  0.52140024991E+03  0.25500000920E-02 0. -1.
       -2    1    3    3    0  502 -0.70111116573E+02  0.31860256954E+03  0.10390720743E+03  0.34237388006E+03  0.25500000920E-02 0.  1.
</event>
<event>
 5   0  0.1969818E-02  0.7065921E+03  0.7818609E-02  0.9706025E-01
       -1   -1    0    0    0  501  0.00000000000E+00  0.00000000000E+00  0.11214893503E+03  0.11214893514E+03  0.50400001928E-02 0. -1.
        1   -1    0    0  501    0  0.00000000000E+00  0.00000000000E+00 -0.11129674461E+04  0.11129674461E+04  0.50400001928E-02 0.  1.
    10030    2    1    2    0    0  0.00000000000E+00  0.00000000000E+00 -0.10008185110E+04  0.12251163812E+04  0.70659214224E+03 0.  0.
        1    1    3    3  502    0 -0.10582672376E+03  0.27741385295E+03 -0.83238547932E+03  0.88375524184E+03  0.50400001928E-02 0.  1.
       -1    1    3    3    0  502  0.10582672376E+03 -0.27741385295E+03 -0.16843303171E+03  0.34136113936E+03  0.50400001928E-02 0. -1.
</event>
<event>
 5   0  0.1233912E-02  0.7023138E+03  0.7818609E-02  0.9713283E-01
       -3   -1    0    0    0  501  0.00000000000E+00  0.00000000000E+00  0.17248035737E+03  0.17248038694E+03  0.10100000352E+00 0. -1.
        3   -1    0    0  501    0  0.00000000000E+00  0.00000000000E+00 -0.71492870579E+03  0.71492871293E+03  0.10100000352E+00 0.  1.
    10030    2    1    2    0    0  0.00000000000E+00  0.00000000000E+00 -0.54244834842E+03  0.88740909987E+03  0.70231381862E+03 0.  0.
        3    1    3    3  502    0  0.18241927284E+02  0.25805945443E+03  0.28809159244E+02  0.26030256969E+03  0.10100000352E+00 0. -1.
       -3    1    3    3    0  502 -0.18241927284E+02 -0.25805945443E+03 -0.57125750766E+03  0.62710653018E+03  0.10100000352E+00 0.  1.
</event>
<event>
 5   0  0.1233912E-02  0.7050189E+03  0.7818609E-02  0.9708687E-01
        4   -1    0    0  501    0  0.00000000000E+00  0.00000000000E+00  0.76601166720E+03  0.76601271999E+03  0.12699999809E+01 0.  1.
       -4   -1    0    0    0  501  0.00000000000E+00  0.00000000000E+00 -0.16221700996E+03  0.16222198131E+03  0.12699999809E+01 0. -1.
    10030    2    1    2    0    0  0.00000000000E+00  0.00000000000E+00  0.60379465724E+03  0.92823470130E+03  0.70501891648E+03 0.  0.
        2    1    3    3  502    0 -0.92562527047E+01 -0.31110036482E+03  0.83984301363E+02  0.32237009490E+03  0.25500000920E-02 0. -1.
       -2    1    3    3    0  502  0.92562527047E+01  0.31110036482E+03  0.51981035588E+03  0.60586460640E+03  0.25500000920E-02 0.  1.
</event>
<event>
 5   0  0.1884172E-02  0.6968141E+03  0.7818609E-02  0.9722696E-01
       -1   -1    0    0    0  501  0.00000000000E+00  0.00000000000E+00  0.17335623725E+03  0.17335623732E+03  0.50400001928E-02 0.  1.
        1   -1    0    0  501    0  0.00000000000E+00  0.00000000000E+00 -0.70021979061E+03  0.70021979063E+03  0.50400001928E-02 0. -1.
    10030    2    1    2    0    0  0.00000000000E+00  0.00000000000E+00 -0.52686355336E+03  0.87357602795E+03  0.69681408765E+03 0.  0.
        3    1    3    3  502    0 -0.10708819779E+03 -0.17194528532E+03 -0.61880819230E+03  0.65111953765E+03  0.10100000352E+00 0. -1.
       -3    1    3    3    0  502  0.10708819779E+03  0.17194528532E+03  0.91944638936E+02  0.22245649031E+03  0.10100000352E+00 0.  1.
</event>
<event>
 5   0  0.1839038E-02  0.6984018E+03  0.7818609E-02  0.9719969E-01
       -1   -1    0    0    0  501  0.00000000000E+00  0.00000000000E+00  0.83621488895E+02  0.83621489047E+02  0.50400001928E-02 0. -1.
        1   -1    0    0  501    0  0.00000000000E+00  0.00000000000E+00 -0.14582528455E+04  0.14582528455E+04  0.50400001928E-02 0.  1.
    10030    2    1    2    0    0  0.00000000000E+00  0.00000000000E+00 -0.13746313566E+04  0.15418743346E+04  0.69840181629E+03 0.  0.
        5    1    3    3  502    0  0.24632444783E+03 -0.10084957569E+03 -0.18838694953E+03  0.32612590094E+03  0.46999998093E+01 0. -1.
       -5    1    3    3    0  502 -0.24632444783E+03  0.10084957569E+03 -0.11862444071E+04  0.12157484336E+04  0.46999998093E+01 0.  1.
</event>
<event>
 5   0  0.1839038E-02  0.7882694E+03  0.7818609E-02  0.9577154E-01
        1   -1    0    0  501    0  0.00000000000E+00  0.00000000000E+00  0.68287265927E+03  0.68287265929E+03  0.50400001928E-02 0. -1.
       -1   -1    0    0    0  501  0.00000000000E+00  0.00000000000E+00 -0.22748334703E+03  0.22748334708E+03  0.50400001928E-02 0.  1.
    10030    2    1    2    0    0  0.00000000000E+00  0.00000000000E+00  0.45538931225E+03  0.91035600637E+03  0.78826939090E+03 0.  0.
        5    1    3    3  502    0  0.51055545914E+02 -0.39069038368E+03  0.23765769013E+03  0.46016183278E+03  0.46999998093E+01 0.  1.
       -5    1    3    3    0  502 -0.51055545914E+02  0.39069038368E+03  0.21773162212E+03  0.45019417359E+03  0.46999998093E+01 0. -1.
</event>
<event>
 5   0  0.2933851E-02  0.6293806E+03  0.7818609E-02  0.9846258E-01
        2   -1    0    0  501    0  0.00000000000E+00  0.00000000000E+00  0.11041626606E+04  0.11041626606E+04  0.25500000920E-02 0. -1.
       -2   -1    0    0    0  501  0.00000000000E+00  0.00000000000E+00 -0.89687868326E+02  0.89687868362E+02  0.25500000920E-02 0.  1.
    10030    2    1    2    0    0  0.00000000000E+00  0.00000000000E+00  0.10144747923E+04  0.11938505290E+04  0.62938063313E+03 0.  0.
        2    1    3    3  502    0 -0.79336863228E+02  0.29634690901E+03  0.64020980500E+03  0.70991860292E+03  0.25500000920E-02 0. -1.
       -2    1    3    3    0  502  0.79336863228E+02 -0.29634690901E+03  0.37426498730E+03  0.48393192607E+03  0.25500000920E-02 0.  1.
</event>
<event>
 5   0  0.1233912E-02  0.6928718E+03  0.7818609E-02  0.9729501E-01
        3   -1    0    0  501    0  0.00000000000E+00  0.00000000000E+00  0.13791830295E+04  0.13791830332E+04  0.10100000352E+00 0.  1.
       -3   -1    0    0    0  501  0.00000000000E+00  0.00000000000E+00 -0.87020930068E+02  0.87020988681E+02  0.10100000352E+00 0. -1.
    10030    2    1    2    0    0  0.00000000000E+00  0.00000000000E+00  0.12921620995E+04  0.14662040219E+04  0.69287180819E+03 0.  0.
        2    1    3    3  502    0  0.35220731023E+02  0.21981999999E+03  0.84384109002E+02  0.23807983986E+03  0.25500000920E-02 0. -1.
       -2    1    3    3    0  502 -0.35220731023E+02 -0.21981999999E+03  0.12077779905E+04  0.12281241821E+04  0.25500000920E-02 0.  1.
</event>
<event>
 5   0  0.1969818E-02  0.6953786E+03  0.7818609E-02  0.9725168E-01
        1   -1    0    0  501    0  0.00000000000E+00  0.00000000000E+00  0.73038829775E+03  0.73038829777E+03  0.50400001928E-02 0. -1.
       -1   -1    0    0    0  501  0.00000000000E+00  0.00000000000E+00 -0.16551176418E+03  0.16551176426E+03  0.50400001928E-02 0.  1.
    10030    2    1    2    0    0  0.00000000000E+00  0.00000000000E+00  0.56487653357E+03  0.89590006203E+03  0.69537861842E+03 0.  0.
        1    1    3    3  502    0  0.33687557542E+02  0.20021586025E+03  0.64608225484E+03  0.67723225136E+03  0.50400001928E-02 0. -1.
       -1    1    3    3    0  502 -0.33687557542E+02 -0.20021586025E+03 -0.81205721270E+02  0.21866781067E+03  0.50400001928E-02 0.  1.
</event>
<event>
 5   0  0.2933851E-02  0.6964992E+03  0.7818609E-02  0.9723238E-01
        2   -1    0    0  501    0  0.00000000000E+00  0.00000000000E+00  0.70475995340E+03  0.70475995340E+03  0.25500000920E-02 0.  1.
       -2   -1    0    0    0  501  0.00000000000E+00  0.00000000000E+00 -0.17208383801E+03  0.17208383803E+03  0.25500000920E-02 0. -1.
    10030    2    1    2    0    0  0.00000000000E+00  0.00000000000E+00  0.53267611539E+03  0.87684379143E+03  0.69649923953E+03 0.  0.
        2    1    3    3  502    0  0.13054576397E+03  0.12594661570E+03  0.64058779961E+03  0.66577584480E+03  0.25500000920E-02 0.  1.
       -2    1    3    3    0  502 -0.13054576397E+03 -0.12594661570E+03 -0.10791168422E+03  0.21106794663E+03  0.25500000920E-02 0. -1.
</event>
<event>
 5   0  0.1233912E-02  0.6918392E+03  0.7818609E-02  0.9731291E-01
        4   -1    0    0  501    0  0.00000000000E+00  0.00000000000E+00  0.10823810420E+03  0.10824555464E+03  0.12699999809E+01 0.  1.
       -4   -1    0    0    0  501  0.00000000000E+00  0.00000000000E+00 -0.11054831343E+04  0.11054838638E+04  0.12699999809E+01 0. -1.
    10030    2    1    2    0    0  0.00000000000E+00  0.00000000000E+00 -0.99724503006E+03  0.12137294184E+04  0.69183918009E+03 0.  0.
        5    1    3    3  502    0 -0.20238544364E+03 -0.13208187511E+03 -0.93274144645E+03  0.96355289707E+03  0.46999998093E+01 0. -1.
       -5    1    3    3    0  502  0.20238544364E+03  0.13208187511E+03 -0.64503583611E+02  0.25017652133E+03  0.46999998093E+01 0.  1.
</event>
<event>
 5   0  0.1858013E-02  0.6980858E+03  0.7818609E-02  0.9720511E-01
       -1   -1    0    0    0  501  0.00000000000E+00  0.00000000000E+00  0.32425973138E+03  0.32425973142E+03  0.50400001928E-02 0.  1.
        1   -1    0    0  501    0  0.00000000000E+00  0.00000000000E+00 -0.37572024131E+03  0.37572024134E+03  0.50400001928E-02 0. -1.
    10030    2    1    2    0    0  0.00000000000E+00  0.00000000000E+00 -0.51460509931E+02  0.69997997276E+03  0.69808579572E+03 0.  0.
        2    1    3    3  502    0  0.22234428855E+03  0.10922794189E+03 -0.27229015439E+03  0.36811635949E+03  0.25500000920E-02 0. -1.
       -2    1    3    3    0  502 -0.22234428855E+03 -0.10922794189E+03  0.22082964446E+03  0.33186361328E+03  0.25500000920E-02 0.  1.
</event>
<event>
 5   0  0.1951465E-02  0.6982500E+03  0.7818609E-02  0.9720230E-01
       -1   -1    0    0    0  501  0.00000000000E+00  0.00000000000E+00  0.29332313495E+03  0.29332313499E+03  0.50400001928E-02 0.  1.
        1   -1    0    0  501    0  0.00000000000E+00  0.00000000000E+00 -0.41554261336E+03  0.41554261340E+03  0.50400001928E-02 0. -1.
    10030    2    1    2    0    0  0.00000000000E+00  0.00000000000E+00 -0.12221947841E+03  0.70886574839E+03  0.69824998986E+03 0.  0.
        4    1    3    3  502    0 -0.10682211466E+03  0.31056542267E+03 -0.18133658206E+03  0.37516185152E+03  0.12699999809E+01 0.  1.
       -4    1    3    3    0  502  0.10682211466E+03 -0.31056542267E+03  0.59117103650E+02  0.33370389687E+03  0.12699999809E+01 0. -1.
</event>
<event>
 5   0  0.1951465E-02  0.7026595E+03  0.7818609E-02  0.9712695E-01
       -1   -1    0    0    0  501  0.00000000000E+00  0.00000000000E+00  0.36641166711E+03  0.36641166715E+03  0.50400001928E-02 0.  1.
        1   -1    0    0  501    0  0.00000000000E+00  0.00000000000E+00 -0.33686858048E+03  0.33686858052E+03  0.50400001928E-02 0. -1.
    10030    2    1    2    0    0  0.00000000000E+00  0.00000000000E+00  0.29543086633E+02  0.70328024766E+03  0.70265945719E+03 0.  0.
        4    1    3    3  502    0 -0.15110132196E+03 -0.18389061552E+03 -0.24388199779E+03  0.34077471989E+03  0.12699999809E+01 0. -1.
       -4    1    3    3    0  502  0.15110132196E+03  0.18389061552E+03  0.27342508442E+03  0.36250552777E+03  0.12699999809E+01 0.  1.
</event>
<event>
 5   0  0.1839038E-02  0.7048477E+03  0.7818609E-02  0.9708978E-01
       -1   -1    0    0    0  501  0.00000000000E+00  0.00000000000E+00  0.22153130287E+03  0.22153130293E+03  0.50400001928E-02 0. -1.
        1   -1    0    0  501    0  0.00000000000E+00  0.00000000000E+00 -0.56065472839E+03  0.56065472841E+03  0.50400001928E-02 0.  1.
    10030    2    1    2    0    0  0.00000000000E+00  0.00000000000E+00 -0.33912342552E+03  0.78218603134E+03  0.70484770688E+03 0.  0.
        5    1    3    3  502    0  0.33707849521E+02  0.24366972851E+02 -0.55788646237E+03  0.55945452307E+03  0.46999998093E+01 0.  1.
       -5    1    3    3    0  502 -0.33707849521E+02 -0.24366972851E+02  0.21876303685E+03  0.22273150827E+03  0.46999998093E+01 0. -1.
</event>
<event>
 5   0  0.1884172E-02  0.7017461E+03  0.7818609E-02  0.9714251E-01
       -1   -1    0    0    0  501  0.00000000000E+00  0.00000000000E+00  0.30266368353E+03  0.30266368357E+03  0.50400001928E-02 0. -1.
        1   -1    0    0  501    0  0.00000000000E+00  0.00000000000E+00 -0.40676142277E+03  0.40676142280E+03  0.50400001928E-02 0.  1.
    10030    2    1    2    0    0  0.00000000000E+00  0.00000000000E+00 -0.10409773925E+03  0.70942510637E+03  0.70174613802E+03 0.  0.
        3    1    3    3  502    0  0.12557634968E+03 -0.25855173355E+03 -0.25548078277E+03  0.38456320558E+03  0.10100000352E+00 0.  1.
       -3    1    3    3    0  502 -0.12557634968E+03  0.25855173355E+03  0.15138304353E+03  0.32486190079E+03  0.10100000352E+00 0. -1.
</event>
<event>
 5   0  0.3113940E-02  0.6920464E+03  0.7818609E-02  0.9730931E-01
       -2   -1    0    0    0  501  0.00000000000E+00  0.00000000000E+00  0.15873095790E+03  0.15873095792E+03  0.25500000920E-02 0.  1.
        2   -1    0    0  501    0  0.00000000000E+00  0.00000000000E+00 -0.75430805832E+03  0.75430805832E+03  0.25500000920E-02 0. -1.
    10030    2    1    2    0    0  0.00000000000E+00  0.00000000000E+00 -0.59557710042E+03  0.91303901624E+03  0.69204635874E+03 0.  0.
        5    1    3    3  502    0  0.12107990205E+03 -0.29849213337E+03 -0.46442210454E+03  0.56521489502E+03  0.46999998093E+01 0. -1.
       -5    1    3    3    0  502 -0.12107990205E+03  0.29849213337E+03 -0.13115499588E+03  0.34782412123E+03  0.46999998093E+01 0.  1.
</event>
<event>
 5   0  0.1839038E-02  0.7002807E+03  0.7818609E-02  0.9716752E-01
       -1   -1    0    0    0  501  0.00000000000E+00  0.00000000000E+00  0.34819400983E+03  0.34819400987E+03  0.50400001928E-02 0.  1.
        1   -1    0    0  501    0  0.00000000000E+00  0.00000000000E+00 -0.35209757567E+03  0.35209757571E+03  0.50400001928E-02 0. -1.
    10030    2    1    2    0    0  0.00000000000E+00  0.00000000000E+00 -0.39035658414E+01  0.70029158557E+03  0.70028070586E+03 0.  0.
        5    1    3    3  502    0  0.10512109853E+03 -0.32683357469E+03  0.66646264141E+02  0.34976341350E+03  0.46999998093E+01 0.  1.
       -5    1    3    3    0  502 -0.10512109853E+03  0.32683357469E+03 -0.70549829983E+02  0.35052817207E+03  0.46999998093E+01 0. -1.
</event>
<event>
 5   0  0.3290656E-02  0.7153508E+03  0.7818609E-02  0.9691334E-01
        2   -1    0    0  501    0  0.00000000000E+00  0.00000000000E+00  0.16239829425E+04  0.16239829425E+04  0.25500000920E-02 0. -1.
       -2   -1    0    0    0  501  0.00000000000E+00  0.00000000000E+00 -0.78776503738E+02  0.78776503780E+02  0.25500000920E-02 0.  1.
    10030    2    1    2    0    0  0.00000000000E+00  0.00000000000E+00  0.15452064388E+04  0.17027594463E+04  0.71535081850E+03 0.  0.
        1    1    3    3  502    0  0.16616882947E+03 -0.14873022986E+03  0.14382359135E+04  0.14554227235E+04  0.50400001928E-02 0. -1.
       -1    1    3    3    0  502 -0.16616882947E+03  0.14873022986E+03  0.10697052535E+03  0.24733672287E+03  0.50400001928E-02 0.  1.
</event>
<event>
 5   0  0.1884172E-02  0.6922817E+03  0.7818609E-02  0.9730523E-01
        1   -1    0    0  501    0  0.00000000000E+00  0.00000000000E+00  0.56844749880E+03  0.56844749883E+03  0.50400001928E-02 0. -1.
       -1   -1    0    0    0  501  0.00000000000E+00  0.00000000000E+00 -0.21077315602E+03  0.21077315608E+03  0.50400001928E-02 0.  1.
    10030    2    1    2    0    0  0.00000000000E+00  0.00000000000E+00  0.35767434278E+03  0.77922065491E+03  0.69228165768E+03 0.  0.
        3    1    3    3  502    0  0.13873793973E+03  0.81614108662E+02  0.52375890980E+03  0.54793474470E+03  0.10100000352E+00 0. -1.
       -3    1    3    3    0  502 -0.13873793973E+03 -0.81614108662E+02 -0.16608456702E+03  0.23128591020E+03  0.10100000352E+00 0.  1.
</event>
<event>
 5   0  0.1858013E-02  0.6986779E+03  0.7818609E-02  0.9719496E-01
       -1   -1    0    0    0  501  0.00000000000E+00  0.00000000000E+00  0.12408349760E+03  0.12408349771E+03  0.50400001928E-02 0. -1.
        1   -1    0    0  501    0  0.00000000000E+00  0.00000000000E+00 -0.98351269278E+03  0.98351269279E+03  0.50400001928E-02 0.  1.
    10030    2    1    2    0    0  0.00000000000E+00  0.00000000000E+00 -0.85942919517E+03  0.11075961905E+04  0.69867787977E+03 0.  0.
        2    1    3    3  502    0 -0.56696468498E+02  0.10317746128E+03 -0.95111716409E+03  0.95837567680E+03  0.25500000920E-02 0.  1.
       -2    1    3    3    0  502  0.56696468498E+02 -0.10317746128E+03  0.91687968914E+02  0.14922051369E+03  0.25500000920E-02 0. -1.
</event>
<event>
 5   0  0.1233912E-02  0.6887552E+03  0.7818609E-02  0.9736658E-01
        3   -1    0    0  501    0  0.00000000000E+00  0.00000000000E+00  0.45967244141E+03  0.45967245251E+03  0.10100000352E+00 0.  1.
       -3   -1    0    0    0  501  0.00000000000E+00  0.00000000000E+00 -0.25800094902E+03  0.25800096878E+03  0.10100000352E+00 0. -1.
    10030    2    1    2    0    0  0.00000000000E+00  0.00000000000E+00  0.20167149240E+03  0.71767342129E+03  0.68875521688E+03 0.  0.
        1    1    3    3  502    0  0.21218616521E+03 -0.20195965863E+03  0.28950507690E+03  0.41185417564E+03  0.50400001928E-02 0.  1.
       -1    1    3    3    0  502 -0.21218616521E+03  0.20195965863E+03 -0.87833584499E+02  0.30581924565E+03  0.50400001928E-02 0. -1.
</event>
<event>
 5   0  0.3290656E-02  0.7649182E+03  0.7818609E-02  0.9612232E-01
        2   -1    0    0  501    0  0.00000000000E+00  0.00000000000E+00  0.33895149822E+03  0.33895149823E+03  0.25500000920E-02 0. -1.
       -2   -1    0    0    0  501  0.00000000000E+00  0.00000000000E+00 -0.43155135223E+03  0.43155135224E+03  0.25500000920E-02 0.  1.
    10030    2    1    2    0    0  0.00000000000E+00  0.00000000000E+00 -0.92599854010E+02  0.77050285047E+03  0.76491823721E+03 0.  0.
        1    1    3    3  502    0 -0.44394836610E+02 -0.13035453506E+03 -0.40571270566E+03  0.42844603615E+03  0.50400001928E-02 0.  1.
       -1    1    3    3    0  502  0.44394836610E+02  0.13035453506E+03  0.31311285165E+03  0.34205681432E+03  0.50400001928E-02 0. -1.
</event>
<event>
 5   0  0.3184443E-02  0.6949048E+03  0.7818609E-02  0.9725986E-01
        2   -1    0    0  501    0  0.00000000000E+00  0.00000000000E+00  0.76677995760E+03  0.76677995760E+03  0.25500000920E-02 0.  1.
       -2   -1    0    0    0  501  0.00000000000E+00  0.00000000000E+00 -0.15744172020E+03  0.15744172022E+03  0.25500000920E-02 0. -1.
    10030    2    1    2    0    0  0.00000000000E+00  0.00000000000E+00  0.60933823740E+03  0.92422167782E+03  0.69490475764E+03 0.  0.
        3    1    3    3  502    0 -0.74255661285E+02 -0.32601487998E+03  0.17903156935E+03  0.37927815416E+03  0.10100000352E+00 0.  1.
       -3    1    3    3    0  502  0.74255661285E+02  0.32601487998E+03  0.43030666805E+03  0.54494352365E+03  0.10100000352E+00 0. -1.
</event>
<event>
 5   0  0.3290656E-02  0.6980343E+03  0.7818609E-02  0.9720600E-01
        2   -1    0    0  501    0  0.00000000000E+00  0.00000000000E+00  0.57251558291E+03  0.57251558291E+03  0.25500000920E-02 0.  1.
       -2   -1    0    0    0  501  0.00000000000E+00  0.00000000000E+00 -0.21276798308E+03  0.21276798310E+03  0.25500000920E-02 0. -1.
    10030    2    1    2    0    0  0.00000000000E+00  0.00000000000E+00  0.35974759983E+03  0.78528356601E+03  0.69803434261E+03 0.  0.
        1    1    3    3  502    0  0.39422576839E+02 -0.28267470844E+03  0.40586536823E+03  0.49617116755E+03  0.50400001928E-02 0.  1.
       -1    1    3    3    0  502 -0.39422576839E+02  0.28267470844E+03 -0.46117768403E+02  0.28911239846E+03  0.50400001928E-02 0. -1.
</event>
<event>
 5   0  0.3184443E-02  0.7040677E+03  0.7818609E-02  0.9710301E-01
        2   -1    0    0  501    0  0.00000000000E+00  0.00000000000E+00  0.81655837798E+03  0.81655837798E+03  0.25500000920E-02 0. -1.
       -2   -1    0    0    0  501  0.00000000000E+00  0.00000000000E+00 -0.15176849477E+03  0.15176849479E+03  0.25500000920E-02 0.  1.
    10030    2    1    2    0    0  0.00000000000E+00  0.00000000000E+00  0.66478988321E+03  0.96832687278E+03  0.70406771246E+03 0.  0.
        3    1    3    3  502    0 -0.21167922361E+03 -0.11217255556E+02  0.71894375820E+03  0.74954256596E+03  0.10100000352E+00 0. -1.
       -3    1    3    3    0  502  0.21167922361E+03  0.11217255556E+02 -0.54153874993E+02  0.21878430682E+03  0.10100000352E+00 0.  1.
</event>
<event>
 5   0  0.2933851E-02  0.6484449E+03  0.7818609E-02  0.9809702E-01
        2   -1    0    0  501    0  0.00000000000E+00  0.00000000000E+00  0.30282009951E+03  0.30282009952E+03  0.25500000920E-02 0. -1.
       -2   -1    0    0    0  501  0.00000000000E+00  0.00000000000E+00 -0.34713740662E+03  0.34713740663E+03  0.25500000920E-02 0.  1.
    10030    2    1    2    0    0  0.00000000000E+00  0.00000000000E+00 -0.44317307113E+02  0.64995750615E+03  0.64844485972E+03 0.  0.
        2    1    3    3  502    0 -0.51132090051E+02 -0.67028917986E+02 -0.33595894939E+03  0.34637520431E+03  0.25500000920E-02 0.  1.
       -2    1    3    3    0  502  0.51132090051E+02  0.67028917986E+02  0.29164164227E+03  0.30358230185E+03  0.25500000920E-02 0. -1.
</event>
<event>
 5   0  0.3290656E-02  0.6989101E+03  0.7818609E-02  0.9719098E-01
        2   -1    0    0  501    0  0.00000000000E+00  0.00000000000E+00  0.10367061184E+04  0.10367061184E+04  0.25500000920E-02 0.  1.
       -2   -1    0    0    0  501  0.00000000000E+00  0.00000000000E+00 -0.11779502819E+03  0.11779502821E+03  0.25500000920E-02 0. -1.
    10030    2    1    2    0    0  0.00000000000E+00  0.00000000000E+00  0.91891109020E+03  0.11545011466E+04  0.69891008421E+03 0.  0.
        1    1    3    3  502    0 -0.29251777228E+03 -0.93462972012E+02  0.18395208777E+03  0.35796696057E+03  0.50400001928E-02 0. -1.
       -1    1    3    3    0  502  0.29251777228E+03  0.93462972012E+02  0.73495900243E+03  0.79653418603E+03  0.50400001928E-02 0.  1.
</event>
<event>
 5   0  0.1839038E-02  0.6933669E+03  0.7818609E-02  0.9728643E-01
        1   -1    0    0  501    0  0.00000000000E+00  0.00000000000E+00  0.66914483005E+03  0.66914483007E+03  0.50400001928E-02 0. -1.
       -1   -1    0    0    0  501  0.00000000000E+00  0.00000000000E+00 -0.17961642900E+03  0.17961642907E+03  0.50400001928E-02 0.  1.
    10030    2    1    2    0    0  0.00000000000E+00  0.00000000000E+00  0.48952840105E+03  0.84876125914E+03  0.69336687229E+03 0.  0.
        5    1    3    3  502    0  0.20897315554E+03 -0.23533146511E+03  0.42264735991E+03  0.52697586192E+03  0.46999998093E+01 0. -1.
       -5    1    3    3    0  502 -0.20897315554E+03  0.23533146511E+03  0.66881041139E+02  0.32178539722E+03  0.46999998093E+01 0.  1.
</event>
<event>
 5   0  0.1839038E-02  0.6997102E+03  0.7818609E-02  0.9717728E-01
        1   -1    0    0  501    0  0.00000000000E+00  0.00000000000E+00  0.84014005482E+03  0.84014005484E+03  0.50400001928E-02 0.  1.
       -1   -1    0    0    0  501  0.00000000000E+00  0.00000000000E+00 -0.14568832558E+03  0.14568832567E+03  0.50400001928E-02 0. -1.
    10030    2    1    2    0    0  0.00000000000E+00  0.00000000000E+00  0.69445172924E+03  0.98582838051E+03  0.69971021972E+03 0.  0.
        5    1    3    3  502    0 -0.11154630624E+03 -0.32913001210E+03  0.40371179656E+03  0.53270484134E+03  0.46999998093E+01 0.  1.
       -5    1    3    3    0  502  0.11154630624E+03  0.32913001210E+03  0.29073993268E+03  0.45312353917E+03  0.46999998093E+01 0. -1.
</event>
<event>
 5   0  0.2933851E-02  0.6982243E+03  0.7818609E-02  0.9720274E-01
        2   -1    0    0  501    0  0.00000000000E+00  0.00000000000E+00  0.11720639293E+04  0.11720639293E+04  0.25500000920E-02 0.  1.
       -2   -1    0    0    0  501  0.00000000000E+00  0.00000000000E+00 -0.10398688830E+03  0.10398688833E+03  0.25500000920E-02 0. -1.
    10030    2    1    2    0    0  0.00000000000E+00  0.00000000000E+00  0.10680770410E+04  0.12760508177E+04  0.69822426461E+03 0.  0.
        2    1    3    3  502    0  0.82262434845E+02  0.30855577589E+03  0.79188407170E+03  0.85384668298E+03  0.25500000920E-02 0.  1.
       -2    1    3    3    0  502 -0.82262434845E+02 -0.30855577589E+03  0.27619296932E+03  0.42220413467E+03  0.25500000920E-02 0. -1.
</event>
<event>
 5   0  0.1884172E-02  0.7028327E+03  0.7818609E-02  0.9712400E-01
        1   -1    0    0  501    0  0.00000000000E+00  0.00000000000E+00  0.26345253701E+03  0.26345253705E+03  0.50400001928E-02 0. -1.
       -1   -1    0    0    0  501  0.00000000000E+00  0.00000000000E+00 -0.46875031924E+03  0.46875031927E+03  0.50400001928E-02 0.  1.
    10030    2    1    2    0    0  0.00000000000E+00  0.00000000000E+00 -0.20529778223E+03  0.73220285632E+03  0.70283272790E+03 0.  0.
        3    1    3    3  502    0  0.24638138729E+03 -0.23688513769E+03 -0.18776429049E+03  0.38996640297E+03  0.10100000352E+00 0.  1.
       -3    1    3    3    0  502 -0.24638138729E+03  0.23688513769E+03 -0.17533491743E+02  0.34223645335E+03  0.10100000352E+00 0. -1.
</event>
<event>
 5   0  0.1839038E-02  0.6977386E+03  0.7818609E-02  0.9721107E-01
       -1   -1    0    0    0  501  0.00000000000E+00  0.00000000000E+00  0.80770514014E+02  0.80770514171E+02  0.50400001928E-02 0. -1.
        1   -1    0    0  501    0  0.00000000000E+00  0.00000000000E+00 -0.15068592993E+04  0.15068592993E+04  0.50400001928E-02 0.  1.
    10030    2    1    2    0    0  0.00000000000E+00  0.00000000000E+00 -0.14260887853E+04  0.15876298135E+04  0.69773863383E+03 0.  0.
        5    1    3    3  502    0 -0.18775523357E+03  0.28473324021E+03 -0.54641685072E+03  0.64414168516E+03  0.46999998093E+01 0. -1.
       -5    1    3    3    0  502  0.18775523357E+03 -0.28473324021E+03 -0.87967193459E+03  0.94348812834E+03  0.46999998093E+01 0.  1.
</event>
<event>
 5   0  0.1233912E-02  0.6974489E+03  0.7818609E-02  0.9721605E-01
        4   -1    0    0  501    0  0.00000000000E+00  0.00000000000E+00  0.60018506102E+03  0.60018640468E+03  0.12699999809E+01 0. -1.
       -4   -1    0    0    0  501  0.00000000000E+00  0.00000000000E+00 -0.20261519718E+03  0.20261917734E+03  0.12699999809E+01 0.  1.
    10030    2    1    2    0    0  0.00000000000E+00  0.00000000000E+00  0.39756986384E+03  0.80280558203E+03  0.69744892709E+03 0.  0.
        4    1    3    3  502    0 -0.20516002382E+03  0.22463056707E+03  0.25718633368E+01  0.30423305938E+03  0.12699999809E+01 0.  1.
       -4    1    3    3    0  502  0.20516002382E+03 -0.22463056707E+03  0.39499800050E+03  0.49857252265E+03  0.12699999809E+01 0. -1.
</event>
<event>
 5   0  0.3184443E-02  0.6989269E+03  0.7818609E-02  0.9719069E-01
        2   -1    0    0  501    0  0.00000000000E+00  0.00000000000E+00  0.10866577924E+04  0.10866577924E+04  0.25500000920E-02 0.  1.
       -2   -1    0    0    0  501  0.00000000000E+00  0.00000000000E+00 -0.11238561829E+03  0.11238561832E+03  0.25500000920E-02 0. -1.
    10030    2    1    2    0    0  0.00000000000E+00  0.00000000000E+00  0.97427217408E+03  0.11990434107E+04  0.69892691430E+03 0.  0.
        3    1    3    3  502    0  0.21664817257E+03  0.24081394810E+03  0.26216415199E+03  0.41672273884E+03  0.10100000352E+00 0.  1.
       -3    1    3    3    0  502 -0.21664817257E+03 -0.24081394810E+03  0.71210802209E+03  0.78232067185E+03  0.10100000352E+00 0. -1.
</event>
<event>
 5   0  0.1839038E-02  0.6802933E+03  0.7818609E-02  0.9751540E-01
        1   -1    0    0  501    0  0.00000000000E+00  0.00000000000E+00  0.10410226530E+04  0.10410226530E+04  0.50400001928E-02 0.  1.
       -1   -1    0    0    0  501  0.00000000000E+00  0.00000000000E+00 -0.11114047796E+03  0.11114047807E+03  0.50400001928E-02 0. -1.
    10030    2    1    2    0    0  0.00000000000E+00  0.00000000000E+00  0.92988217500E+03  0.11521631310E+04  0.68029333463E+03 0.  0.
        5    1    3    3  502    0  0.33116481135E+03 -0.48992718486E+02  0.36322124688E+03  0.49398601490E+03  0.46999998093E+01 0. -1.
       -5    1    3    3    0  502 -0.33116481135E+03  0.48992718486E+02  0.56666092812E+03  0.65817711613E+03  0.46999998093E+01 0.  1.
</event>
<event>
 5   0  0.2933851E-02  0.7058437E+03  0.7818609E-02  0.9707290E-01
       -2   -1    0    0    0  501  0.00000000000E+00  0.00000000000E+00  0.52367937166E+02  0.52367937228E+02  0.25500000920E-02 0. -1.
        2   -1    0    0  501    0  0.00000000000E+00  0.00000000000E+00 -0.23784371909E+04  0.23784371909E+04  0.25500000920E-02 0.  1.
    10030    2    1    2    0    0  0.00000000000E+00  0.00000000000E+00 -0.23260692537E+04  0.24308051281E+04  0.70584374884E+03 0.  0.
        2    1    3    3  502    0  0.24850101460E+03 -0.22869164584E+03 -0.81012656463E+03  0.87770021868E+03  0.25500000920E-02 0.  1.
       -2    1    3    3    0  502 -0.24850101460E+03  0.22869164584E+03 -0.15159426891E+04  0.15531049094E+04  0.25500000920E-02 0. -1.
</event>
<event>
 5   0  0.1969818E-02  0.6733357E+03  0.7818609E-02  0.9763951E-01
       -1   -1    0    0    0  501  0.00000000000E+00  0.00000000000E+00  0.23809814759E+03  0.23809814764E+03  0.50400001928E-02 0. -1.
        1   -1    0    0  501    0  0.00000000000E+00  0.00000000000E+00 -0.47604416388E+03  0.47604416390E+03  0.50400001928E-02 0.  1.
    10030    2    1    2    0    0  0.00000000000E+00  0.00000000000E+00 -0.23794601629E+03  0.71414231155E+03  0.67333567741E+03 0.  0.
        1    1    3    3  502    0  0.17623599740E+03  0.13300321785E+03  0.15058782781E+03  0.26725582622E+03  0.50400001928E-02 0.  1.
       -1    1    3    3    0  502 -0.17623599740E+03 -0.13300321785E+03 -0.38853384409E+03  0.44688648533E+03  0.50400001928E-02 0. -1.
</event>
<event>
 5   0  0.1233912E-02  0.7049324E+03  0.7818609E-02  0.9708834E-01
       -3   -1    0    0    0  501  0.00000000000E+00  0.00000000000E+00  0.14480702697E+03  0.14480706220E+03  0.10100000352E+00 0. -1.
        3   -1    0    0  501    0  0.00000000000E+00  0.00000000000E+00 -0.85791704868E+03  0.85791705462E+03  0.10100000352E+00 0.  1.
    10030    2    1    2    0    0  0.00000000000E+00  0.00000000000E+00 -0.71311002170E+03  0.10027241168E+04  0.70493244457E+03 0.  0.
        4    1    3    3  502    0 -0.14366215910E+03 -0.26862767018E+03 -0.60873715336E+03  0.68070711464E+03  0.12699999809E+01 0.  1.
       -4    1    3    3    0  502  0.14366215910E+03  0.26862767018E+03 -0.10437286834E+03  0.32201700218E+03  0.12699999809E+01 0. -1.
</event>
<event>
 5   0  0.3184443E-02  0.6985072E+03  0.7818609E-02  0.9719788E-01
        2   -1    0    0  501    0  0.00000000000E+00  0.00000000000E+00  0.15905669049E+04  0.15905669049E+04  0.25500000920E-02 0. -1.
       -2   -1    0    0    0  501  0.00000000000E+00  0.00000000000E+00 -0.76688431218E+02  0.76688431260E+02  0.25500000920E-02 0.  1.
    10030    2    1    2    0    0  0.00000000000E+00  0.00000000000E+00  0.15138784737E+04  0.16672553362E+04  0.69850721033E+03 0.  0.
        3    1    3    3  502    0  0.60218992844E+01  0.13806056487E+03  0.15225340741E+04  0.15287926608E+04  0.10100000352E+00 0. -1.
       -3    1    3    3    0  502 -0.60218992844E+01 -0.13806056487E+03 -0.86556003957E+01  0.13846267534E+03  0.10100000352E+00 0.  1.
</event>
<event>
 5   0  0.1858013E-02  0.6959121E+03  0.7818609E-02  0.9724249E-01
        1   -1    0    0  501    0  0.00000000000E+00  0.00000000000E+00  0.42324360821E+03  0.42324360824E+03  0.50400001928E-02 0. -1.
       -1   -1    0    0    0  501  0.00000000000E+00  0.00000000000E+00 -0.28606082347E+03  0.28606082351E+03  0.50400001928E-02 0.  1.
    10030    2    1    2    0    0  0.00000000000E+00  0.00000000000E+00  0.13718278475E+03  0.70930443175E+03  0.69591210686E+03 0.  0.
        2    1    3    3  502    0 -0.22310639444E+03 -0.26602578317E+03  0.91994860350E+02  0.35917855572E+03  0.25500000920E-02 0. -1.
       -2    1    3    3    0  502  0.22310639444E+03  0.26602578317E+03  0.45187924397E+02  0.35012587603E+03  0.25500000920E-02 0.  1.
</event>
<event>
 5   0  0.1884172E-02  0.6955898E+03  0.7818609E-02  0.9724804E-01
        1   -1    0    0  501    0  0.00000000000E+00  0.00000000000E+00  0.94728013220E+03  0.94728013222E+03  0.50400001928E-02 0.  1.
       -1   -1    0    0    0  501  0.00000000000E+00  0.00000000000E+00 -0.12769326538E+03  0.12769326548E+03  0.50400001928E-02 0. -1.
    10030    2    1    2    0    0  0.00000000000E+00  0.00000000000E+00  0.81958686682E+03  0.10749733977E+04  0.69558980260E+03 0.  0.
        3    1    3    3  502    0 -0.12736104735E+03  0.56802927276E+02  0.90218115172E+03  0.91289553052E+03  0.10100000352E+00 0.  1.
       -3    1    3    3    0  502  0.12736104735E+03 -0.56802927276E+02 -0.82594284896E+02  0.16207786717E+03  0.10100000352E+00 0. -1.
</event>
<event>
 5   0  0.1839038E-02  0.6894370E+03  0.7818609E-02  0.9735469E-01
       -1   -1    0    0    0  501  0.00000000000E+00  0.00000000000E+00  0.92250475746E+02  0.92250475884E+02  0.50400001928E-02 0.  1.
        1   -1    0    0  501    0  0.00000000000E+00  0.00000000000E+00 -0.12881325379E+04  0.12881325379E+04  0.50400001928E-02 0. -1.
    10030    2    1    2    0    0  0.00000000000E+00  0.00000000000E+00 -0.11958820622E+04  0.13803830138E+04  0.68943698639E+03 0.  0.
        5    1    3    3  502    0  0.20069284147E+03 -0.27970900641E+03 -0.56361037217E+03  0.66044945795E+03  0.46999998093E+01 0. -1.
       -5    1    3    3    0  502 -0.20069284147E+03  0.27970900641E+03 -0.63227169001E+03  0.71993355587E+03  0.46999998093E+01 0.  1.
</event>
<event>
 5   0  0.1858013E-02  0.7021630E+03  0.7818609E-02  0.9713540E-01
       -1   -1    0    0    0  501  0.00000000000E+00  0.00000000000E+00  0.11982049634E+03  0.11982049644E+03  0.50400001928E-02 0.  1.
        1   -1    0    0  501    0  0.00000000000E+00  0.00000000000E+00 -0.10286906210E+04  0.10286906210E+04  0.50400001928E-02 0. -1.
    10030    2    1    2    0    0  0.00000000000E+00  0.00000000000E+00 -0.90887012463E+03  0.11485111174E+04  0.70216300343E+03 0.  0.
        2    1    3    3  502    0  0.12509395186E+03 -0.73223606909E+02  0.68592685330E+02  0.16035943966E+03  0.25500000920E-02 0.  1.
       -2    1    3    3    0  502 -0.12509395186E+03  0.73223606909E+02 -0.97746280996E+03  0.98815167776E+03  0.25500000920E-02 0. -1.
</event>
<event>
 5   0  0.3183963E-02  0.6882975E+03  0.7818609E-02  0.9737457E-01
       -2   -1    0    0    0  501  0.00000000000E+00  0.00000000000E+00  0.55758648710E+02  0.55758648768E+02  0.25500000920E-02 0.  1.
        2   -1    0    0  501    0  0.00000000000E+00  0.00000000000E+00 -0.21241256753E+04  0.21241256753E+04  0.25500000920E-02 0. -1.
    10030    2    1    2    0    0  0.00000000000E+00  0.00000000000E+00 -0.20683670265E+04  0.21798843240E+04  0.68829754440E+03 0.  0.
        4    1    3    3  502    0  0.22873702918E+03  0.14641277961E+03 -0.36474443685E+03  0.45474987373E+03  0.12699999809E+01 0.  1.
       -4    1    3    3    0  502 -0.22873702918E+03 -0.14641277961E+03 -0.17036225897E+04  0.17251344503E+04  0.12699999809E+01 0. -1.
</event>
<event>
 5   0  0.1951465E-02  0.6963909E+03  0.7818609E-02  0.9723424E-01
        1   -1    0    0  501    0  0.00000000000E+00  0.00000000000E+00  0.29569802163E+03  0.29569802167E+03  0.50400001928E-02 0. -1.
       -1   -1    0    0    0  501  0.00000000000E+00  0.00000000000E+00 -0.41001314554E+03  0.41001314557E+03  0.50400001928E-02 0.  1.
    10030    2    1    2    0    0  0.00000000000E+00  0.00000000000E+00 -0.11431512391E+03  0.70571116725E+03  0.69639091322E+03 0.  0.
        4    1    3    3  502    0 -0.51485113380E+01 -0.34259002169E+03 -0.11998761791E+03  0.36303315480E+03  0.12699999809E+01 0. -1.
       -4    1    3    3    0  502  0.51485113380E+01  0.34259002169E+03  0.56724939969E+01  0.34267801245E+03  0.12699999809E+01 0.  1.
</event>
<event>
 5   0  0.1884172E-02  0.7008560E+03  0.7818609E-02  0.9715769E-01
        1   -1    0    0  501    0  0.00000000000E+00  0.00000000000E+00  0.67192655731E+03  0.67192655733E+03  0.50400001928E-02 0.  1.
       -1   -1    0    0    0  501  0.00000000000E+00  0.00000000000E+00 -0.18275773463E+03  0.18275773470E+03  0.50400001928E-02 0. -1.
    10030    2    1    2    0    0  0.00000000000E+00  0.00000000000E+00  0.48916882268E+03  0.85468429203E+03  0.70085597805E+03 0.  0.
        3    1    3    3  502    0 -0.93502018673E+02  0.80231547413E+02  0.64464291654E+03  0.65631107620E+03  0.10100000352E+00 0.  1.
       -3    1    3    3    0  502  0.93502018673E+02 -0.80231547413E+02 -0.15547409386E+03  0.19837321583E+03  0.10100000352E+00 0. -1.
</event>
<event>
 5   0  0.1233912E-02  0.7017464E+03  0.7818609E-02  0.9714250E-01
        4   -1    0    0  501    0  0.00000000000E+00  0.00000000000E+00  0.35567604531E+03  0.35567831268E+03  0.12699999809E+01 0.  1.
       -4   -1    0    0    0  501  0.00000000000E+00  0.00000000000E+00 -0.34613068033E+03  0.34613301022E+03  0.12699999809E+01 0. -1.
    10030    2    1    2    0    0  0.00000000000E+00  0.00000000000E+00  0.95453649821E+01  0.70181132290E+03  0.70174640645E+03 0.  0.
        1    1    3    3  502    0 -0.35169759102E+02 -0.31648928886E+03  0.15212816955E+03  0.35290984956E+03  0.50400001928E-02 0.  1.
       -1    1    3    3    0  502  0.35169759102E+02  0.31648928886E+03 -0.14258280456E+03  0.34890147334E+03  0.50400001928E-02 0. -1.
</event>
<event>
 5   0  0.3290656E-02  0.6993678E+03  0.7818609E-02  0.9718314E-01
        2   -1    0    0  501    0  0.00000000000E+00  0.00000000000E+00  0.58427648460E+03  0.58427648460E+03  0.25500000920E-02 0.  1.
       -2   -1    0    0    0  501  0.00000000000E+00  0.00000000000E+00 -0.20928245371E+03  0.20928245372E+03  0.25500000920E-02 0. -1.
    10030    2    1    2    0    0  0.00000000000E+00  0.00000000000E+00  0.37499403089E+03  0.79355893833E+03  0.69936776119E+03 0.  0.
        1    1    3    3  502    0 -0.28592209782E+03  0.78766432250E+02  0.39771389615E+03  0.49611686132E+03  0.50400001928E-02 0.  1.
       -1    1    3    3    0  502  0.28592209782E+03 -0.78766432250E+02 -0.22719865264E+02  0.29744207700E+03  0.50400001928E-02 0. -1.
</event>
<event>
 5   0  0.3184443E-02  0.6913669E+03  0.7818609E-02  0.9732111E-01
        2   -1    0    0  501    0  0.00000000000E+00  0.00000000000E+00  0.77415732869E+03  0.77415732869E+03  0.25500000920E-02 0.  1.
       -2   -1    0    0    0  501  0.00000000000E+00  0.00000000000E+00 -0.15435759361E+03  0.15435759363E+03  0.25500000920E-02 0. -1.
    10030    2    1    2    0    0  0.00000000000E+00  0.00000000000E+00  0.61979973508E+03  0.92851492232E+03  0.69136694263E+03 0.  0.
        3    1    3    3  502    0 -0.29384497044E+03  0.27145308995E+02  0.55169937884E+03  0.62566280796E+03  0.10100000352E+00 0.  1.
       -3    1    3    3    0  502  0.29384497044E+03 -0.27145308995E+02  0.68100356245E+02  0.30285211436E+03  0.10100000352E+00 0. -1.
</event>
<event>
 5   0  0.3184443E-02  0.6895084E+03  0.7818609E-02  0.9735344E-01
       -2   -1    0    0    0  501  0.00000000000E+00  0.00000000000E+00  0.56119783454E+03  0.56119783455E+03  0.25500000920E-02 0.  1.
        2   -1    0    0  501    0  0.00000000000E+00  0.00000000000E+00 -0.21178888619E+03  0.21178888620E+03  0.25500000920E-02 0. -1.
    10030    2    1    2    0    0  0.00000000000E+00  0.00000000000E+00  0.34940894835E+03  0.77298672075E+03  0.68950841711E+03 0.  0.
        3    1    3    3  502    0 -0.27061768384E+03  0.10501116750E+03  0.38321787371E+03  0.48074652888E+03  0.10100000352E+00 0.  1.
       -3    1    3    3    0  502  0.27061768384E+03 -0.10501116750E+03 -0.33808925355E+02  0.29224019186E+03  0.10100000352E+00 0. -1.
</event>
<event>
 5   0  0.1951465E-02  0.6988635E+03  0.7818609E-02  0.9719178E-01
       -1   -1    0    0    0  501  0.00000000000E+00  0.00000000000E+00  0.61296989096E+03  0.61296989098E+03  0.50400001928E-02 0. -1.
        1   -1    0    0  501    0  0.00000000000E+00  0.00000000000E+00 -0.19919827323E+03  0.19919827329E+03  0.50400001928E-02 0.  1.
    10030    2    1    2    0    0  0.00000000000E+00  0.00000000000E+00  0.41377161773E+03  0.81216816427E+03  0.69886348840E+03 0.  0.
        4    1    3    3  502    0 -0.17257685073E+03  0.25380318797E+00 -0.14621363394E+03  0.22619211629E+03  0.12699999809E+01 0.  1.
       -4    1    3    3    0  502  0.17257685073E+03 -0.25380318797E+00  0.55998525166E+03  0.58597604798E+03  0.12699999809E+01 0. -1.
</event>
<event>
 5   0  0.3290656E-02  0.7230281E+03  0.7818609E-02  0.9678642E-01
        2   -1    0    0  501    0  0.00000000000E+00  0.00000000000E+00  0.16334849017E+04  0.16334849017E+04  0.25500000920E-02 0. -1.
       -2   -1    0    0    0  501  0.00000000000E+00  0.00000000000E+00 -0.80008346362E+02  0.80008346403E+02  0.25500000920E-02 0.  1.
    10030    2    1    2    0    0  0.00000000000E+00  0.00000000000E+00  0.15534765554E+04  0.17134932482E+04  0.72302814837E+03 0.  0.
        1    1    3    3  502    0 -0.21600260313E+03 -0.27455271211E+03  0.99722810819E+03  0.10566457382E+04  0.50400001928E-02 0. -1.
       -1    1    3    3    0  502  0.21600260313E+03  0.27455271211E+03  0.55624844720E+03  0.65684750994E+03  0.50400001928E-02 0.  1.
</event>
<event>
 5   0  0.1858013E-02  0.6995767E+03  0.7818609E-02  0.9717956E-01
        1   -1    0    0  501    0  0.00000000000E+00  0.00000000000E+00  0.85384948117E+03  0.85384948118E+03  0.50400001928E-02 0.  1.
       -1   -1    0    0    0  501  0.00000000000E+00  0.00000000000E+00 -0.14329446741E+03  0.14329446749E+03  0.50400001928E-02 0. -1.
    10030    2    1    2    0    0  0.00000000000E+00  0.00000000000E+00  0.71055501376E+03  0.99714394868E+03  0.69957674833E+03 0.  0.
        2    1    3    3  502    0  0.22017286360E+03 -0.26752544050E+03  0.28683152564E+03  0.44979803833E+03  0.25500000920E-02 0.  1.
       -2    1    3    3    0  502 -0.22017286360E+03  0.26752544050E+03  0.42372348812E+03  0.54734591034E+03  0.25500000920E-02 0. -1.
</event>
<event>
 5   0  0.1969818E-02  0.6975695E+03  0.7818609E-02  0.9721398E-01
       -1   -1    0    0    0  501  0.00000000000E+00  0.00000000000E+00  0.16048826384E+03  0.16048826391E+03  0.50400001928E-02 0. -1.
        1   -1    0    0  501    0  0.00000000000E+00  0.00000000000E+00 -0.75800430961E+03  0.75800430963E+03  0.50400001928E-02 0.  1.
    10030    2    1    2    0    0  0.00000000000E+00  0.00000000000E+00 -0.59751604578E+03  0.91849257355E+03  0.69756948234E+03 0.  0.
        1    1    3    3  502    0  0.29808599225E+03  0.17582727224E+03 -0.35585361514E+03  0.49638924633E+03  0.50400001928E-02 0. -1.
       -1    1    3    3    0  502 -0.29808599225E+03 -0.17582727224E+03 -0.24166243064E+03  0.42210332722E+03  0.50400001928E-02 0.  1.
</event>
<event>
 5   0  0.1839038E-02  0.6862521E+03  0.7818609E-02  0.9741036E-01
        1   -1    0    0  501    0  0.00000000000E+00  0.00000000000E+00  0.88883412166E+03  0.88883412168E+03  0.50400001928E-02 0.  1.
       -1   -1    0    0    0  501  0.00000000000E+00  0.00000000000E+00 -0.13246058834E+03  0.13246058843E+03  0.50400001928E-02 0. -1.
    10030    2    1    2    0    0  0.00000000000E+00  0.00000000000E+00  0.75637353333E+03  0.10212947101E+04  0.68625211328E+03 0.  0.
        5    1    3    3  502    0  0.19067872748E+03 -0.16222795310E+03  0.29050296087E+02  0.25207597184E+03  0.46999998093E+01 0. -1.
       -5    1    3    3    0  502 -0.19067872748E+03  0.16222795310E+03  0.72732323724E+03  0.76921873827E+03  0.46999998093E+01 0.  1.
</event>
<event>
 5   0  0.2933851E-02  0.6917893E+03  0.7818609E-02  0.9731378E-01
       -2   -1    0    0    0  501  0.00000000000E+00  0.00000000000E+00  0.61154743746E+02  0.61154743799E+02  0.25500000920E-02 0. -1.
        2   -1    0    0  501    0  0.00000000000E+00  0.00000000000E+00 -0.19563993488E+04  0.19563993488E+04  0.25500000920E-02 0.  1.
    10030    2    1    2    0    0  0.00000000000E+00  0.00000000000E+00 -0.18952446050E+04  0.20175540926E+04  0.69178927686E+03 0.  0.
        2    1    3    3  502    0 -0.83580608558E+02  0.20764125150E+03 -0.17853349599E+03  0.28631244585E+03  0.25500000920E-02 0. -1.
       -2    1    3    3    0  502  0.83580608558E+02 -0.20764125150E+03 -0.17167111091E+04  0.17312416467E+04  0.25500000920E-02 0.  1.
</event>
<event>
 5   0  0.3290656E-02  0.7096423E+03  0.7818609E-02  0.9700883E-01
        2   -1    0    0  501    0  0.00000000000E+00  0.00000000000E+00  0.78070000930E+03  0.78070000931E+03  0.25500000920E-02 0. -1.
       -2   -1    0    0    0  501  0.00000000000E+00  0.00000000000E+00 -0.16126304580E+03  0.16126304582E+03  0.25500000920E-02 0.  1.
    10030    2    1    2    0    0  0.00000000000E+00  0.00000000000E+00  0.61943696351E+03  0.94196305513E+03  0.70964233629E+03 0.  0.
        1    1    3    3  502    0 -0.58996698317E+02  0.12338565147E+03  0.74430719239E+03  0.75676801338E+03  0.50400001928E-02 0. -1.
       -1    1    3    3    0  502  0.58996698317E+02 -0.12338565147E+03 -0.12487022888E+03  0.18519504175E+03  0.50400001928E-02 0.  1.
</event>
<event>
 5   0  0.3113940E-02  0.6967523E+03  0.7818609E-02  0.9722802E-01
        2   -1    0    0  501    0  0.00000000000E+00  0.00000000000E+00  0.90383963964E+03  0.90383963964E+03  0.25500000920E-02 0.  1.
       -2   -1    0    0    0  501  0.00000000000E+00  0.00000000000E+00 -0.13427818920E+03  0.13427818922E+03  0.25500000920E-02 0. -1.
    10030    2    1    2    0    0  0.00000000000E+00  0.00000000000E+00  0.76956145044E+03  0.10381178289E+04  0.69675232372E+03 0.  0.
        5    1    3    3  502    0  0.30193706557E+03 -0.36737255609E+02  0.13180589777E+03  0.33152752857E+03  0.46999998093E+01 0. -1.
       -5    1    3    3    0  502 -0.30193706557E+03  0.36737255609E+02  0.63775555267E+03  0.70659030030E+03  0.46999998093E+01 0.  1.
</event>
<event>
 5   0  0.1233912E-02  0.7490960E+03  0.7818609E-02  0.9636770E-01
        3   -1    0    0  501    0  0.00000000000E+00  0.00000000000E+00  0.37750267534E+03  0.37750268885E+03  0.10100000352E+00 0.  1.
       -3   -1    0    0    0  501  0.00000000000E+00  0.00000000000E+00 -0.37161640230E+03  0.37161641602E+03  0.10100000352E+00 0. -1.
    10030    2    1    2    0    0  0.00000000000E+00  0.00000000000E+00  0.58862730381E+01  0.74911910487E+03  0.74909597855E+03 0.  0.
        2    1    3    3  502    0 -0.22132542350E+03  0.23194541785E+03 -0.19071866130E+03  0.37303783685E+03  0.25500000920E-02 0. -1.
       -2    1    3    3    0  502  0.22132542350E+03 -0.23194541785E+03  0.19660493434E+03  0.37608126802E+03  0.25500000920E-02 0.  1.
</event>
<event>
 5   0  0.1233912E-02  0.6996680E+03  0.7818609E-02  0.9717800E-01
        4   -1    0    0  501    0  0.00000000000E+00  0.00000000000E+00  0.58360147866E+03  0.58360286051E+03  0.12699999809E+01 0. -1.
       -4   -1    0    0    0  501  0.00000000000E+00  0.00000000000E+00 -0.20970091403E+03  0.20970475971E+03  0.12699999809E+01 0.  1.
    10030    2    1    2    0    0  0.00000000000E+00  0.00000000000E+00  0.37390056463E+03  0.79330762022E+03  0.69966802704E+03 0.  0.
        1    1    3    3  502    0 -0.49960260767E+01 -0.42992779284E+02  0.58055657921E+03  0.58216774304E+03  0.50400001928E-02 0. -1.
       -1    1    3    3    0  502  0.49960260767E+01  0.42992779284E+02 -0.20665601458E+03  0.21113987718E+03  0.50400001928E-02 0.  1.
</event>
<event>
 5   0  0.3183963E-02  0.7037302E+03  0.7818609E-02  0.9710874E-01
       -2   -1    0    0    0  501  0.00000000000E+00  0.00000000000E+00  0.12351136308E+04  0.12351136308E+04  0.25500000920E-02 0.  1.
        2   -1    0    0  501    0  0.00000000000E+00  0.00000000000E+00 -0.10024103067E+03  0.10024103070E+03  0.25500000920E-02 0. -1.
    10030    2    1    2    0    0  0.00000000000E+00  0.00000000000E+00  0.11348726001E+04  0.13353546615E+04  0.70373024197E+03 0.  0.
        4    1    3    3  502    0 -0.96319256557E+02 -0.16362057338E+03  0.11295635768E+04  0.11454102227E+04  0.12699999809E+01 0.  1.
       -4    1    3    3    0  502  0.96319256557E+02  0.16362057338E+03  0.53090233220E+01  0.18994443884E+03  0.12699999809E+01 0. -1.
</event>
<event>
 5   0  0.3290656E-02  0.7040509E+03  0.7818609E-02  0.9710330E-01
        2   -1    0    0  501    0  0.00000000000E+00  0.00000000000E+00  0.13387917940E+04  0.13387917940E+04  0.25500000920E-02 0.  1.
       -2   -1    0    0    0  501  0.00000000000E+00  0.00000000000E+00 -0.92562493693E+02  0.92562493728E+02  0.25500000920E-02 0. -1.
    10030    2    1    2    0    0  0.00000000000E+00  0.00000000000E+00  0.12462293003E+04  0.14313542877E+04  0.70405087037E+03 0.  0.
        1    1    3    3  502    0  0.31141832871E+03  0.34093035907E+01  0.95673495616E+03  0.10061484857E+04  0.50400001928E-02 0.  1.
       -1    1    3    3    0  502 -0.31141832871E+03 -0.34093035907E+01  0.28949434415E+03  0.42520580208E+03  0.50400001928E-02 0. -1.
</event>
<event>
 5   0  0.1951465E-02  0.7018468E+03  0.7818609E-02  0.9714079E-01
       -1   -1    0    0    0  501  0.00000000000E+00  0.00000000000E+00  0.40711324555E+03  0.40711324558E+03  0.50400001928E-02 0.  1.
        1   -1    0    0  501    0  0.00000000000E+00  0.00000000000E+00 -0.30248892050E+03  0.30248892054E+03  0.50400001928E-02 0. -1.
    10030    2    1    2    0    0  0.00000000000E+00  0.00000000000E+00  0.10462432505E+03  0.70960216612E+03  0.70184683854E+03 0.  0.
        4    1    3    3  502    0  0.31297677476E+03 -0.13753711046E+03  0.13240055688E+03  0.36660938157E+03  0.12699999809E+01 0.  1.
       -4    1    3    3    0  502 -0.31297677476E+03  0.13753711046E+03 -0.27776231829E+02  0.34299278455E+03  0.12699999809E+01 0. -1.
</event>
<event>
 5   0  0.1839038E-02  0.7126441E+03  0.7818609E-02  0.9695850E-01
        1   -1    0    0  501    0  0.00000000000E+00  0.00000000000E+00  0.88725754479E+02  0.88725754622E+02  0.50400001928E-02 0.  1.
       -1   -1    0    0    0  501  0.00000000000E+00  0.00000000000E+00 -0.14309868686E+04  0.14309868686E+04  0.50400001928E-02 0. -1.
    10030    2    1    2    0    0  0.00000000000E+00  0.00000000000E+00 -0.13422611141E+04  0.15197126233E+04  0.71264406174E+03 0.  0.
        5    1    3    3  502    0 -0.93105323630E+02  0.10364670252E+03 -0.13704213045E+04  0.13774933329E+04  0.46999998093E+01 0. -1.
       -5    1    3    3    0  502  0.93105323630E+02 -0.10364670252E+03  0.28160190393E+02  0.14221929036E+03  0.46999998093E+01 0.  1.
</event>
<event>
 5   0  0.3113940E-02  0.6976838E+03  0.7818609E-02  0.9721201E-01
       -2   -1    0    0    0  501  0.00000000000E+00  0.00000000000E+00  0.11017809136E+03  0.11017809139E+03  0.25500000920E-02 0.  1.
        2   -1    0    0  501    0  0.00000000000E+00  0.00000000000E+00 -0.11044905669E+04  0.11044905669E+04  0.25500000920E-02 0. -1.
    10030    2    1    2    0    0  0.00000000000E+00  0.00000000000E+00 -0.99431247555E+03  0.12146686583E+04  0.69768377538E+03 0.  0.
        5    1    3    3  502    0 -0.34847719389E+03  0.11093458427E+02 -0.51534559293E+03  0.62222390635E+03  0.46999998093E+01 0.  1.
       -5    1    3    3    0  502  0.34847719389E+03 -0.11093458427E+02 -0.47896688262E+03  0.59244475196E+03  0.46999998093E+01 0. -1.
</event>
<event>
 5   0  0.3113940E-02  0.6979788E+03  0.7818609E-02  0.9720695E-01
        2   -1    0    0  501    0  0.00000000000E+00  0.00000000000E+00  0.68493474277E+03  0.68493474277E+03  0.25500000920E-02 0. -1.
       -2   -1    0    0    0  501  0.00000000000E+00  0.00000000000E+00 -0.17781779801E+03  0.17781779803E+03  0.25500000920E-02 0.  1.
    10030    2    1    2    0    0  0.00000000000E+00  0.00000000000E+00  0.50711694476E+03  0.86275254080E+03  0.69797876114E+03 0.  0.
        5    1    3    3  502    0  0.15922105201E+03  0.11645316093E+03  0.60936458106E+03  0.64051538994E+03  0.46999998093E+01 0. -1.
       -5    1    3    3    0  502 -0.15922105201E+03 -0.11645316093E+03 -0.10224763630E+03  0.22223715086E+03  0.46999998093E+01 0.  1.
</event>
<event>
 5   0  0.3113940E-02  0.6952674E+03  0.7818609E-02  0.9725360E-01
        2   -1    0    0  501    0  0.00000000000E+00  0.00000000000E+00  0.56198894422E+03  0.56198894422E+03  0.25500000920E-02 0. -1.
       -2   -1    0    0    0  501  0.00000000000E+00  0.00000000000E+00 -0.21503837161E+03  0.21503837162E+03  0.25500000920E-02 0.  1.
    10030    2    1    2    0    0  0.00000000000E+00  0.00000000000E+00  0.34695057261E+03  0.77702731585E+03  0.69526739442E+03 0.  0.
        5    1    3    3  502    0  0.10264973392E+03  0.33108243393E+03  0.14444896617E+03  0.37555311177E+03  0.46999998093E+01 0.  1.
       -5    1    3    3    0  502 -0.10264973392E+03 -0.33108243393E+03  0.20250160643E+03  0.40147420408E+03  0.46999998093E+01 0. -1.
</event>
<event>
 5   0  0.3183963E-02  0.7041205E+03  0.7818609E-02  0.9710211E-01
       -2   -1    0    0    0  501  0.00000000000E+00  0.00000000000E+00  0.22233301809E+03  0.22233301811E+03  0.25500000920E-02 0.  1.
        2   -1    0    0  501    0  0.00000000000E+00  0.00000000000E+00 -0.55748099136E+03  0.55748099137E+03  0.25500000920E-02 0. -1.
    10030    2    1    2    0    0  0.00000000000E+00  0.00000000000E+00 -0.33514797327E+03  0.77981400948E+03  0.70412053328E+03 0.  0.
        4    1    3    3  502    0 -0.81309327881E+02 -0.15635106427E+03 -0.50511280666E+03  0.53497422597E+03  0.12699999809E+01 0. -1.
       -4    1    3    3    0  502  0.81309327881E+02  0.15635106427E+03  0.16996483339E+03  0.24483978351E+03  0.12699999809E+01 0.  1.
</event>
<event>
 5   0  0.3183963E-02  0.6890645E+03  0.7818609E-02  0.9736118E-01
       -2   -1    0    0    0  501  0.00000000000E+00  0.00000000000E+00  0.16053183059E+03  0.16053183061E+03  0.25500000920E-02 0.  1.
        2   -1    0    0  501    0  0.00000000000E+00  0.00000000000E+00 -0.73943254703E+03  0.73943254704E+03  0.25500000920E-02 0. -1.
    10030    2    1    2    0    0  0.00000000000E+00  0.00000000000E+00 -0.57890071644E+03  0.89996437765E+03  0.68906446834E+03 0.  0.
        4    1    3    3  502    0 -0.27945787139E+03  0.98930970662E+02 -0.60173989733E+02  0.30250051368E+03  0.12699999809E+01 0. -1.
       -4    1    3    3    0  502  0.27945787139E+03 -0.98930970662E+02 -0.51872672671E+03  0.59746386396E+03  0.12699999809E+01 0.  1.
</event>
<event>
 5   0  0.1839038E-02  0.6972309E+03  0.7818609E-02  0.9721979E-01
       -1   -1    0    0    0  501  0.00000000000E+00  0.00000000000E+00  0.11080104029E+03  0.11080104040E+03  0.50400001928E-02 0. -1.
        1   -1    0    0  501    0  0.00000000000E+00  0.00000000000E+00 -0.10968555089E+04  0.10968555089E+04  0.50400001928E-02 0.  1.
    10030    2    1    2    0    0  0.00000000000E+00  0.00000000000E+00 -0.98605446857E+03  0.12076565493E+04  0.69723089864E+03 0.  0.
        5    1    3    3  502    0  0.16227014673E+03 -0.28254430502E+03 -0.70760724795E+03  0.77903337038E+03  0.46999998093E+01 0.  1.
       -5    1    3    3    0  502 -0.16227014673E+03  0.28254430502E+03 -0.27844722062E+03  0.42862317889E+03  0.46999998093E+01 0. -1.
</event>
<event>
 5   0  0.3184443E-02  0.7003255E+03  0.7818609E-02  0.9716676E-01
       -2   -1    0    0    0  501  0.00000000000E+00  0.00000000000E+00  0.12826910814E+03  0.12826910817E+03  0.25500000920E-02 0.  1.
        2   -1    0    0  501    0  0.00000000000E+00  0.00000000000E+00 -0.95591174291E+03  0.95591174292E+03  0.25500000920E-02 0. -1.
    10030    2    1    2    0    0  0.00000000000E+00  0.00000000000E+00 -0.82764263477E+03  0.10841808511E+04  0.70032548645E+03 0.  0.
        3    1    3    3  502    0 -0.21066476618E+03 -0.73242094914E+02 -0.83172466776E+03  0.86110973827E+03  0.10100000352E+00 0. -1.
       -3    1    3    3    0  502  0.21066476618E+03  0.73242094914E+02  0.40820329943E+01  0.22307111282E+03  0.10100000352E+00 0.  1.
</event>
<event>
 5   0  0.2933851E-02  0.7017881E+03  0.7818609E-02  0.9714179E-01
        2   -1    0    0  501    0  0.00000000000E+00  0.00000000000E+00  0.12606796841E+04  0.12606796841E+04  0.25500000920E-02 0.  1.
       -2   -1    0    0    0  501  0.00000000000E+00  0.00000000000E+00 -0.97666880213E+02  0.97666880246E+02  0.25500000920E-02 0. -1.
    10030    2    1    2    0    0  0.00000000000E+00  0.00000000000E+00  0.11630128039E+04  0.13583465644E+04  0.70178814957E+03 0.  0.
        2    1    3    3  502    0 -0.28179168065E+03  0.14339484233E+03  0.28695895212E+03  0.42698251990E+03  0.25500000920E-02 0. -1.
       -2    1    3    3    0  502  0.28179168065E+03 -0.14339484233E+03  0.87605385179E+03  0.93136404448E+03  0.25500000920E-02 0.  1.
</event>
<event>
 5   0  0.1969818E-02  0.6936098E+03  0.7818609E-02  0.9728223E-01
        1   -1    0    0  501    0  0.00000000000E+00  0.00000000000E+00  0.96554547885E+03  0.96554547887E+03  0.50400001928E-02 0.  1.
       -1   -1    0    0    0  501  0.00000000000E+00  0.00000000000E+00 -0.12456547250E+03  0.12456547260E+03  0.50400001928E-02 0. -1.
    10030    2    1    2    0    0  0.00000000000E+00  0.00000000000E+00  0.84098000635E+03  0.10901109515E+04  0.69360977172E+03 0.  0.
        1    1    3    3  502    0  0.97797316473E+02  0.28221334213E+03  0.69749702749E+03  0.75875608002E+03  0.50400001928E-02 0.  1.
       -1    1    3    3    0  502 -0.97797316473E+02 -0.28221334213E+03  0.14348297886E+03  0.33135487145E+03  0.50400001928E-02 0. -1.
</event>
<event>
 5   0  0.3113940E-02  0.6801170E+03  0.7818609E-02  0.9751852E-01
        2   -1    0    0  501    0  0.00000000000E+00  0.00000000000E+00  0.17576117640E+04  0.17576117640E+04  0.25500000920E-02 0.  1.
       -2   -1    0    0    0  501  0.00000000000E+00  0.00000000000E+00 -0.65793701445E+02  0.65793701494E+02  0.25500000920E-02 0. -1.
    10030    2    1    2    0    0  0.00000000000E+00  0.00000000000E+00  0.16918180626E+04  0.18234054655E+04  0.68011700083E+03 0.  0.
        5    1    3    3  502    0 -0.30919809441E+03 -0.13942553207E+03  0.78163429669E+03  0.85206643188E+03  0.46999998093E+01 0. -1.
       -5    1    3    3    0  502  0.30919809441E+03  0.13942553207E+03  0.91018376588E+03  0.97133903363E+03  0.46999998093E+01 0.  1.
</event>
<event>
 5   0  0.2933851E-02  0.7059725E+03  0.7818609E-02  0.9707073E-01
       -2   -1    0    0    0  501  0.00000000000E+00  0.00000000000E+00  0.17704003590E+03  0.17704003592E+03  0.25500000920E-02 0.  1.
        2   -1    0    0  501    0  0.00000000000E+00  0.00000000000E+00 -0.70379162283E+03  0.70379162284E+03  0.25500000920E-02 0. -1.
    10030    2    1    2    0    0  0.00000000000E+00  0.00000000000E+00 -0.52675158693E+03  0.88083165876E+03  0.70597250424E+03 0.  0.
        2    1    3    3  502    0 -0.10315091331E+03  0.26353375328E+03 -0.52660237915E+03  0.59782958756E+03  0.25500000920E-02 0. -1.
       -2    1    3    3    0  502  0.10315091331E+03 -0.26353375328E+03 -0.14920777825E+00  0.28300207120E+03  0.25500000920E-02 0.  1.
</event>
<event>
 5   0  0.1969818E-02  0.6388449E+03  0.7818609E-02  0.9827939E-01
        1   -1    0    0  501    0  0.00000000000E+00  0.00000000000E+00  0.43199436363E+03  0.43199436366E+03  0.50400001928E-02 0. -1.
       -1   -1    0    0    0  501  0.00000000000E+00  0.00000000000E+00 -0.23618526885E+03  0.23618526891E+03  0.50400001928E-02 0.  1.
    10030    2    1    2    0    0  0.00000000000E+00  0.00000000000E+00  0.19580909477E+03  0.66817963257E+03  0.63884491059E+03 0.  0.
        1    1    3    3  502    0 -0.40398209180E+02 -0.21576762815E+03  0.34060048148E+03  0.40521151596E+03  0.50400001928E-02 0. -1.
       -1    1    3    3    0  502  0.40398209180E+02  0.21576762815E+03 -0.14479138670E+03  0.26296811660E+03  0.50400001928E-02 0.  1.
</event>
<event>
 5   0  0.3113940E-02  0.6997350E+03  0.7818609E-02  0.9717685E-01
       -2   -1    0    0    0  501  0.00000000000E+00  0.00000000000E+00  0.32357643936E+03  0.32357643937E+03  0.25500000920E-02 0. -1.
        2   -1    0    0  501    0  0.00000000000E+00  0.00000000000E+00 -0.37829474548E+03  0.37829474548E+03  0.25500000920E-02 0.  1.
    10030    2    1    2    0    0  0.00000000000E+00  0.00000000000E+00 -0.54718306120E+02  0.70187118485E+03  0.69973499777E+03 0.  0.
        5    1    3    3  502    0  0.16809588199E+03  0.84170859375E+02  0.26857410810E+03  0.32786445469E+03  0.46999998093E+01 0. -1.
       -5    1    3    3    0  502 -0.16809588199E+03 -0.84170859375E+02 -0.32329241422E+03  0.37400673016E+03  0.46999998093E+01 0.  1.
</event>
<event>
 5   0  0.1233912E-02  0.6998661E+03  0.7818609E-02  0.9717461E-01
        4   -1    0    0  501    0  0.00000000000E+00  0.00000000000E+00  0.24557111411E+03  0.24557439807E+03  0.12699999809E+01 0.  1.
       -4   -1    0    0    0  501  0.00000000000E+00  0.00000000000E+00 -0.49863898565E+03  0.49864060295E+03  0.12699999809E+01 0. -1.
    10030    2    1    2    0    0  0.00000000000E+00  0.00000000000E+00 -0.25306787154E+03  0.74421500102E+03  0.69986614444E+03 0.  0.
        4    1    3    3  502    0 -0.90744054834E+02 -0.13093739380E+03  0.20477370110E+03  0.25944742463E+03  0.12699999809E+01 0.  1.
       -4    1    3    3    0  502  0.90744054834E+02  0.13093739380E+03 -0.45784157264E+03  0.48476757639E+03  0.12699999809E+01 0. -1.
</event>
<event>
 5   0  0.3184443E-02  0.6934771E+03  0.7818609E-02  0.9728453E-01
        2   -1    0    0  501    0  0.00000000000E+00  0.00000000000E+00  0.68657400880E+02  0.68657400927E+02  0.25500000920E-02 0.  1.
       -2   -1    0    0    0  501  0.00000000000E+00  0.00000000000E+00 -0.17511240135E+04  0.17511240135E+04  0.25500000920E-02 0. -1.
    10030    2    1    2    0    0  0.00000000000E+00  0.00000000000E+00 -0.16824666126E+04  0.18197814144E+04  0.69347710396E+03 0.  0.
        3    1    3    3  502    0  0.85383140783E+02  0.10763616159E+03 -0.58172684767E+01  0.13751245334E+03  0.10100000352E+00 0.  1.
       -3    1    3    3    0  502 -0.85383140783E+02 -0.10763616159E+03 -0.16766493441E+04  0.16822689610E+04  0.10100000352E+00 0. -1.
</event>
<event>
 5   0  0.1233912E-02  0.6961309E+03  0.7818609E-02  0.9723872E-01
       -4   -1    0    0    0  501  0.00000000000E+00  0.00000000000E+00  0.50565233057E+03  0.50565392544E+03  0.12699999809E+01 0. -1.
        4   -1    0    0  501    0  0.00000000000E+00  0.00000000000E+00 -0.23958700018E+03  0.23959036615E+03  0.12699999809E+01 0.  1.
    10030    2    1    2    0    0  0.00000000000E+00  0.00000000000E+00  0.26606533039E+03  0.74524429159E+03  0.69613094610E+03 0.  0.
        5    1    3    3  502    0 -0.57485057974E+02 -0.34102616528E+03  0.91238530532E+02  0.35770090403E+03  0.46999998093E+01 0.  1.
       -5    1    3    3    0  502  0.57485057974E+02  0.34102616528E+03  0.17482679986E+03  0.38754338756E+03  0.46999998093E+01 0. -1.
</event>
<event>
 5   0  0.1839038E-02  0.6979120E+03  0.7818609E-02  0.9720810E-01
       -1   -1    0    0    0  501  0.00000000000E+00  0.00000000000E+00  0.82713420419E+03  0.82713420420E+03  0.50400001928E-02 0. -1.
        1   -1    0    0  501    0  0.00000000000E+00  0.00000000000E+00 -0.14721951415E+03  0.14721951424E+03  0.50400001928E-02 0.  1.
    10030    2    1    2    0    0  0.00000000000E+00  0.00000000000E+00  0.67991469003E+03  0.97435371844E+03  0.69791201661E+03 0.  0.
        5    1    3    3  502    0  0.43601064035E+02  0.24317676391E+03 -0.40391422326E+01  0.24713234502E+03  0.46999998093E+01 0.  1.
       -5    1    3    3    0  502 -0.43601064035E+02 -0.24317676391E+03  0.68395383226E+03  0.72722137342E+03  0.46999998093E+01 0. -1.
</event>
<event>
 5   0  0.2933851E-02  0.6738533E+03  0.7818609E-02  0.9763022E-01
        2   -1    0    0  501    0  0.00000000000E+00  0.00000000000E+00  0.85719313806E+03  0.85719313806E+03  0.25500000920E-02 0.  1.
       -2   -1    0    0    0  501  0.00000000000E+00  0.00000000000E+00 -0.13243171118E+03  0.13243171120E+03  0.25500000920E-02 0. -1.
    10030    2    1    2    0    0  0.00000000000E+00  0.00000000000E+00  0.72476142688E+03  0.98962484926E+03  0.67385326027E+03 0.  0.
        2    1    3    3  502    0 -0.26463358526E+03  0.17866881043E+03  0.52032294701E+03  0.61048296247E+03  0.25500000920E-02 0.  1.
       -2    1    3    3    0  502  0.26463358526E+03 -0.17866881043E+03  0.20443847987E+03  0.37914188680E+03  0.25500000920E-02 0. -1.
</event>
<event>
 5   0  0.3290656E-02  0.7039079E+03  0.7818609E-02  0.9710572E-01
       -2   -1    0    0    0  501  0.00000000000E+00  0.00000000000E+00  0.56133627748E+02  0.56133627806E+02  0.25500000920E-02 0. -1.
        2   -1    0    0  501    0  0.00000000000E+00  0.00000000000E+00 -0.22067269493E+04  0.22067269493E+04  0.25500000920E-02 0.  1.
    10030    2    1    2    0    0  0.00000000000E+00  0.00000000000E+00 -0.21505933215E+04  0.22628605771E+04  0.70390791778E+03 0.  0.
        1    1    3    3  502    0  0.31090460735E+03 -0.15531196225E+03 -0.12539405778E+04  0.13012111486E+04  0.50400001928E-02 0.  1.
       -1    1    3    3    0  502 -0.31090460735E+03  0.15531196225E+03 -0.89665274368E+03  0.96164942846E+03  0.50400001928E-02 0. -1.
</event>
<event>
 5   0  0.1858013E-02  0.7002568E+03  0.7818609E-02  0.9716793E-01
        1   -1    0    0  501    0  0.00000000000E+00  0.00000000000E+00  0.67322998354E+03  0.67322998356E+03  0.50400001928E-02 0.  1.
       -1   -1    0    0    0  501  0.00000000000E+00  0.00000000000E+00 -0.18209217450E+03  0.18209217457E+03  0.50400001928E-02 0. -1.
    10030    2    1    2    0    0  0.00000000000E+00  0.00000000000E+00  0.49113780904E+03  0.85532215813E+03  0.70025684339E+03 0.  0.
        2    1    3    3  502    0  0.14389830156E+03  0.25830483765E+03  0.47460710309E+03  0.55917797941E+03  0.25500000920E-02 0.  1.
       -2    1    3    3    0  502 -0.14389830156E+03 -0.25830483765E+03  0.16530705950E+02  0.29614417872E+03  0.25500000920E-02 0. -1.
</event>
<event>
 5   0  0.1884172E-02  0.6993971E+03  0.7818609E-02  0.9718264E-01
        1   -1    0    0  501    0  0.00000000000E+00  0.00000000000E+00  0.45629496504E+03  0.45629496507E+03  0.50400001928E-02 0.  1.
       -1   -1    0    0    0  501  0.00000000000E+00  0.00000000000E+00 -0.26800444383E+03  0.26800444388E+03  0.50400001928E-02 0. -1.
    10030    2    1    2    0    0  0.00000000000E+00  0.00000000000E+00  0.18829052121E+03  0.72429940894E+03  0.69939710710E+03 0.  0.
        3    1    3    3  502    0 -0.38437815854E+02  0.24230113289E+03  0.35222045643E+03  0.42923951917E+03  0.10100000352E+00 0.  1.
       -3    1    3    3    0  502  0.38437815854E+02 -0.24230113289E+03 -0.16392993523E+03  0.29505988977E+03  0.10100000352E+00 0. -1.
</event>
<event>
 5   0  0.2933851E-02  0.6932048E+03  0.7818609E-02  0.9728924E-01
       -2   -1    0    0    0  501  0.00000000000E+00  0.00000000000E+00  0.26853507175E+03  0.26853507176E+03  0.25500000920E-02 0. -1.
        2   -1    0    0  501    0  0.00000000000E+00  0.00000000000E+00 -0.44736517425E+03  0.44736517426E+03  0.25500000920E-02 0.  1.
    10030    2    1    2    0    0  0.00000000000E+00  0.00000000000E+00 -0.17883010251E+03  0.71590024602E+03  0.69320484468E+03 0.  0.
        2    1    3    3  502    0  0.31777079986E+03 -0.48800414623E+02 -0.22316772642E+03  0.39136120890E+03  0.25500000920E-02 0.  1.
       -2    1    3    3    0  502 -0.31777079986E+03  0.48800414623E+02  0.44337623911E+02  0.32453903712E+03  0.25500000920E-02 0. -1.
</event>
<event>
 5   0  0.1969818E-02  0.6843792E+03  0.7818609E-02  0.9744325E-01
       -1   -1    0    0    0  501  0.00000000000E+00  0.00000000000E+00  0.11579135234E+03  0.11579135245E+03  0.50400001928E-02 0.  1.
        1   -1    0    0  501    0  0.00000000000E+00  0.00000000000E+00 -0.10112475927E+04  0.10112475927E+04  0.50400001928E-02 0. -1.
    10030    2    1    2    0    0  0.00000000000E+00  0.00000000000E+00 -0.89545624032E+03  0.11270389451E+04  0.68437921176E+03 0.  0.
        1    1    3    3  502    0  0.30612976267E+03 -0.83202789719E+02 -0.65897915760E+03  0.73136288256E+03  0.50400001928E-02 0. -1.
       -1    1    3    3    0  502 -0.30612976267E+03  0.83202789719E+02 -0.23647708272E+03  0.39567606256E+03  0.50400001928E-02 0.  1.
</event>
<event>
 5   0  0.1969818E-02  0.7074150E+03  0.7818609E-02  0.9704635E-01
       -1   -1    0    0    0  501  0.00000000000E+00  0.00000000000E+00  0.38886420897E+03  0.38886420901E+03  0.50400001928E-02 0. -1.
        1   -1    0    0  501    0  0.00000000000E+00  0.00000000000E+00 -0.32172923995E+03  0.32172923999E+03  0.50400001928E-02 0.  1.
    10030    2    1    2    0    0  0.00000000000E+00  0.00000000000E+00  0.67134969026E+02  0.71059344899E+03  0.70741497417E+03 0.  0.
        1    1    3    3  502    0 -0.62056196200E+02 -0.27892092047E+03 -0.17584254741E+03  0.33551222462E+03  0.50400001928E-02 0.  1.
       -1    1    3    3    0  502  0.62056196200E+02  0.27892092047E+03  0.24297751643E+03  0.37508122438E+03  0.50400001928E-02 0. -1.
</event>
<event>
 5   0  0.1858013E-02  0.6960502E+03  0.7818609E-02  0.9724011E-01
        1   -1    0    0  501    0  0.00000000000E+00  0.00000000000E+00  0.78046946471E+03  0.78046946473E+03  0.50400001928E-02 0. -1.
       -1   -1    0    0    0  501  0.00000000000E+00  0.00000000000E+00 -0.15519054150E+03  0.15519054158E+03  0.50400001928E-02 0.  1.
    10030    2    1    2    0    0  0.00000000000E+00  0.00000000000E+00  0.62527892321E+03  0.93566000631E+03  0.69605022490E+03 0.  0.
        2    1    3    3  502    0 -0.78084244813E+02 -0.62325416427E+02 -0.13549922252E+03  0.16834977318E+03  0.25500000920E-02 0.  1.
       -2    1    3    3    0  502  0.78084244813E+02  0.62325416427E+02  0.76077814573E+03  0.76731023312E+03  0.25500000920E-02 0. -1.
</event>
<event>
 5   0  0.3183963E-02  0.6992874E+03  0.7818609E-02  0.9718452E-01
       -2   -1    0    0    0  501  0.00000000000E+00  0.00000000000E+00  0.54144336193E+03  0.54144336193E+03  0.25500000920E-02 0. -1.
        2   -1    0    0  501    0  0.00000000000E+00  0.00000000000E+00 -0.22578673544E+03  0.22578673545E+03  0.25500000920E-02 0.  1.
    10030    2    1    2    0    0  0.00000000000E+00  0.00000000000E+00  0.31565662649E+03  0.76723009738E+03  0.69928743481E+03 0.  0.
        4    1    3    3  502    0  0.11453817938E+03 -0.23897771374E+03 -0.92410192014E+02  0.28066100315E+03  0.12699999809E+01 0.  1.
       -4    1    3    3    0  502 -0.11453817938E+03  0.23897771374E+03  0.40806681851E+03  0.48656909423E+03  0.12699999809E+01 0. -1.
</event>
<event>
 5   0  0.1233912E-02  0.7014061E+03  0.7818609E-02  0.9714831E-01
       -4   -1    0    0    0  501  0.00000000000E+00  0.00000000000E+00  0.24933416354E+03  0.24933739793E+03  0.12699999809E+01 0.  1.
        4   -1    0    0  501    0  0.00000000000E+00  0.00000000000E+00 -0.49327707771E+03  0.49327871259E+03  0.12699999809E+01 0. -1.
    10030    2    1    2    0    0  0.00000000000E+00  0.00000000000E+00 -0.24394291418E+03  0.74261611053E+03  0.70140611791E+03 0.  0.
        4    1    3    3  502    0 -0.13918201134E+03  0.31995227961E+03 -0.84539932548E+02  0.35901212598E+03  0.12699999809E+01 0.  1.
       -4    1    3    3    0  502  0.13918201134E+03 -0.31995227961E+03 -0.15940298163E+03  0.38360398454E+03  0.12699999809E+01 0. -1.
</event>
<event>
 5   0  0.3183963E-02  0.6981616E+03  0.7818609E-02  0.9720381E-01
        2   -1    0    0  501    0  0.00000000000E+00  0.00000000000E+00  0.19134215202E+03  0.19134215204E+03  0.25500000920E-02 0. -1.
       -2   -1    0    0    0  501  0.00000000000E+00  0.00000000000E+00 -0.63685604490E+03  0.63685604490E+03  0.25500000920E-02 0.  1.
    10030    2    1    2    0    0  0.00000000000E+00  0.00000000000E+00 -0.44551389287E+03  0.82819819694E+03  0.69816160355E+03 0.  0.
        4    1    3    3  502    0 -0.30177034875E+02  0.11487576046E+03  0.16663264525E+03  0.20463417392E+03  0.12699999809E+01 0. -1.
       -4    1    3    3    0  502  0.30177034875E+02 -0.11487576046E+03 -0.61214653812E+03  0.62356402302E+03  0.12699999809E+01 0.  1.
</event>
<event>
 5   0  0.3290656E-02  0.6881523E+03  0.7818609E-02  0.9737711E-01
       -2   -1    0    0    0  501  0.00000000000E+00  0.00000000000E+00  0.24179336346E+03  0.24179336348E+03  0.25500000920E-02 0.  1.
        2   -1    0    0  501    0  0.00000000000E+00  0.00000000000E+00 -0.48962628444E+03  0.48962628444E+03  0.25500000920E-02 0. -1.
    10030    2    1    2    0    0  0.00000000000E+00  0.00000000000E+00 -0.24783292097E+03  0.73141964792E+03  0.68815226850E+03 0.  0.
        1    1    3    3  502    0  0.47849771528E+02 -0.45035095147E+02  0.23506249412E+03  0.24407403917E+03  0.50400001928E-02 0.  1.
       -1    1    3    3    0  502 -0.47849771528E+02  0.45035095147E+02 -0.48289541509E+03  0.48734560875E+03  0.50400001928E-02 0. -1.
</event>
<event>
 5   0  0.1233912E-02  0.6787817E+03  0.7818609E-02  0.9754223E-01
       -4   -1    0    0    0  501  0.00000000000E+00  0.00000000000E+00  0.21656340421E+03  0.21656712803E+03  0.12699999809E+01 0.  1.
        4   -1    0    0  501    0  0.00000000000E+00  0.00000000000E+00 -0.53187280707E+03  0.53187432331E+03  0.12699999809E+01 0. -1.
    10030    2    1    2    0    0  0.00000000000E+00  0.00000000000E+00 -0.31530940286E+03  0.74844145134E+03  0.67878169285E+03 0.  0.
        2    1    3    3  502    0  0.22658952228E+03 -0.97358672296E+02  0.99435725694E+02  0.26591161356E+03  0.25500000920E-02 0.  1.
       -2    1    3    3    0  502 -0.22658952228E+03  0.97358672296E+02 -0.41474512855E+03  0.48252983778E+03  0.25500000920E-02 0. -1.
</event>
<event>
 5   0  0.3184443E-02  0.7033150E+03  0.7818609E-02  0.9711580E-01
       -2   -1    0    0    0  501  0.00000000000E+00  0.00000000000E+00  0.14666096490E+03  0.14666096492E+03  0.25500000920E-02 0. -1.
        2   -1    0    0  501    0  0.00000000000E+00  0.00000000000E+00 -0.84318951527E+03  0.84318951527E+03  0.25500000920E-02 0.  1.
    10030    2    1    2    0    0  0.00000000000E+00  0.00000000000E+00 -0.69652855037E+03  0.98985048019E+03  0.70331497330E+03 0.  0.
        3    1    3    3  502    0 -0.62413982785E+02  0.77026677426E+02  0.12658570726E+03  0.16078733086E+03  0.10100000352E+00 0. -1.
       -3    1    3    3    0  502  0.62413982785E+02 -0.77026677426E+02 -0.82311425762E+03  0.82906314933E+03  0.10100000352E+00 0.  1.
</event>
<event>
 5   0  0.3183963E-02  0.7004113E+03  0.7818609E-02  0.9716529E-01
        2   -1    0    0  501    0  0.00000000000E+00  0.00000000000E+00  0.40052708437E+03  0.40052708437E+03  0.25500000920E-02 0.  1.
       -2   -1    0    0    0  501  0.00000000000E+00  0.00000000000E+00 -0.30620650605E+03  0.30620650606E+03  0.25500000920E-02 0. -1.
    10030    2    1    2    0    0  0.00000000000E+00  0.00000000000E+00  0.94320578316E+02  0.70673359044E+03  0.70041130513E+03 0.  0.
        4    1    3    3  502    0  0.12880449570E+03 -0.24652863581E+03 -0.16754059312E+03  0.32471284180E+03  0.12699999809E+01 0. -1.
       -4    1    3    3    0  502 -0.12880449570E+03  0.24652863581E+03  0.26186117143E+03  0.38202074864E+03  0.12699999809E+01 0.  1.
</event>
<event>
 5   0  0.1884172E-02  0.6644680E+03  0.7818609E-02  0.9780003E-01
       -1   -1    0    0    0  501  0.00000000000E+00  0.00000000000E+00  0.42138706424E+03  0.42138706428E+03  0.50400001928E-02 0.  1.
        1   -1    0    0  501    0  0.00000000000E+00  0.00000000000E+00 -0.26194309497E+03  0.26194309502E+03  0.50400001928E-02 0. -1.
    10030    2    1    2    0    0  0.00000000000E+00  0.00000000000E+00  0.15944396927E+03  0.68333015930E+03  0.66446800319E+03 0.  0.
        3    1    3    3  502    0  0.12530730608E+03 -0.92968611663E+02 -0.22192044257E+03  0.27128172946E+03  0.10100000352E+00 0. -1.
       -3    1    3    3    0  502 -0.12530730608E+03  0.92968611663E+02  0.38136441184E+03  0.41204842983E+03  0.10100000352E+00 0.  1.
</event>
<event>
 5   0  0.1858013E-02  0.6888219E+03  0.7818609E-02  0.9736542E-01
       -1   -1    0    0    0  501  0.00000000000E+00  0.00000000000E+00  0.39935591138E+03  0.39935591141E+03  0.50400001928E-02 0. -1.
        1   -1    0    0  501    0  0.00000000000E+00  0.00000000000E+00 -0.29702551861E+03  0.29702551865E+03  0.50400001928E-02 0.  1.
    10030    2    1    2    0    0  0.00000000000E+00  0.00000000000E+00  0.10233039277E+03  0.69638143007E+03  0.68882188326E+03 0.  0.
        2    1    3    3  502    0  0.29027495079E+03  0.54021217131E+02  0.23042743679E+03  0.37453256546E+03  0.25500000920E-02 0.  1.
       -2    1    3    3    0  502 -0.29027495079E+03 -0.54021217131E+02 -0.12809704401E+03  0.32184886461E+03  0.25500000920E-02 0. -1.
</event>
<event>
 5   0  0.1884172E-02  0.6999077E+03  0.7818609E-02  0.9717390E-01
        1   -1    0    0  501    0  0.00000000000E+00  0.00000000000E+00  0.68753987043E+03  0.68753987045E+03  0.50400001928E-02 0. -1.
       -1   -1    0    0    0  501  0.00000000000E+00  0.00000000000E+00 -0.17812449137E+03  0.17812449144E+03  0.50400001928E-02 0.  1.
    10030    2    1    2    0    0  0.00000000000E+00  0.00000000000E+00  0.50941537906E+03  0.86566436189E+03  0.69990767892E+03 0.  0.
        3    1    3    3  502    0  0.32035034114E+03  0.12349464872E+03  0.17089126747E+03  0.38350893709E+03  0.10100000352E+00 0. -1.
       -3    1    3    3    0  502 -0.32035034114E+03 -0.12349464872E+03  0.33852411159E+03  0.48215542480E+03  0.10100000352E+00 0.  1.
</event>
<event>
 5   0  0.3183963E-02  0.7045783E+03  0.7818609E-02  0.9709435E-01
       -2   -1    0    0    0  501  0.00000000000E+00  0.00000000000E+00  0.33534844911E+03  0.33534844912E+03  0.25500000920E-02 0.  1.
        2   -1    0    0  501    0  0.00000000000E+00  0.00000000000E+00 -0.37008561522E+03  0.37008561523E+03  0.25500000920E-02 0. -1.
    10030    2    1    2    0    0  0.00000000000E+00  0.00000000000E+00 -0.34737166108E+02  0.70543406434E+03  0.70457827701E+03 0.  0.
        4    1    3    3  502    0  0.34484838524E+03  0.42284665013E+02  0.40991344032E+02  0.34984325759E+03  0.12699999809E+01 0. -1.
       -4    1    3    3    0  502 -0.34484838524E+03 -0.42284665013E+02 -0.75728510139E+02  0.35559080675E+03  0.12699999809E+01 0.  1.
</event>
<event>
 5   0  0.1969818E-02  0.7145291E+03  0.7818609E-02  0.9692703E-01
        1   -1    0    0  501    0  0.00000000000E+00  0.00000000000E+00  0.82647938167E+03  0.82647938169E+03  0.50400001928E-02 0. -1.
       -1   -1    0    0    0  501  0.00000000000E+00  0.00000000000E+00 -0.15443572660E+03  0.15443572668E+03  0.50400001928E-02 0.  1.
    10030    2    1    2    0    0  0.00000000000E+00  0.00000000000E+00  0.67204365508E+03  0.98091510837E+03  0.71452905853E+03 0.  0.
        1    1    3    3  502    0 -0.23327357850E+03 -0.30473744669E+01 -0.35430381452E+02  0.23596855907E+03  0.50400001928E-02 0.  1.
       -1    1    3    3    0  502  0.23327357850E+03  0.30473744669E+01  0.70747403653E+03  0.74494654930E+03  0.50400001928E-02 0. -1.
</event>
<event>
 5   0  0.1839038E-02  0.7077979E+03  0.7818609E-02  0.9703989E-01
       -1   -1    0    0    0  501  0.00000000000E+00  0.00000000000E+00  0.74102892614E+03  0.74102892616E+03  0.50400001928E-02 0. -1.
        1   -1    0    0  501    0  0.00000000000E+00  0.00000000000E+00 -0.16901425387E+03  0.16901425395E+03  0.50400001928E-02 0.  1.
    10030    2    1    2    0    0  0.00000000000E+00  0.00000000000E+00  0.57201467227E+03  0.91004318011E+03  0.70779785558E+03 0.  0.
        5    1    3    3  502    0 -0.21887121413E+03  0.17268472195E+03  0.57937245577E+01  0.27889115944E+03  0.46999998093E+01 0.  1.
       -5    1    3    3    0  502  0.21887121413E+03 -0.17268472195E+03  0.56622094772E+03  0.63115202067E+03  0.46999998093E+01 0. -1.
</event>
<event>
 5   0  0.1969818E-02  0.6645833E+03  0.7818609E-02  0.9779793E-01
       -1   -1    0    0    0  501  0.00000000000E+00  0.00000000000E+00  0.19561061830E+03  0.19561061836E+03  0.50400001928E-02 0. -1.
        1   -1    0    0  501    0  0.00000000000E+00  0.00000000000E+00 -0.56447723744E+03  0.56447723746E+03  0.50400001928E-02 0.  1.
    10030    2    1    2    0    0  0.00000000000E+00  0.00000000000E+00 -0.36886661914E+03  0.76008785582E+03  0.66458330242E+03 0.  0.
        1    1    3    3  502    0 -0.19768379088E+03  0.26057788783E+03 -0.25149412967E+03  0.41258818947E+03  0.50400001928E-02 0.  1.
       -1    1    3    3    0  502  0.19768379088E+03 -0.26057788783E+03 -0.11737248947E+03  0.34749966635E+03  0.50400001928E-02 0. -1.
</event>
<event>
 5   0  0.1858013E-02  0.6965479E+03  0.7818609E-02  0.9723154E-01
        1   -1    0    0  501    0  0.00000000000E+00  0.00000000000E+00  0.49047303263E+03  0.49047303266E+03  0.50400001928E-02 0. -1.
       -1   -1    0    0    0  501  0.00000000000E+00  0.00000000000E+00 -0.24730156982E+03  0.24730156987E+03  0.50400001928E-02 0.  1.
    10030    2    1    2    0    0  0.00000000000E+00  0.00000000000E+00  0.24317146281E+03  0.73777460253E+03  0.69654791925E+03 0.  0.
        2    1    3    3  502    0 -0.19325390774E+03 -0.19579910893E+03  0.34779197108E+03  0.44344517030E+03  0.25500000920E-02 0. -1.
       -2    1    3    3    0  502  0.19325390774E+03  0.19579910893E+03 -0.10462050826E+03  0.29432943222E+03  0.25500000920E-02 0.  1.
</event>
<event>
 5   0  0.3113940E-02  0.7131161E+03  0.7818609E-02  0.9695061E-01
       -2   -1    0    0    0  501  0.00000000000E+00  0.00000000000E+00  0.69467440942E+03  0.69467440943E+03  0.25500000920E-02 0.  1.
        2   -1    0    0  501    0  0.00000000000E+00  0.00000000000E+00 -0.18301182877E+03  0.18301182879E+03  0.25500000920E-02 0. -1.
    10030    2    1    2    0    0  0.00000000000E+00  0.00000000000E+00  0.51166258065E+03  0.87768623822E+03  0.71311607493E+03 0.  0.
        5    1    3    3  502    0 -0.31056384759E+02  0.25846099538E+03  0.55565845596E+03  0.61363262205E+03  0.46999998093E+01 0.  1.
       -5    1    3    3    0  502  0.31056384759E+02 -0.25846099538E+03 -0.43995875314E+02  0.26405361617E+03  0.46999998093E+01 0. -1.
</event>
<event>
 5   0  0.3183963E-02  0.6991844E+03  0.7818609E-02  0.9718628E-01
       -2   -1    0    0    0  501  0.00000000000E+00  0.00000000000E+00  0.16217266481E+03  0.16217266483E+03  0.25500000920E-02 0. -1.
        2   -1    0    0  501    0  0.00000000000E+00  0.00000000000E+00 -0.75360857937E+03  0.75360857938E+03  0.25500000920E-02 0.  1.
    10030    2    1    2    0    0  0.00000000000E+00  0.00000000000E+00 -0.59143591456E+03  0.91578124421E+03  0.69918441503E+03 0.  0.
        4    1    3    3  502    0  0.25519872894E+03  0.17857368714E+03 -0.50363222668E+03  0.59216719400E+03  0.12699999809E+01 0. -1.
       -4    1    3    3    0  502 -0.25519872894E+03 -0.17857368714E+03 -0.87803687877E+02  0.32361405022E+03  0.12699999809E+01 0.  1.
</event>
<event>
 5   0  0.1884172E-02  0.6942520E+03  0.7818609E-02  0.9727113E-01
       -1   -1    0    0    0  501  0.00000000000E+00  0.00000000000E+00  0.10775072995E+03  0.10775073007E+03  0.50400001928E-02 0.  1.
        1   -1    0    0  501    0  0.00000000000E+00  0.00000000000E+00 -0.11182891141E+04  0.11182891141E+04  0.50400001928E-02 0. -1.
    10030    2    1    2    0    0  0.00000000000E+00  0.00000000000E+00 -0.10105383842E+04  0.12260398442E+04  0.69425202461E+03 0.  0.
        3    1    3    3  502    0  0.21966315298E+03 -0.12102449547E+03 -0.92909727731E+03  0.96235159385E+03  0.10100000352E+00 0. -1.
       -3    1    3    3    0  502 -0.21966315298E+03  0.12102449547E+03 -0.81441106848E+02  0.26368825034E+03  0.10100000352E+00 0.  1.
</event>
<event>
 5   0  0.1858013E-02  0.7044327E+03  0.7818609E-02  0.9709682E-01
       -1   -1    0    0    0  501  0.00000000000E+00  0.00000000000E+00  0.14218076355E+04  0.14218076355E+04  0.50400001928E-02 0.  1.
        1   -1    0    0  501    0  0.00000000000E+00  0.00000000000E+00 -0.87252558844E+02  0.87252558990E+02  0.50400001928E-02 0. -1.
    10030    2    1    2    0    0  0.00000000000E+00  0.00000000000E+00  0.13345550766E+04  0.15090601945E+04  0.70443269230E+03 0.  0.
        2    1    3    3  502    0 -0.21310550250E+03 -0.28758815724E+02  0.69692601611E+02  0.22604885181E+03  0.25500000920E-02 0. -1.
       -2    1    3    3    0  502  0.21310550250E+03  0.28758815724E+02  0.12648624750E+04  0.12830113426E+04  0.25500000920E-02 0.  1.
</event>
<event>
 5   0  0.2933851E-02  0.6975716E+03  0.7818609E-02  0.9721394E-01
        2   -1    0    0  501    0  0.00000000000E+00  0.00000000000E+00  0.26503724553E+03  0.26503724554E+03  0.25500000920E-02 0.  1.
       -2   -1    0    0    0  501  0.00000000000E+00  0.00000000000E+00 -0.45899785236E+03  0.45899785237E+03  0.25500000920E-02 0. -1.
    10030    2    1    2    0    0  0.00000000000E+00  0.00000000000E+00 -0.19396060683E+03  0.72403509790E+03  0.69757157769E+03 0.  0.
        2    1    3    3  502    0 -0.32468856179E+03  0.11121681622E+03 -0.32497082231E+02  0.34474324174E+03  0.25500000920E-02 0.  1.
       -2    1    3    3    0  502  0.32468856179E+03 -0.11121681622E+03 -0.16146352460E+03  0.37929185616E+03  0.25500000920E-02 0. -1.
</event>
<event>
 5   0  0.1969818E-02  0.6956099E+03  0.7818609E-02  0.9724769E-01
       -1   -1    0    0    0  501  0.00000000000E+00  0.00000000000E+00  0.19160017559E+03  0.19160017566E+03  0.50400001928E-02 0.  1.
        1   -1    0    0  501    0  0.00000000000E+00  0.00000000000E+00 -0.63135784068E+03  0.63135784070E+03  0.50400001928E-02 0. -1.
    10030    2    1    2    0    0  0.00000000000E+00  0.00000000000E+00 -0.43975766509E+03  0.82295801636E+03  0.69560987104E+03 0.  0.
        1    1    3    3  502    0  0.32077947863E+03  0.12141961410E+03 -0.28810925556E+03  0.44793876787E+03  0.50400001928E-02 0. -1.
       -1    1    3    3    0  502 -0.32077947863E+03 -0.12141961410E+03 -0.15164840954E+03  0.37501924849E+03  0.50400001928E-02 0.  1.
</event>
<event>
 5   0  0.3290656E-02  0.6947740E+03  0.7818609E-02  0.9726211E-01
       -2   -1    0    0    0  501  0.00000000000E+00  0.00000000000E+00  0.19164270626E+03  0.19164270628E+03  0.25500000920E-02 0. -1.
        2   -1    0    0  501    0  0.00000000000E+00  0.00000000000E+00 -0.62970161643E+03  0.62970161644E+03  0.25500000920E-02 0.  1.
    10030    2    1    2    0    0  0.00000000000E+00  0.00000000000E+00 -0.43805891017E+03  0.82134432272E+03  0.69477398317E+03 0.  0.
        1    1    3    3  502    0 -0.19732824204E+02 -0.32896966230E+03 -0.89166061973E+02  0.34141032454E+03  0.50400001928E-02 0. -1.
       -1    1    3    3    0  502  0.19732824204E+02  0.32896966230E+03 -0.34889284820E+03  0.47993399819E+03  0.50400001928E-02 0.  1.
</event>
<event>
 5   0  0.1951465E-02  0.6978276E+03  0.7818609E-02  0.9720954E-01
       -1   -1    0    0    0  501  0.00000000000E+00  0.00000000000E+00  0.69722378719E+02  0.69722378901E+02  0.50400001928E-02 0.  1.
        1   -1    0    0  501    0  0.00000000000E+00  0.00000000000E+00 -0.17460798763E+04  0.17460798763E+04  0.50400001928E-02 0. -1.
    10030    2    1    2    0    0  0.00000000000E+00  0.00000000000E+00 -0.16763574975E+04  0.18158022552E+04  0.69782760787E+03 0.  0.
        4    1    3    3  502    0  0.31974646762E+03  0.51213364489E+01 -0.12013080928E+04  0.12431439089E+04  0.12699999809E+01 0. -1.
       -4    1    3    3    0  502 -0.31974646762E+03 -0.51213364489E+01 -0.47504940475E+03  0.57265834622E+03  0.12699999809E+01 0.  1.
</event>
<event>
 5   0  0.1969818E-02  0.7002933E+03  0.7818609E-02  0.9716731E-01
       -1   -1    0    0    0  501  0.00000000000E+00  0.00000000000E+00  0.17271546585E+03  0.17271546592E+03  0.50400001928E-02 0. -1.
        1   -1    0    0  501    0  0.00000000000E+00  0.00000000000E+00 -0.70985350590E+03  0.70985350592E+03  0.50400001928E-02 0.  1.
    10030    2    1    2    0    0  0.00000000000E+00  0.00000000000E+00 -0.53713804005E+03  0.88256897184E+03  0.70029330711E+03 0.  0.
        1    1    3    3  502    0 -0.31963225320E+03 -0.14474786656E+02 -0.44781493015E+03  0.55037487990E+03  0.50400001928E-02 0.  1.
       -1    1    3    3    0  502  0.31963225320E+03  0.14474786656E+02 -0.89323109901E+02  0.33219409194E+03  0.50400001928E-02 0. -1.
</event>
<event>
 5   0  0.3113940E-02  0.6957785E+03  0.7818609E-02  0.9724479E-01
       -2   -1    0    0    0  501  0.00000000000E+00  0.00000000000E+00  0.14087867186E+04  0.14087867186E+04  0.25500000920E-02 0.  1.
        2   -1    0    0  501    0  0.00000000000E+00  0.00000000000E+00 -0.85908616995E+02  0.85908617033E+02  0.25500000920E-02 0. -1.
    10030    2    1    2    0    0  0.00000000000E+00  0.00000000000E+00  0.13228781016E+04  0.14946953356E+04  0.69577846666E+03 0.  0.
        5    1    3    3  502    0  0.20899760942E+03  0.26127154834E+03  0.86593931196E+03  0.92834034961E+03  0.46999998093E+01 0.  1.
       -5    1    3    3    0  502 -0.20899760942E+03 -0.26127154834E+03  0.45693878965E+03  0.56635498603E+03  0.46999998093E+01 0. -1.
</event>
<event>
 5   0  0.1839038E-02  0.7043047E+03  0.7818609E-02  0.9709899E-01
        1   -1    0    0  501    0  0.00000000000E+00  0.00000000000E+00  0.62704031525E+03  0.62704031527E+03  0.50400001928E-02 0.  1.
       -1   -1    0    0    0  501  0.00000000000E+00  0.00000000000E+00 -0.19777240572E+03  0.19777240578E+03  0.50400001928E-02 0. -1.
    10030    2    1    2    0    0  0.00000000000E+00  0.00000000000E+00  0.42926790953E+03  0.82481272105E+03  0.70430468311E+03 0.  0.
        5    1    3    3  502    0  0.14720675327E+03 -0.19078506451E+03 -0.86046177655E+02  0.25591952589E+03  0.46999998093E+01 0. -1.
       -5    1    3    3    0  502 -0.14720675327E+03  0.19078506451E+03  0.51531408719E+03  0.56889319516E+03  0.46999998093E+01 0.  1.
</event>
<event>
 5   0  0.3184443E-02  0.7147075E+03  0.7818609E-02  0.9692406E-01
        2   -1    0    0  501    0  0.00000000000E+00  0.00000000000E+00  0.44960520934E+03  0.44960520935E+03  0.25500000920E-02 0. -1.
       -2   -1    0    0    0  501  0.00000000000E+00  0.00000000000E+00 -0.28403074500E+03  0.28403074501E+03  0.25500000920E-02 0.  1.
    10030    2    1    2    0    0  0.00000000000E+00  0.00000000000E+00  0.16557446434E+03  0.73363595436E+03  0.71470749981E+03 0.  0.
        3    1    3    3  502    0  0.31537590242E+03  0.16085649762E+03  0.13270561059E+03  0.37808406729E+03  0.10100000352E+00 0. -1.
       -3    1    3    3    0  502 -0.31537590242E+03 -0.16085649762E+03  0.32868853750E+02  0.35555188707E+03  0.10100000352E+00 0.  1.
</event>
<event>
 5   0  0.3183963E-02  0.7016644E+03  0.7818609E-02  0.9714390E-01
       -2   -1    0    0    0  501  0.00000000000E+00  0.00000000000E+00  0.90634520202E+02  0.90634520238E+02  0.25500000920E-02 0. -1.
        2   -1    0    0  501    0  0.00000000000E+00  0.00000000000E+00 -0.13580171891E+04  0.13580171891E+04  0.25500000920E-02 0.  1.
    10030    2    1    2    0    0  0.00000000000E+00  0.00000000000E+00 -0.12673826689E+04  0.14486517093E+04  0.70166441091E+03 0.  0.
        4    1    3    3  502    0 -0.32092884438E+03 -0.11597218138E+02 -0.34206574593E+03  0.46919122547E+03  0.12699999809E+01 0. -1.
       -4    1    3    3    0  502  0.32092884438E+03  0.11597218138E+02 -0.92531692292E+03  0.97946048382E+03  0.12699999809E+01 0.  1.
</event>
<event>
 5   0  0.3184443E-02  0.7041362E+03  0.7818609E-02  0.9710185E-01
        2   -1    0    0  501    0  0.00000000000E+00  0.00000000000E+00  0.50941742044E+03  0.50941742045E+03  0.25500000920E-02 0.  1.
       -2   -1    0    0    0  501  0.00000000000E+00  0.00000000000E+00 -0.24332100723E+03  0.24332100724E+03  0.25500000920E-02 0. -1.
    10030    2    1    2    0    0  0.00000000000E+00  0.00000000000E+00  0.26609641321E+03  0.75273842770E+03  0.70413623639E+03 0.  0.
        3    1    3    3  502    0  0.50661953849E+02 -0.95886623468E+02 -0.22502064293E+03  0.24979026817E+03  0.10100000352E+00 0. -1.
       -3    1    3    3    0  502 -0.50661953849E+02  0.95886623468E+02  0.49111705615E+03  0.50294815952E+03  0.10100000352E+00 0.  1.
</event>
<event>
 5   0  0.3290656E-02  0.7017309E+03  0.7818609E-02  0.9714277E-01
       -2   -1    0    0    0  501  0.00000000000E+00  0.00000000000E+00  0.14845941386E+03  0.14845941388E+03  0.25500000920E-02 0.  1.
        2   -1    0    0  501    0  0.00000000000E+00  0.00000000000E+00 -0.82922705900E+03  0.82922705901E+03  0.25500000920E-02 0. -1.
    10030    2    1    2    0    0  0.00000000000E+00  0.00000000000E+00 -0.68076764514E+03  0.97768647289E+03  0.70173089756E+03 0.  0.
        1    1    3    3  502    0  0.23940236272E+02  0.34799413852E+03 -0.39313462040E+03  0.52557386269E+03  0.50400001928E-02 0. -1.
       -1    1    3    3    0  502 -0.23940236272E+02 -0.34799413852E+03 -0.28763302474E+03  0.45211261020E+03  0.50400001928E-02 0.  1.
</event>
<event>
 5   0  0.1858013E-02  0.6970054E+03  0.7818609E-02  0.9722367E-01
        1   -1    0    0  501    0  0.00000000000E+00  0.00000000000E+00  0.87357824214E+03  0.87357824216E+03  0.50400001928E-02 0. -1.
       -1   -1    0    0    0  501  0.00000000000E+00  0.00000000000E+00 -0.13903064561E+03  0.13903064570E+03  0.50400001928E-02 0.  1.
    10030    2    1    2    0    0  0.00000000000E+00  0.00000000000E+00  0.73454759653E+03  0.10126088879E+04  0.69700544344E+03 0.  0.
        2    1    3    3  502    0  0.34356982822E+03  0.54702612243E+02  0.39710201040E+03  0.52794186169E+03  0.25500000920E-02 0. -1.
       -2    1    3    3    0  502 -0.34356982822E+03 -0.54702612243E+02  0.33744558613E+03  0.48466702617E+03  0.25500000920E-02 0.  1.
</event>
<event>
 5   0  0.1951465E-02  0.7031271E+03  0.7818609E-02  0.9711899E-01
        1   -1    0    0  501    0  0.00000000000E+00  0.00000000000E+00  0.66846399139E+03  0.66846399141E+03  0.50400001928E-02 0. -1.
       -1   -1    0    0    0  501  0.00000000000E+00  0.00000000000E+00 -0.18489689254E+03  0.18489689261E+03  0.50400001928E-02 0.  1.
    10030    2    1    2    0    0  0.00000000000E+00  0.00000000000E+00  0.48356709885E+03  0.85336088402E+03  0.70312705772E+03 0.  0.
        4    1    3    3  502    0  0.58409707469E+01 -0.24795959903E+03  0.54417190195E+03  0.59803240001E+03  0.12699999809E+01 0. -1.
       -4    1    3    3    0  502 -0.58409707469E+01  0.24795959903E+03 -0.60604803101E+02  0.25532848401E+03  0.12699999809E+01 0.  1.
</event>
<event>
 5   0  0.3113940E-02  0.6990295E+03  0.7818609E-02  0.9718893E-01
        2   -1    0    0  501    0  0.00000000000E+00  0.00000000000E+00  0.17711240990E+04  0.17711240990E+04  0.25500000920E-02 0.  1.
       -2   -1    0    0    0  501  0.00000000000E+00  0.00000000000E+00 -0.68973463149E+02  0.68973463196E+02  0.25500000920E-02 0. -1.
    10030    2    1    2    0    0  0.00000000000E+00  0.00000000000E+00  0.17021506359E+04  0.18400975622E+04  0.69902950673E+03 0.  0.
        5    1    3    3  502    0  0.17623823797E+03  0.32274219586E+02  0.61205200925E+02  0.18939299984E+03  0.46999998093E+01 0. -1.
       -5    1    3    3    0  502 -0.17623823797E+03 -0.32274219586E+02  0.16409454349E+04  0.16507045624E+04  0.46999998093E+01 0.  1.
</event>
<event>
 5   0  0.1969818E-02  0.6999910E+03  0.7818609E-02  0.9717248E-01
        1   -1    0    0  501    0  0.00000000000E+00  0.00000000000E+00  0.10242689077E+04  0.10242689078E+04  0.50400001928E-02 0.  1.
       -1   -1    0    0    0  501  0.00000000000E+00  0.00000000000E+00 -0.11959442718E+03  0.11959442729E+03  0.50400001928E-02 0. -1.
    10030    2    1    2    0    0  0.00000000000E+00  0.00000000000E+00  0.90467448056E+03  0.11438633350E+04  0.69999100957E+03 0.  0.
        1    1    3    3  502    0 -0.91764643927E+02 -0.29890501407E+03  0.19535069657E+03  0.36868258975E+03  0.50400001928E-02 0.  1.
       -1    1    3    3    0  502  0.91764643927E+02  0.29890501407E+03  0.70932378399E+03  0.77518074529E+03  0.50400001928E-02 0. -1.
</event>
<event>
 5   0  0.1951465E-02  0.6967038E+03  0.7818609E-02  0.9722886E-01
       -1   -1    0    0    0  501  0.00000000000E+00  0.00000000000E+00  0.10265059204E+03  0.10265059216E+03  0.50400001928E-02 0.  1.
        1   -1    0    0  501    0  0.00000000000E+00  0.00000000000E+00 -0.11821563382E+04  0.11821563382E+04  0.50400001928E-02 0. -1.
    10030    2    1    2    0    0  0.00000000000E+00  0.00000000000E+00 -0.10795057462E+04  0.12848069304E+04  0.69670380530E+03 0.  0.
        4    1    3    3  502    0  0.23576902313E+03  0.25485413080E+03 -0.48727552852E+03  0.59831155250E+03  0.12699999809E+01 0.  1.
       -4    1    3    3    0  502 -0.23576902313E+03 -0.25485413080E+03 -0.59223021763E+03  0.68649537787E+03  0.12699999809E+01 0. -1.
</event>
<event>
 5   0  0.1839038E-02  0.7029674E+03  0.7818609E-02  0.9712171E-01
       -1   -1    0    0    0  501  0.00000000000E+00  0.00000000000E+00  0.63809091278E+02  0.63809091477E+02  0.50400001928E-02 0.  1.
        1   -1    0    0  501    0  0.00000000000E+00  0.00000000000E+00 -0.19361001064E+04  0.19361001064E+04  0.50400001928E-02 0. -1.
    10030    2    1    2    0    0  0.00000000000E+00  0.00000000000E+00 -0.18722910151E+04  0.19999091979E+04  0.70296739218E+03 0.  0.
        5    1    3    3  502    0  0.10101271127E+03  0.33226181367E+03 -0.10898050504E+04  0.11438088208E+04  0.46999998093E+01 0. -1.
       -5    1    3    3    0  502 -0.10101271127E+03 -0.33226181367E+03 -0.78248596475E+03  0.85610037711E+03  0.46999998093E+01 0.  1.
</event>
<event>
 5   0  0.3183963E-02  0.6819222E+03  0.7818609E-02  0.9748657E-01
       -2   -1    0    0    0  501  0.00000000000E+00  0.00000000000E+00  0.21556901357E+03  0.21556901359E+03  0.25500000920E-02 0.  1.
        2   -1    0    0  501    0  0.00000000000E+00  0.00000000000E+00 -0.53929122837E+03  0.53929122837E+03  0.25500000920E-02 0. -1.
    10030    2    1    2    0    0  0.00000000000E+00  0.00000000000E+00 -0.32372221479E+03  0.75486024196E+03  0.68192221884E+03 0.  0.
        4    1    3    3  502    0  0.25557082628E+03 -0.13161963938E+03  0.41086219919E+02  0.29039605211E+03  0.12699999809E+01 0.  1.
       -4    1    3    3    0  502 -0.25557082628E+03  0.13161963938E+03 -0.36480843471E+03  0.46446418985E+03  0.12699999809E+01 0. -1.
</event>
<event>
 5   0  0.1969818E-02  0.7750967E+03  0.7818609E-02  0.9596780E-01
        1   -1    0    0  501    0  0.00000000000E+00  0.00000000000E+00  0.17695231947E+03  0.17695231955E+03  0.50400001928E-02 0. -1.
       -1   -1    0    0    0  501  0.00000000000E+00  0.00000000000E+00 -0.84878069887E+03  0.84878069888E+03  0.50400001928E-02 0.  1.
    10030    2    1    2    0    0  0.00000000000E+00  0.00000000000E+00 -0.67182837940E+03  0.10257330184E+04  0.77509667380E+03 0.  0.
        1    1    3    3  502    0  0.70195502646E+02 -0.35971620027E+03 -0.50262915611E+03  0.62206046485E+03  0.50400001928E-02 0. -1.
       -1    1    3    3    0  502 -0.70195502646E+02  0.35971620027E+03 -0.16919922329E+03  0.40367255358E+03  0.50400001928E-02 0.  1.
</event>
<event>
 5   0  0.2933851E-02  0.7007656E+03  0.7818609E-02  0.9715924E-01
       -2   -1    0    0    0  501  0.00000000000E+00  0.00000000000E+00  0.85092945446E+02  0.85092945484E+02  0.25500000920E-02 0. -1.
        2   -1    0    0  501    0  0.00000000000E+00  0.00000000000E+00 -0.14427531925E+04  0.14427531925E+04  0.25500000920E-02 0.  1.
    10030    2    1    2    0    0  0.00000000000E+00  0.00000000000E+00 -0.13576602471E+04  0.15278461380E+04  0.70076563481E+03 0.  0.
        2    1    3    3  502    0  0.13406202936E+03 -0.28443664569E+03 -0.34183269685E+03  0.46446358928E+03  0.25500000920E-02 0. -1.
       -2    1    3    3    0  502 -0.13406202936E+03  0.28443664569E+03 -0.10158275502E+04  0.10633825487E+04  0.25500000920E-02 0.  1.
</event>
<event>
 5   0  0.3113940E-02  0.7043413E+03  0.7818609E-02  0.9709837E-01
       -2   -1    0    0    0  501  0.00000000000E+00  0.00000000000E+00  0.44940379404E+03  0.44940379404E+03  0.25500000920E-02 0. -1.
        2   -1    0    0  501    0  0.00000000000E+00  0.00000000000E+00 -0.27597490403E+03  0.27597490405E+03  0.25500000920E-02 0.  1.
    10030    2    1    2    0    0  0.00000000000E+00  0.00000000000E+00  0.17342889000E+03  0.72537869809E+03  0.70434130630E+03 0.  0.
        5    1    3    3  502    0  0.20171724332E+03 -0.15377640611E+03  0.33827447755E+03  0.42283417730E+03  0.46999998093E+01 0. -1.
       -5    1    3    3    0  502 -0.20171724332E+03  0.15377640611E+03 -0.16484558755E+03  0.30254452079E+03  0.46999998093E+01 0.  1.
</event>
<event>
 5   0  0.1884172E-02  0.7018411E+03  0.7818609E-02  0.9714089E-01
        1   -1    0    0  501    0  0.00000000000E+00  0.00000000000E+00  0.59840553872E+03  0.59840553874E+03  0.50400001928E-02 0.  1.
       -1   -1    0    0    0  501  0.00000000000E+00  0.00000000000E+00 -0.20578892474E+03  0.20578892480E+03  0.50400001928E-02 0. -1.
    10030    2    1    2    0    0  0.00000000000E+00  0.00000000000E+00  0.39261661398E+03  0.80419446355E+03  0.70184109998E+03 0.  0.
        3    1    3    3  502    0 -0.33071545122E+03  0.99865248731E+02  0.12567942341E+03  0.36761543119E+03  0.10100000352E+00 0.  1.
       -3    1    3    3    0  502  0.33071545122E+03 -0.99865248731E+02  0.26693719058E+03  0.43657903236E+03  0.10100000352E+00 0. -1.
</event>
<event>
 5   0  0.1233912E-02  0.6963056E+03  0.7818609E-02  0.9723571E-01
       -3   -1    0    0    0  501  0.00000000000E+00  0.00000000000E+00  0.38795488842E+03  0.38795490157E+03  0.10100000352E+00 0. -1.
        3   -1    0    0  501    0  0.00000000000E+00  0.00000000000E+00 -0.31243416010E+03  0.31243417643E+03  0.10100000352E+00 0.  1.
    10030    2    1    2    0    0  0.00000000000E+00  0.00000000000E+00  0.75520728319E+02  0.70038907800E+03  0.69630559395E+03 0.  0.
        1    1    3    3  502    0  0.15445308264E+03 -0.11430296773E+03 -0.25426870401E+03  0.31870597270E+03  0.50400001928E-02 0.  1.
       -1    1    3    3    0  502 -0.15445308264E+03  0.11430296773E+03  0.32978943233E+03  0.38168310530E+03  0.50400001928E-02 0. -1.
</event>
<event>
 5   0  0.1839038E-02  0.7048573E+03  0.7818609E-02  0.9708961E-01
        1   -1    0    0  501    0  0.00000000000E+00  0.00000000000E+00  0.24508385242E+04  0.24508385242E+04  0.50400001928E-02 0.  1.
       -1   -1    0    0    0  501  0.00000000000E+00  0.00000000000E+00 -0.50678958079E+02  0.50678958330E+02  0.50400001928E-02 0. -1.
    10030    2    1    2    0    0  0.00000000000E+00  0.00000000000E+00  0.24001595661E+04  0.25015174825E+04  0.70485727107E+03 0.  0.
        5    1    3    3  502    0 -0.51052996762E+02  0.99567583582E+02  0.23860081164E+04  0.23886349520E+04  0.46999998093E+01 0.  1.
       -5    1    3    3    0  502  0.51052996762E+02 -0.99567583582E+02  0.14151449702E+02  0.11288253056E+03  0.46999998093E+01 0. -1.
</event>
<event>
 5   0  0.2933851E-02  0.6897505E+03  0.7818609E-02  0.9734923E-01
        2   -1    0    0  501    0  0.00000000000E+00  0.00000000000E+00  0.63174849515E+03  0.63174849516E+03  0.25500000920E-02 0.  1.
       -2   -1    0    0    0  501  0.00000000000E+00  0.00000000000E+00 -0.18826942933E+03  0.18826942935E+03  0.25500000920E-02 0. -1.
    10030    2    1    2    0    0  0.00000000000E+00  0.00000000000E+00  0.44347906583E+03  0.82001792451E+03  0.68975047277E+03 0.  0.
        2    1    3    3  502    0  0.20268039133E+03  0.13552945756E+03 -0.68233936417E+02  0.25318658136E+03  0.25500000920E-02 0. -1.
       -2    1    3    3    0  502 -0.20268039133E+03 -0.13552945756E+03  0.51171300224E+03  0.56683134314E+03  0.25500000920E-02 0.  1.
</event>
<event>
 5   0  0.1951465E-02  0.7010469E+03  0.7818609E-02  0.9715444E-01
        1   -1    0    0  501    0  0.00000000000E+00  0.00000000000E+00  0.72211613369E+03  0.72211613371E+03  0.50400001928E-02 0.  1.
       -1   -1    0    0    0  501  0.00000000000E+00  0.00000000000E+00 -0.17014808564E+03  0.17014808572E+03  0.50400001928E-02 0. -1.
    10030    2    1    2    0    0  0.00000000000E+00  0.00000000000E+00  0.55196804804E+03  0.89226421942E+03  0.70104686805E+03 0.  0.
        4    1    3    3  502    0 -0.19174169847E+03 -0.29319723621E+03  0.26116488914E+03  0.43696477029E+03  0.12699999809E+01 0.  1.
       -4    1    3    3    0  502  0.19174169847E+03  0.29319723621E+03  0.29080315891E+03  0.45529944914E+03  0.12699999809E+01 0. -1.
</event>
<event>
 5   0  0.3184443E-02  0.6844403E+03  0.7818609E-02  0.9744218E-01
        2   -1    0    0  501    0  0.00000000000E+00  0.00000000000E+00  0.68205566333E+03  0.68205566333E+03  0.25500000920E-02 0.  1.
       -2   -1    0    0    0  501  0.00000000000E+00  0.00000000000E+00 -0.17170834019E+03  0.17170834020E+03  0.25500000920E-02 0. -1.
    10030    2    1    2    0    0  0.00000000000E+00  0.00000000000E+00  0.51034732314E+03  0.85376400354E+03  0.68444034327E+03 0.  0.
        3    1    3    3  502    0 -0.79314813832E+02  0.18293923050E+03 -0.91764557135E+02  0.21949566259E+03  0.10100000352E+00 0. -1.
       -3    1    3    3    0  502  0.79314813832E+02 -0.18293923050E+03  0.60211188028E+03  0.63426834094E+03  0.10100000352E+00 0.  1.
</event>
<event>
 5   0  0.3113940E-02  0.6943394E+03  0.7818609E-02  0.9726962E-01
       -2   -1    0    0    0  501  0.00000000000E+00  0.00000000000E+00  0.22934540887E+03  0.22934540888E+03  0.25500000920E-02 0.  1.
        2   -1    0    0  501    0  0.00000000000E+00  0.00000000000E+00 -0.52552526581E+03  0.52552526582E+03  0.25500000920E-02 0. -1.
    10030    2    1    2    0    0  0.00000000000E+00  0.00000000000E+00 -0.29617985694E+03  0.75487067470E+03  0.69433941834E+03 0.  0.
        5    1    3    3  502    0  0.28459523963E+03  0.79975569310E+02 -0.34592701229E+03  0.45505838080E+03  0.46999998093E+01 0. -1.
       -5    1    3    3    0  502 -0.28459523963E+03 -0.79975569310E+02  0.49747155348E+02  0.29981229390E+03  0.46999998093E+01 0.  1.
</event>
<event>
 5   0  0.3290656E-02  0.7189827E+03  0.7818609E-02  0.9685309E-01
       -2   -1    0    0    0  501  0.00000000000E+00  0.00000000000E+00  0.12004627384E+03  0.12004627387E+03  0.25500000920E-02 0.  1.
        2   -1    0    0  501    0  0.00000000000E+00  0.00000000000E+00 -0.10765350754E+04  0.10765350754E+04  0.25500000920E-02 0. -1.
    10030    2    1    2    0    0  0.00000000000E+00  0.00000000000E+00 -0.95648880152E+03  0.11965813492E+04  0.71898268261E+03 0.  0.
        1    1    3    3  502    0 -0.21127825251E+01 -0.20460151160E+03  0.13681233874E+02  0.20506930190E+03  0.50400001928E-02 0.  1.
       -1    1    3    3    0  502  0.21127825251E+01  0.20460151160E+03 -0.97017003539E+03  0.99151204733E+03  0.50400001928E-02 0. -1.
</event>
<event>
 5   0  0.1951465E-02  0.7255509E+03  0.7818609E-02  0.9674508E-01
        1   -1    0    0  501    0  0.00000000000E+00  0.00000000000E+00  0.97350007078E+03  0.97350007080E+03  0.50400001928E-02 0.  1.
       -1   -1    0    0    0  501  0.00000000000E+00  0.00000000000E+00 -0.13518851303E+03  0.13518851312E+03  0.50400001928E-02 0. -1.
    10030    2    1    2    0    0  0.00000000000E+00  0.00000000000E+00  0.83831155775E+03  0.11086885839E+04  0.72555089983E+03 0.  0.
        4    1    3    3  502    0 -0.33058564479E+03 -0.59027224950E+02  0.62885908411E+03  0.71290703629E+03  0.12699999809E+01 0.  1.
       -4    1    3    3    0  502  0.33058564479E+03  0.59027224950E+02  0.20945247364E+03  0.39578154762E+03  0.12699999809E+01 0. -1.
</event>
<event>
 5   0  0.3290656E-02  0.7018161E+03  0.7818609E-02  0.9714131E-01
        2   -1    0    0  501    0  0.00000000000E+00  0.00000000000E+00  0.57388365935E+03  0.57388365936E+03  0.25500000920E-02 0.  1.
       -2   -1    0    0    0  501  0.00000000000E+00  0.00000000000E+00 -0.21456693896E+03  0.21456693897E+03  0.25500000920E-02 0. -1.
    10030    2    1    2    0    0  0.00000000000E+00  0.00000000000E+00  0.35931672039E+03  0.78845059833E+03  0.70181610159E+03 0.  0.
        1    1    3    3  502    0 -0.89202181557E+02 -0.25722331171E+03 -0.69065996051E+02  0.28087536937E+03  0.50400001928E-02 0. -1.
       -1    1    3    3    0  502  0.89202181557E+02  0.25722331171E+03  0.42838271644E+03  0.50757522896E+03  0.50400001928E-02 0.  1.
</event>
<event>
 5   0  0.1951465E-02  0.6994056E+03  0.7818609E-02  0.9718249E-01
        1   -1    0    0  501    0  0.00000000000E+00  0.00000000000E+00  0.57867676398E+03  0.57867676400E+03  0.50400001928E-02 0.  1.
       -1   -1    0    0    0  501  0.00000000000E+00  0.00000000000E+00 -0.21133051323E+03  0.21133051329E+03  0.50400001928E-02 0. -1.
    10030    2    1    2    0    0  0.00000000000E+00  0.00000000000E+00  0.36734625075E+03  0.79000727729E+03  0.69940562640E+03 0.  0.
        4    1    3    3  502    0  0.12477897048E+02 -0.15333048459E+03 -0.17105399860E+03  0.23005872892E+03  0.12699999809E+01 0. -1.
       -4    1    3    3    0  502 -0.12477897048E+02  0.15333048459E+03  0.53840024935E+03  0.55994854837E+03  0.12699999809E+01 0.  1.
</event>
<event>
 5   0  0.3183963E-02  0.7090219E+03  0.7818609E-02  0.9701927E-01
        2   -1    0    0  501    0  0.00000000000E+00  0.00000000000E+00  0.43193738089E+03  0.43193738090E+03  0.25500000920E-02 0.  1.
       -2   -1    0    0    0  501  0.00000000000E+00  0.00000000000E+00 -0.29096349505E+03  0.29096349506E+03  0.25500000920E-02 0. -1.
    10030    2    1    2    0    0  0.00000000000E+00  0.00000000000E+00  0.14097388585E+03  0.72290087596E+03  0.70902188963E+03 0.  0.
        4    1    3    3  502    0 -0.26102043336E+03  0.16000005616E+02  0.31452283516E+03  0.40904021019E+03  0.12699999809E+01 0.  1.
       -4    1    3    3    0  502  0.26102043336E+03 -0.16000005616E+02 -0.17354894931E+03  0.31386066577E+03  0.12699999809E+01 0. -1.
</event>
<event>
 5   0  0.1969818E-02  0.7016788E+03  0.7818609E-02  0.9714365E-01
       -1   -1    0    0    0  501  0.00000000000E+00  0.00000000000E+00  0.23054798845E+03  0.23054798851E+03  0.50400001928E-02 0. -1.
        1   -1    0    0  501    0  0.00000000000E+00  0.00000000000E+00 -0.53389445228E+03  0.53389445230E+03  0.50400001928E-02 0.  1.
    10030    2    1    2    0    0  0.00000000000E+00  0.00000000000E+00 -0.30334646382E+03  0.76444244081E+03  0.70167882125E+03 0.  0.
        1    1    3    3  502    0  0.22671710019E+03  0.24574394783E+03 -0.35875844234E+02  0.33627043824E+03  0.50400001928E-02 0. -1.
       -1    1    3    3    0  502 -0.22671710019E+03 -0.24574394783E+03 -0.26747061959E+03  0.42817200256E+03  0.50400001928E-02 0.  1.
</event>
<event>
 5   0  0.3113940E-02  0.6961000E+03  0.7818609E-02  0.9723925E-01
       -2   -1    0    0    0  501  0.00000000000E+00  0.00000000000E+00  0.51413261143E+03  0.51413261143E+03  0.25500000920E-02 0. -1.
        2   -1    0    0  501    0  0.00000000000E+00  0.00000000000E+00 -0.23561782213E+03  0.23561782215E+03  0.25500000920E-02 0.  1.
    10030    2    1    2    0    0  0.00000000000E+00  0.00000000000E+00  0.27851478930E+03  0.74975043358E+03  0.69610001063E+03 0.  0.
        5    1    3    3  502    0 -0.33568058558E+03 -0.28050175521E+02  0.45061548101E+02  0.33988365803E+03  0.46999998093E+01 0.  1.
       -5    1    3    3    0  502  0.33568058558E+03  0.28050175521E+02  0.23345324119E+03  0.40986677555E+03  0.46999998093E+01 0. -1.
</event>
<event>
 5   0  0.3113940E-02  0.5686547E+03  0.7818609E-02  0.9972660E-01
        2   -1    0    0  501    0  0.00000000000E+00  0.00000000000E+00  0.55538004609E+03  0.55538004610E+03  0.25500000920E-02 0. -1.
       -2   -1    0    0    0  501  0.00000000000E+00  0.00000000000E+00 -0.14556164553E+03  0.14556164555E+03  0.25500000920E-02 0.  1.
    10030    2    1    2    0    0  0.00000000000E+00  0.00000000000E+00  0.40981840056E+03  0.70094169165E+03  0.56865466995E+03 0.  0.
        5    1    3    3  502    0 -0.15501640272E+03  0.23739043441E+03  0.23063667345E+03  0.36551288431E+03  0.46999998093E+01 0. -1.
       -5    1    3    3    0  502  0.15501640272E+03 -0.23739043441E+03  0.17918172711E+03  0.33542880734E+03  0.46999998093E+01 0.  1.
</event>
<event>
 5   0  0.2933851E-02  0.6859117E+03  0.7818609E-02  0.9741633E-01
        2   -1    0    0  501    0  0.00000000000E+00  0.00000000000E+00  0.81009686132E+03  0.81009686132E+03  0.25500000920E-02 0.  1.
       -2   -1    0    0    0  501  0.00000000000E+00  0.00000000000E+00 -0.14519094890E+03  0.14519094893E+03  0.25500000920E-02 0. -1.
    10030    2    1    2    0    0  0.00000000000E+00  0.00000000000E+00  0.66490591241E+03  0.95528781025E+03  0.68591174946E+03 0.  0.
        2    1    3    3  502    0  0.14494462523E+03 -0.19963925930E+03  0.66424353865E+03  0.70857904068E+03  0.25500000920E-02 0.  1.
       -2    1    3    3    0  502 -0.14494462523E+03  0.19963925930E+03  0.66237375926E+00  0.24670876957E+03  0.25500000920E-02 0. -1.
</event>
<event>
 5   0  0.2933851E-02  0.7061150E+03  0.7818609E-02  0.9706832E-01
       -2   -1    0    0    0  501  0.00000000000E+00  0.00000000000E+00  0.28410784326E+03  0.28410784327E+03  0.25500000920E-02 0.  1.
        2   -1    0    0  501    0  0.00000000000E+00  0.00000000000E+00 -0.43874039357E+03  0.43874039358E+03  0.25500000920E-02 0. -1.
    10030    2    1    2    0    0  0.00000000000E+00  0.00000000000E+00 -0.15463255031E+03  0.72284823684E+03  0.70611496790E+03 0.  0.
        2    1    3    3  502    0 -0.31495246530E+03 -0.17002306593E+02  0.85079260440E+02  0.32668427325E+03  0.25500000920E-02 0.  1.
       -2    1    3    3    0  502  0.31495246530E+03  0.17002306593E+02 -0.23971181075E+03  0.39616396359E+03  0.25500000920E-02 0. -1.
</event>
<event>
 5   0  0.3290656E-02  0.7606492E+03  0.7818609E-02  0.9618790E-01
        2   -1    0    0  501    0  0.00000000000E+00  0.00000000000E+00  0.97969801548E+03  0.97969801548E+03  0.25500000920E-02 0.  1.
       -2   -1    0    0    0  501  0.00000000000E+00  0.00000000000E+00 -0.14764427185E+03  0.14764427188E+03  0.25500000920E-02 0. -1.
    10030    2    1    2    0    0  0.00000000000E+00  0.00000000000E+00  0.83205374363E+03  0.11273422874E+04  0.76064919680E+03 0.  0.
        1    1    3    3  502    0  0.11861246875E+03  0.72122044965E+02 -0.10875533252E+03  0.17634690099E+03  0.50400001928E-02 0. -1.
       -1    1    3    3    0  502 -0.11861246875E+03 -0.72122044965E+02  0.94080907614E+03  0.95099538637E+03  0.50400001928E-02 0.  1.
</event>
<event>
 5   0  0.1884172E-02  0.6972865E+03  0.7818609E-02  0.9721884E-01
        1   -1    0    0  501    0  0.00000000000E+00  0.00000000000E+00  0.86214398824E+03  0.86214398825E+03  0.50400001928E-02 0.  1.
       -1   -1    0    0    0  501  0.00000000000E+00  0.00000000000E+00 -0.14098817323E+03  0.14098817332E+03  0.50400001928E-02 0. -1.
    10030    2    1    2    0    0  0.00000000000E+00  0.00000000000E+00  0.72115581501E+03  0.10031321616E+04  0.69728647203E+03 0.  0.
        3    1    3    3  502    0  0.17441518744E+03 -0.25671974124E+03  0.58907183515E+03  0.66583130020E+03  0.10100000352E+00 0.  1.
       -3    1    3    3    0  502 -0.17441518744E+03  0.25671974124E+03  0.13208397985E+03  0.33730086138E+03  0.10100000352E+00 0. -1.
</event>
<event>
 5   0  0.1884172E-02  0.7005126E+03  0.7818609E-02  0.9716356E-01
        1   -1    0    0  501    0  0.00000000000E+00  0.00000000000E+00  0.41347363787E+03  0.41347363790E+03  0.50400001928E-02 0. -1.
       -1   -1    0    0    0  501  0.00000000000E+00  0.00000000000E+00 -0.29670449101E+03  0.29670449105E+03  0.50400001928E-02 0.  1.
    10030    2    1    2    0    0  0.00000000000E+00  0.00000000000E+00  0.11676914686E+03  0.71017812895E+03  0.70051262742E+03 0.  0.
        3    1    3    3  502    0  0.14715430518E+03 -0.30256529309E+03 -0.40320647044E+02  0.33885972156E+03  0.10100000352E+00 0.  1.
       -3    1    3    3    0  502 -0.14715430518E+03  0.30256529309E+03  0.15708979390E+03  0.37131840739E+03  0.10100000352E+00 0. -1.
</event>
<event>
 5   0  0.1233912E-02  0.6802185E+03  0.7818609E-02  0.9751672E-01
        3   -1    0    0  501    0  0.00000000000E+00  0.00000000000E+00  0.36123455881E+03  0.36123457293E+03  0.10100000352E+00 0.  1.
       -3   -1    0    0    0  501  0.00000000000E+00  0.00000000000E+00 -0.32021937834E+03  0.32021939427E+03  0.10100000352E+00 0. -1.
    10030    2    1    2    0    0  0.00000000000E+00  0.00000000000E+00  0.41015180466E+02  0.68145396720E+03  0.68021854163E+03 0.  0.
        4    1    3    3  502    0  0.15278302833E+03 -0.25843071445E+03 -0.13960638516E+03  0.33109008381E+03  0.12699999809E+01 0. -1.
       -4    1    3    3    0  502 -0.15278302833E+03  0.25843071445E+03  0.18062156562E+03  0.35036388339E+03  0.12699999809E+01 0.  1.
</event>
<event>
 5   0  0.3184443E-02  0.6848632E+03  0.7818609E-02  0.9743474E-01
       -2   -1    0    0    0  501  0.00000000000E+00  0.00000000000E+00  0.66182605386E+02  0.66182605435E+02  0.25500000920E-02 0.  1.
        2   -1    0    0  501    0  0.00000000000E+00  0.00000000000E+00 -0.17717558248E+04  0.17717558248E+04  0.25500000920E-02 0. -1.
    10030    2    1    2    0    0  0.00000000000E+00  0.00000000000E+00 -0.17055732194E+04  0.18379384302E+04  0.68486324661E+03 0.  0.
        3    1    3    3  502    0 -0.25715430466E+02 -0.21734965043E+02 -0.17673025878E+04  0.17676233024E+04  0.10100000352E+00 0. -1.
       -3    1    3    3    0  502  0.25715430466E+02  0.21734965043E+02  0.61729368438E+02  0.70315127805E+02  0.10100000352E+00 0.  1.
</event>
<event>
 5   0  0.1969818E-02  0.6833627E+03  0.7818609E-02  0.9746115E-01
       -1   -1    0    0    0  501  0.00000000000E+00  0.00000000000E+00  0.31068206185E+03  0.31068206189E+03  0.50400001928E-02 0.  1.
        1   -1    0    0  501    0  0.00000000000E+00  0.00000000000E+00 -0.37577368583E+03  0.37577368587E+03  0.50400001928E-02 0. -1.
    10030    2    1    2    0    0  0.00000000000E+00  0.00000000000E+00 -0.65091623987E+02  0.68645574775E+03  0.68336269587E+03 0.  0.
        1    1    3    3  502    0 -0.83752758584E+02 -0.45779603042E+02  0.29701817216E+03  0.31197770953E+03  0.50400001928E-02 0.  1.
       -1    1    3    3    0  502  0.83752758584E+02  0.45779603042E+02 -0.36210979614E+03  0.37447803823E+03  0.50400001928E-02 0. -1.
</event>
<event>
 5   0  0.2933851E-02  0.7008013E+03  0.7818609E-02  0.9715863E-01
       -2   -1    0    0    0  501  0.00000000000E+00  0.00000000000E+00  0.20960745437E+03  0.20960745439E+03  0.25500000920E-02 0.  1.
        2   -1    0    0  501    0  0.00000000000E+00  0.00000000000E+00 -0.58576457246E+03  0.58576457246E+03  0.25500000920E-02 0. -1.
    10030    2    1    2    0    0  0.00000000000E+00  0.00000000000E+00 -0.37615711808E+03  0.79537202685E+03  0.70080131536E+03 0.  0.
        2    1    3    3  502    0  0.19768788157E+03  0.11661723998E+03  0.11241563936E+03  0.25557260252E+03  0.25500000920E-02 0.  1.
       -2    1    3    3    0  502 -0.19768788157E+03 -0.11661723998E+03 -0.48857275745E+03  0.53979942433E+03  0.25500000920E-02 0. -1.
</event>
<event>
 5   0  0.1951465E-02  0.6866430E+03  0.7818609E-02  0.9740351E-01
       -1   -1    0    0    0  501  0.00000000000E+00  0.00000000000E+00  0.17894161351E+03  0.17894161358E+03  0.50400001928E-02 0. -1.
        1   -1    0    0  501    0  0.00000000000E+00  0.00000000000E+00 -0.65870451803E+03  0.65870451805E+03  0.50400001928E-02 0.  1.
    10030    2    1    2    0    0  0.00000000000E+00  0.00000000000E+00 -0.47976290452E+03  0.83764613163E+03  0.68664299114E+03 0.  0.
        4    1    3    3  502    0  0.60486402954E+02 -0.33456354745E+03 -0.18167393380E+03  0.38548463439E+03  0.12699999809E+01 0. -1.
       -4    1    3    3    0  502 -0.60486402954E+02  0.33456354745E+03 -0.29808897071E+03  0.45216149724E+03  0.12699999809E+01 0.  1.
</event>
<event>
 5   0  0.1969818E-02  0.6952644E+03  0.7818609E-02  0.9725365E-01
        1   -1    0    0  501    0  0.00000000000E+00  0.00000000000E+00  0.21500882908E+04  0.21500882908E+04  0.50400001928E-02 0. -1.
       -1   -1    0    0    0  501  0.00000000000E+00  0.00000000000E+00 -0.56206131818E+02  0.56206132044E+02  0.50400001928E-02 0.  1.
    10030    2    1    2    0    0  0.00000000000E+00  0.00000000000E+00  0.20938821590E+04  0.22062944229E+04  0.69526439906E+03 0.  0.
        1    1    3    3  502    0 -0.15007328475E+03 -0.28045462787E+03  0.60186870801E+03  0.68075159257E+03  0.50400001928E-02 0. -1.
       -1    1    3    3    0  502  0.15007328475E+03  0.28045462787E+03  0.14920134510E+04  0.15255428303E+04  0.50400001928E-02 0.  1.
</event>
<event>
 5   0  0.1858013E-02  0.6753913E+03  0.7818609E-02  0.9760267E-01
       -1   -1    0    0    0  501  0.00000000000E+00  0.00000000000E+00  0.18462424686E+03  0.18462424693E+03  0.50400001928E-02 0. -1.
        1   -1    0    0  501    0  0.00000000000E+00  0.00000000000E+00 -0.61767815794E+03  0.61767815796E+03  0.50400001928E-02 0.  1.
    10030    2    1    2    0    0  0.00000000000E+00  0.00000000000E+00 -0.43305391108E+03  0.80230240489E+03  0.67539133767E+03 0.  0.
        2    1    3    3  502    0  0.68979959490E+01 -0.16678145743E+03  0.13218960142E+03  0.21292657801E+03  0.25500000920E-02 0. -1.
       -2    1    3    3    0  502 -0.68979959490E+01  0.16678145743E+03 -0.56524351250E+03  0.58937582689E+03  0.25500000920E-02 0.  1.
</event>
<event>
 5   0  0.1884172E-02  0.7097938E+03  0.7818609E-02  0.9700628E-01
        1   -1    0    0  501    0  0.00000000000E+00  0.00000000000E+00  0.41825354883E+03  0.41825354886E+03  0.50400001928E-02 0.  1.
       -1   -1    0    0    0  501  0.00000000000E+00  0.00000000000E+00 -0.30113748609E+03  0.30113748613E+03  0.50400001928E-02 0. -1.
    10030    2    1    2    0    0  0.00000000000E+00  0.00000000000E+00  0.11711606274E+03  0.71939103499E+03  0.70979383561E+03 0.  0.
        3    1    3    3  502    0 -0.18100662451E+03 -0.27810525980E+03  0.18614048725E+03  0.38046579983E+03  0.10100000352E+00 0.  1.
       -3    1    3    3    0  502  0.18100662451E+03  0.27810525980E+03 -0.69024424503E+02  0.33892523516E+03  0.10100000352E+00 0. -1.
</event>
<event>
 5   0  0.3183963E-02  0.6992032E+03  0.7818609E-02  0.9718596E-01
       -2   -1    0    0    0  501  0.00000000000E+00  0.00000000000E+00  0.13006778867E+03  0.13006778870E+03  0.25500000920E-02 0. -1.
        2   -1    0    0  501    0  0.00000000000E+00  0.00000000000E+00 -0.93967371357E+03  0.93967371357E+03  0.25500000920E-02 0.  1.
    10030    2    1    2    0    0  0.00000000000E+00  0.00000000000E+00 -0.80960592489E+03  0.10697415023E+04  0.69920320941E+03 0.  0.
        4    1    3    3  502    0 -0.30291549334E+03 -0.13752892425E+03 -0.56921082257E+03  0.65929854736E+03  0.12699999809E+01 0.  1.
       -4    1    3    3    0  502  0.30291549334E+03  0.13752892425E+03 -0.24039510232E+03  0.41044295491E+03  0.12699999809E+01 0. -1.
</event>
<event>
 5   0  0.3183963E-02  0.6910732E+03  0.7818609E-02  0.9732621E-01
        2   -1    0    0  501    0  0.00000000000E+00  0.00000000000E+00  0.38999304098E+03  0.38999304099E+03  0.25500000920E-02 0.  1.
       -2   -1    0    0    0  501  0.00000000000E+00  0.00000000000E+00 -0.30614789699E+03  0.30614789700E+03  0.25500000920E-02 0. -1.
    10030    2    1    2    0    0  0.00000000000E+00  0.00000000000E+00  0.83845143992E+02  0.69614093798E+03  0.69107322142E+03 0.  0.
        4    1    3    3  502    0  0.22259687890E+02  0.24155006151E+03  0.28980023515E+03  0.37792554176E+03  0.12699999809E+01 0.  1.
       -4    1    3    3    0  502 -0.22259687890E+02 -0.24155006151E+03 -0.20595509115E+03  0.31821539622E+03  0.12699999809E+01 0. -1.
</event>
<event>
 5   0  0.1858013E-02  0.6999827E+03  0.7818609E-02  0.9717262E-01
        1   -1    0    0  501    0  0.00000000000E+00  0.00000000000E+00  0.53341151833E+03  0.53341151835E+03  0.50400001928E-02 0.  1.
       -1   -1    0    0    0  501  0.00000000000E+00  0.00000000000E+00 -0.22964250992E+03  0.22964250997E+03  0.50400001928E-02 0. -1.
    10030    2    1    2    0    0  0.00000000000E+00  0.00000000000E+00  0.30376900841E+03  0.76305402832E+03  0.69998274241E+03 0.  0.
        2    1    3    3  502    0  0.38978450061E+02 -0.22783063660E+02 -0.22645475075E+03  0.23091154519E+03  0.25500000920E-02 0. -1.
       -2    1    3    3    0  502 -0.38978450061E+02  0.22783063660E+02  0.53022375917E+03  0.53214248313E+03  0.25500000920E-02 0.  1.
</event>
<event>
 5   0  0.3183963E-02  0.6049740E+03  0.7818609E-02  0.9895140E-01
       -2   -1    0    0    0  501  0.00000000000E+00  0.00000000000E+00  0.29646046893E+03  0.29646046894E+03  0.25500000920E-02 0. -1.
        2   -1    0    0  501    0  0.00000000000E+00  0.00000000000E+00 -0.30863605784E+03  0.30863605785E+03  0.25500000920E-02 0.  1.
    10030    2    1    2    0    0  0.00000000000E+00  0.00000000000E+00 -0.12175588905E+02  0.60509652679E+03  0.60497401743E+03 0.  0.
        4    1    3    3  502    0 -0.10375475436E+03  0.28012906795E+03 -0.53630921770E+02  0.30350491336E+03  0.12699999809E+01 0. -1.
       -4    1    3    3    0  502  0.10375475436E+03 -0.28012906795E+03  0.41455332865E+02  0.30159161342E+03  0.12699999809E+01 0.  1.
</event>
<event>
 5   0  0.3290656E-02  0.7012581E+03  0.7818609E-02  0.9715083E-01
        2   -1    0    0  501    0  0.00000000000E+00  0.00000000000E+00  0.14154071992E+04  0.14154071992E+04  0.25500000920E-02 0. -1.
       -2   -1    0    0    0  501  0.00000000000E+00  0.00000000000E+00 -0.86858919253E+02  0.86858919290E+02  0.25500000920E-02 0.  1.
    10030    2    1    2    0    0  0.00000000000E+00  0.00000000000E+00  0.13285482799E+04  0.15022661185E+04  0.70125812553E+03 0.  0.
        1    1    3    3  502    0  0.12367184400E+03 -0.12613810473E+02  0.13666130799E+04  0.13722554949E+04  0.50400001928E-02 0. -1.
       -1    1    3    3    0  502 -0.12367184400E+03  0.12613810473E+02 -0.38064799959E+02  0.13001062355E+03  0.50400001928E-02 0.  1.
</event>
<event>
 5   0  0.1233912E-02  0.7003032E+03  0.7818609E-02  0.9716714E-01
       -3   -1    0    0    0  501  0.00000000000E+00  0.00000000000E+00  0.25622686662E+03  0.25622688652E+03  0.10100000352E+00 0. -1.
        3   -1    0    0  501    0  0.00000000000E+00  0.00000000000E+00 -0.47850616191E+03  0.47850617256E+03  0.10100000352E+00 0.  1.
    10030    2    1    2    0    0  0.00000000000E+00  0.00000000000E+00 -0.22227929529E+03  0.73473305909E+03  0.70030320791E+03 0.  0.
        5    1    3    3  502    0  0.14691332738E+03 -0.31754417898E+03 -0.12466631590E+03  0.37145876175E+03  0.46999998093E+01 0. -1.
       -5    1    3    3    0  502 -0.14691332738E+03  0.31754417898E+03 -0.97612979384E+02  0.36327429734E+03  0.46999998093E+01 0.  1.
</event>
<event>
 5   0  0.3183963E-02  0.7036664E+03  0.7818609E-02  0.9710983E-01
        2   -1    0    0  501    0  0.00000000000E+00  0.00000000000E+00  0.15557535397E+04  0.15557535397E+04  0.25500000920E-02 0. -1.
       -2   -1    0    0    0  501  0.00000000000E+00  0.00000000000E+00 -0.79566979410E+02  0.79566979451E+02  0.25500000920E-02 0.  1.
    10030    2    1    2    0    0  0.00000000000E+00  0.00000000000E+00  0.14761865603E+04  0.16353205191E+04  0.70366642635E+03 0.  0.
        4    1    3    3  502    0  0.21320983880E+03  0.19318317792E+03  0.26748007488E+03  0.39284268983E+03  0.12699999809E+01 0.  1.
       -4    1    3    3    0  502 -0.21320983880E+03 -0.19318317792E+03  0.12087064854E+04  0.12424778293E+04  0.12699999809E+01 0. -1.
</event>
<event>
 5   0  0.1884172E-02  0.6904333E+03  0.7818609E-02  0.9733734E-01
       -1   -1    0    0    0  501  0.00000000000E+00  0.00000000000E+00  0.15744032988E+03  0.15744032996E+03  0.50400001928E-02 0.  1.
        1   -1    0    0  501    0  0.00000000000E+00  0.00000000000E+00 -0.75695041400E+03  0.75695041402E+03  0.50400001928E-02 0. -1.
    10030    2    1    2    0    0  0.00000000000E+00  0.00000000000E+00 -0.59951008412E+03  0.91439074398E+03  0.69043326376E+03 0.  0.
        3    1    3    3  502    0 -0.17320904093E+03 -0.25199464711E+03 -0.87558353537E+02  0.31807098187E+03  0.10100000352E+00 0. -1.
       -3    1    3    3    0  502  0.17320904093E+03  0.25199464711E+03 -0.51195173059E+03  0.59631976211E+03  0.10100000352E+00 0.  1.
</event>
<event>
 5   0  0.3113940E-02  0.6915629E+03  0.7818609E-02  0.9731770E-01
       -2   -1    0    0    0  501  0.00000000000E+00  0.00000000000E+00  0.12994304914E+03  0.12994304916E+03  0.25500000920E-02 0.  1.
        2   -1    0    0  501    0  0.00000000000E+00  0.00000000000E+00 -0.92013247079E+03  0.92013247080E+03  0.25500000920E-02 0. -1.
    10030    2    1    2    0    0  0.00000000000E+00  0.00000000000E+00 -0.79018942166E+03  0.10500755200E+04  0.69156292231E+03 0.  0.
        5    1    3    3  502    0  0.29465943823E+03 -0.18050490145E+03 -0.41283639138E+03  0.53838850288E+03  0.46999998093E+01 0. -1.
       -5    1    3    3    0  502 -0.29465943823E+03  0.18050490145E+03 -0.37735303027E+03  0.51168701707E+03  0.46999998093E+01 0.  1.
</event>
<event>
 5   0  0.1884172E-02  0.6917919E+03  0.7818609E-02  0.9731373E-01
       -1   -1    0    0    0  501  0.00000000000E+00  0.00000000000E+00  0.15753396507E+03  0.15753396515E+03  0.50400001928E-02 0.  1.
        1   -1    0    0  501    0  0.00000000000E+00  0.00000000000E+00 -0.75948081870E+03  0.75948081871E+03  0.50400001928E-02 0. -1.
    10030    2    1    2    0    0  0.00000000000E+00  0.00000000000E+00 -0.60194685363E+03  0.91701478386E+03  0.69179194793E+03 0.  0.
        3    1    3    3  502    0  0.24356339966E+03  0.17204570818E+03 -0.68635754365E+02  0.30599629465E+03  0.10100000352E+00 0. -1.
       -3    1    3    3    0  502 -0.24356339966E+03 -0.17204570818E+03 -0.53331109926E+03  0.61101848921E+03  0.10100000352E+00 0.  1.
</event>
<event>
 5   0  0.1884172E-02  0.7089291E+03  0.7818609E-02  0.9702083E-01
        1   -1    0    0  501    0  0.00000000000E+00  0.00000000000E+00  0.16554039777E+04  0.16554039777E+04  0.50400001928E-02 0. -1.
       -1   -1    0    0    0  501  0.00000000000E+00  0.00000000000E+00 -0.75899977087E+02  0.75899977254E+02  0.50400001928E-02 0.  1.
    10030    2    1    2    0    0  0.00000000000E+00  0.00000000000E+00  0.15795040006E+04  0.17313039549E+04  0.70892911952E+03 0.  0.
        3    1    3    3  502    0  0.79369458528E+02 -0.33742921844E+03  0.60885017324E+03  0.70061154148E+03  0.10100000352E+00 0.  1.
       -3    1    3    3    0  502 -0.79369458528E+02  0.33742921844E+03  0.97065382735E+03  0.10306924135E+04  0.10100000352E+00 0. -1.
</event>
<event>
 5   0  0.3113940E-02  0.6862909E+03  0.7818609E-02  0.9740968E-01
        2   -1    0    0  501    0  0.00000000000E+00  0.00000000000E+00  0.11305567010E+04  0.11305567010E+04  0.25500000920E-02 0.  1.
       -2   -1    0    0    0  501  0.00000000000E+00  0.00000000000E+00 -0.10415115202E+03  0.10415115206E+03  0.25500000920E-02 0. -1.
    10030    2    1    2    0    0  0.00000000000E+00  0.00000000000E+00  0.10264055490E+04  0.12347078531E+04  0.68629085047E+03 0.  0.
        5    1    3    3  502    0 -0.29800784742E+02  0.25854443352E+03  0.91546778616E+03  0.95175452106E+03  0.46999998093E+01 0.  1.
       -5    1    3    3    0  502  0.29800784742E+02 -0.25854443352E+03  0.11093776282E+03  0.28295333200E+03  0.46999998093E+01 0. -1.
</event>
<event>
 5   0  0.1969818E-02  0.7017905E+03  0.7818609E-02  0.9714175E-01
       -1   -1    0    0    0  501  0.00000000000E+00  0.00000000000E+00  0.15237330650E+03  0.15237330659E+03  0.50400001928E-02 0.  1.
        1   -1    0    0  501    0  0.00000000000E+00  0.00000000000E+00 -0.80806451448E+03  0.80806451450E+03  0.50400001928E-02 0. -1.
    10030    2    1    2    0    0  0.00000000000E+00  0.00000000000E+00 -0.65569120797E+03  0.96043782108E+03  0.70179045872E+03 0.  0.
        1    1    3    3  502    0 -0.53284201622E+02 -0.18144234919E+03 -0.73236125678E+03  0.75638187623E+03  0.50400001928E-02 0. -1.
       -1    1    3    3    0  502  0.53284201622E+02  0.18144234919E+03  0.76670048809E+02  0.20405594486E+03  0.50400001928E-02 0.  1.
</event>
<event>
 5   0  0.1951465E-02  0.7050165E+03  0.7818609E-02  0.9708692E-01
       -1   -1    0    0    0  501  0.00000000000E+00  0.00000000000E+00  0.17630393123E+03  0.17630393130E+03  0.50400001928E-02 0. -1.
        1   -1    0    0  501    0  0.00000000000E+00  0.00000000000E+00 -0.70481734533E+03  0.70481734535E+03  0.50400001928E-02 0.  1.
    10030    2    1    2    0    0  0.00000000000E+00  0.00000000000E+00 -0.52851341410E+03  0.88112127665E+03  0.70501650710E+03 0.  0.
        4    1    3    3  502    0  0.20608354663E+02 -0.53317258528E+02 -0.69898365693E+03  0.70131818734E+03  0.12699999809E+01 0.  1.
       -4    1    3    3    0  502 -0.20608354663E+02  0.53317258528E+02  0.17047024283E+03  0.17980308932E+03  0.12699999809E+01 0. -1.
</event>
<event>
 5   0  0.1839038E-02  0.6973708E+03  0.7818609E-02  0.9721739E-01
       -1   -1    0    0    0  501  0.00000000000E+00  0.00000000000E+00  0.14355811258E+03  0.14355811267E+03  0.50400001928E-02 0. -1.
        1   -1    0    0  501    0  0.00000000000E+00  0.00000000000E+00 -0.84691491419E+03  0.84691491421E+03  0.50400001928E-02 0.  1.
    10030    2    1    2    0    0  0.00000000000E+00  0.00000000000E+00 -0.70335680161E+03  0.99047302688E+03  0.69737079563E+03 0.  0.
        5    1    3    3  502    0 -0.18081313672E+03  0.40563002738E+02 -0.77113651868E+03  0.79310299965E+03  0.46999998093E+01 0.  1.
       -5    1    3    3    0  502  0.18081313672E+03 -0.40563002738E+02  0.67779717075E+02  0.19737002723E+03  0.46999998093E+01 0. -1.
</event>
<event>
 5   0  0.1951465E-02  0.7014567E+03  0.7818609E-02  0.9714744E-01
       -1   -1    0    0    0  501  0.00000000000E+00  0.00000000000E+00  0.15375655945E+03  0.15375655953E+03  0.50400001928E-02 0.  1.
        1   -1    0    0  501    0  0.00000000000E+00  0.00000000000E+00 -0.80003325543E+03  0.80003325545E+03  0.50400001928E-02 0. -1.
    10030    2    1    2    0    0  0.00000000000E+00  0.00000000000E+00 -0.64627669598E+03  0.95378981498E+03  0.70145665823E+03 0.  0.
        4    1    3    3  502    0 -0.10053367904E+03  0.23762493292E+03 -0.11760833714E+00  0.25801987540E+03  0.12699999809E+01 0.  1.
       -4    1    3    3    0  502  0.10053367904E+03 -0.23762493292E+03 -0.64615908765E+03  0.69576993958E+03  0.12699999809E+01 0. -1.
</event>
<event>
 5   0  0.1969818E-02  0.6294171E+03  0.7818609E-02  0.9846187E-01
       -1   -1    0    0    0  501  0.00000000000E+00  0.00000000000E+00  0.23668571700E+03  0.23668571705E+03  0.50400001928E-02 0.  1.
        1   -1    0    0  501    0  0.00000000000E+00  0.00000000000E+00 -0.41845140326E+03  0.41845140329E+03  0.50400001928E-02 0. -1.
    10030    2    1    2    0    0  0.00000000000E+00  0.00000000000E+00 -0.18176568627E+03  0.65513712034E+03  0.62941709680E+03 0.  0.
        1    1    3    3  502    0 -0.34113013457E+01 -0.30599393894E+03 -0.14412732585E+02  0.30635217403E+03  0.50400001928E-02 0. -1.
       -1    1    3    3    0  502  0.34113013457E+01  0.30599393894E+03 -0.16735295368E+03  0.34878494632E+03  0.50400001928E-02 0.  1.
</event>
<event>
 5   0  0.3183963E-02  0.7107285E+03  0.7818609E-02  0.9699059E-01
       -2   -1    0    0    0  501  0.00000000000E+00  0.00000000000E+00  0.58912429747E+03  0.58912429748E+03  0.25500000920E-02 0. -1.
        2   -1    0    0  501    0  0.00000000000E+00  0.00000000000E+00 -0.21435841035E+03  0.21435841037E+03  0.25500000920E-02 0.  1.
    10030    2    1    2    0    0  0.00000000000E+00  0.00000000000E+00  0.37476588712E+03  0.80348270784E+03  0.71072849363E+03 0.  0.
        4    1    3    3  502    0 -0.35333584404E+03 -0.25147510193E+02  0.15533715969E+03  0.38679434074E+03  0.12699999809E+01 0.  1.
       -4    1    3    3    0  502  0.35333584404E+03  0.25147510193E+02  0.21942872743E+03  0.41668836710E+03  0.12699999809E+01 0. -1.
</event>
<event>
 5   0  0.1951465E-02  0.7024903E+03  0.7818609E-02  0.9712983E-01
        1   -1    0    0  501    0  0.00000000000E+00  0.00000000000E+00  0.12219596720E+04  0.12219596721E+04  0.50400001928E-02 0.  1.
       -1   -1    0    0    0  501  0.00000000000E+00  0.00000000000E+00 -0.10096335202E+03  0.10096335214E+03  0.50400001928E-02 0. -1.
    10030    2    1    2    0    0  0.00000000000E+00  0.00000000000E+00  0.11209963200E+04  0.13229230242E+04  0.70249026928E+03 0.  0.
        4    1    3    3  502    0 -0.10429865861E+03 -0.44402844102E+02 -0.65564868771E+02  0.13095872506E+03  0.12699999809E+01 0. -1.
       -4    1    3    3    0  502  0.10429865861E+03  0.44402844102E+02  0.11865611888E+04  0.11919642991E+04  0.12699999809E+01 0.  1.
</event>
<event>
 5   0  0.1951465E-02  0.6996509E+03  0.7818609E-02  0.9717829E-01
        1   -1    0    0  501    0  0.00000000000E+00  0.00000000000E+00  0.23155511981E+03  0.23155511987E+03  0.50400001928E-02 0.  1.
       -1   -1    0    0    0  501  0.00000000000E+00  0.00000000000E+00 -0.52850418916E+03  0.52850418918E+03  0.50400001928E-02 0. -1.
    10030    2    1    2    0    0  0.00000000000E+00  0.00000000000E+00 -0.29694906935E+03  0.76005930905E+03  0.69965091545E+03 0.  0.
        4    1    3    3  502    0 -0.30737627470E+03  0.86077831926E+02  0.70152162277E+01  0.31928105731E+03  0.12699999809E+01 0.  1.
       -4    1    3    3    0  502  0.30737627470E+03 -0.86077831926E+02 -0.30396428557E+03  0.44077825174E+03  0.12699999809E+01 0. -1.
</event>
<event>
 5   0  0.1884172E-02  0.6862452E+03  0.7818609E-02  0.9741048E-01
       -1   -1    0    0    0  501  0.00000000000E+00  0.00000000000E+00  0.30919088315E+03  0.30919088319E+03  0.50400001928E-02 0.  1.
        1   -1    0    0  501    0  0.00000000000E+00  0.00000000000E+00 -0.38077809411E+03  0.38077809415E+03  0.50400001928E-02 0. -1.
    10030    2    1    2    0    0  0.00000000000E+00  0.00000000000E+00 -0.71587210967E+02  0.68996897733E+03  0.68624519008E+03 0.  0.
        3    1    3    3  502    0 -0.13929439265E+03 -0.21236670497E+03 -0.26776304203E+03  0.36905230264E+03  0.10100000352E+00 0. -1.
       -3    1    3    3    0  502  0.13929439265E+03  0.21236670497E+03  0.19617583106E+03  0.32091667470E+03  0.10100000352E+00 0.  1.
</event>
<event>
 5   0  0.1884172E-02  0.7012549E+03  0.7818609E-02  0.9715089E-01
       -1   -1    0    0    0  501  0.00000000000E+00  0.00000000000E+00  0.11865591499E+03  0.11865591510E+03  0.50400001928E-02 0. -1.
        1   -1    0    0  501    0  0.00000000000E+00  0.00000000000E+00 -0.10361018033E+04  0.10361018034E+04  0.50400001928E-02 0.  1.
    10030    2    1    2    0    0  0.00000000000E+00  0.00000000000E+00 -0.91744588836E+03  0.11547577185E+04  0.70125489680E+03 0.  0.
        3    1    3    3  502    0 -0.10645587432E+02 -0.16274959149E+03 -0.96983446653E+03  0.98345292756E+03  0.10100000352E+00 0.  1.
       -3    1    3    3    0  502  0.10645587432E+02  0.16274959149E+03  0.52388578173E+02  0.17130479090E+03  0.10100000352E+00 0. -1.
</event>
<event>
 5   0  0.1233912E-02  0.6959594E+03  0.7818609E-02  0.9724167E-01
        3   -1    0    0  501    0  0.00000000000E+00  0.00000000000E+00  0.61362872035E+03  0.61362872866E+03  0.10100000352E+00 0. -1.
       -3   -1    0    0    0  501  0.00000000000E+00  0.00000000000E+00 -0.19733408944E+03  0.19733411529E+03  0.10100000352E+00 0.  1.
    10030    2    1    2    0    0  0.00000000000E+00  0.00000000000E+00  0.41629463091E+03  0.81096284395E+03  0.69595942019E+03 0.  0.
        5    1    3    3  502    0 -0.98699896155E+02  0.18628578333E+03 -0.11440389232E+03  0.23990498775E+03  0.46999998093E+01 0.  1.
       -5    1    3    3    0  502  0.98699896155E+02 -0.18628578333E+03  0.53069852323E+03  0.57105785620E+03  0.46999998093E+01 0. -1.
</event>
<event>
 5   0  0.3183963E-02  0.6993801E+03  0.7818609E-02  0.9718293E-01
        2   -1    0    0  501    0  0.00000000000E+00  0.00000000000E+00  0.47927691655E+03  0.47927691655E+03  0.25500000920E-02 0. -1.
       -2   -1    0    0    0  501  0.00000000000E+00  0.00000000000E+00 -0.25514089307E+03  0.25514089308E+03  0.25500000920E-02 0.  1.
    10030    2    1    2    0    0  0.00000000000E+00  0.00000000000E+00  0.22413602348E+03  0.73441780963E+03  0.69938012703E+03 0.  0.
        4    1    3    3  502    0  0.22655495473E+02  0.12483237886E+03  0.45425364426E+03  0.47164009638E+03  0.12699999809E+01 0. -1.
       -4    1    3    3    0  502 -0.22655495473E+02 -0.12483237886E+03 -0.23011762078E+03  0.26277771325E+03  0.12699999809E+01 0.  1.
</event>
<event>
 5   0  0.1858013E-02  0.7035212E+03  0.7818609E-02  0.9711229E-01
       -1   -1    0    0    0  501  0.00000000000E+00  0.00000000000E+00  0.13725173155E+03  0.13725173164E+03  0.50400001928E-02 0.  1.
        1   -1    0    0  501    0  0.00000000000E+00  0.00000000000E+00 -0.90152241485E+03  0.90152241486E+03  0.50400001928E-02 0. -1.
    10030    2    1    2    0    0  0.00000000000E+00  0.00000000000E+00 -0.76427068331E+03  0.10387741465E+04  0.70352117955E+03 0.  0.
        2    1    3    3  502    0  0.18214712604E+03  0.30088017824E+03 -0.37417637177E+03  0.51353131782E+03  0.25500000920E-02 0. -1.
       -2    1    3    3    0  502 -0.18214712604E+03 -0.30088017824E+03 -0.39009431153E+03  0.52524282868E+03  0.25500000920E-02 0.  1.
</event>
<event>
 5   0  0.1951465E-02  0.6965380E+03  0.7818609E-02  0.9723171E-01
       -1   -1    0    0    0  501  0.00000000000E+00  0.00000000000E+00  0.36496658272E+03  0.36496658275E+03  0.50400001928E-02 0. -1.
        1   -1    0    0  501    0  0.00000000000E+00  0.00000000000E+00 -0.33233538263E+03  0.33233538267E+03  0.50400001928E-02 0.  1.
    10030    2    1    2    0    0  0.00000000000E+00  0.00000000000E+00  0.32631200081E+02  0.69730196542E+03  0.69653803612E+03 0.  0.
        4    1    3    3  502    0  0.13598282539E+03 -0.21352621760E+03 -0.22312221995E+03  0.33744616213E+03  0.12699999809E+01 0.  1.
       -4    1    3    3    0  502 -0.13598282539E+03  0.21352621760E+03  0.25575342003E+03  0.35985580329E+03  0.12699999809E+01 0. -1.
</event>
<event>
 5   0  0.3183963E-02  0.7029027E+03  0.7818609E-02  0.9712281E-01
       -2   -1    0    0    0  501  0.00000000000E+00  0.00000000000E+00  0.99950975123E+02  0.99950975156E+02  0.25500000920E-02 0. -1.
        2   -1    0    0  501    0  0.00000000000E+00  0.00000000000E+00 -0.12357863684E+04  0.12357863684E+04  0.25500000920E-02 0.  1.
    10030    2    1    2    0    0  0.00000000000E+00  0.00000000000E+00 -0.11358353933E+04  0.13357373436E+04  0.70290270334E+03 0.  0.
        4    1    3    3  502    0  0.18653612429E+03  0.29616882552E+03 -0.50768214712E+03  0.61664777165E+03  0.12699999809E+01 0. -1.
       -4    1    3    3    0  502 -0.18653612429E+03 -0.29616882552E+03 -0.62815324618E+03  0.71908957193E+03  0.12699999809E+01 0.  1.
</event>
<event>
 5   0  0.3113940E-02  0.6980416E+03  0.7818609E-02  0.9720587E-01
        2   -1    0    0  501    0  0.00000000000E+00  0.00000000000E+00  0.10267882546E+04  0.10267882546E+04  0.25500000920E-02 0.  1.
       -2   -1    0    0    0  501  0.00000000000E+00  0.00000000000E+00 -0.11863741307E+03  0.11863741310E+03  0.25500000920E-02 0. -1.
    10030    2    1    2    0    0  0.00000000000E+00  0.00000000000E+00  0.90815084157E+03  0.11454256677E+04  0.69804155270E+03 0.  0.
        5    1    3    3  502    0 -0.57889936577E+02  0.16735862024E+03 -0.39382049542E+02  0.18147503506E+03  0.46999998093E+01 0. -1.
       -5    1    3    3    0  502  0.57889936577E+02 -0.16735862024E+03  0.94753289111E+03  0.96395063269E+03  0.46999998093E+01 0.  1.
</event>
<event>
 5   0  0.1951465E-02  0.6999764E+03  0.7818609E-02  0.9717273E-01
       -1   -1    0    0    0  501  0.00000000000E+00  0.00000000000E+00  0.81434731745E+02  0.81434731901E+02  0.50400001928E-02 0.  1.
        1   -1    0    0  501    0  0.00000000000E+00  0.00000000000E+00 -0.15041707220E+04  0.15041707220E+04  0.50400001928E-02 0. -1.
    10030    2    1    2    0    0  0.00000000000E+00  0.00000000000E+00 -0.14227359903E+04  0.15856054539E+04  0.69997639782E+03 0.  0.
        4    1    3    3  502    0  0.58013519599E+02 -0.42130116226E+01  0.70403855097E+02  0.91332544231E+02  0.12699999809E+01 0.  1.
       -4    1    3    3    0  502 -0.58013519599E+02  0.42130116226E+01 -0.14931398454E+04  0.14942729097E+04  0.12699999809E+01 0. -1.
</event>
<event>
 5   0  0.3183963E-02  0.7012884E+03  0.7818609E-02  0.9715031E-01
        2   -1    0    0  501    0  0.00000000000E+00  0.00000000000E+00  0.17322065711E+04  0.17322065711E+04  0.25500000920E-02 0.  1.
       -2   -1    0    0    0  501  0.00000000000E+00  0.00000000000E+00 -0.70979608516E+02  0.70979608562E+02  0.25500000920E-02 0. -1.
    10030    2    1    2    0    0  0.00000000000E+00  0.00000000000E+00  0.16612269626E+04  0.18031861797E+04  0.70128836959E+03 0.  0.
        4    1    3    3  502    0 -0.54467990639E+02  0.21361082748E+03  0.15317366241E+04  0.15475189971E+04  0.12699999809E+01 0.  1.
       -4    1    3    3    0  502  0.54467990639E+02 -0.21361082748E+03  0.12949033848E+03  0.25566718264E+03  0.12699999809E+01 0. -1.
</event>
<event>
 5   0  0.3184443E-02  0.6942267E+03  0.7818609E-02  0.9727157E-01
        2   -1    0    0  501    0  0.00000000000E+00  0.00000000000E+00  0.20798860745E+04  0.20798860745E+04  0.25500000920E-02 0.  1.
       -2   -1    0    0    0  501  0.00000000000E+00  0.00000000000E+00 -0.57929936322E+02  0.57929936378E+02  0.25500000920E-02 0. -1.
    10030    2    1    2    0    0  0.00000000000E+00  0.00000000000E+00  0.20219561382E+04  0.21378160109E+04  0.69422667166E+03 0.  0.
        3    1    3    3  502    0  0.16869996769E+03  0.18169628698E+03  0.17590582825E+04  0.17764456849E+04  0.10100000352E+00 0.  1.
       -3    1    3    3    0  502 -0.16869996769E+03 -0.18169628698E+03  0.26289785563E+03  0.36137032597E+03  0.10100000352E+00 0. -1.
</event>
<event>
 5   0  0.1839038E-02  0.7411654E+03  0.7818609E-02  0.9649313E-01
       -1   -1    0    0    0  501  0.00000000000E+00  0.00000000000E+00  0.30935679752E+03  0.30935679756E+03  0.50400001928E-02 0.  1.
        1   -1    0    0  501    0  0.00000000000E+00  0.00000000000E+00 -0.44392605893E+03  0.44392605896E+03  0.50400001928E-02 0. -1.
    10030    2    1    2    0    0  0.00000000000E+00  0.00000000000E+00 -0.13456926141E+03  0.75328285652E+03  0.74116541731E+03 0.  0.
        5    1    3    3  502    0 -0.32878790985E+03  0.10222129456E+03  0.71917258751E+02  0.35177388310E+03  0.46999998093E+01 0. -1.
       -5    1    3    3    0  502  0.32878790985E+03 -0.10222129456E+03 -0.20648652016E+03  0.40150897342E+03  0.46999998093E+01 0.  1.
</event>
<event>
 5   0  0.2933851E-02  0.6954066E+03  0.7818609E-02  0.9725120E-01
        2   -1    0    0  501    0  0.00000000000E+00  0.00000000000E+00  0.83306626503E+03  0.83306626503E+03  0.25500000920E-02 0. -1.
       -2   -1    0    0    0  501  0.00000000000E+00  0.00000000000E+00 -0.14512361152E+03  0.14512361154E+03  0.25500000920E-02 0.  1.
    10030    2    1    2    0    0  0.00000000000E+00  0.00000000000E+00  0.68794265351E+03  0.97818987658E+03  0.69540660058E+03 0.  0.
        2    1    3    3  502    0 -0.29108712901E+03 -0.12287474886E+03  0.54814161957E+03  0.63268408838E+03  0.25500000920E-02 0. -1.
       -2    1    3    3    0  502  0.29108712901E+03  0.12287474886E+03  0.13980103394E+03  0.34550578820E+03  0.25500000920E-02 0.  1.
</event>
<event>
 5   0  0.1839038E-02  0.6877305E+03  0.7818609E-02  0.9738448E-01
       -1   -1    0    0    0  501  0.00000000000E+00  0.00000000000E+00  0.26819615960E+03  0.26819615965E+03  0.50400001928E-02 0. -1.
        1   -1    0    0  501    0  0.00000000000E+00  0.00000000000E+00 -0.44088369351E+03  0.44088369354E+03  0.50400001928E-02 0.  1.
    10030    2    1    2    0    0  0.00000000000E+00  0.00000000000E+00 -0.17268753391E+03  0.70907985319E+03  0.68773050960E+03 0.  0.
        5    1    3    3  502    0 -0.30177387957E+03  0.37496055147E+02  0.79098653583E+02  0.31424849330E+03  0.46999998093E+01 0. -1.
       -5    1    3    3    0  502  0.30177387957E+03 -0.37496055147E+02 -0.25178618749E+03  0.39483135989E+03  0.46999998093E+01 0.  1.
</event>
<event>
 5   0  0.2933851E-02  0.7005411E+03  0.7818609E-02  0.9716307E-01
       -2   -1    0    0    0  501  0.00000000000E+00  0.00000000000E+00  0.66604522933E+02  0.66604522982E+02  0.25500000920E-02 0. -1.
        2   -1    0    0  501    0  0.00000000000E+00  0.00000000000E+00 -0.18420589840E+04  0.18420589840E+04  0.25500000920E-02 0.  1.
    10030    2    1    2    0    0  0.00000000000E+00  0.00000000000E+00 -0.17754544611E+04  0.19086635070E+04  0.70054110485E+03 0.  0.
        2    1    3    3  502    0  0.15213138439E+03  0.20882256526E+03 -0.15321215318E+04  0.15537526219E+04  0.25500000920E-02 0.  1.
       -2    1    3    3    0  502 -0.15213138439E+03 -0.20882256526E+03 -0.24333292929E+03  0.35491088510E+03  0.25500000920E-02 0. -1.
</event>
<event>
 5   0  0.1884172E-02  0.6987253E+03  0.7818609E-02  0.9719415E-01
        1   -1    0    0  501    0  0.00000000000E+00  0.00000000000E+00  0.87161094697E+03  0.87161094698E+03  0.50400001928E-02 0. -1.
       -1   -1    0    0    0  501  0.00000000000E+00  0.00000000000E+00 -0.14003294291E+03  0.14003294300E+03  0.50400001928E-02 0.  1.
    10030    2    1    2    0    0  0.00000000000E+00  0.00000000000E+00  0.73157800406E+03  0.10116438900E+04  0.69872525653E+03 0.  0.
        3    1    3    3  502    0  0.33776458981E+03 -0.61460782585E+02  0.27204874179E+03  0.43803295999E+03  0.10100000352E+00 0.  1.
       -3    1    3    3    0  502 -0.33776458981E+03  0.61460782585E+02  0.45952926227E+03  0.57361092999E+03  0.10100000352E+00 0. -1.
</event>
<event>
 5   0  0.3184443E-02  0.7035511E+03  0.7818609E-02  0.9711178E-01
        2   -1    0    0  501    0  0.00000000000E+00  0.00000000000E+00  0.20044168480E+04  0.20044168480E+04  0.25500000920E-02 0. -1.
       -2   -1    0    0    0  501  0.00000000000E+00  0.00000000000E+00 -0.61736684683E+02  0.61736684736E+02  0.25500000920E-02 0.  1.
    10030    2    1    2    0    0  0.00000000000E+00  0.00000000000E+00  0.19426801634E+04  0.20661535328E+04  0.70355113809E+03 0.  0.
        3    1    3    3  502    0  0.10113740353E+03  0.95702985124E+02  0.22637198303E+02  0.14106838307E+03  0.10100000352E+00 0.  1.
       -3    1    3    3    0  502 -0.10113740353E+03 -0.95702985124E+02  0.19200429651E+04  0.19250851497E+04  0.10100000352E+00 0. -1.
</event>
<event>
 5   0  0.1858013E-02  0.7040557E+03  0.7818609E-02  0.9710322E-01
        1   -1    0    0  501    0  0.00000000000E+00  0.00000000000E+00  0.57531538023E+03  0.57531538025E+03  0.50400001928E-02 0.  1.
       -1   -1    0    0    0  501  0.00000000000E+00  0.00000000000E+00 -0.21540114295E+03  0.21540114301E+03  0.50400001928E-02 0. -1.
    10030    2    1    2    0    0  0.00000000000E+00  0.00000000000E+00  0.35991423728E+03  0.79071652325E+03  0.70405565260E+03 0.  0.
        2    1    3    3  502    0 -0.49986404846E+02 -0.16371032493E+03 -0.16551595113E+03  0.23810762534E+03  0.25500000920E-02 0. -1.
       -2    1    3    3    0  502  0.49986404846E+02  0.16371032493E+03  0.52543018841E+03  0.55260889792E+03  0.25500000920E-02 0.  1.
</event>
<event>
 5   0  0.1969818E-02  0.7014123E+03  0.7818609E-02  0.9714820E-01
       -1   -1    0    0    0  501  0.00000000000E+00  0.00000000000E+00  0.11576021182E+03  0.11576021193E+03  0.50400001928E-02 0. -1.
        1   -1    0    0  501    0  0.00000000000E+00  0.00000000000E+00 -0.10624964904E+04  0.10624964904E+04  0.50400001928E-02 0.  1.
    10030    2    1    2    0    0  0.00000000000E+00  0.00000000000E+00 -0.94673627856E+03  0.11782567023E+04  0.70141234336E+03 0.  0.
        1    1    3    3  502    0 -0.25207040623E+03  0.19269085122E+03 -0.72436468446E+03  0.79080557027E+03  0.50400001928E-02 0. -1.
       -1    1    3    3    0  502  0.25207040623E+03 -0.19269085122E+03 -0.22237159410E+03  0.38745113205E+03  0.50400001928E-02 0.  1.
</event>
<event>
 5   0  0.2933851E-02  0.7103247E+03  0.7818609E-02  0.9699737E-01
       -2   -1    0    0    0  501  0.00000000000E+00  0.00000000000E+00  0.17245260418E+03  0.17245260419E+03  0.25500000920E-02 0.  1.
        2   -1    0    0  501    0  0.00000000000E+00  0.00000000000E+00 -0.73144901265E+03  0.73144901265E+03  0.25500000920E-02 0. -1.
    10030    2    1    2    0    0  0.00000000000E+00  0.00000000000E+00 -0.55899640847E+03  0.90390161685E+03  0.71032467805E+03 0.  0.
        2    1    3    3  502    0 -0.20192811236E+03  0.22323275692E+03 -0.39627669962E+02  0.30360859434E+03  0.25500000920E-02 0. -1.
       -2    1    3    3    0  502  0.20192811236E+03 -0.22323275692E+03 -0.51936873851E+03  0.60029302251E+03  0.25500000920E-02 0.  1.
</event>
<event>
 5   0  0.1884172E-02  0.7018232E+03  0.7818609E-02  0.9714119E-01
       -1   -1    0    0    0  501  0.00000000000E+00  0.00000000000E+00  0.89267356748E+02  0.89267356890E+02  0.50400001928E-02 0.  1.
        1   -1    0    0  501    0  0.00000000000E+00  0.00000000000E+00 -0.13794399535E+04  0.13794399535E+04  0.50400001928E-02 0. -1.
    10030    2    1    2    0    0  0.00000000000E+00  0.00000000000E+00 -0.12901725967E+04  0.14687073104E+04  0.70182322148E+03 0.  0.
        3    1    3    3  502    0 -0.21985536415E+03  0.26268138336E+03 -0.48569627722E+03  0.59433893883E+03  0.10100000352E+00 0.  1.
       -3    1    3    3    0  502  0.21985536415E+03 -0.26268138336E+03 -0.80447631953E+03  0.87436837156E+03  0.10100000352E+00 0. -1.
</event>
<event>
 5   0  0.3183963E-02  0.6991838E+03  0.7818609E-02  0.9718629E-01
       -2   -1    0    0    0  501  0.00000000000E+00  0.00000000000E+00  0.89925678469E+02  0.89925678505E+02  0.25500000920E-02 0.  1.
        2   -1    0    0  501    0  0.00000000000E+00  0.00000000000E+00 -0.13590611101E+04  0.13590611101E+04  0.25500000920E-02 0. -1.
    10030    2    1    2    0    0  0.00000000000E+00  0.00000000000E+00 -0.12691354317E+04  0.14489867887E+04  0.69918378825E+03 0.  0.
        4    1    3    3  502    0  0.85476446798E+02  0.13546822504E+03 -0.12785300965E+04  0.12885257791E+04  0.12699999809E+01 0. -1.
       -4    1    3    3    0  502 -0.85476446798E+02 -0.13546822504E+03  0.93946648077E+01  0.16046100953E+03  0.12699999809E+01 0.  1.
</event>
<event>
 5   0  0.3184443E-02  0.7029195E+03  0.7818609E-02  0.9712253E-01
       -2   -1    0    0    0  501  0.00000000000E+00  0.00000000000E+00  0.14859039939E+03  0.14859039942E+03  0.25500000920E-02 0. -1.
        2   -1    0    0  501    0  0.00000000000E+00  0.00000000000E+00 -0.83130501155E+03  0.83130501156E+03  0.25500000920E-02 0.  1.
    10030    2    1    2    0    0  0.00000000000E+00  0.00000000000E+00 -0.68271461216E+03  0.97989541097E+03  0.70291946537E+03 0.  0.
        3    1    3    3  502    0 -0.21142318479E+03 -0.95212792515E+02 -0.70954843977E+03  0.74647453909E+03  0.10100000352E+00 0.  1.
       -3    1    3    3    0  502  0.21142318479E+03  0.95212792515E+02  0.26833827615E+02  0.23342087188E+03  0.10100000352E+00 0. -1.
</event>
<event>
 5   0  0.1233912E-02  0.7058895E+03  0.7818609E-02  0.9707213E-01
       -4   -1    0    0    0  501  0.00000000000E+00  0.00000000000E+00  0.30470416452E+03  0.30470681117E+03  0.12699999809E+01 0. -1.
        4   -1    0    0  501    0  0.00000000000E+00  0.00000000000E+00 -0.40881731860E+03  0.40881929123E+03  0.12699999809E+01 0.  1.
    10030    2    1    2    0    0  0.00000000000E+00  0.00000000000E+00 -0.10411315408E+03  0.71352610241E+03  0.70588947432E+03 0.  0.
        2    1    3    3  502    0 -0.25145143533E+03  0.24439067958E+03 -0.11430239547E+02  0.35083511651E+03  0.25500000920E-02 0. -1.
       -2    1    3    3    0  502  0.25145143533E+03 -0.24439067958E+03 -0.92682914531E+02  0.36269098589E+03  0.25500000920E-02 0.  1.
</event>
<event>
 5   0  0.1951465E-02  0.6988909E+03  0.7818609E-02  0.9719131E-01
       -1   -1    0    0    0  501  0.00000000000E+00  0.00000000000E+00  0.12124518772E+03  0.12124518782E+03  0.50400001928E-02 0. -1.
        1   -1    0    0  501    0  0.00000000000E+00  0.00000000000E+00 -0.10071503685E+04  0.10071503685E+04  0.50400001928E-02 0.  1.
    10030    2    1    2    0    0  0.00000000000E+00  0.00000000000E+00 -0.88590518079E+03  0.11283955563E+04  0.69889093729E+03 0.  0.
        4    1    3    3  502    0  0.55162675033E+02  0.22286929651E+02  0.11300415875E+03  0.12771523302E+03  0.12699999809E+01 0. -1.
       -4    1    3    3    0  502 -0.55162675033E+02 -0.22286929651E+02 -0.99890933955E+03  0.10006803233E+04  0.12699999809E+01 0.  1.
</event>
<event>
 5   0  0.1884172E-02  0.7021669E+03  0.7818609E-02  0.9713534E-01
        1   -1    0    0  501    0  0.00000000000E+00  0.00000000000E+00  0.22763965336E+03  0.22763965342E+03  0.50400001928E-02 0.  1.
       -1   -1    0    0    0  501  0.00000000000E+00  0.00000000000E+00 -0.54146799431E+03  0.54146799433E+03  0.50400001928E-02 0. -1.
    10030    2    1    2    0    0  0.00000000000E+00  0.00000000000E+00 -0.31382834095E+03  0.76910764775E+03  0.70216689344E+03 0.  0.
        3    1    3    3  502    0 -0.59558535474E+02  0.21145107149E+03 -0.45688548989E+03  0.50695476707E+03  0.10100000352E+00 0. -1.
       -3    1    3    3    0  502  0.59558535474E+02 -0.21145107149E+03  0.14305714895E+03  0.26215288068E+03  0.10100000352E+00 0.  1.
</event>
<event>
 5   0  0.1839038E-02  0.7046094E+03  0.7818609E-02  0.9709382E-01
        1   -1    0    0  501    0  0.00000000000E+00  0.00000000000E+00  0.41728823437E+03  0.41728823440E+03  0.50400001928E-02 0.  1.
       -1   -1    0    0    0  501  0.00000000000E+00  0.00000000000E+00 -0.29744095782E+03  0.29744095787E+03  0.50400001928E-02 0. -1.
    10030    2    1    2    0    0  0.00000000000E+00  0.00000000000E+00  0.11984727655E+03  0.71472919227E+03  0.70460942981E+03 0.  0.
        5    1    3    3  502    0  0.71442329806E+02 -0.18693263652E+03  0.35399896146E+03  0.40667575757E+03  0.46999998093E+01 0.  1.
       -5    1    3    3    0  502 -0.71442329806E+02  0.18693263652E+03 -0.23415168491E+03  0.30805343470E+03  0.46999998093E+01 0. -1.
</event>
<event>
 5   0  0.2933851E-02  0.7080528E+03  0.7818609E-02  0.9703559E-01
       -2   -1    0    0    0  501  0.00000000000E+00  0.00000000000E+00  0.21213040052E+03  0.21213040053E+03  0.25500000920E-02 0.  1.
        2   -1    0    0  501    0  0.00000000000E+00  0.00000000000E+00 -0.59083801640E+03  0.59083801640E+03  0.25500000920E-02 0. -1.
    10030    2    1    2    0    0  0.00000000000E+00  0.00000000000E+00 -0.37870761588E+03  0.80296841694E+03  0.70805283720E+03 0.  0.
        2    1    3    3  502    0 -0.34718443573E+03 -0.18846113044E+02 -0.26494067615E+03  0.43713358402E+03  0.25500000920E-02 0. -1.
       -2    1    3    3    0  502  0.34718443573E+03  0.18846113044E+02 -0.11376693973E+03  0.36583483292E+03  0.25500000920E-02 0.  1.
</event>
<event>
 5   0  0.3290656E-02  0.7005899E+03  0.7818609E-02  0.9716224E-01
       -2   -1    0    0    0  501  0.00000000000E+00  0.00000000000E+00  0.18448745221E+03  0.18448745222E+03  0.25500000920E-02 0. -1.
        2   -1    0    0  501    0  0.00000000000E+00  0.00000000000E+00 -0.66512131811E+03  0.66512131812E+03  0.25500000920E-02 0.  1.
    10030    2    1    2    0    0  0.00000000000E+00  0.00000000000E+00 -0.48063386591E+03  0.84960877034E+03  0.70058985832E+03 0.  0.
        1    1    3    3  502    0 -0.11052162167E+03  0.48367187903E+02  0.15849915255E+03  0.19918934487E+03  0.50400001928E-02 0. -1.
       -1    1    3    3    0  502  0.11052162167E+03 -0.48367187903E+02 -0.63913301846E+03  0.65041942547E+03  0.50400001928E-02 0.  1.
</event>
<event>
 5   0  0.3113940E-02  0.6985834E+03  0.7818609E-02  0.9719658E-01
        2   -1    0    0  501    0  0.00000000000E+00  0.00000000000E+00  0.99063807469E+03  0.99063807470E+03  0.25500000920E-02 0.  1.
       -2   -1    0    0    0  501  0.00000000000E+00  0.00000000000E+00 -0.12315768760E+03  0.12315768762E+03  0.25500000920E-02 0. -1.
    10030    2    1    2    0    0  0.00000000000E+00  0.00000000000E+00  0.86748038710E+03  0.11137957623E+04  0.69858340816E+03 0.  0.
        5    1    3    3  502    0  0.25896965511E+03  0.12016068868E+02  0.60601482897E+02  0.26627860956E+03  0.46999998093E+01 0. -1.
       -5    1    3    3    0  502 -0.25896965511E+03 -0.12016068868E+02  0.80687890420E+03  0.84751715276E+03  0.46999998093E+01 0.  1.
</event>
<event>
 5   0  0.3183963E-02  0.7073822E+03  0.7818609E-02  0.9704690E-01
       -2   -1    0    0    0  501  0.00000000000E+00  0.00000000000E+00  0.64817637124E+02  0.64817637174E+02  0.25500000920E-02 0.  1.
        2   -1    0    0  501    0  0.00000000000E+00  0.00000000000E+00 -0.19299900715E+04  0.19299900715E+04  0.25500000920E-02 0. -1.
    10030    2    1    2    0    0  0.00000000000E+00  0.00000000000E+00 -0.18651724344E+04  0.19948077087E+04  0.70738220549E+03 0.  0.
        4    1    3    3  502    0  0.21762202854E+03  0.26461081749E+03 -0.68485161694E+03  0.76576862182E+03  0.12699999809E+01 0.  1.
       -4    1    3    3    0  502 -0.21762202854E+03 -0.26461081749E+03 -0.11803208174E+04  0.12290390869E+04  0.12699999809E+01 0. -1.
</event>
<event>
 5   0  0.2933851E-02  0.7005721E+03  0.7818609E-02  0.9716254E-01
        2   -1    0    0  501    0  0.00000000000E+00  0.00000000000E+00  0.57325388842E+03  0.57325388842E+03  0.25500000920E-02 0. -1.
       -2   -1    0    0    0  501  0.00000000000E+00  0.00000000000E+00 -0.21404185597E+03  0.21404185599E+03  0.25500000920E-02 0.  1.
    10030    2    1    2    0    0  0.00000000000E+00  0.00000000000E+00  0.35921203245E+03  0.78729574441E+03  0.70057212685E+03 0.  0.
        2    1    3    3  502    0 -0.24494507456E+03  0.18760363488E+03 -0.67775229557E+01  0.30860840591E+03  0.25500000920E-02 0.  1.
       -2    1    3    3    0  502  0.24494507456E+03 -0.18760363488E+03  0.36598955540E+03  0.47868733850E+03  0.25500000920E-02 0. -1.
</event>
<event>
 5   0  0.3113940E-02  0.6959450E+03  0.7818609E-02  0.9724192E-01
        2   -1    0    0  501    0  0.00000000000E+00  0.00000000000E+00  0.12465572957E+04  0.12465572957E+04  0.25500000920E-02 0. -1.
       -2   -1    0    0    0  501  0.00000000000E+00  0.00000000000E+00 -0.97135427382E+02  0.97135427415E+02  0.25500000920E-02 0.  1.
    10030    2    1    2    0    0  0.00000000000E+00  0.00000000000E+00  0.11494218683E+04  0.13436927231E+04  0.69594504294E+03 0.  0.
        5    1    3    3  502    0  0.29095328350E+03 -0.38053486866E+02  0.93571853877E+03  0.98065955094E+03  0.46999998093E+01 0. -1.
       -5    1    3    3    0  502 -0.29095328350E+03  0.38053486866E+02  0.21370332953E+03  0.36303317217E+03  0.46999998093E+01 0.  1.
</event>
<event>
 5   0  0.3113940E-02  0.6980234E+03  0.7818609E-02  0.9720618E-01
       -2   -1    0    0    0  501  0.00000000000E+00  0.00000000000E+00  0.39602396515E+03  0.39602396515E+03  0.25500000920E-02 0.  1.
        2   -1    0    0  501    0  0.00000000000E+00  0.00000000000E+00 -0.30758026824E+03  0.30758026825E+03  0.25500000920E-02 0. -1.
    10030    2    1    2    0    0  0.00000000000E+00  0.00000000000E+00  0.88443696904E+02  0.70360423341E+03  0.69802337335E+03 0.  0.
        5    1    3    3  502    0  0.64834725731E+02  0.57610937019E+02  0.38495481252E+03  0.39463256253E+03  0.46999998093E+01 0.  1.
       -5    1    3    3    0  502 -0.64834725731E+02 -0.57610937019E+02 -0.29651111562E+03  0.30897167088E+03  0.46999998093E+01 0. -1.
</event>
<event>
 5   0  0.1858013E-02  0.6996631E+03  0.7818609E-02  0.9717809E-01
        1   -1    0    0  501    0  0.00000000000E+00  0.00000000000E+00  0.19604343732E+03  0.19604343739E+03  0.50400001928E-02 0.  1.
       -1   -1    0    0    0  501  0.00000000000E+00  0.00000000000E+00 -0.62426012871E+03  0.62426012873E+03  0.50400001928E-02 0. -1.
    10030    2    1    2    0    0  0.00000000000E+00  0.00000000000E+00 -0.42821669139E+03  0.82030356612E+03  0.69966306592E+03 0.  0.
        2    1    3    3  502    0  0.25071705046E+03  0.24394879713E+03 -0.21003909088E+03  0.40802754162E+03  0.25500000920E-02 0. -1.
       -2    1    3    3    0  502 -0.25071705046E+03 -0.24394879713E+03 -0.21817760051E+03  0.41227602451E+03  0.25500000920E-02 0.  1.
</event>
<event>
 5   0  0.1858013E-02  0.7002440E+03  0.7818609E-02  0.9716815E-01
       -1   -1    0    0    0  501  0.00000000000E+00  0.00000000000E+00  0.33173678331E+03  0.33173678334E+03  0.50400001928E-02 0. -1.
        1   -1    0    0  501    0  0.00000000000E+00  0.00000000000E+00 -0.36952614718E+03  0.36952614722E+03  0.50400001928E-02 0.  1.
    10030    2    1    2    0    0  0.00000000000E+00  0.00000000000E+00 -0.37789363877E+02  0.70126293056E+03  0.70024400159E+03 0.  0.
        2    1    3    3  502    0  0.14600889722E+03 -0.22415551213E+03 -0.24510191883E+03  0.36282122637E+03  0.25500000920E-02 0.  1.
       -2    1    3    3    0  502 -0.14600889722E+03  0.22415551213E+03  0.20731255495E+03  0.33844170419E+03  0.25500000920E-02 0. -1.
</event>
<event>
 5   0  0.1233912E-02  0.6977962E+03  0.7818609E-02  0.9721008E-01
       -4   -1    0    0    0  501  0.00000000000E+00  0.00000000000E+00  0.25541749678E+03  0.25542065414E+03  0.12699999809E+01 0.  1.
        4   -1    0    0  501    0  0.00000000000E+00  0.00000000000E+00 -0.47658488555E+03  0.47658657769E+03  0.12699999809E+01 0. -1.
    10030    2    1    2    0    0  0.00000000000E+00  0.00000000000E+00 -0.22116738877E+03  0.73200723182E+03  0.69779622641E+03 0.  0.
        1    1    3    3  502    0 -0.33126630451E+03  0.10359880105E+03 -0.14781776660E+03  0.37725345357E+03  0.50400001928E-02 0.  1.
       -1    1    3    3    0  502  0.33126630451E+03 -0.10359880105E+03 -0.73349622166E+02  0.35475377825E+03  0.50400001928E-02 0. -1.
</event>
<event>
 5   0  0.1839038E-02  0.7029527E+03  0.7818609E-02  0.9712196E-01
       -1   -1    0    0    0  501  0.00000000000E+00  0.00000000000E+00  0.15475976361E+03  0.15475976369E+03  0.50400001928E-02 0. -1.
        1   -1    0    0  501    0  0.00000000000E+00  0.00000000000E+00 -0.79824115245E+03  0.79824115247E+03  0.50400001928E-02 0.  1.
    10030    2    1    2    0    0  0.00000000000E+00  0.00000000000E+00 -0.64348138884E+03  0.95300091616E+03  0.70295266442E+03 0.  0.
        5    1    3    3  502    0  0.97576050278E+02 -0.13538714382E+03 -0.74105404011E+03  0.75962750389E+03  0.46999998093E+01 0.  1.
       -5    1    3    3    0  502 -0.97576050278E+02  0.13538714382E+03  0.97572651269E+02  0.19337341227E+03  0.46999998093E+01 0. -1.
</event>
<event>
 5   0  0.3184443E-02  0.7047448E+03  0.7818609E-02  0.9709152E-01
       -2   -1    0    0    0  501  0.00000000000E+00  0.00000000000E+00  0.14808308181E+03  0.14808308184E+03  0.25500000920E-02 0.  1.
        2   -1    0    0  501    0  0.00000000000E+00  0.00000000000E+00 -0.83849092181E+03  0.83849092181E+03  0.25500000920E-02 0. -1.
    10030    2    1    2    0    0  0.00000000000E+00  0.00000000000E+00 -0.69040783999E+03  0.98657400365E+03  0.70474483265E+03 0.  0.
        3    1    3    3  502    0  0.24579002418E+03  0.17999191062E+03 -0.97312520771E+02  0.31981175835E+03  0.10100000352E+00 0.  1.
       -3    1    3    3    0  502 -0.24579002418E+03 -0.17999191062E+03 -0.59309531922E+03  0.66676224530E+03  0.10100000352E+00 0. -1.
</event>
<event>
 5   0  0.1969818E-02  0.7084908E+03  0.7818609E-02  0.9702821E-01
       -1   -1    0    0    0  501  0.00000000000E+00  0.00000000000E+00  0.11447823683E+03  0.11447823694E+03  0.50400001928E-02 0.  1.
        1   -1    0    0  501    0  0.00000000000E+00  0.00000000000E+00 -0.10961893240E+04  0.10961893240E+04  0.50400001928E-02 0. -1.
    10030    2    1    2    0    0  0.00000000000E+00  0.00000000000E+00 -0.98171108720E+03  0.12106675610E+04  0.70849084996E+03 0.  0.
        1    1    3    3  502    0  0.14482643231E+03  0.29800030736E+03 -0.70504188795E+03  0.77901408361E+03  0.50400001928E-02 0. -1.
       -1    1    3    3    0  502 -0.14482643231E+03 -0.29800030736E+03 -0.27666919925E+03  0.43165347737E+03  0.50400001928E-02 0.  1.
</event>
<event>
 5   0  0.1858013E-02  0.7039998E+03  0.7818609E-02  0.9710416E-01
       -1   -1    0    0    0  501  0.00000000000E+00  0.00000000000E+00  0.28491688256E+03  0.28491688261E+03  0.50400001928E-02 0.  1.
        1   -1    0    0  501    0  0.00000000000E+00  0.00000000000E+00 -0.43487750459E+03  0.43487750462E+03  0.50400001928E-02 0. -1.
    10030    2    1    2    0    0  0.00000000000E+00  0.00000000000E+00 -0.14996062203E+03  0.71979438722E+03  0.70399983787E+03 0.  0.
        2    1    3    3  502    0 -0.13086359201E+03 -0.28324082906E+03  0.91627406530E+02  0.32518645204E+03  0.25500000920E-02 0.  1.
       -2    1    3    3    0  502  0.13086359201E+03  0.28324082906E+03 -0.24158802856E+03  0.39460793518E+03  0.25500000920E-02 0. -1.
</event>
<event>
 5   0  0.1839038E-02  0.7037544E+03  0.7818609E-02  0.9710833E-01
       -1   -1    0    0    0  501  0.00000000000E+00  0.00000000000E+00  0.13718207702E+03  0.13718207712E+03  0.50400001928E-02 0. -1.
        1   -1    0    0  501    0  0.00000000000E+00  0.00000000000E+00 -0.90257833541E+03  0.90257833543E+03  0.50400001928E-02 0.  1.
    10030    2    1    2    0    0  0.00000000000E+00  0.00000000000E+00 -0.76539625839E+03  0.10397604125E+04  0.70375441962E+03 0.  0.
        5    1    3    3  502    0  0.26669068901E+03  0.54810320192E+02 -0.53431441589E+02  0.27749793468E+03  0.46999998093E+01 0. -1.
       -5    1    3    3    0  502 -0.26669068901E+03 -0.54810320192E+02 -0.71196481680E+03  0.76226247786E+03  0.46999998093E+01 0.  1.
</event>
<event>
 5   0  0.2933851E-02  0.7070149E+03  0.7818609E-02  0.9705310E-01
       -2   -1    0    0    0  501  0.00000000000E+00  0.00000000000E+00  0.14044526119E+03  0.14044526121E+03  0.25500000920E-02 0. -1.
        2   -1    0    0  501    0  0.00000000000E+00  0.00000000000E+00 -0.88979507915E+03  0.88979507916E+03  0.25500000920E-02 0.  1.
    10030    2    1    2    0    0  0.00000000000E+00  0.00000000000E+00 -0.74934981797E+03  0.10302403404E+04  0.70701485786E+03 0.  0.
        2    1    3    3  502    0 -0.80813965676E+02  0.34316364530E+03 -0.41254218872E+03  0.54266310174E+03  0.25500000920E-02 0.  1.
       -2    1    3    3    0  502  0.80813965676E+02 -0.34316364530E+03 -0.33680762924E+03  0.48757723863E+03  0.25500000920E-02 0. -1.
</event>
<event>
 5   0  0.3183963E-02  0.7405501E+03  0.7818609E-02  0.9650293E-01
       -2   -1    0    0    0  501  0.00000000000E+00  0.00000000000E+00  0.90514724184E+02  0.90514724220E+02  0.25500000920E-02 0. -1.
        2   -1    0    0  501    0  0.00000000000E+00  0.00000000000E+00 -0.15147105853E+04  0.15147105853E+04  0.25500000920E-02 0.  1.
    10030    2    1    2    0    0  0.00000000000E+00  0.00000000000E+00 -0.14241958611E+04  0.16052253095E+04  0.74055009519E+03 0.  0.
        4    1    3    3  502    0 -0.25451731079E+03  0.10273018113E+01 -0.12950279399E+04  0.13198026727E+04  0.12699999809E+01 0.  1.
       -4    1    3    3    0  502  0.25451731079E+03 -0.10273018113E+01 -0.12916792121E+03  0.28542263682E+03  0.12699999809E+01 0. -1.
</event>
<event>
 5   0  0.1884172E-02  0.6823954E+03  0.7818609E-02  0.9747821E-01
       -1   -1    0    0    0  501  0.00000000000E+00  0.00000000000E+00  0.47870917156E+02  0.47870917422E+02  0.50400001928E-02 0.  1.
        1   -1    0    0  501    0  0.00000000000E+00  0.00000000000E+00 -0.24318701309E+04  0.24318701309E+04  0.50400001928E-02 0. -1.
    10030    2    1    2    0    0  0.00000000000E+00  0.00000000000E+00 -0.23839992138E+04  0.24797410483E+04  0.68239535141E+03 0.  0.
        3    1    3    3  502    0  0.27814702130E+03 -0.18928196151E+03 -0.98571768863E+03  0.10415530703E+04  0.10100000352E+00 0. -1.
       -3    1    3    3    0  502 -0.27814702130E+03  0.18928196151E+03 -0.13982815251E+04  0.14381879780E+04  0.10100000352E+00 0.  1.
</event>
<event>
 5   0  0.2933851E-02  0.6959378E+03  0.7818609E-02  0.9724204E-01
       -2   -1    0    0    0  501  0.00000000000E+00  0.00000000000E+00  0.55167508037E+02  0.55167508096E+02  0.25500000920E-02 0. -1.
        2   -1    0    0  501    0  0.00000000000E+00  0.00000000000E+00 -0.21948128365E+04  0.21948128365E+04  0.25500000920E-02 0.  1.
    10030    2    1    2    0    0  0.00000000000E+00  0.00000000000E+00 -0.21396453285E+04  0.22499803446E+04  0.69593779856E+03 0.  0.
        2    1    3    3  502    0 -0.21655136073E+03 -0.58447820901E+02 -0.19299012999E+04  0.19428920883E+04  0.25500000920E-02 0.  1.
       -2    1    3    3    0  502  0.21655136073E+03  0.58447820901E+02 -0.20974402857E+03  0.30708825625E+03  0.25500000920E-02 0. -1.
</event>
<event>
 5   0  0.1839038E-02  0.7565739E+03  0.7818609E-02  0.9625093E-01
        1   -1    0    0  501    0  0.00000000000E+00  0.00000000000E+00  0.10741253772E+04  0.10741253772E+04  0.50400001928E-02 0.  1.
       -1   -1    0    0    0  501  0.00000000000E+00  0.00000000000E+00 -0.13322561053E+03  0.13322561062E+03  0.50400001928E-02 0. -1.
    10030    2    1    2    0    0  0.00000000000E+00  0.00000000000E+00  0.94089976668E+03  0.12073509878E+04  0.75657388067E+03 0.  0.
        5    1    3    3  502    0 -0.20980832397E+03 -0.17202856568E+03  0.89104765289E+03  0.93145121716E+03  0.46999998093E+01 0.  1.
       -5    1    3    3    0  502  0.20980832397E+03  0.17202856568E+03  0.49852113787E+02  0.27589977069E+03  0.46999998093E+01 0. -1.
</event>
<event>
 5   0  0.1233912E-02  0.7105285E+03  0.7818609E-02  0.9699395E-01
       -3   -1    0    0    0  501  0.00000000000E+00  0.00000000000E+00  0.17535881220E+03  0.17535884129E+03  0.10100000352E+00 0. -1.
        3   -1    0    0  501    0  0.00000000000E+00  0.00000000000E+00 -0.71973946667E+03  0.71973947376E+03  0.10100000352E+00 0.  1.
    10030    2    1    2    0    0  0.00000000000E+00  0.00000000000E+00 -0.54438065447E+03  0.89509831504E+03  0.71052846293E+03 0.  0.
        4    1    3    3  502    0 -0.73389940925E+02 -0.30693243801E+03 -0.66661599088E+02  0.32255075047E+03  0.12699999809E+01 0.  1.
       -4    1    3    3    0  502  0.73389940925E+02  0.30693243801E+03 -0.47771905538E+03  0.57254756458E+03  0.12699999809E+01 0. -1.
</event>
<event>
 5   0  0.1951465E-02  0.6851104E+03  0.7818609E-02  0.9743040E-01
       -1   -1    0    0    0  501  0.00000000000E+00  0.00000000000E+00  0.12277473735E+03  0.12277473745E+03  0.50400001928E-02 0. -1.
        1   -1    0    0  501    0  0.00000000000E+00  0.00000000000E+00 -0.95576720021E+03  0.95576720022E+03  0.50400001928E-02 0.  1.
    10030    2    1    2    0    0  0.00000000000E+00  0.00000000000E+00 -0.83299246287E+03  0.10785419377E+04  0.68511040579E+03 0.  0.
        4    1    3    3  502    0  0.19018744881E+03 -0.11532118146E+03 -0.82662712056E+03  0.85602818290E+03  0.12699999809E+01 0.  1.
       -4    1    3    3    0  502 -0.19018744881E+03  0.11532118146E+03 -0.63653423099E+01  0.22251375477E+03  0.12699999809E+01 0. -1.
</event>
<event>
 5   0  0.1858013E-02  0.7031335E+03  0.7818609E-02  0.9711888E-01
        1   -1    0    0  501    0  0.00000000000E+00  0.00000000000E+00  0.32043997783E+03  0.32043997787E+03  0.50400001928E-02 0. -1.
       -1   -1    0    0    0  501  0.00000000000E+00  0.00000000000E+00 -0.38571710647E+03  0.38571710650E+03  0.50400001928E-02 0.  1.
    10030    2    1    2    0    0  0.00000000000E+00  0.00000000000E+00 -0.65277128639E+02  0.70615708437E+03  0.70313350389E+03 0.  0.
        2    1    3    3  502    0 -0.32942043361E+03 -0.12169425538E+03 -0.16079266062E+02  0.35154780141E+03  0.25500000920E-02 0. -1.
       -2    1    3    3    0  502  0.32942043361E+03  0.12169425538E+03 -0.49197862577E+02  0.35460928296E+03  0.25500000920E-02 0.  1.
</event>
<event>
 5   0  0.1839038E-02  0.6950916E+03  0.7818609E-02  0.9725663E-01
        1   -1    0    0  501    0  0.00000000000E+00  0.00000000000E+00  0.25201957183E+03  0.25201957188E+03  0.50400001928E-02 0.  1.
       -1   -1    0    0    0  501  0.00000000000E+00  0.00000000000E+00 -0.47928058963E+03  0.47928058966E+03  0.50400001928E-02 0. -1.
    10030    2    1    2    0    0  0.00000000000E+00  0.00000000000E+00 -0.22726101780E+03  0.73130016154E+03  0.69509161703E+03 0.  0.
        5    1    3    3  502    0 -0.20973667102E+03 -0.27704264259E+03 -0.11877415441E+03  0.36724853538E+03  0.46999998093E+01 0. -1.
       -5    1    3    3    0  502  0.20973667102E+03  0.27704264259E+03 -0.10848686339E+03  0.36405162616E+03  0.46999998093E+01 0.  1.
</event>
<event>
 5   0  0.1969818E-02  0.6860996E+03  0.7818609E-02  0.9741303E-01
       -1   -1    0    0    0  501  0.00000000000E+00  0.00000000000E+00  0.63654082816E+03  0.63654082818E+03  0.50400001928E-02 0.  1.
        1   -1    0    0  501    0  0.00000000000E+00  0.00000000000E+00 -0.18487921653E+03  0.18487921660E+03  0.50400001928E-02 0. -1.
    10030    2    1    2    0    0  0.00000000000E+00  0.00000000000E+00  0.45166161163E+03  0.82142004478E+03  0.68609961270E+03 0.  0.
        1    1    3    3  502    0  0.14610709024E+03 -0.28616602213E+03  0.36972236735E+03  0.48982946316E+03  0.50400001928E-02 0.  1.
       -1    1    3    3    0  502 -0.14610709024E+03  0.28616602213E+03  0.81939244282E+02  0.33159058162E+03  0.50400001928E-02 0. -1.
</event>
<event>
 5   0  0.3184443E-02  0.6740509E+03  0.7818609E-02  0.9762667E-01
       -2   -1    0    0    0  501  0.00000000000E+00  0.00000000000E+00  0.12006863905E+03  0.12006863908E+03  0.25500000920E-02 0. -1.
        2   -1    0    0  501    0  0.00000000000E+00  0.00000000000E+00 -0.94601027908E+03  0.94601027909E+03  0.25500000920E-02 0.  1.
    10030    2    1    2    0    0  0.00000000000E+00  0.00000000000E+00 -0.82594164003E+03  0.10660789182E+04  0.67405093800E+03 0.  0.
        3    1    3    3  502    0 -0.24192766627E+02 -0.26893573281E+03 -0.93995252018E+02  0.28591403593E+03  0.10100000352E+00 0. -1.
       -3    1    3    3    0  502  0.24192766627E+02  0.26893573281E+03 -0.73194638801E+03  0.78016488223E+03  0.10100000352E+00 0.  1.
</event>
<event>
 5   0  0.3184443E-02  0.7005386E+03  0.7818609E-02  0.9716312E-01
       -2   -1    0    0    0  501  0.00000000000E+00  0.00000000000E+00  0.27431061058E+03  0.27431061059E+03  0.25500000920E-02 0. -1.
        2   -1    0    0  501    0  0.00000000000E+00  0.00000000000E+00 -0.44726154786E+03  0.44726154787E+03  0.25500000920E-02 0.  1.
    10030    2    1    2    0    0  0.00000000000E+00  0.00000000000E+00 -0.17295093728E+03  0.72157215846E+03  0.70053861647E+03 0.  0.
        3    1    3    3  502    0  0.14087886811E+02 -0.31157927760E+03 -0.25066175785E+03  0.40013927804E+03  0.10100000352E+00 0.  1.
       -3    1    3    3    0  502 -0.14087886811E+02  0.31157927760E+03  0.77710820568E+02  0.32143288042E+03  0.10100000352E+00 0. -1.
</event>
<event>
 5   0  0.1839038E-02  0.7335606E+03  0.7818609E-02  0.9661500E-01
       -1   -1    0    0    0  501  0.00000000000E+00  0.00000000000E+00  0.23781837040E+03  0.23781837045E+03  0.50400001928E-02 0. -1.
        1   -1    0    0  501    0  0.00000000000E+00  0.00000000000E+00 -0.56567452070E+03  0.56567452072E+03  0.50400001928E-02 0.  1.
    10030    2    1    2    0    0  0.00000000000E+00  0.00000000000E+00 -0.32785615030E+03  0.80349289117E+03  0.73356061159E+03 0.  0.
        5    1    3    3  502    0  0.32663886622E+03  0.41682603890E+02 -0.34080077741E+03  0.47391734329E+03  0.46999998093E+01 0.  1.
       -5    1    3    3    0  502 -0.32663886622E+03 -0.41682603890E+02  0.12944627106E+02  0.32957554788E+03  0.46999998093E+01 0. -1.
</event>
<event>
 5   0  0.1884172E-02  0.6997325E+03  0.7818609E-02  0.9717690E-01
       -1   -1    0    0    0  501  0.00000000000E+00  0.00000000000E+00  0.34271775278E+03  0.34271775282E+03  0.50400001928E-02 0. -1.
        1   -1    0    0  501    0  0.00000000000E+00  0.00000000000E+00 -0.35716382514E+03  0.35716382518E+03  0.50400001928E-02 0.  1.
    10030    2    1    2    0    0  0.00000000000E+00  0.00000000000E+00 -0.14446072362E+02  0.69988157800E+03  0.69973247332E+03 0.  0.
        3    1    3    3  502    0 -0.30935999692E+03  0.11528036941E+03  0.10861702202E+03  0.34754976469E+03  0.10100000352E+00 0. -1.
       -3    1    3    3    0  502  0.30935999692E+03 -0.11528036941E+03 -0.12306309438E+03  0.35233181330E+03  0.10100000352E+00 0.  1.
</event>
<event>
 5   0  0.1884172E-02  0.6989471E+03  0.7818609E-02  0.9719034E-01
        1   -1    0    0  501    0  0.00000000000E+00  0.00000000000E+00  0.13473829236E+04  0.13473829237E+04  0.50400001928E-02 0. -1.
       -1   -1    0    0    0  501  0.00000000000E+00  0.00000000000E+00 -0.90643702643E+02  0.90643702783E+02  0.50400001928E-02 0.  1.
    10030    2    1    2    0    0  0.00000000000E+00  0.00000000000E+00  0.12567392210E+04  0.14380266264E+04  0.69894714302E+03 0.  0.
        3    1    3    3  502    0 -0.27618840338E+03  0.66827401963E+02  0.20981856187E+03  0.35322765311E+03  0.10100000352E+00 0.  1.
       -3    1    3    3    0  502  0.27618840338E+03 -0.66827401963E+02  0.10469206591E+04  0.10847989733E+04  0.10100000352E+00 0. -1.
</event>
<event>
 5   0  0.2933851E-02  0.7034442E+03  0.7818609E-02  0.9711360E-01
       -2   -1    0    0    0  501  0.00000000000E+00  0.00000000000E+00  0.13312741131E+03  0.13312741133E+03  0.25500000920E-02 0.  1.
        2   -1    0    0  501    0  0.00000000000E+00  0.00000000000E+00 -0.92924853724E+03  0.92924853725E+03  0.25500000920E-02 0. -1.
    10030    2    1    2    0    0  0.00000000000E+00  0.00000000000E+00 -0.79612112593E+03  0.10623759486E+04  0.70344424723E+03 0.  0.
        2    1    3    3  502    0  0.26412696159E+02 -0.32718520675E+02 -0.92543881095E+03  0.92639361231E+03  0.25500000920E-02 0. -1.
       -2    1    3    3    0  502 -0.26412696159E+02  0.32718520675E+02  0.12931768501E+03  0.13598233627E+03  0.25500000920E-02 0.  1.
</event>
<event>
 5   0  0.2933851E-02  0.7126148E+03  0.7818609E-02  0.9695899E-01
       -2   -1    0    0    0  501  0.00000000000E+00  0.00000000000E+00  0.20489432515E+03  0.20489432516E+03  0.25500000920E-02 0.  1.
        2   -1    0    0  501    0  0.00000000000E+00  0.00000000000E+00 -0.61961195978E+03  0.61961195979E+03  0.25500000920E-02 0. -1.
    10030    2    1    2    0    0  0.00000000000E+00  0.00000000000E+00 -0.41471763463E+03  0.82450628495E+03  0.71261483106E+03 0.  0.
        2    1    3    3  502    0  0.13611716889E+03 -0.46357907397E+01  0.17358854669E+03  0.22064078900E+03  0.25500000920E-02 0.  1.
       -2    1    3    3    0  502 -0.13611716889E+03  0.46357907397E+01 -0.58830618132E+03  0.60386549596E+03  0.25500000920E-02 0. -1.
</event>
<event>
 5   0  0.1951465E-02  0.6976630E+03  0.7818609E-02  0.9721237E-01
        1   -1    0    0  501    0  0.00000000000E+00  0.00000000000E+00  0.73242920059E+03  0.73242920061E+03  0.50400001928E-02 0.  1.
       -1   -1    0    0    0  501  0.00000000000E+00  0.00000000000E+00 -0.16613678286E+03  0.16613678293E+03  0.50400001928E-02 0. -1.
    10030    2    1    2    0    0  0.00000000000E+00  0.00000000000E+00  0.56629241774E+03  0.89856598354E+03  0.69766304503E+03 0.  0.
        4    1    3    3  502    0  0.11126158465E+03  0.32832422435E+03  0.33312660343E+03  0.48078153389E+03  0.12699999809E+01 0. -1.
       -4    1    3    3    0  502 -0.11126158465E+03 -0.32832422435E+03  0.23316581430E+03  0.41778444965E+03  0.12699999809E+01 0.  1.
</event>
<event>
 5   0  0.3290656E-02  0.6924641E+03  0.7818609E-02  0.9730207E-01
       -2   -1    0    0    0  501  0.00000000000E+00  0.00000000000E+00  0.63694146441E+02  0.63694146492E+02  0.25500000920E-02 0. -1.
        2   -1    0    0  501    0  0.00000000000E+00  0.00000000000E+00 -0.18820669646E+04  0.18820669646E+04  0.25500000920E-02 0.  1.
    10030    2    1    2    0    0  0.00000000000E+00  0.00000000000E+00 -0.18183728181E+04  0.19457611110E+04  0.69246414753E+03 0.  0.
        1    1    3    3  502    0  0.20671488873E+03  0.32084758453E+02 -0.16844166320E+04  0.16973567295E+04  0.50400001928E-02 0.  1.
       -1    1    3    3    0  502 -0.20671488873E+03 -0.32084758453E+02 -0.13395618607E+03  0.24840438152E+03  0.50400001928E-02 0. -1.
</event>
<event>
 5   0  0.1233912E-02  0.7067008E+03  0.7818609E-02  0.9705841E-01
        3   -1    0    0  501    0  0.00000000000E+00  0.00000000000E+00  0.14436029681E+03  0.14436033214E+03  0.10100000352E+00 0. -1.
       -3   -1    0    0    0  501  0.00000000000E+00  0.00000000000E+00 -0.86489497442E+03  0.86489498032E+03  0.10100000352E+00 0.  1.
    10030    2    1    2    0    0  0.00000000000E+00  0.00000000000E+00 -0.72053467762E+03  0.10092553125E+04  0.70670083068E+03 0.  0.
        4    1    3    3  502    0  0.26152764004E+03 -0.16928698086E+03 -0.12215125220E+03  0.33463013867E+03  0.12699999809E+01 0.  1.
       -4    1    3    3    0  502 -0.26152764004E+03  0.16928698086E+03 -0.59838342542E+03  0.67462517379E+03  0.12699999809E+01 0. -1.
</event>
<event>
 5   0  0.1233912E-02  0.7019786E+03  0.7818609E-02  0.9713855E-01
        4   -1    0    0  501    0  0.00000000000E+00  0.00000000000E+00  0.14439655448E+03  0.14440213934E+03  0.12699999809E+01 0. -1.
       -4   -1    0    0    0  501  0.00000000000E+00  0.00000000000E+00 -0.85313824421E+03  0.85313918949E+03  0.12699999809E+01 0.  1.
    10030    2    1    2    0    0  0.00000000000E+00  0.00000000000E+00 -0.70874168973E+03  0.99754132883E+03  0.70197857514E+03 0.  0.
        2    1    3    3  502    0 -0.97618515543E+02 -0.28623518602E+03 -0.60751400065E+03  0.67862597747E+03  0.25500000920E-02 0.  1.
       -2    1    3    3    0  502  0.97618515543E+02  0.28623518602E+03 -0.10122768908E+03  0.31891535136E+03  0.25500000920E-02 0. -1.
</event>
<event>
 5   0  0.3113940E-02  0.7033919E+03  0.7818609E-02  0.9711449E-01
       -2   -1    0    0    0  501  0.00000000000E+00  0.00000000000E+00  0.22504566155E+03  0.22504566156E+03  0.25500000920E-02 0.  1.
        2   -1    0    0  501    0  0.00000000000E+00  0.00000000000E+00 -0.54962195116E+03  0.54962195116E+03  0.25500000920E-02 0. -1.
    10030    2    1    2    0    0  0.00000000000E+00  0.00000000000E+00 -0.32457628961E+03  0.77466761273E+03  0.70339188397E+03 0.  0.
        5    1    3    3  502    0  0.11842433682E+03  0.22795146860E+03 -0.42679520002E+03  0.49815903921E+03  0.46999998093E+01 0. -1.
       -5    1    3    3    0  502 -0.11842433682E+03 -0.22795146860E+03  0.10221891041E+03  0.27650857352E+03  0.46999998093E+01 0.  1.
</event>
<event>
 5   0  0.1233912E-02  0.6924126E+03  0.7818609E-02  0.9730296E-01
       -3   -1    0    0    0  501  0.00000000000E+00  0.00000000000E+00  0.10739236164E+04  0.10739236212E+04  0.10100000352E+00 0.  1.
        3   -1    0    0  501    0  0.00000000000E+00  0.00000000000E+00 -0.11160827549E+03  0.11160832119E+03  0.10100000352E+00 0. -1.
    10030    2    1    2    0    0  0.00000000000E+00  0.00000000000E+00  0.96231534095E+03  0.11855319424E+04  0.69241257282E+03 0.  0.
        5    1    3    3  502    0  0.24080107967E+03  0.24541186892E+03  0.55016827661E+03  0.64878298988E+03  0.46999998093E+01 0. -1.
       -5    1    3    3    0  502 -0.24080107967E+03 -0.24541186892E+03  0.41214706434E+03  0.53674895251E+03  0.46999998093E+01 0.  1.
</event>
<event>
 5   0  0.2933851E-02  0.6960491E+03  0.7818609E-02  0.9724013E-01
        2   -1    0    0  501    0  0.00000000000E+00  0.00000000000E+00  0.58455683992E+03  0.58455683992E+03  0.25500000920E-02 0. -1.
       -2   -1    0    0    0  501  0.00000000000E+00  0.00000000000E+00 -0.20720153446E+03  0.20720153447E+03  0.25500000920E-02 0.  1.
    10030    2    1    2    0    0  0.00000000000E+00  0.00000000000E+00  0.37735530546E+03  0.79175837440E+03  0.69604906211E+03 0.  0.
        2    1    3    3  502    0  0.18667608778E+03  0.25858887564E+03  0.34713361422E+03  0.47139995172E+03  0.25500000920E-02 0. -1.
       -2    1    3    3    0  502 -0.18667608778E+03 -0.25858887564E+03  0.30221691245E+02  0.32035842268E+03  0.25500000920E-02 0.  1.
</event>
<event>
 5   0  0.1839038E-02  0.6980900E+03  0.7818609E-02  0.9720504E-01
        1   -1    0    0  501    0  0.00000000000E+00  0.00000000000E+00  0.45145113286E+03  0.45145113289E+03  0.50400001928E-02 0. -1.
       -1   -1    0    0    0  501  0.00000000000E+00  0.00000000000E+00 -0.26986847218E+03  0.26986847223E+03  0.50400001928E-02 0.  1.
    10030    2    1    2    0    0  0.00000000000E+00  0.00000000000E+00  0.18158266068E+03  0.72131960511E+03  0.69809004438E+03 0.  0.
        5    1    3    3  502    0  0.57072270141E+02 -0.29145973033E+03 -0.98623440004E+02  0.31297714188E+03  0.46999998093E+01 0.  1.
       -5    1    3    3    0  502 -0.57072270141E+02  0.29145973033E+03  0.28020610069E+03  0.40834246324E+03  0.46999998093E+01 0. -1.
</event>
<event>
 5   0  0.3184443E-02  0.6969484E+03  0.7818609E-02  0.9722465E-01
       -2   -1    0    0    0  501  0.00000000000E+00  0.00000000000E+00  0.12583058642E+03  0.12583058645E+03  0.25500000920E-02 0.  1.
        2   -1    0    0  501    0  0.00000000000E+00  0.00000000000E+00 -0.96506155121E+03  0.96506155121E+03  0.25500000920E-02 0. -1.
    10030    2    1    2    0    0  0.00000000000E+00  0.00000000000E+00 -0.83923096479E+03  0.10908921377E+04  0.69694837955E+03 0.  0.
        3    1    3    3  502    0  0.20730100569E+03 -0.23215609550E+03 -0.17429627733E+03  0.35672028556E+03  0.10100000352E+00 0. -1.
       -3    1    3    3    0  502 -0.20730100569E+03  0.23215609550E+03 -0.66493468745E+03  0.73417185210E+03  0.10100000352E+00 0.  1.
</event>
<event>
 5   0  0.1884172E-02  0.7796981E+03  0.7818609E-02  0.9589877E-01
       -1   -1    0    0    0  501  0.00000000000E+00  0.00000000000E+00  0.14671309143E+03  0.14671309152E+03  0.50400001928E-02 0. -1.
        1   -1    0    0  501    0  0.00000000000E+00  0.00000000000E+00 -0.10359149299E+04  0.10359149299E+04  0.50400001928E-02 0.  1.
    10030    2    1    2    0    0  0.00000000000E+00  0.00000000000E+00 -0.88920183844E+03  0.11826280214E+04  0.77969810025E+03 0.  0.
        3    1    3    3  502    0  0.18493092190E+03 -0.27901412129E+03 -0.74770571071E+03  0.81921435887E+03  0.10100000352E+00 0.  1.
       -3    1    3    3    0  502 -0.18493092190E+03  0.27901412129E+03 -0.14149612773E+03  0.36341366254E+03  0.10100000352E+00 0. -1.
</event>
<event>
 5   0  0.3183963E-02  0.7038372E+03  0.7818609E-02  0.9710693E-01
        2   -1    0    0  501    0  0.00000000000E+00  0.00000000000E+00  0.19043870693E+04  0.19043870693E+04  0.25500000920E-02 0. -1.
       -2   -1    0    0    0  501  0.00000000000E+00  0.00000000000E+00 -0.65032310692E+02  0.65032310742E+02  0.25500000920E-02 0.  1.
    10030    2    1    2    0    0  0.00000000000E+00  0.00000000000E+00  0.18393547586E+04  0.19694193800E+04  0.70383717327E+03 0.  0.
        4    1    3    3  502    0  0.13895492402E+03  0.14988013219E+02  0.15959083104E+02  0.14067486158E+03  0.12699999809E+01 0.  1.
       -4    1    3    3    0  502 -0.13895492402E+03 -0.14988013219E+02  0.18233956755E+04  0.18287445184E+04  0.12699999809E+01 0. -1.
</event>
<event>
 5   0  0.1858013E-02  0.6998697E+03  0.7818609E-02  0.9717455E-01
        1   -1    0    0  501    0  0.00000000000E+00  0.00000000000E+00  0.35501061678E+03  0.35501061681E+03  0.50400001928E-02 0.  1.
       -1   -1    0    0    0  501  0.00000000000E+00  0.00000000000E+00 -0.34493160705E+03  0.34493160709E+03  0.50400001928E-02 0. -1.
    10030    2    1    2    0    0  0.00000000000E+00  0.00000000000E+00  0.10079009721E+02  0.69994222390E+03  0.69986965241E+03 0.  0.
        2    1    3    3  502    0 -0.33469307103E+03 -0.91166137610E+02  0.51127535678E+02  0.35063476917E+03  0.25500000920E-02 0. -1.
       -2    1    3    3    0  502  0.33469307103E+03  0.91166137610E+02 -0.41048525957E+02  0.34930745473E+03  0.25500000920E-02 0.  1.
</event>
<event>
 5   0  0.1969818E-02  0.7033097E+03  0.7818609E-02  0.9711589E-01
       -1   -1    0    0    0  501  0.00000000000E+00  0.00000000000E+00  0.28287912056E+03  0.28287912060E+03  0.50400001928E-02 0.  1.
        1   -1    0    0  501    0  0.00000000000E+00  0.00000000000E+00 -0.43715184763E+03  0.43715184765E+03  0.50400001928E-02 0. -1.
    10030    2    1    2    0    0  0.00000000000E+00  0.00000000000E+00 -0.15427272707E+03  0.72003096826E+03  0.70330969063E+03 0.  0.
        1    1    3    3  502    0 -0.33118923515E+03  0.51989727723E+02  0.31556974108E+02  0.33672701689E+03  0.50400001928E-02 0.  1.
       -1    1    3    3    0  502  0.33118923515E+03 -0.51989727723E+02 -0.18582970118E+03  0.38330395136E+03  0.50400001928E-02 0. -1.
</event>
<event>
 5   0  0.3113940E-02  0.7320304E+03  0.7818609E-02  0.9663971E-01
       -2   -1    0    0    0  501  0.00000000000E+00  0.00000000000E+00  0.10771671584E+03  0.10771671587E+03  0.25500000920E-02 0.  1.
        2   -1    0    0  501    0  0.00000000000E+00  0.00000000000E+00 -0.12436985647E+04  0.12436985648E+04  0.25500000920E-02 0. -1.
    10030    2    1    2    0    0  0.00000000000E+00  0.00000000000E+00 -0.11359818489E+04  0.13514152806E+04  0.73203039529E+03 0.  0.
        5    1    3    3  502    0 -0.20865762526E+03  0.23347640488E+03 -0.21822175839E+03  0.38169629557E+03  0.46999998093E+01 0.  1.
       -5    1    3    3    0  502  0.20865762526E+03 -0.23347640488E+03 -0.91776009052E+03  0.96971898505E+03  0.46999998093E+01 0. -1.
</event>
<event>
 5   0  0.1839038E-02  0.6944706E+03  0.7818609E-02  0.9726735E-01
       -1   -1    0    0    0  501  0.00000000000E+00  0.00000000000E+00  0.41109929642E+03  0.41109929645E+03  0.50400001928E-02 0. -1.
        1   -1    0    0  501    0  0.00000000000E+00  0.00000000000E+00 -0.29329254161E+03  0.29329254165E+03  0.50400001928E-02 0.  1.
    10030    2    1    2    0    0  0.00000000000E+00  0.00000000000E+00  0.11780675481E+03  0.70439183811E+03  0.69447061141E+03 0.  0.
        5    1    3    3  502    0 -0.35700572676E+02 -0.31053354786E+03  0.21220710652E+03  0.37783536268E+03  0.46999998093E+01 0. -1.
       -5    1    3    3    0  502  0.35700572676E+02  0.31053354786E+03 -0.94400351712E+02  0.32655647542E+03  0.46999998093E+01 0.  1.
</event>
<event>
 5   0  0.3184443E-02  0.7012354E+03  0.7818609E-02  0.9715122E-01
       -2   -1    0    0    0  501  0.00000000000E+00  0.00000000000E+00  0.68890154815E+02  0.68890154862E+02  0.25500000920E-02 0.  1.
        2   -1    0    0  501    0  0.00000000000E+00  0.00000000000E+00 -0.17844752716E+04  0.17844752716E+04  0.25500000920E-02 0. -1.
    10030    2    1    2    0    0  0.00000000000E+00  0.00000000000E+00 -0.17155851168E+04  0.18533654264E+04  0.70123541772E+03 0.  0.
        3    1    3    3  502    0 -0.26800265810E+03  0.19371167050E+03 -0.54975961399E+03  0.64154912470E+03  0.10100000352E+00 0.  1.
       -3    1    3    3    0  502  0.26800265810E+03 -0.19371167050E+03 -0.11658255028E+04  0.12118163017E+04  0.10100000352E+00 0. -1.
</event>
<event>
 5   0  0.3290656E-02  0.6967689E+03  0.7818609E-02  0.9722774E-01
       -2   -1    0    0    0  501  0.00000000000E+00  0.00000000000E+00  0.16703992403E+03  0.16703992405E+03  0.25500000920E-02 0.  1.
        2   -1    0    0  501    0  0.00000000000E+00  0.00000000000E+00 -0.72660316035E+03  0.72660316035E+03  0.25500000920E-02 0. -1.
    10030    2    1    2    0    0  0.00000000000E+00  0.00000000000E+00 -0.55956323631E+03  0.89364308441E+03  0.69676893363E+03 0.  0.
        1    1    3    3  502    0  0.83969390862E+02 -0.23830793333E+03 -0.58740779516E+03  0.63944463993E+03  0.50400001928E-02 0. -1.
       -1    1    3    3    0  502 -0.83969390862E+02  0.23830793333E+03  0.27844558852E+02  0.25419844447E+03  0.50400001928E-02 0.  1.
</event>
<event>
 5   0  0.1858013E-02  0.7195772E+03  0.7818609E-02  0.9684326E-01
        1   -1    0    0  501    0  0.00000000000E+00  0.00000000000E+00  0.88127896347E+03  0.88127896349E+03  0.50400001928E-02 0.  1.
       -1   -1    0    0    0  501  0.00000000000E+00  0.00000000000E+00 -0.14688635324E+03  0.14688635333E+03  0.50400001928E-02 0. -1.
    10030    2    1    2    0    0  0.00000000000E+00  0.00000000000E+00  0.73439261023E+03  0.10281653168E+04  0.71957724585E+03 0.  0.
        2    1    3    3  502    0  0.33125012792E+03  0.10126202956E+03  0.50622244718E+03  0.61338553285E+03  0.25500000920E-02 0. -1.
       -2    1    3    3    0  502 -0.33125012792E+03 -0.10126202956E+03  0.22817016306E+03  0.41477978397E+03  0.25500000920E-02 0.  1.
</event>
<event>
 5   0  0.1858013E-02  0.7016612E+03  0.7818609E-02  0.9714395E-01
       -1   -1    0    0    0  501  0.00000000000E+00  0.00000000000E+00  0.39496106081E+03  0.39496106084E+03  0.50400001928E-02 0.  1.
        1   -1    0    0  501    0  0.00000000000E+00  0.00000000000E+00 -0.31163102535E+03  0.31163102539E+03  0.50400001928E-02 0. -1.
    10030    2    1    2    0    0  0.00000000000E+00  0.00000000000E+00  0.83330035461E+02  0.70659208624E+03  0.70166122988E+03 0.  0.
        2    1    3    3  502    0  0.12034820175E+03  0.22253425813E+03  0.28643055253E+03  0.38216180753E+03  0.25500000920E-02 0.  1.
       -2    1    3    3    0  502 -0.12034820175E+03 -0.22253425813E+03 -0.20310051706E+03  0.32443027871E+03  0.25500000920E-02 0. -1.
</event>
<event>
 5   0  0.3184443E-02  0.7031083E+03  0.7818609E-02  0.9711931E-01
       -2   -1    0    0    0  501  0.00000000000E+00  0.00000000000E+00  0.93789154507E+02  0.93789154542E+02  0.25500000920E-02 0.  1.
        2   -1    0    0  501    0  0.00000000000E+00  0.00000000000E+00 -0.13177464597E+04  0.13177464597E+04  0.25500000920E-02 0. -1.
    10030    2    1    2    0    0  0.00000000000E+00  0.00000000000E+00 -0.12239573052E+04  0.14115356143E+04  0.70310831695E+03 0.  0.
        3    1    3    3  502    0  0.16438285555E+03 -0.20117940393E+03 -0.13649741333E+03  0.29347304784E+03  0.10100000352E+00 0.  1.
       -3    1    3    3    0  502 -0.16438285555E+03  0.20117940393E+03 -0.10874598919E+04  0.11180625664E+04  0.10100000352E+00 0. -1.
</event>
<event>
 5   0  0.3113940E-02  0.6953142E+03  0.7818609E-02  0.9725279E-01
        2   -1    0    0  501    0  0.00000000000E+00  0.00000000000E+00  0.14238736125E+04  0.14238736125E+04  0.25500000920E-02 0.  1.
       -2   -1    0    0    0  501  0.00000000000E+00  0.00000000000E+00 -0.84884960488E+02  0.84884960527E+02  0.25500000920E-02 0. -1.
    10030    2    1    2    0    0  0.00000000000E+00  0.00000000000E+00  0.13389886520E+04  0.15087585731E+04  0.69531418904E+03 0.  0.
        5    1    3    3  502    0  0.20649858325E+03  0.18997742989E+03  0.22421482119E+03  0.35920393204E+03  0.46999998093E+01 0. -1.
       -5    1    3    3    0  502 -0.20649858325E+03 -0.18997742989E+03  0.11147738309E+04  0.11495546410E+04  0.46999998093E+01 0.  1.
</event>
<event>
 5   0  0.1951465E-02  0.7017069E+03  0.7818609E-02  0.9714318E-01
       -1   -1    0    0    0  501  0.00000000000E+00  0.00000000000E+00  0.41975589225E+03  0.41975589228E+03  0.50400001928E-02 0.  1.
        1   -1    0    0  501    0  0.00000000000E+00  0.00000000000E+00 -0.29326129819E+03  0.29326129823E+03  0.50400001928E-02 0. -1.
    10030    2    1    2    0    0  0.00000000000E+00  0.00000000000E+00  0.12649459406E+03  0.71301719052E+03  0.70170694143E+03 0.  0.
        4    1    3    3  502    0  0.11196146268E+03 -0.19747038634E+03  0.33507861356E+03  0.40473350834E+03  0.12699999809E+01 0.  1.
       -4    1    3    3    0  502 -0.11196146268E+03  0.19747038634E+03 -0.20858401950E+03  0.30828368218E+03  0.12699999809E+01 0. -1.
</event>
<event>
 5   0  0.1951465E-02  0.6921310E+03  0.7818609E-02  0.9730785E-01
       -1   -1    0    0    0  501  0.00000000000E+00  0.00000000000E+00  0.23458270465E+03  0.23458270470E+03  0.50400001928E-02 0.  1.
        1   -1    0    0  501    0  0.00000000000E+00  0.00000000000E+00 -0.51052919531E+03  0.51052919534E+03  0.50400001928E-02 0. -1.
    10030    2    1    2    0    0  0.00000000000E+00  0.00000000000E+00 -0.27594649067E+03  0.74511190004E+03  0.69213096872E+03 0.  0.
        4    1    3    3  502    0  0.56081782991E+02  0.11468887564E+03 -0.48424858008E+03  0.50079637058E+03  0.12699999809E+01 0. -1.
       -4    1    3    3    0  502 -0.56081782991E+02 -0.11468887564E+03  0.20830208941E+03  0.24431552945E+03  0.12699999809E+01 0.  1.
</event>
<event>
 5   0  0.1969818E-02  0.6982624E+03  0.7818609E-02  0.9720208E-01
       -1   -1    0    0    0  501  0.00000000000E+00  0.00000000000E+00  0.30255897703E+03  0.30255897707E+03  0.50400001928E-02 0. -1.
        1   -1    0    0  501    0  0.00000000000E+00  0.00000000000E+00 -0.40287214024E+03  0.40287214027E+03  0.50400001928E-02 0.  1.
    10030    2    1    2    0    0  0.00000000000E+00  0.00000000000E+00 -0.10031316322E+03  0.70543111734E+03  0.69826236516E+03 0.  0.
        1    1    3    3  502    0  0.33709596989E+03 -0.79115182221E+02 -0.95333434509E+02  0.35913976212E+03  0.50400001928E-02 0. -1.
       -1    1    3    3    0  502 -0.33709596989E+03  0.79115182221E+02 -0.49797287075E+01  0.34629135522E+03  0.50400001928E-02 0.  1.
</event>
<event>
 5   0  0.1969818E-02  0.6926741E+03  0.7818609E-02  0.9729843E-01
        1   -1    0    0  501    0  0.00000000000E+00  0.00000000000E+00  0.15806766047E+04  0.15806766047E+04  0.50400001928E-02 0. -1.
       -1   -1    0    0    0  501  0.00000000000E+00  0.00000000000E+00 -0.75884817250E+02  0.75884817417E+02  0.50400001928E-02 0.  1.
    10030    2    1    2    0    0  0.00000000000E+00  0.00000000000E+00  0.15047917874E+04  0.16565614221E+04  0.69267410929E+03 0.  0.
        1    1    3    3  502    0  0.86854411298E+02  0.32126073127E+03  0.52304173443E+03  0.61993935365E+03  0.50400001928E-02 0.  1.
       -1    1    3    3    0  502 -0.86854411298E+02 -0.32126073127E+03  0.98175005299E+03  0.10366220684E+04  0.50400001928E-02 0. -1.
</event>
<event>
 5   0  0.1858013E-02  0.6963368E+03  0.7818609E-02  0.9723517E-01
        1   -1    0    0  501    0  0.00000000000E+00  0.00000000000E+00  0.95811609946E+03  0.95811609947E+03  0.50400001928E-02 0.  1.
       -1   -1    0    0    0  501  0.00000000000E+00  0.00000000000E+00 -0.12652040453E+03  0.12652040463E+03  0.50400001928E-02 0. -1.
    10030    2    1    2    0    0  0.00000000000E+00  0.00000000000E+00  0.83159569493E+03  0.10846365041E+04  0.69633680515E+03 0.  0.
        2    1    3    3  502    0  0.27242662470E+03  0.11056148758E+03  0.12530416059E+03  0.31959543339E+03  0.25500000920E-02 0. -1.
       -2    1    3    3    0  502 -0.27242662470E+03 -0.11056148758E+03  0.70629153434E+03  0.76504107071E+03  0.25500000920E-02 0.  1.
</event>
<event>
 5   0  0.1839038E-02  0.6828987E+03  0.7818609E-02  0.9746933E-01
       -1   -1    0    0    0  501  0.00000000000E+00  0.00000000000E+00  0.36681391606E+03  0.36681391609E+03  0.50400001928E-02 0.  1.
        1   -1    0    0  501    0  0.00000000000E+00  0.00000000000E+00 -0.31783868662E+03  0.31783868666E+03  0.50400001928E-02 0. -1.
    10030    2    1    2    0    0  0.00000000000E+00  0.00000000000E+00  0.48975229444E+02  0.68465260275E+03  0.68289868454E+03 0.  0.
        5    1    3    3  502    0 -0.11678410560E+03  0.29060016042E+03  0.16077269593E+03  0.35207517707E+03  0.46999998093E+01 0. -1.
       -5    1    3    3    0  502  0.11678410560E+03 -0.29060016042E+03 -0.11179746648E+03  0.33257742567E+03  0.46999998093E+01 0.  1.
</event>
<event>
 5   0  0.1233912E-02  0.7018059E+03  0.7818609E-02  0.9714149E-01
       -3   -1    0    0    0  501  0.00000000000E+00  0.00000000000E+00  0.11368505722E+03  0.11368510208E+03  0.10100000352E+00 0. -1.
        3   -1    0    0  501    0  0.00000000000E+00  0.00000000000E+00 -0.10831049688E+04  0.10831049735E+04  0.10100000352E+00 0.  1.
    10030    2    1    2    0    0  0.00000000000E+00  0.00000000000E+00 -0.96941991160E+03  0.11967900756E+04  0.70180589913E+03 0.  0.
        5    1    3    3  502    0  0.43784113791E+02  0.26405375768E+02 -0.10766642514E+04  0.10778878851E+04  0.46999998093E+01 0.  1.
       -5    1    3    3    0  502 -0.43784113791E+02 -0.26405375768E+02  0.10724433983E+03  0.11890219053E+03  0.46999998093E+01 0. -1.
</event>
<event>
 5   0  0.1858013E-02  0.7034706E+03  0.7818609E-02  0.9711315E-01
       -1   -1    0    0    0  501  0.00000000000E+00  0.00000000000E+00  0.48269108335E+03  0.48269108338E+03  0.50400001928E-02 0.  1.
        1   -1    0    0  501    0  0.00000000000E+00  0.00000000000E+00 -0.25630830680E+03  0.25630830685E+03  0.50400001928E-02 0. -1.
    10030    2    1    2    0    0  0.00000000000E+00  0.00000000000E+00  0.22638277655E+03  0.73899939023E+03  0.70347063708E+03 0.  0.
        2    1    3    3  502    0  0.28871804412E+03  0.17872175707E+03  0.16807007044E+02  0.33997360331E+03  0.25500000920E-02 0. -1.
       -2    1    3    3    0  502 -0.28871804412E+03 -0.17872175707E+03  0.20957576951E+03  0.39902578692E+03  0.25500000920E-02 0.  1.
</event>
<event>
 5   0  0.3290656E-02  0.6920440E+03  0.7818609E-02  0.9730936E-01
       -2   -1    0    0    0  501  0.00000000000E+00  0.00000000000E+00  0.95945871850E+02  0.95945871884E+02  0.25500000920E-02 0.  1.
        2   -1    0    0  501    0  0.00000000000E+00  0.00000000000E+00 -0.12479037803E+04  0.12479037803E+04  0.25500000920E-02 0. -1.
    10030    2    1    2    0    0  0.00000000000E+00  0.00000000000E+00 -0.11519579084E+04  0.13438496522E+04  0.69204397608E+03 0.  0.
        1    1    3    3  502    0 -0.23027090050E+03  0.16185210670E+02 -0.10765281063E+04  0.11009992790E+04  0.50400001928E-02 0. -1.
       -1    1    3    3    0  502  0.23027090050E+03 -0.16185210670E+02 -0.75429802083E+02  0.24285037313E+03  0.50400001928E-02 0.  1.
</event>
<event>
 5   0  0.3290656E-02  0.7041119E+03  0.7818609E-02  0.9710226E-01
       -2   -1    0    0    0  501  0.00000000000E+00  0.00000000000E+00  0.26085183467E+03  0.26085183468E+03  0.25500000920E-02 0.  1.
        2   -1    0    0  501    0  0.00000000000E+00  0.00000000000E+00 -0.47514861068E+03  0.47514861069E+03  0.25500000920E-02 0. -1.
    10030    2    1    2    0    0  0.00000000000E+00  0.00000000000E+00 -0.21429677602E+03  0.73600044537E+03  0.70411188555E+03 0.  0.
        1    1    3    3  502    0 -0.15182646695E+03  0.14939436929E+03 -0.40015287195E+03  0.45331255729E+03  0.50400001928E-02 0. -1.
       -1    1    3    3    0  502  0.15182646695E+03 -0.14939436929E+03  0.18585609593E+03  0.28268788808E+03  0.50400001928E-02 0.  1.
</event>
<event>
 5   0  0.2933851E-02  0.6897546E+03  0.7818609E-02  0.9734915E-01
        2   -1    0    0  501    0  0.00000000000E+00  0.00000000000E+00  0.19545456578E+03  0.19545456579E+03  0.25500000920E-02 0.  1.
       -2   -1    0    0    0  501  0.00000000000E+00  0.00000000000E+00 -0.60853192975E+03  0.60853192976E+03  0.25500000920E-02 0. -1.
    10030    2    1    2    0    0  0.00000000000E+00  0.00000000000E+00 -0.41307736398E+03  0.80398649555E+03  0.68975457693E+03 0.  0.
        2    1    3    3  502    0  0.28387917501E+03  0.80638562601E+02 -0.41456173900E+03  0.50887267487E+03  0.25500000920E-02 0.  1.
       -2    1    3    3    0  502 -0.28387917501E+03 -0.80638562601E+02  0.14843750242E+01  0.29511382068E+03  0.25500000920E-02 0. -1.
</event>
<event>
 5   0  0.1951465E-02  0.7008029E+03  0.7818609E-02  0.9715860E-01
        1   -1    0    0  501    0  0.00000000000E+00  0.00000000000E+00  0.39114106681E+03  0.39114106685E+03  0.50400001928E-02 0.  1.
       -1   -1    0    0    0  501  0.00000000000E+00  0.00000000000E+00 -0.31390508012E+03  0.31390508016E+03  0.50400001928E-02 0. -1.
    10030    2    1    2    0    0  0.00000000000E+00  0.00000000000E+00  0.77235986694E+02  0.70504614700E+03  0.70080287654E+03 0.  0.
        4    1    3    3  502    0  0.86446902737E+02  0.11529268255E+03  0.35994833657E+03  0.38772398371E+03  0.12699999809E+01 0.  1.
       -4    1    3    3    0  502 -0.86446902737E+02 -0.11529268255E+03 -0.28271234988E+03  0.31732216329E+03  0.12699999809E+01 0. -1.
</event>
<event>
 5   0  0.1951465E-02  0.6867293E+03  0.7818609E-02  0.9740200E-01
       -1   -1    0    0    0  501  0.00000000000E+00  0.00000000000E+00  0.14269007693E+03  0.14269007702E+03  0.50400001928E-02 0.  1.
        1   -1    0    0  501    0  0.00000000000E+00  0.00000000000E+00 -0.82626135251E+03  0.82626135253E+03  0.50400001928E-02 0. -1.
    10030    2    1    2    0    0  0.00000000000E+00  0.00000000000E+00 -0.68357127559E+03  0.96895142954E+03  0.68672933825E+03 0.  0.
        4    1    3    3  502    0 -0.18223156499E+03  0.71518784532E+01  0.68701535510E+02  0.19488716357E+03  0.12699999809E+01 0.  1.
       -4    1    3    3    0  502  0.18223156499E+03 -0.71518784532E+01 -0.75227281110E+03  0.77406426597E+03  0.12699999809E+01 0. -1.
</event>
<event>
 5   0  0.1969818E-02  0.7080979E+03  0.7818609E-02  0.9703483E-01
       -1   -1    0    0    0  501  0.00000000000E+00  0.00000000000E+00  0.43638257684E+03  0.43638257687E+03  0.50400001928E-02 0. -1.
        1   -1    0    0  501    0  0.00000000000E+00  0.00000000000E+00 -0.28724948021E+03  0.28724948026E+03  0.50400001928E-02 0.  1.
    10030    2    1    2    0    0  0.00000000000E+00  0.00000000000E+00  0.14913309663E+03  0.72363205713E+03  0.70809792656E+03 0.  0.
        1    1    3    3  502    0 -0.60082686177E+02  0.92308969248E+02 -0.26929661519E+03  0.29094938041E+03  0.50400001928E-02 0.  1.
       -1    1    3    3    0  502  0.60082686177E+02 -0.92308969248E+02  0.41842971181E+03  0.43268267672E+03  0.50400001928E-02 0. -1.
</event>
<event>
 5   0  0.1858013E-02  0.6981859E+03  0.7818609E-02  0.9720340E-01
        1   -1    0    0  501    0  0.00000000000E+00  0.00000000000E+00  0.10454034123E+04  0.10454034123E+04  0.50400001928E-02 0. -1.
       -1   -1    0    0    0  501  0.00000000000E+00  0.00000000000E+00 -0.11657307345E+03  0.11657307356E+03  0.50400001928E-02 0.  1.
    10030    2    1    2    0    0  0.00000000000E+00  0.00000000000E+00  0.92883033886E+03  0.11619764859E+04  0.69818590314E+03 0.  0.
        2    1    3    3  502    0 -0.51575637697E+02  0.34328606049E+03  0.52580256716E+03  0.63005849361E+03  0.25500000920E-02 0.  1.
       -2    1    3    3    0  502  0.51575637697E+02 -0.34328606049E+03  0.40302777171E+03  0.53191799227E+03  0.25500000920E-02 0. -1.
</event>
<event>
 5   0  0.1233912E-02  0.6956406E+03  0.7818609E-02  0.9724716E-01
       -4   -1    0    0    0  501  0.00000000000E+00  0.00000000000E+00  0.47306916144E+03  0.47307086616E+03  0.12699999809E+01 0. -1.
        4   -1    0    0  501    0  0.00000000000E+00  0.00000000000E+00 -0.25572834688E+03  0.25573150040E+03  0.12699999809E+01 0.  1.
    10030    2    1    2    0    0  0.00000000000E+00  0.00000000000E+00  0.21734081457E+03  0.72880236656E+03  0.69564061111E+03 0.  0.
        5    1    3    3  502    0  0.24735768953E+01  0.30689911611E+03 -0.62724468192E+02  0.31328842136E+03  0.46999998093E+01 0.  1.
       -5    1    3    3    0  502 -0.24735768953E+01 -0.30689911611E+03  0.28006528276E+03  0.41551394520E+03  0.46999998093E+01 0. -1.
</event>
<event>
 5   0  0.3184443E-02  0.6907614E+03  0.7818609E-02  0.9733163E-01
       -2   -1    0    0    0  501  0.00000000000E+00  0.00000000000E+00  0.82965147681E+02  0.82965147720E+02  0.25500000920E-02 0. -1.
        2   -1    0    0  501    0  0.00000000000E+00  0.00000000000E+00 -0.14378063621E+04  0.14378063621E+04  0.25500000920E-02 0.  1.
    10030    2    1    2    0    0  0.00000000000E+00  0.00000000000E+00 -0.13548412144E+04  0.15207715098E+04  0.69076136893E+03 0.  0.
        3    1    3    3  502    0  0.32939394055E+03 -0.64209470961E+02 -0.85715136663E+03  0.92050621929E+03  0.10100000352E+00 0.  1.
       -3    1    3    3    0  502 -0.32939394055E+03  0.64209470961E+02 -0.49768984780E+03  0.60026529055E+03  0.10100000352E+00 0. -1.
</event>
<event>
 5   0  0.3290656E-02  0.6954467E+03  0.7818609E-02  0.9725051E-01
       -2   -1    0    0    0  501  0.00000000000E+00  0.00000000000E+00  0.15141876172E+04  0.15141876172E+04  0.25500000920E-02 0.  1.
        2   -1    0    0  501    0  0.00000000000E+00  0.00000000000E+00 -0.79852413616E+02  0.79852413657E+02  0.25500000920E-02 0. -1.
    10030    2    1    2    0    0  0.00000000000E+00  0.00000000000E+00  0.14343352036E+04  0.15940400308E+04  0.69544672243E+03 0.  0.
        1    1    3    3  502    0  0.13847590583E+03  0.31824622113E+03  0.66825900414E+03  0.75301150748E+03  0.50400001928E-02 0.  1.
       -1    1    3    3    0  502 -0.13847590583E+03 -0.31824622113E+03  0.76607619943E+03  0.84102852336E+03  0.50400001928E-02 0. -1.
</event>
<event>
 5   0  0.3184443E-02  0.7009819E+03  0.7818609E-02  0.9715554E-01
        2   -1    0    0  501    0  0.00000000000E+00  0.00000000000E+00  0.51366023515E+03  0.51366023516E+03  0.25500000920E-02 0. -1.
       -2   -1    0    0    0  501  0.00000000000E+00  0.00000000000E+00 -0.23915402492E+03  0.23915402493E+03  0.25500000920E-02 0.  1.
    10030    2    1    2    0    0  0.00000000000E+00  0.00000000000E+00  0.27450621023E+03  0.75281426009E+03  0.70098191898E+03 0.  0.
        3    1    3    3  502    0  0.30784055597E+03 -0.82241568191E+02  0.29404289243E+03  0.43357896193E+03  0.10100000352E+00 0. -1.
       -3    1    3    3    0  502 -0.30784055597E+03  0.82241568191E+02 -0.19536682198E+02  0.31923529816E+03  0.10100000352E+00 0.  1.
</event>
<event>
 5   0  0.1951465E-02  0.7018842E+03  0.7818609E-02  0.9714015E-01
       -1   -1    0    0    0  501  0.00000000000E+00  0.00000000000E+00  0.12832831247E+03  0.12832831257E+03  0.50400001928E-02 0.  1.
        1   -1    0    0  501    0  0.00000000000E+00  0.00000000000E+00 -0.95972861124E+03  0.95972861125E+03  0.50400001928E-02 0. -1.
    10030    2    1    2    0    0  0.00000000000E+00  0.00000000000E+00 -0.83140029876E+03  0.10880569238E+04  0.70188418752E+03 0.  0.
        4    1    3    3  502    0 -0.33093259914E+03  0.11446907090E+03 -0.45169628071E+03  0.57153363530E+03  0.12699999809E+01 0.  1.
       -4    1    3    3    0  502  0.33093259914E+03 -0.11446907090E+03 -0.37970401805E+03  0.51652328852E+03  0.12699999809E+01 0. -1.
</event>
<event>
 5   0  0.2933851E-02  0.7067134E+03  0.7818609E-02  0.9705820E-01
        2   -1    0    0  501    0  0.00000000000E+00  0.00000000000E+00  0.74903106269E+03  0.74903106269E+03  0.25500000920E-02 0. -1.
       -2   -1    0    0    0  501  0.00000000000E+00  0.00000000000E+00 -0.16669663775E+03  0.16669663777E+03  0.25500000920E-02 0.  1.
    10030    2    1    2    0    0  0.00000000000E+00  0.00000000000E+00  0.58233442494E+03  0.91572770046E+03  0.70671340650E+03 0.  0.
        2    1    3    3  502    0  0.14572890787E+03 -0.16017596872E+03  0.65297706972E+03  0.68794789711E+03  0.25500000920E-02 0. -1.
       -2    1    3    3    0  502 -0.14572890787E+03  0.16017596872E+03 -0.70642644788E+02  0.22777980335E+03  0.25500000920E-02 0.  1.
</event>
<event>
 5   0  0.2933851E-02  0.7030647E+03  0.7818609E-02  0.9712005E-01
        2   -1    0    0  501    0  0.00000000000E+00  0.00000000000E+00  0.18991675018E+04  0.18991675018E+04  0.25500000920E-02 0.  1.
       -2   -1    0    0    0  501  0.00000000000E+00  0.00000000000E+00 -0.65067980109E+02  0.65067980159E+02  0.25500000920E-02 0. -1.
    10030    2    1    2    0    0  0.00000000000E+00  0.00000000000E+00  0.18340995217E+04  0.19642354820E+04  0.70306470053E+03 0.  0.
        2    1    3    3  502    0  0.45232273336E+02  0.31478769647E+03  0.13355423990E+04  0.13728841000E+04  0.25500000920E-02 0.  1.
       -2    1    3    3    0  502 -0.45232273336E+02 -0.31478769647E+03  0.49855712269E+03  0.59135138200E+03  0.25500000920E-02 0. -1.
</event>
<event>
 5   0  0.1951465E-02  0.6780473E+03  0.7818609E-02  0.9755529E-01
       -1   -1    0    0    0  501  0.00000000000E+00  0.00000000000E+00  0.12417554862E+03  0.12417554872E+03  0.50400001928E-02 0.  1.
        1   -1    0    0  501    0  0.00000000000E+00  0.00000000000E+00 -0.92560118175E+03  0.92560118176E+03  0.50400001928E-02 0. -1.
    10030    2    1    2    0    0  0.00000000000E+00  0.00000000000E+00 -0.80142563313E+03  0.10497767305E+04  0.67804729807E+03 0.  0.
        4    1    3    3  502    0 -0.21285620392E+03  0.21920289436E+03 -0.17328686355E+03  0.35126574331E+03  0.12699999809E+01 0.  1.
       -4    1    3    3    0  502  0.21285620392E+03 -0.21920289436E+03 -0.62813876958E+03  0.69851098717E+03  0.12699999809E+01 0. -1.
</event>
<event>
 5   0  0.1858013E-02  0.6882273E+03  0.7818609E-02  0.9737580E-01
        1   -1    0    0  501    0  0.00000000000E+00  0.00000000000E+00  0.13301370201E+04  0.13301370201E+04  0.50400001928E-02 0.  1.
       -1   -1    0    0    0  501  0.00000000000E+00  0.00000000000E+00 -0.89024068482E+02  0.89024068624E+02  0.50400001928E-02 0. -1.
    10030    2    1    2    0    0  0.00000000000E+00  0.00000000000E+00  0.12411129516E+04  0.14191610887E+04  0.68822731499E+03 0.  0.
        2    1    3    3  502    0  0.29597373703E+03  0.16046393696E+03  0.47380144587E+03  0.58123741981E+03  0.25500000920E-02 0. -1.
       -2    1    3    3    0  502 -0.29597373703E+03 -0.16046393696E+03  0.76731150572E+03  0.83792366890E+03  0.25500000920E-02 0.  1.
</event>
<event>
 5   0  0.1839038E-02  0.6838011E+03  0.7818609E-02  0.9745343E-01
        1   -1    0    0  501    0  0.00000000000E+00  0.00000000000E+00  0.62440475554E+03  0.62440475556E+03  0.50400001928E-02 0. -1.
       -1   -1    0    0    0  501  0.00000000000E+00  0.00000000000E+00 -0.18721189471E+03  0.18721189477E+03  0.50400001928E-02 0.  1.
    10030    2    1    2    0    0  0.00000000000E+00  0.00000000000E+00  0.43719286083E+03  0.81161665034E+03  0.68380113303E+03 0.  0.
        5    1    3    3  502    0 -0.46763971872E+02  0.33598609954E+03  0.16823441170E+03  0.37867985875E+03  0.46999998093E+01 0. -1.
       -5    1    3    3    0  502  0.46763971872E+02 -0.33598609954E+03  0.26895844913E+03  0.43293679158E+03  0.46999998093E+01 0.  1.
</event>
<event>
 5   0  0.3183963E-02  0.6639555E+03  0.7818609E-02  0.9780939E-01
        2   -1    0    0  501    0  0.00000000000E+00  0.00000000000E+00  0.46610256709E+03  0.46610256710E+03  0.25500000920E-02 0. -1.
       -2   -1    0    0    0  501  0.00000000000E+00  0.00000000000E+00 -0.23644847707E+03  0.23644847708E+03  0.25500000920E-02 0.  1.
    10030    2    1    2    0    0  0.00000000000E+00  0.00000000000E+00  0.22965409002E+03  0.70255104418E+03  0.66395554717E+03 0.  0.
        4    1    3    3  502    0  0.20424546458E+03 -0.19401675040E+03 -0.71021370242E+02  0.29052427983E+03  0.12699999809E+01 0.  1.
       -4    1    3    3    0  502 -0.20424546458E+03  0.19401675040E+03  0.30067546026E+03  0.41202676435E+03  0.12699999809E+01 0. -1.
</event>
<event>
 5   0  0.1839038E-02  0.6997865E+03  0.7818609E-02  0.9717597E-01
        1   -1    0    0  501    0  0.00000000000E+00  0.00000000000E+00  0.59576484917E+03  0.59576484919E+03  0.50400001928E-02 0. -1.
       -1   -1    0    0    0  501  0.00000000000E+00  0.00000000000E+00 -0.20549265383E+03  0.20549265389E+03  0.50400001928E-02 0.  1.
    10030    2    1    2    0    0  0.00000000000E+00  0.00000000000E+00  0.39027219534E+03  0.80125750308E+03  0.69978653873E+03 0.  0.
        5    1    3    3  502    0  0.28054017491E+03  0.40168560892E+02  0.43003448223E+03  0.51504179338E+03  0.46999998093E+01 0. -1.
       -5    1    3    3    0  502 -0.28054017491E+03 -0.40168560892E+02 -0.39762286890E+02  0.28621570970E+03  0.46999998093E+01 0.  1.
</event>
<event>
 5   0  0.3184443E-02  0.6734512E+03  0.7818609E-02  0.9763743E-01
        2   -1    0    0  501    0  0.00000000000E+00  0.00000000000E+00  0.19828689683E+04  0.19828689683E+04  0.25500000920E-02 0. -1.
       -2   -1    0    0    0  501  0.00000000000E+00  0.00000000000E+00 -0.57181853976E+02  0.57181854033E+02  0.25500000920E-02 0.  1.
    10030    2    1    2    0    0  0.00000000000E+00  0.00000000000E+00  0.19256871143E+04  0.20400508223E+04  0.67345118266E+03 0.  0.
        3    1    3    3  502    0  0.17061405645E+03 -0.28041883278E+03  0.11903446517E+04  0.12347729662E+04  0.10100000352E+00 0. -1.
       -3    1    3    3    0  502 -0.17061405645E+03  0.28041883278E+03  0.73534246264E+03  0.80527785615E+03  0.10100000352E+00 0.  1.
</event>
<event>
 5   0  0.1839038E-02  0.7171063E+03  0.7818609E-02  0.9688417E-01
        1   -1    0    0  501    0  0.00000000000E+00  0.00000000000E+00  0.74827377033E+03  0.74827377035E+03  0.50400001928E-02 0.  1.
       -1   -1    0    0    0  501  0.00000000000E+00  0.00000000000E+00 -0.17180928134E+03  0.17180928141E+03  0.50400001928E-02 0. -1.
    10030    2    1    2    0    0  0.00000000000E+00  0.00000000000E+00  0.57646448900E+03  0.92008305176E+03  0.71710634850E+03 0.  0.
        5    1    3    3  502    0  0.34282321012E+03 -0.50439747670E+02  0.17017517068E+03  0.38607460452E+03  0.46999998093E+01 0. -1.
       -5    1    3    3    0  502 -0.34282321012E+03  0.50439747670E+02  0.40628931832E+03  0.53400844724E+03  0.46999998093E+01 0.  1.
</event>
<event>
 5   0  0.1884172E-02  0.7042658E+03  0.7818609E-02  0.9709965E-01
        1   -1    0    0  501    0  0.00000000000E+00  0.00000000000E+00  0.66953748216E+03  0.66953748218E+03  0.50400001928E-02 0.  1.
       -1   -1    0    0    0  501  0.00000000000E+00  0.00000000000E+00 -0.18519883589E+03  0.18519883596E+03  0.50400001928E-02 0. -1.
    10030    2    1    2    0    0  0.00000000000E+00  0.00000000000E+00  0.48433864627E+03  0.85473631814E+03  0.70426575189E+03 0.  0.
        3    1    3    3  502    0 -0.61328149933E+02  0.34113916703E+03  0.16676153921E+03  0.38463813437E+03  0.10100000352E+00 0. -1.
       -3    1    3    3    0  502  0.61328149933E+02 -0.34113916703E+03  0.31757710706E+03  0.47009818377E+03  0.10100000352E+00 0.  1.
</event>
<event>
 5   0  0.1884172E-02  0.6741686E+03  0.7818609E-02  0.9762456E-01
       -1   -1    0    0    0  501  0.00000000000E+00  0.00000000000E+00  0.73772646197E+02  0.73772646369E+02  0.50400001928E-02 0.  1.
        1   -1    0    0  501    0  0.00000000000E+00  0.00000000000E+00 -0.15402159836E+04  0.15402159836E+04  0.50400001928E-02 0. -1.
    10030    2    1    2    0    0  0.00000000000E+00  0.00000000000E+00 -0.14664433374E+04  0.16139886300E+04  0.67416855154E+03 0.  0.
        3    1    3    3  502    0  0.75915223061E+02  0.19394107462E+03 -0.13677539408E+04  0.13835198279E+04  0.10100000352E+00 0. -1.
       -3    1    3    3    0  502 -0.75915223061E+02 -0.19394107462E+03 -0.98689396624E+02  0.23046880206E+03  0.10100000352E+00 0.  1.
</event>
<event>
 5   0  0.1839038E-02  0.6931109E+03  0.7818609E-02  0.9729087E-01
        1   -1    0    0  501    0  0.00000000000E+00  0.00000000000E+00  0.21025402965E+03  0.21025402971E+03  0.50400001928E-02 0.  1.
       -1   -1    0    0    0  501  0.00000000000E+00  0.00000000000E+00 -0.57121695724E+03  0.57121695726E+03  0.50400001928E-02 0. -1.
    10030    2    1    2    0    0  0.00000000000E+00  0.00000000000E+00 -0.36096292759E+03  0.78147098698E+03  0.69311086299E+03 0.  0.
        5    1    3    3  502    0 -0.15325325351E+02 -0.26403244249E+03  0.71960483542E+02  0.27413208034E+03  0.46999998093E+01 0.  1.
       -5    1    3    3    0  502  0.15325325351E+02  0.26403244249E+03 -0.43292341113E+03  0.50733890664E+03  0.46999998093E+01 0. -1.
</event>
<event>
 5   0  0.3183963E-02  0.6904170E+03  0.7818609E-02  0.9733762E-01
        2   -1    0    0  501    0  0.00000000000E+00  0.00000000000E+00  0.18893511174E+04  0.18893511174E+04  0.25500000920E-02 0. -1.
       -2   -1    0    0    0  501  0.00000000000E+00  0.00000000000E+00 -0.63073987625E+02  0.63073987677E+02  0.25500000920E-02 0.  1.
    10030    2    1    2    0    0  0.00000000000E+00  0.00000000000E+00  0.18262771298E+04  0.19524251051E+04  0.69041700168E+03 0.  0.
        4    1    3    3  502    0 -0.22341698738E+03 -0.12166300826E+03  0.25326173681E+03  0.35897097105E+03  0.12699999809E+01 0.  1.
       -4    1    3    3    0  502  0.22341698738E+03  0.12166300826E+03  0.15730153930E+04  0.15934541340E+04  0.12699999809E+01 0. -1.
</event>
<event>
 5   0  0.3184443E-02  0.7049486E+03  0.7818609E-02  0.9708807E-01
       -2   -1    0    0    0  501  0.00000000000E+00  0.00000000000E+00  0.10749260632E+03  0.10749260635E+03  0.25500000920E-02 0. -1.
        2   -1    0    0  501    0  0.00000000000E+00  0.00000000000E+00 -0.11557831828E+04  0.11557831828E+04  0.25500000920E-02 0.  1.
    10030    2    1    2    0    0  0.00000000000E+00  0.00000000000E+00 -0.10482905765E+04  0.12632757892E+04  0.70494864121E+03 0.  0.
        3    1    3    3  502    0 -0.27636205329E+03  0.10148093760E+03 -0.17682888972E+03  0.34342805889E+03  0.10100000352E+00 0. -1.
       -3    1    3    3    0  502  0.27636205329E+03 -0.10148093760E+03 -0.87146168677E+03  0.91984773028E+03  0.10100000352E+00 0.  1.
</event>
<event>
 5   0  0.2933851E-02  0.7528162E+03  0.7818609E-02  0.9630943E-01
       -2   -1    0    0    0  501  0.00000000000E+00  0.00000000000E+00  0.45957523029E+03  0.45957523030E+03  0.25500000920E-02 0. -1.
        2   -1    0    0  501    0  0.00000000000E+00  0.00000000000E+00 -0.30829132679E+03  0.30829132680E+03  0.25500000920E-02 0.  1.
    10030    2    1    2    0    0  0.00000000000E+00  0.00000000000E+00  0.15128390350E+03  0.76786655710E+03  0.75281619938E+03 0.  0.
        2    1    3    3  502    0  0.36122847851E+03 -0.88909103208E+02  0.13416688191E+03  0.39546377145E+03  0.25500000920E-02 0. -1.
       -2    1    3    3    0  502 -0.36122847851E+03  0.88909103208E+02  0.17117021597E+02  0.37240278565E+03  0.25500000920E-02 0.  1.
</event>
<event>
 5   0  0.3290656E-02  0.6931944E+03  0.7818609E-02  0.9728942E-01
        2   -1    0    0  501    0  0.00000000000E+00  0.00000000000E+00  0.65225876084E+03  0.65225876085E+03  0.25500000920E-02 0. -1.
       -2   -1    0    0    0  501  0.00000000000E+00  0.00000000000E+00 -0.18417479594E+03  0.18417479595E+03  0.25500000920E-02 0.  1.
    10030    2    1    2    0    0  0.00000000000E+00  0.00000000000E+00  0.46808396491E+03  0.83643355680E+03  0.69319441482E+03 0.  0.
        1    1    3    3  502    0 -0.29812188567E+03 -0.11315659256E+03  0.70150069759E+02  0.32649977866E+03  0.50400001928E-02 0.  1.
       -1    1    3    3    0  502  0.29812188567E+03  0.11315659256E+03  0.39793389515E+03  0.50993377814E+03  0.50400001928E-02 0. -1.
</event>
<event>
 5   0  0.3113940E-02  0.6993136E+03  0.7818609E-02  0.9718407E-01
        2   -1    0    0  501    0  0.00000000000E+00  0.00000000000E+00  0.85641600376E+03  0.85641600377E+03  0.25500000920E-02 0.  1.
       -2   -1    0    0    0  501  0.00000000000E+00  0.00000000000E+00 -0.14275757027E+03  0.14275757029E+03  0.25500000920E-02 0. -1.
    10030    2    1    2    0    0  0.00000000000E+00  0.00000000000E+00  0.71365843349E+03  0.99917357406E+03  0.69931357159E+03 0.  0.
        5    1    3    3  502    0  0.21433943948E+03 -0.20128549486E+03  0.86562615578E+02  0.30654921656E+03  0.46999998093E+01 0. -1.
       -5    1    3    3    0  502 -0.21433943948E+03  0.20128549486E+03  0.62709581792E+03  0.69262435750E+03  0.46999998093E+01 0.  1.
</event>
<event>
 5   0  0.3184443E-02  0.6997957E+03  0.7818609E-02  0.9717582E-01
        2   -1    0    0  501    0  0.00000000000E+00  0.00000000000E+00  0.23760498120E+03  0.23760498122E+03  0.25500000920E-02 0. -1.
       -2   -1    0    0    0  501  0.00000000000E+00  0.00000000000E+00 -0.51526071159E+03  0.51526071160E+03  0.25500000920E-02 0.  1.
    10030    2    1    2    0    0  0.00000000000E+00  0.00000000000E+00 -0.27765573039E+03  0.75286569281E+03  0.69979571791E+03 0.  0.
        3    1    3    3  502    0 -0.21074015066E+03  0.24051218802E+03  0.13967331718E+02  0.32008220857E+03  0.10100000352E+00 0. -1.
       -3    1    3    3    0  502  0.21074015066E+03 -0.24051218802E+03 -0.29162306210E+03  0.43278348425E+03  0.10100000352E+00 0.  1.
</event>
<event>
 5   0  0.1969818E-02  0.6657615E+03  0.7818609E-02  0.9777645E-01
       -1   -1    0    0    0  501  0.00000000000E+00  0.00000000000E+00  0.38315130899E+03  0.38315130902E+03  0.50400001928E-02 0. -1.
        1   -1    0    0  501    0  0.00000000000E+00  0.00000000000E+00 -0.28920579876E+03  0.28920579880E+03  0.50400001928E-02 0.  1.
    10030    2    1    2    0    0  0.00000000000E+00  0.00000000000E+00  0.93945510232E+02  0.67235710782E+03  0.66576145994E+03 0.  0.
        1    1    3    3  502    0  0.68258109565E+02 -0.13249067326E+03  0.34757343371E+03  0.37818016853E+03  0.50400001928E-02 0. -1.
       -1    1    3    3    0  502 -0.68258109565E+02  0.13249067326E+03 -0.25362792347E+03  0.29417693930E+03  0.50400001928E-02 0.  1.
</event>
<event>
 5   0  0.1884172E-02  0.7027364E+03  0.7818609E-02  0.9712564E-01
        1   -1    0    0  501    0  0.00000000000E+00  0.00000000000E+00  0.20322054202E+03  0.20322054208E+03  0.50400001928E-02 0. -1.
       -1   -1    0    0    0  501  0.00000000000E+00  0.00000000000E+00 -0.60751542660E+03  0.60751542662E+03  0.50400001928E-02 0.  1.
    10030    2    1    2    0    0  0.00000000000E+00  0.00000000000E+00 -0.40429488458E+03  0.81073596870E+03  0.70273640666E+03 0.  0.
        3    1    3    3  502    0  0.34242514632E+03  0.75645459692E+02 -0.22748618743E+03  0.41800381826E+03  0.10100000352E+00 0.  1.
       -3    1    3    3    0  502 -0.34242514632E+03 -0.75645459692E+02 -0.17680869715E+03  0.39273215045E+03  0.10100000352E+00 0. -1.
</event>
<event>
 5   0  0.1839038E-02  0.7334174E+03  0.7818609E-02  0.9661731E-01
       -1   -1    0    0    0  501  0.00000000000E+00  0.00000000000E+00  0.10269056999E+04  0.10269056999E+04  0.50400001928E-02 0. -1.
        1   -1    0    0  501    0  0.00000000000E+00  0.00000000000E+00 -0.13095191113E+03  0.13095191123E+03  0.50400001928E-02 0.  1.
    10030    2    1    2    0    0  0.00000000000E+00  0.00000000000E+00  0.89595378877E+03  0.11578576111E+04  0.73341738190E+03 0.  0.
        5    1    3    3  502    0 -0.11875675621E+03 -0.33907577816E+03  0.33220606237E+03  0.48934497888E+03  0.46999998093E+01 0.  1.
       -5    1    3    3    0  502  0.11875675621E+03  0.33907577816E+03  0.56374772640E+03  0.66851263227E+03  0.46999998093E+01 0. -1.
</event>
<event>
 5   0  0.1884172E-02  0.7007242E+03  0.7818609E-02  0.9715995E-01
        1   -1    0    0  501    0  0.00000000000E+00  0.00000000000E+00  0.14272285325E+04  0.14272285325E+04  0.50400001928E-02 0.  1.
       -1   -1    0    0    0  501  0.00000000000E+00  0.00000000000E+00 -0.86008370576E+02  0.86008370724E+02  0.50400001928E-02 0. -1.
    10030    2    1    2    0    0  0.00000000000E+00  0.00000000000E+00  0.13412201620E+04  0.15132369033E+04  0.70072419864E+03 0.  0.
        3    1    3    3  502    0 -0.20061350344E+03 -0.27620126533E+03  0.50028503326E+03  0.60565505152E+03  0.10100000352E+00 0.  1.
       -3    1    3    3    0  502  0.20061350344E+03  0.27620126533E+03  0.84093512870E+03  0.90758185174E+03  0.10100000352E+00 0. -1.
</event>
<event>
 5   0  0.2933851E-02  0.7563432E+03  0.7818609E-02  0.9625451E-01
        2   -1    0    0  501    0  0.00000000000E+00  0.00000000000E+00  0.15348405176E+03  0.15348405178E+03  0.25500000920E-02 0.  1.
       -2   -1    0    0    0  501  0.00000000000E+00  0.00000000000E+00 -0.93178253238E+03  0.93178253238E+03  0.25500000920E-02 0. -1.
    10030    2    1    2    0    0  0.00000000000E+00  0.00000000000E+00 -0.77829848062E+03  0.10852665842E+04  0.75634319840E+03 0.  0.
        2    1    3    3  502    0  0.19851739072E+03  0.23610538199E+03 -0.75243927187E+02  0.31751622699E+03  0.25500000920E-02 0.  1.
       -2    1    3    3    0  502 -0.19851739072E+03 -0.23610538199E+03 -0.70305455343E+03  0.76775035717E+03  0.25500000920E-02 0. -1.
</event>
<event>
 5   0  0.3184443E-02  0.6297416E+03  0.7818609E-02  0.9845553E-01
       -2   -1    0    0    0  501  0.00000000000E+00  0.00000000000E+00  0.90773118668E+02  0.90773118704E+02  0.25500000920E-02 0.  1.
        2   -1    0    0  501    0  0.00000000000E+00  0.00000000000E+00 -0.10922133073E+04  0.10922133073E+04  0.25500000920E-02 0. -1.
    10030    2    1    2    0    0  0.00000000000E+00  0.00000000000E+00 -0.10014401886E+04  0.11829864260E+04  0.62974156025E+03 0.  0.
        3    1    3    3  502    0 -0.40654575089E+02 -0.30830584047E+03 -0.59348037715E+03  0.67001809976E+03  0.10100000352E+00 0. -1.
       -3    1    3    3    0  502  0.40654575089E+02  0.30830584047E+03 -0.40795981147E+03  0.51296832623E+03  0.10100000352E+00 0.  1.
</event>
<event>
 5   0  0.1884172E-02  0.7039227E+03  0.7818609E-02  0.9710547E-01
        1   -1    0    0  501    0  0.00000000000E+00  0.00000000000E+00  0.56347312758E+03  0.56347312761E+03  0.50400001928E-02 0. -1.
       -1   -1    0    0    0  501  0.00000000000E+00  0.00000000000E+00 -0.21984507560E+03  0.21984507566E+03  0.50400001928E-02 0.  1.
    10030    2    1    2    0    0  0.00000000000E+00  0.00000000000E+00  0.34362805198E+03  0.78331820327E+03  0.70392270134E+03 0.  0.
        3    1    3    3  502    0 -0.16648115238E+03 -0.43463615233E+02 -0.16985370876E+03  0.24177541755E+03  0.10100000352E+00 0.  1.
       -3    1    3    3    0  502  0.16648115238E+03  0.43463615233E+02  0.51348176074E+03  0.54154278572E+03  0.10100000352E+00 0. -1.
</event>
<event>
 5   0  0.1858013E-02  0.7085470E+03  0.7818609E-02  0.9702726E-01
        1   -1    0    0  501    0  0.00000000000E+00  0.00000000000E+00  0.11011161859E+04  0.11011161859E+04  0.50400001928E-02 0.  1.
       -1   -1    0    0    0  501  0.00000000000E+00  0.00000000000E+00 -0.11398406235E+03  0.11398406246E+03  0.50400001928E-02 0. -1.
    10030    2    1    2    0    0  0.00000000000E+00  0.00000000000E+00  0.98713212355E+03  0.12151002484E+04  0.70854695274E+03 0.  0.
        2    1    3    3  502    0  0.30985915799E+03 -0.13719306100E+02  0.19997533271E+03  0.36904071706E+03  0.25500000920E-02 0. -1.
       -2    1    3    3    0  502 -0.30985915799E+03  0.13719306100E+02  0.78715679084E+03  0.84605953131E+03  0.25500000920E-02 0.  1.
</event>
<event>
 5   0  0.2933851E-02  0.6976484E+03  0.7818609E-02  0.9721262E-01
       -2   -1    0    0    0  501  0.00000000000E+00  0.00000000000E+00  0.28348527412E+03  0.28348527413E+03  0.25500000920E-02 0.  1.
        2   -1    0    0  501    0  0.00000000000E+00  0.00000000000E+00 -0.42922272589E+03  0.42922272589E+03  0.25500000920E-02 0. -1.
    10030    2    1    2    0    0  0.00000000000E+00  0.00000000000E+00 -0.14573745176E+03  0.71270800003E+03  0.69764839888E+03 0.  0.
        2    1    3    3  502    0 -0.78410316804E+02  0.25241241601E+03  0.15968100630E+03  0.30880127804E+03  0.25500000920E-02 0.  1.
       -2    1    3    3    0  502  0.78410316804E+02 -0.25241241601E+03 -0.30541845807E+03  0.40390672199E+03  0.25500000920E-02 0. -1.
</event>
<event>
 5   0  0.1858013E-02  0.6998412E+03  0.7818609E-02  0.9717504E-01
       -1   -1    0    0    0  501  0.00000000000E+00  0.00000000000E+00  0.24334303252E+03  0.24334303257E+03  0.50400001928E-02 0. -1.
        1   -1    0    0  501    0  0.00000000000E+00  0.00000000000E+00 -0.50317628202E+03  0.50317628205E+03  0.50400001928E-02 0.  1.
    10030    2    1    2    0    0  0.00000000000E+00  0.00000000000E+00 -0.25983324950E+03  0.74651931462E+03  0.69984124597E+03 0.  0.
        2    1    3    3  502    0 -0.30246824703E+03 -0.15037524246E+03 -0.22735871145E+03  0.40717531566E+03  0.25500000920E-02 0.  1.
       -2    1    3    3    0  502  0.30246824703E+03  0.15037524246E+03 -0.32474538057E+02  0.33934399896E+03  0.25500000920E-02 0. -1.
</event>
<event>
 5   0  0.1233912E-02  0.6986042E+03  0.7818609E-02  0.9719622E-01
        3   -1    0    0  501    0  0.00000000000E+00  0.00000000000E+00  0.49344350151E+03  0.49344351185E+03  0.10100000352E+00 0.  1.
       -3   -1    0    0    0  501  0.00000000000E+00  0.00000000000E+00 -0.24726630421E+03  0.24726632483E+03  0.10100000352E+00 0. -1.
    10030    2    1    2    0    0  0.00000000000E+00  0.00000000000E+00  0.24617719731E+03  0.74070983668E+03  0.69860421533E+03 0.  0.
        4    1    3    3  502    0 -0.26755507409E+02 -0.24043598424E+03  0.39023699672E+03  0.45914251187E+03  0.12699999809E+01 0.  1.
       -4    1    3    3    0  502  0.26755507409E+02  0.24043598424E+03 -0.14405979941E+03  0.28156732481E+03  0.12699999809E+01 0. -1.
</event>
<event>
 5   0  0.3290656E-02  0.7013739E+03  0.7818609E-02  0.9714886E-01
       -2   -1    0    0    0  501  0.00000000000E+00  0.00000000000E+00  0.12386582745E+03  0.12386582748E+03  0.25500000920E-02 0. -1.
        2   -1    0    0  501    0  0.00000000000E+00  0.00000000000E+00 -0.99285920326E+03  0.99285920326E+03  0.25500000920E-02 0.  1.
    10030    2    1    2    0    0  0.00000000000E+00  0.00000000000E+00 -0.86899337581E+03  0.11167250307E+04  0.70137387111E+03 0.  0.
        1    1    3    3  502    0  0.87274273170E+02  0.32534225757E+03 -0.58982313621E+03  0.67923170962E+03  0.50400001928E-02 0. -1.
       -1    1    3    3    0  502 -0.87274273170E+02 -0.32534225757E+03 -0.27917023959E+03  0.43749332111E+03  0.50400001928E-02 0.  1.
</event>
<event>
 5   0  0.1951465E-02  0.7049622E+03  0.7818609E-02  0.9708784E-01
        1   -1    0    0  501    0  0.00000000000E+00  0.00000000000E+00  0.38816470549E+03  0.38816470552E+03  0.50400001928E-02 0. -1.
       -1   -1    0    0    0  501  0.00000000000E+00  0.00000000000E+00 -0.32007786819E+03  0.32007786823E+03  0.50400001928E-02 0.  1.
    10030    2    1    2    0    0  0.00000000000E+00  0.00000000000E+00  0.68086837300E+02  0.70824257374E+03  0.70496221590E+03 0.  0.
        4    1    3    3  502    0 -0.28558446920E+03  0.13362771187E+03 -0.12425392386E+03  0.33890338583E+03  0.12699999809E+01 0.  1.
       -4    1    3    3    0  502  0.28558446920E+03 -0.13362771187E+03  0.19234076116E+03  0.36933918792E+03  0.12699999809E+01 0. -1.
</event>
<event>
 5   0  0.1969818E-02  0.7027240E+03  0.7818609E-02  0.9712585E-01
        1   -1    0    0  501    0  0.00000000000E+00  0.00000000000E+00  0.55350358190E+03  0.55350358192E+03  0.50400001928E-02 0. -1.
       -1   -1    0    0    0  501  0.00000000000E+00  0.00000000000E+00 -0.22304327115E+03  0.22304327121E+03  0.50400001928E-02 0.  1.
    10030    2    1    2    0    0  0.00000000000E+00  0.00000000000E+00  0.33046031075E+03  0.77654685313E+03  0.70272398431E+03 0.  0.
        1    1    3    3  502    0  0.42235070704E+02 -0.25555511492E+03  0.42757954594E+03  0.49991647911E+03  0.50400001928E-02 0. -1.
       -1    1    3    3    0  502 -0.42235070704E+02  0.25555511492E+03 -0.97119235191E+02  0.27663037402E+03  0.50400001928E-02 0.  1.
</event>
<event>
 5   0  0.1858013E-02  0.6838864E+03  0.7818609E-02  0.9745192E-01
       -1   -1    0    0    0  501  0.00000000000E+00  0.00000000000E+00  0.83708316407E+02  0.83708316559E+02  0.50400001928E-02 0.  1.
        1   -1    0    0  501    0  0.00000000000E+00  0.00000000000E+00 -0.13968164858E+04  0.13968164858E+04  0.50400001928E-02 0. -1.
    10030    2    1    2    0    0  0.00000000000E+00  0.00000000000E+00 -0.13131081694E+04  0.14805248023E+04  0.68388641300E+03 0.  0.
        2    1    3    3  502    0  0.84709935593E+02 -0.33126667228E+03 -0.66398281029E+03  0.74685109207E+03  0.25500000920E-02 0. -1.
       -2    1    3    3    0  502 -0.84709935593E+02  0.33126667228E+03 -0.64912535907E+03  0.73367371027E+03  0.25500000920E-02 0.  1.
</event>
<event>
 5   0  0.3290656E-02  0.6995300E+03  0.7818609E-02  0.9718036E-01
       -2   -1    0    0    0  501  0.00000000000E+00  0.00000000000E+00  0.33680163021E+03  0.33680163022E+03  0.25500000920E-02 0. -1.
        2   -1    0    0  501    0  0.00000000000E+00  0.00000000000E+00 -0.36322737110E+03  0.36322737111E+03  0.25500000920E-02 0.  1.
    10030    2    1    2    0    0  0.00000000000E+00  0.00000000000E+00 -0.26425740889E+02  0.70002900134E+03  0.69953004434E+03 0.  0.
        1    1    3    3  502    0 -0.32549064721E+03 -0.74771459930E+02 -0.11721311659E+03  0.35394045738E+03  0.50400001928E-02 0. -1.
       -1    1    3    3    0  502  0.32549064721E+03  0.74771459930E+02  0.90787375702E+02  0.34608854395E+03  0.50400001928E-02 0.  1.
</event>
<event>
 5   0  0.3113940E-02  0.6981601E+03  0.7818609E-02  0.9720384E-01
       -2   -1    0    0    0  501  0.00000000000E+00  0.00000000000E+00  0.38006329871E+03  0.38006329872E+03  0.25500000920E-02 0.  1.
        2   -1    0    0  501    0  0.00000000000E+00  0.00000000000E+00 -0.32062260904E+03  0.32062260905E+03  0.25500000920E-02 0. -1.
    10030    2    1    2    0    0  0.00000000000E+00  0.00000000000E+00  0.59440689667E+02  0.70068590777E+03  0.69816011470E+03 0.  0.
        5    1    3    3  502    0 -0.90421694202E+02  0.15006515737E+03  0.33270516099E+03  0.37604580623E+03  0.46999998093E+01 0.  1.
       -5    1    3    3    0  502  0.90421694202E+02 -0.15006515737E+03 -0.27326447132E+03  0.32464010153E+03  0.46999998093E+01 0. -1.
</event>
<event>
 5   0  0.1839038E-02  0.6969827E+03  0.7818609E-02  0.9722406E-01
       -1   -1    0    0    0  501  0.00000000000E+00  0.00000000000E+00  0.40096553933E+03  0.40096553936E+03  0.50400001928E-02 0. -1.
        1   -1    0    0  501    0  0.00000000000E+00  0.00000000000E+00 -0.30288446176E+03  0.30288446180E+03  0.50400001928E-02 0.  1.
    10030    2    1    2    0    0  0.00000000000E+00  0.00000000000E+00  0.98081077569E+02  0.70385000116E+03  0.69698273032E+03 0.  0.
        5    1    3    3  502    0 -0.38697620421E+02  0.24518343356E+03  0.29601454289E+03  0.38634068065E+03  0.46999998093E+01 0. -1.
       -5    1    3    3    0  502  0.38697620421E+02 -0.24518343356E+03 -0.19793346532E+03  0.31750932051E+03  0.46999998093E+01 0.  1.
</event>
<event>
 5   0  0.3183963E-02  0.7067153E+03  0.7818609E-02  0.9705817E-01
        2   -1    0    0  501    0  0.00000000000E+00  0.00000000000E+00  0.14996699393E+04  0.14996699394E+04  0.25500000920E-02 0.  1.
       -2   -1    0    0    0  501  0.00000000000E+00  0.00000000000E+00 -0.83259399921E+02  0.83259399960E+02  0.25500000920E-02 0. -1.
    10030    2    1    2    0    0  0.00000000000E+00  0.00000000000E+00  0.14164105394E+04  0.15829293393E+04  0.70671527297E+03 0.  0.
        4    1    3    3  502    0  0.30971061436E+03 -0.97281767443E+02  0.39562434724E+03  0.51176620048E+03  0.12699999809E+01 0. -1.
       -4    1    3    3    0  502 -0.30971061436E+03  0.97281767443E+02  0.10207861922E+04  0.10711631388E+04  0.12699999809E+01 0.  1.
</event>
<event>
 5   0  0.1951465E-02  0.6624732E+03  0.7818609E-02  0.9783652E-01
       -1   -1    0    0    0  501  0.00000000000E+00  0.00000000000E+00  0.40756493264E+03  0.40756493268E+03  0.50400001928E-02 0. -1.
        1   -1    0    0  501    0  0.00000000000E+00  0.00000000000E+00 -0.26920293668E+03  0.26920293673E+03  0.50400001928E-02 0.  1.
    10030    2    1    2    0    0  0.00000000000E+00  0.00000000000E+00  0.13836199596E+03  0.67676786941E+03  0.66247317465E+03 0.  0.
        4    1    3    3  502    0  0.44489794801E+02 -0.25107264151E+03 -0.14680299018E+03  0.29422702796E+03  0.12699999809E+01 0.  1.
       -4    1    3    3    0  502 -0.44489794801E+02  0.25107264151E+03  0.28516498614E+03  0.38254084145E+03  0.12699999809E+01 0. -1.
</event>
<event>
 5   0  0.1839038E-02  0.6940345E+03  0.7818609E-02  0.9727489E-01
       -1   -1    0    0    0  501  0.00000000000E+00  0.00000000000E+00  0.11955592501E+03  0.11955592512E+03  0.50400001928E-02 0. -1.
        1   -1    0    0  501    0  0.00000000000E+00  0.00000000000E+00 -0.10072356262E+04  0.10072356262E+04  0.50400001928E-02 0.  1.
    10030    2    1    2    0    0  0.00000000000E+00  0.00000000000E+00 -0.88767970121E+03  0.11267915513E+04  0.69403454398E+03 0.  0.
        5    1    3    3  502    0  0.13476619922E+02  0.28498167845E+03 -0.12320557475E+03  0.31080199482E+03  0.46999998093E+01 0. -1.
       -5    1    3    3    0  502 -0.13476619922E+02 -0.28498167845E+03 -0.76447412646E+03  0.81598955652E+03  0.46999998093E+01 0.  1.
</event>
<event>
 5   0  0.1858013E-02  0.6995344E+03  0.7818609E-02  0.9718029E-01
        1   -1    0    0  501    0  0.00000000000E+00  0.00000000000E+00  0.99859702608E+03  0.99859702609E+03  0.50400001928E-02 0. -1.
       -1   -1    0    0    0  501  0.00000000000E+00  0.00000000000E+00 -0.12250897122E+03  0.12250897132E+03  0.50400001928E-02 0.  1.
    10030    2    1    2    0    0  0.00000000000E+00  0.00000000000E+00  0.87608805486E+03  0.11211059974E+04  0.69953440057E+03 0.  0.
        2    1    3    3  502    0 -0.68152602664E+02 -0.21545089249E+03  0.86590317352E+03  0.89490344186E+03  0.25500000920E-02 0. -1.
       -2    1    3    3    0  502  0.68152602664E+02  0.21545089249E+03  0.10184881335E+02  0.22620255556E+03  0.25500000920E-02 0.  1.
</event>
<event>
 5   0  0.1858013E-02  0.6994062E+03  0.7818609E-02  0.9718248E-01
       -1   -1    0    0    0  501  0.00000000000E+00  0.00000000000E+00  0.29797585217E+03  0.29797585222E+03  0.50400001928E-02 0.  1.
        1   -1    0    0  501    0  0.00000000000E+00  0.00000000000E+00 -0.41040995053E+03  0.41040995057E+03  0.50400001928E-02 0. -1.
    10030    2    1    2    0    0  0.00000000000E+00  0.00000000000E+00 -0.11243409836E+03  0.70838580278E+03  0.69940619036E+03 0.  0.
        2    1    3    3  502    0  0.16351550941E+02  0.18963955519E+03  0.24091218880E+03  0.30703292467E+03  0.25500000920E-02 0.  1.
       -2    1    3    3    0  502 -0.16351550941E+02 -0.18963955519E+03 -0.35334628717E+03  0.40135287811E+03  0.25500000920E-02 0. -1.
</event>
<event>
 5   0  0.1839038E-02  0.7214695E+03  0.7818609E-02  0.9681205E-01
       -1   -1    0    0    0  501  0.00000000000E+00  0.00000000000E+00  0.16311424597E+03  0.16311424605E+03  0.50400001928E-02 0. -1.
        1   -1    0    0  501    0  0.00000000000E+00  0.00000000000E+00 -0.79778168537E+03  0.79778168538E+03  0.50400001928E-02 0.  1.
    10030    2    1    2    0    0  0.00000000000E+00  0.00000000000E+00 -0.63466743940E+03  0.96089593143E+03  0.72146949513E+03 0.  0.
        5    1    3    3  502    0  0.10624800753E+03  0.32233139920E+03 -0.15464341048E+03  0.37299174846E+03  0.46999998093E+01 0. -1.
       -5    1    3    3    0  502 -0.10624800753E+03 -0.32233139920E+03 -0.48002402892E+03  0.58790418297E+03  0.46999998093E+01 0.  1.
</event>
<event>
 5   0  0.1839038E-02  0.7034415E+03  0.7818609E-02  0.9711365E-01
       -1   -1    0    0    0  501  0.00000000000E+00  0.00000000000E+00  0.74574573448E+02  0.74574573618E+02  0.50400001928E-02 0. -1.
        1   -1    0    0  501    0  0.00000000000E+00  0.00000000000E+00 -0.16588426257E+04  0.16588426257E+04  0.50400001928E-02 0.  1.
    10030    2    1    2    0    0  0.00000000000E+00  0.00000000000E+00 -0.15842680522E+04  0.17334171993E+04  0.70344148692E+03 0.  0.
        5    1    3    3  502    0 -0.24755367024E+03  0.24882063565E+03 -0.84672932840E+03  0.91660633531E+03  0.46999998093E+01 0. -1.
       -5    1    3    3    0  502  0.24755367024E+03 -0.24882063565E+03 -0.73753872381E+03  0.81681086397E+03  0.46999998093E+01 0.  1.
</event>
<event>
 5   0  0.1858013E-02  0.7019374E+03  0.7818609E-02  0.9713925E-01
       -1   -1    0    0    0  501  0.00000000000E+00  0.00000000000E+00  0.16062521443E+03  0.16062521451E+03  0.50400001928E-02 0.  1.
        1   -1    0    0  501    0  0.00000000000E+00  0.00000000000E+00 -0.76687239542E+03  0.76687239544E+03  0.50400001928E-02 0. -1.
    10030    2    1    2    0    0  0.00000000000E+00  0.00000000000E+00 -0.60624718099E+03  0.92749760995E+03  0.70193744167E+03 0.  0.
        2    1    3    3  502    0  0.11753691480E+03  0.18361694388E+03  0.60302245907E+02  0.22620006474E+03  0.25500000920E-02 0.  1.
       -2    1    3    3    0  502 -0.11753691480E+03 -0.18361694388E+03 -0.66654942689E+03  0.70129754521E+03  0.25500000920E-02 0. -1.
</event>
<event>
 5   0  0.1858013E-02  0.7016633E+03  0.7818609E-02  0.9714392E-01
       -1   -1    0    0    0  501  0.00000000000E+00  0.00000000000E+00  0.12527585570E+03  0.12527585581E+03  0.50400001928E-02 0.  1.
        1   -1    0    0  501    0  0.00000000000E+00  0.00000000000E+00 -0.98249444984E+03  0.98249444985E+03  0.50400001928E-02 0. -1.
    10030    2    1    2    0    0  0.00000000000E+00  0.00000000000E+00 -0.85721859413E+03  0.11077703057E+04  0.70166326109E+03 0.  0.
        2    1    3    3  502    0  0.95171061448E+02  0.15237246830E+03  0.47145172359E+02  0.18573520753E+03  0.25500000920E-02 0.  1.
       -2    1    3    3    0  502 -0.95171061448E+02 -0.15237246830E+03 -0.90436376649E+03  0.92203509813E+03  0.25500000920E-02 0. -1.
</event>
<event>
 5   0  0.1233912E-02  0.6989011E+03  0.7818609E-02  0.9719113E-01
       -4   -1    0    0    0  501  0.00000000000E+00  0.00000000000E+00  0.28417822453E+03  0.28418106234E+03  0.12699999809E+01 0. -1.
        4   -1    0    0  501    0  0.00000000000E+00  0.00000000000E+00 -0.42970917523E+03  0.42971105196E+03  0.12699999809E+01 0.  1.
    10030    2    1    2    0    0  0.00000000000E+00  0.00000000000E+00 -0.14553095071E+03  0.71389211431E+03  0.69890106114E+03 0.  0.
        1    1    3    3  502    0  0.27880635540E+03  0.63134332998E+02 -0.27806600694E+03  0.39879773326E+03  0.50400001928E-02 0.  1.
       -1    1    3    3    0  502 -0.27880635540E+03 -0.63134332998E+02  0.13253505623E+03  0.31509438105E+03  0.50400001928E-02 0. -1.
</event>
<event>
 5   0  0.3290656E-02  0.7025836E+03  0.7818609E-02  0.9712824E-01
        2   -1    0    0  501    0  0.00000000000E+00  0.00000000000E+00  0.13308580958E+04  0.13308580958E+04  0.25500000920E-02 0.  1.
       -2   -1    0    0    0  501  0.00000000000E+00  0.00000000000E+00 -0.92726595536E+02  0.92726595571E+02  0.25500000920E-02 0. -1.
    10030    2    1    2    0    0  0.00000000000E+00  0.00000000000E+00  0.12381315002E+04  0.14235846913E+04  0.70258363314E+03 0.  0.
        1    1    3    3  502    0 -0.14346511968E+03 -0.15015105340E+03  0.11931617608E+04  0.12110997345E+04  0.50400001928E-02 0.  1.
       -1    1    3    3    0  502  0.14346511968E+03  0.15015105340E+03  0.44969739437E+02  0.21248495686E+03  0.50400001928E-02 0. -1.
</event>
<event>
 5   0  0.1839038E-02  0.7020251E+03  0.7818609E-02  0.9713775E-01
       -1   -1    0    0    0  501  0.00000000000E+00  0.00000000000E+00  0.47976809164E+03  0.47976809167E+03  0.50400001928E-02 0. -1.
        1   -1    0    0  501    0  0.00000000000E+00  0.00000000000E+00 -0.25681121077E+03  0.25681121082E+03  0.50400001928E-02 0.  1.
    10030    2    1    2    0    0  0.00000000000E+00  0.00000000000E+00  0.22295688088E+03  0.73657930249E+03  0.70202514066E+03 0.  0.
        5    1    3    3  502    0  0.67572106678E+02 -0.28831872319E+03 -0.86193341904E+02  0.30845592543E+03  0.46999998093E+01 0.  1.
       -5    1    3    3    0  502 -0.67572106678E+02  0.28831872319E+03  0.30915022278E+03  0.42812337706E+03  0.46999998093E+01 0. -1.
</event>
<event>
 5   0  0.1858013E-02  0.7011008E+03  0.7818609E-02  0.9715351E-01
        1   -1    0    0  501    0  0.00000000000E+00  0.00000000000E+00  0.60449590822E+03  0.60449590824E+03  0.50400001928E-02 0.  1.
       -1   -1    0    0    0  501  0.00000000000E+00  0.00000000000E+00 -0.20328606423E+03  0.20328606430E+03  0.50400001928E-02 0. -1.
    10030    2    1    2    0    0  0.00000000000E+00  0.00000000000E+00  0.40120984398E+03  0.80778197253E+03  0.70110083172E+03 0.  0.
        2    1    3    3  502    0 -0.27719939744E+03  0.10117988709E+03  0.41863081011E+03  0.51218027166E+03  0.25500000920E-02 0.  1.
       -2    1    3    3    0  502  0.27719939744E+03 -0.10117988709E+03 -0.17420966132E+02  0.29560170088E+03  0.25500000920E-02 0. -1.
</event>
<event>
 5   0  0.1969818E-02  0.6971760E+03  0.7818609E-02  0.9722074E-01
        1   -1    0    0  501    0  0.00000000000E+00  0.00000000000E+00  0.32736452797E+03  0.32736452801E+03  0.50400001928E-02 0.  1.
       -1   -1    0    0    0  501  0.00000000000E+00  0.00000000000E+00 -0.37118737079E+03  0.37118737083E+03  0.50400001928E-02 0. -1.
    10030    2    1    2    0    0  0.00000000000E+00  0.00000000000E+00 -0.43822842819E+02  0.69855189884E+03  0.69717595614E+03 0.  0.
        1    1    3    3  502    0  0.16554874774E+03 -0.10336413724E+03 -0.31131193483E+03  0.36743115483E+03  0.50400001928E-02 0. -1.
       -1    1    3    3    0  502 -0.16554874774E+03  0.10336413724E+03  0.26748909201E+03  0.33112074401E+03  0.50400001928E-02 0.  1.
</event>
<event>
 5   0  0.3113940E-02  0.6849722E+03  0.7818609E-02  0.9743282E-01
        2   -1    0    0  501    0  0.00000000000E+00  0.00000000000E+00  0.23078285859E+03  0.23078285861E+03  0.25500000920E-02 0.  1.
       -2   -1    0    0    0  501  0.00000000000E+00  0.00000000000E+00 -0.50825584061E+03  0.50825584061E+03  0.25500000920E-02 0. -1.
    10030    2    1    2    0    0  0.00000000000E+00  0.00000000000E+00 -0.27747298202E+03  0.73903869922E+03  0.68497222075E+03 0.  0.
        5    1    3    3  502    0  0.85752663910E+02  0.25033701981E+03  0.95797951799E+02  0.28146310668E+03  0.46999998093E+01 0.  1.
       -5    1    3    3    0  502 -0.85752663910E+02 -0.25033701981E+03 -0.37327093382E+03  0.45757559254E+03  0.46999998093E+01 0. -1.
</event>
<event>
 5   0  0.3113940E-02  0.6805356E+03  0.7818609E-02  0.9751110E-01
        2   -1    0    0  501    0  0.00000000000E+00  0.00000000000E+00  0.11564336774E+04  0.11564336774E+04  0.25500000920E-02 0. -1.
       -2   -1    0    0    0  501  0.00000000000E+00  0.00000000000E+00 -0.10012003567E+03  0.10012003570E+03  0.25500000920E-02 0.  1.
    10030    2    1    2    0    0  0.00000000000E+00  0.00000000000E+00  0.10563136418E+04  0.12565537131E+04  0.68053561568E+03 0.  0.
        5    1    3    3  502    0  0.32434094293E+03 -0.10226827398E+03  0.50930490103E+03  0.61242911372E+03  0.46999998093E+01 0.  1.
       -5    1    3    3    0  502 -0.32434094293E+03  0.10226827398E+03  0.54700874073E+03  0.64412459940E+03  0.46999998093E+01 0. -1.
</event>
<event>
 5   0  0.3183963E-02  0.7045034E+03  0.7818609E-02  0.9709562E-01
        2   -1    0    0  501    0  0.00000000000E+00  0.00000000000E+00  0.54064496510E+03  0.54064496510E+03  0.25500000920E-02 0. -1.
       -2   -1    0    0    0  501  0.00000000000E+00  0.00000000000E+00 -0.22950597816E+03  0.22950597817E+03  0.25500000920E-02 0.  1.
    10030    2    1    2    0    0  0.00000000000E+00  0.00000000000E+00  0.31113898694E+03  0.77015094327E+03  0.70450337560E+03 0.  0.
        4    1    3    3  502    0 -0.32643551893E+03 -0.77194992257E+02  0.27310786008E+03  0.43256066741E+03  0.12699999809E+01 0. -1.
       -4    1    3    3    0  502  0.32643551893E+03  0.77194992257E+02  0.38031126859E+02  0.33759027587E+03  0.12699999809E+01 0.  1.
</event>
<event>
 5   0  0.1839038E-02  0.7002921E+03  0.7818609E-02  0.9716733E-01
       -1   -1    0    0    0  501  0.00000000000E+00  0.00000000000E+00  0.27331847313E+03  0.27331847318E+03  0.50400001928E-02 0.  1.
        1   -1    0    0  501    0  0.00000000000E+00  0.00000000000E+00 -0.44856927404E+03  0.44856927407E+03  0.50400001928E-02 0. -1.
    10030    2    1    2    0    0  0.00000000000E+00  0.00000000000E+00 -0.17525080091E+03  0.72188774725E+03  0.70029213648E+03 0.  0.
        5    1    3    3  502    0  0.34010505659E+03 -0.49667139231E+02 -0.18922503950E+02  0.34426505108E+03  0.46999998093E+01 0.  1.
       -5    1    3    3    0  502 -0.34010505659E+03  0.49667139231E+02 -0.15632829696E+03  0.37762269617E+03  0.46999998093E+01 0. -1.
</event>
<event>
 5   0  0.2933851E-02  0.6887686E+03  0.7818609E-02  0.9736635E-01
       -2   -1    0    0    0  501  0.00000000000E+00  0.00000000000E+00  0.28142900160E+03  0.28142900161E+03  0.25500000920E-02 0.  1.
        2   -1    0    0  501    0  0.00000000000E+00  0.00000000000E+00 -0.42142258918E+03  0.42142258919E+03  0.25500000920E-02 0. -1.
    10030    2    1    2    0    0  0.00000000000E+00  0.00000000000E+00 -0.13999358758E+03  0.70285159080E+03  0.68876857807E+03 0.  0.
        2    1    3    3  502    0  0.26457052739E+03  0.15703703136E+03  0.87900123571E+02  0.31997597553E+03  0.25500000920E-02 0. -1.
       -2    1    3    3    0  502 -0.26457052739E+03 -0.15703703136E+03 -0.22789371115E+03  0.38287561528E+03  0.25500000920E-02 0.  1.
</event>
<event>
 5   0  0.1858013E-02  0.7002128E+03  0.7818609E-02  0.9716868E-01
        1   -1    0    0  501    0  0.00000000000E+00  0.00000000000E+00  0.71844623315E+03  0.71844623317E+03  0.50400001928E-02 0. -1.
       -1   -1    0    0    0  501  0.00000000000E+00  0.00000000000E+00 -0.17061053079E+03  0.17061053086E+03  0.50400001928E-02 0.  1.
    10030    2    1    2    0    0  0.00000000000E+00  0.00000000000E+00  0.54783570236E+03  0.88905676403E+03  0.70021280543E+03 0.  0.
        2    1    3    3  502    0  0.31322092512E+02 -0.19788914445E+03 -0.90626859343E+02  0.21989637244E+03  0.25500000920E-02 0.  1.
       -2    1    3    3    0  502 -0.31322092512E+02  0.19788914445E+03  0.63846256170E+03  0.66916039159E+03  0.25500000920E-02 0. -1.
</event>
<event>
 5   0  0.2933851E-02  0.7011685E+03  0.7818609E-02  0.9715236E-01
        2   -1    0    0  501    0  0.00000000000E+00  0.00000000000E+00  0.93271846749E+03  0.93271846749E+03  0.25500000920E-02 0.  1.
       -2   -1    0    0    0  501  0.00000000000E+00  0.00000000000E+00 -0.13177537635E+03  0.13177537638E+03  0.25500000920E-02 0. -1.
    10030    2    1    2    0    0  0.00000000000E+00  0.00000000000E+00  0.80094309113E+03  0.10644938439E+04  0.70116853067E+03 0.  0.
        2    1    3    3  502    0  0.26527145119E+01  0.24434422221E+03  0.78212839643E+03  0.81941196252E+03  0.25500000920E-02 0.  1.
       -2    1    3    3    0  502 -0.26527145119E+01 -0.24434422221E+03  0.18814694706E+02  0.24508188134E+03  0.25500000920E-02 0. -1.
</event>
<event>
 5   0  0.1839038E-02  0.7013867E+03  0.7818609E-02  0.9714864E-01
        1   -1    0    0  501    0  0.00000000000E+00  0.00000000000E+00  0.92813749649E+03  0.92813749650E+03  0.50400001928E-02 0.  1.
       -1   -1    0    0    0  501  0.00000000000E+00  0.00000000000E+00 -0.13250820902E+03  0.13250820912E+03  0.50400001928E-02 0. -1.
    10030    2    1    2    0    0  0.00000000000E+00  0.00000000000E+00  0.79562928747E+03  0.10606457056E+04  0.70138673340E+03 0.  0.
        5    1    3    3  502    0  0.28971241233E+03  0.86630340926E+02  0.12931432032E+03  0.32891090171E+03  0.46999998093E+01 0. -1.
       -5    1    3    3    0  502 -0.28971241233E+03 -0.86630340926E+02  0.66631496714E+03  0.73173480392E+03  0.46999998093E+01 0.  1.
</event>
<event>
 5   0  0.3183963E-02  0.7030538E+03  0.7818609E-02  0.9712024E-01
        2   -1    0    0  501    0  0.00000000000E+00  0.00000000000E+00  0.44128438199E+03  0.44128438200E+03  0.25500000920E-02 0. -1.
       -2   -1    0    0    0  501  0.00000000000E+00  0.00000000000E+00 -0.28002614862E+03  0.28002614863E+03  0.25500000920E-02 0.  1.
    10030    2    1    2    0    0  0.00000000000E+00  0.00000000000E+00  0.16125823337E+03  0.72131053062E+03  0.70305381285E+03 0.  0.
        4    1    3    3  502    0 -0.90189932582E+02  0.31417569800E+03 -0.52070043602E+02  0.33098866369E+03  0.12699999809E+01 0.  1.
       -4    1    3    3    0  502  0.90189932582E+02 -0.31417569800E+03  0.21332827697E+03  0.39032186693E+03  0.12699999809E+01 0. -1.
</event>
<event>
 5   0  0.1969818E-02  0.7003885E+03  0.7818609E-02  0.9716568E-01
        1   -1    0    0  501    0  0.00000000000E+00  0.00000000000E+00  0.53604610829E+03  0.53604610831E+03  0.50400001928E-02 0.  1.
       -1   -1    0    0    0  501  0.00000000000E+00  0.00000000000E+00 -0.22877882074E+03  0.22877882079E+03  0.50400001928E-02 0. -1.
    10030    2    1    2    0    0  0.00000000000E+00  0.00000000000E+00  0.30726728755E+03  0.76482492910E+03  0.70038845377E+03 0.  0.
        1    1    3    3  502    0 -0.18171504981E+02 -0.23708717195E+03  0.43437661444E+03  0.49520053906E+03  0.50400001928E-02 0.  1.
       -1    1    3    3    0  502  0.18171504981E+02  0.23708717195E+03 -0.12710932689E+03  0.26962439004E+03  0.50400001928E-02 0. -1.
</event>
<event>
 5   0  0.1839038E-02  0.6567875E+03  0.7818609E-02  0.9794126E-01
        1   -1    0    0  501    0  0.00000000000E+00  0.00000000000E+00  0.14675127677E+04  0.14675127677E+04  0.50400001928E-02 0.  1.
       -1   -1    0    0    0  501  0.00000000000E+00  0.00000000000E+00 -0.73486554450E+02  0.73486554623E+02  0.50400001928E-02 0. -1.
    10030    2    1    2    0    0  0.00000000000E+00  0.00000000000E+00  0.13940262132E+04  0.15409993223E+04  0.65678750611E+03 0.  0.
        5    1    3    3  502    0  0.32829767118E+03 -0.63847112815E+01  0.69585983634E+03  0.76945638425E+03  0.46999998093E+01 0. -1.
       -5    1    3    3    0  502 -0.32829767118E+03  0.63847112815E+01  0.69816637687E+03  0.77154293803E+03  0.46999998093E+01 0.  1.
</event>
<event>
 5   0  0.1951465E-02  0.6943859E+03  0.7818609E-02  0.9726882E-01
       -1   -1    0    0    0  501  0.00000000000E+00  0.00000000000E+00  0.18416952895E+03  0.18416952902E+03  0.50400001928E-02 0.  1.
        1   -1    0    0  501    0  0.00000000000E+00  0.00000000000E+00 -0.65452156016E+03  0.65452156018E+03  0.50400001928E-02 0. -1.
    10030    2    1    2    0    0  0.00000000000E+00  0.00000000000E+00 -0.47035203121E+03  0.83869108919E+03  0.69438585083E+03 0.  0.
        4    1    3    3  502    0 -0.55861444700E+02  0.33230759974E+03 -0.33617489516E+03  0.47598741043E+03  0.12699999809E+01 0.  1.
       -4    1    3    3    0  502  0.55861444700E+02 -0.33230759974E+03 -0.13417713605E+03  0.36270367876E+03  0.12699999809E+01 0. -1.
</event>
<event>
 5   0  0.2933851E-02  0.7045923E+03  0.7818609E-02  0.9709411E-01
        2   -1    0    0  501    0  0.00000000000E+00  0.00000000000E+00  0.14425649305E+04  0.14425649305E+04  0.25500000920E-02 0. -1.
       -2   -1    0    0    0  501  0.00000000000E+00  0.00000000000E+00 -0.86036044364E+02  0.86036044402E+02  0.25500000920E-02 0.  1.
    10030    2    1    2    0    0  0.00000000000E+00  0.00000000000E+00  0.13565288861E+04  0.15286009749E+04  0.70459230876E+03 0.  0.
        2    1    3    3  502    0  0.49409650122E+02 -0.18334398622E+03  0.34486154137E+02  0.19299125794E+03  0.25500000920E-02 0.  1.
       -2    1    3    3    0  502 -0.49409650122E+02  0.18334398622E+03  0.13220427320E+04  0.13356097170E+04  0.25500000920E-02 0. -1.
</event>
<event>
 5   0  0.3184443E-02  0.7011438E+03  0.7818609E-02  0.9715278E-01
       -2   -1    0    0    0  501  0.00000000000E+00  0.00000000000E+00  0.39734880453E+03  0.39734880454E+03  0.25500000920E-02 0.  1.
        2   -1    0    0  501    0  0.00000000000E+00  0.00000000000E+00 -0.30930166246E+03  0.30930166247E+03  0.25500000920E-02 0. -1.
    10030    2    1    2    0    0  0.00000000000E+00  0.00000000000E+00  0.88047142068E+02  0.70665046701E+03  0.70114376792E+03 0.  0.
        3    1    3    3  502    0 -0.49305512154E+02 -0.15516213244E+03  0.35693633757E+03  0.39231349729E+03  0.10100000352E+00 0.  1.
       -3    1    3    3    0  502  0.49305512154E+02  0.15516213244E+03 -0.26888919551E+03  0.31433696972E+03  0.10100000352E+00 0. -1.
</event>
<event>
 5   0  0.1839038E-02  0.7101522E+03  0.7818609E-02  0.9700026E-01
       -1   -1    0    0    0  501  0.00000000000E+00  0.00000000000E+00  0.22215529457E+03  0.22215529462E+03  0.50400001928E-02 0.  1.
        1   -1    0    0  501    0  0.00000000000E+00  0.00000000000E+00 -0.56752662535E+03  0.56752662537E+03  0.50400001928E-02 0. -1.
    10030    2    1    2    0    0  0.00000000000E+00  0.00000000000E+00 -0.34537133078E+03  0.78968192000E+03  0.71015222216E+03 0.  0.
        5    1    3    3  502    0 -0.99502258839E+02 -0.20826318132E+03  0.12730989869E+03  0.26363640210E+03  0.46999998093E+01 0.  1.
       -5    1    3    3    0  502  0.99502258839E+02  0.20826318132E+03 -0.47268122947E+03  0.52604551790E+03  0.46999998093E+01 0. -1.
</event>
<event>
 5   0  0.3113940E-02  0.7032985E+03  0.7818609E-02  0.9711608E-01
        2   -1    0    0  501    0  0.00000000000E+00  0.00000000000E+00  0.51222379493E+03  0.51222379494E+03  0.25500000920E-02 0.  1.
       -2   -1    0    0    0  501  0.00000000000E+00  0.00000000000E+00 -0.24141245101E+03  0.24141245103E+03  0.25500000920E-02 0. -1.
    10030    2    1    2    0    0  0.00000000000E+00  0.00000000000E+00  0.27081134392E+03  0.75363624596E+03  0.70329851929E+03 0.  0.
        5    1    3    3  502    0 -0.61411344644E+02  0.32825156881E+03  0.17461143213E+02  0.33443598371E+03  0.46999998093E+01 0. -1.
       -5    1    3    3    0  502  0.61411344644E+02 -0.32825156881E+03  0.25335020070E+03  0.41920026225E+03  0.46999998093E+01 0.  1.
</event>
<event>
 5   0  0.3113940E-02  0.7142460E+03  0.7818609E-02  0.9693175E-01
       -2   -1    0    0    0  501  0.00000000000E+00  0.00000000000E+00  0.31642631549E+03  0.31642631550E+03  0.25500000920E-02 0. -1.
        2   -1    0    0  501    0  0.00000000000E+00  0.00000000000E+00 -0.40305379980E+03  0.40305379981E+03  0.25500000920E-02 0.  1.
    10030    2    1    2    0    0  0.00000000000E+00  0.00000000000E+00 -0.86627484312E+02  0.71948011530E+03  0.71424597673E+03 0.  0.
        5    1    3    3  502    0 -0.73904077481E+02  0.29190161904E+03  0.15004702163E+03  0.33645886311E+03  0.46999998093E+01 0. -1.
       -5    1    3    3    0  502  0.73904077481E+02 -0.29190161904E+03 -0.23667450595E+03  0.38302125219E+03  0.46999998093E+01 0.  1.
</event>
<event>
 5   0  0.3113940E-02  0.7239011E+03  0.7818609E-02  0.9677209E-01
        2   -1    0    0  501    0  0.00000000000E+00  0.00000000000E+00  0.17902800139E+04  0.17902800139E+04  0.25500000920E-02 0. -1.
       -2   -1    0    0    0  501  0.00000000000E+00  0.00000000000E+00 -0.73177484279E+02  0.73177484323E+02  0.25500000920E-02 0.  1.
    10030    2    1    2    0    0  0.00000000000E+00  0.00000000000E+00  0.17171025296E+04  0.18634574982E+04  0.72390106399E+03 0.  0.
        5    1    3    3  502    0  0.77232058316E+02  0.21126823594E+03  0.12870180052E+03  0.25920127662E+03  0.46999998093E+01 0.  1.
       -5    1    3    3    0  502 -0.77232058316E+02 -0.21126823594E+03  0.15884007291E+04  0.16042562216E+04  0.46999998093E+01 0. -1.
</event>
<event>
 5   0  0.1951465E-02  0.6962702E+03  0.7818609E-02  0.9723632E-01
        1   -1    0    0  501    0  0.00000000000E+00  0.00000000000E+00  0.11588002813E+03  0.11588002824E+03  0.50400001928E-02 0. -1.
       -1   -1    0    0    0  501  0.00000000000E+00  0.00000000000E+00 -0.10458925720E+04  0.10458925720E+04  0.50400001928E-02 0.  1.
    10030    2    1    2    0    0  0.00000000000E+00  0.00000000000E+00 -0.93001254382E+03  0.11617726002E+04  0.69627023698E+03 0.  0.
        4    1    3    3  502    0 -0.18659893838E+03  0.67304330020E+02  0.12353450449E+02  0.19875426356E+03  0.12699999809E+01 0. -1.
       -4    1    3    3    0  502  0.18659893838E+03 -0.67304330020E+02 -0.94236599427E+03  0.96301833664E+03  0.12699999809E+01 0.  1.
</event>
<event>
 5   0  0.3183963E-02  0.6990844E+03  0.7818609E-02  0.9718799E-01
        2   -1    0    0  501    0  0.00000000000E+00  0.00000000000E+00  0.12634786209E+04  0.12634786209E+04  0.25500000920E-02 0. -1.
       -2   -1    0    0    0  501  0.00000000000E+00  0.00000000000E+00 -0.96701073831E+02  0.96701073864E+02  0.25500000920E-02 0.  1.
    10030    2    1    2    0    0  0.00000000000E+00  0.00000000000E+00  0.11667775471E+04  0.13601796948E+04  0.69908437096E+03 0.  0.
        4    1    3    3  502    0 -0.25271651601E+03 -0.13340055420E+03  0.19175137022E+03  0.34413884728E+03  0.12699999809E+01 0.  1.
       -4    1    3    3    0  502  0.25271651601E+03  0.13340055420E+03  0.97502617686E+03  0.10160408475E+04  0.12699999809E+01 0. -1.
</event>
<event>
 5   0  0.1969818E-02  0.7048604E+03  0.7818609E-02  0.9708956E-01
        1   -1    0    0  501    0  0.00000000000E+00  0.00000000000E+00  0.22377241994E+03  0.22377242000E+03  0.50400001928E-02 0.  1.
       -1   -1    0    0    0  501  0.00000000000E+00  0.00000000000E+00 -0.55505961981E+03  0.55505961984E+03  0.50400001928E-02 0. -1.
    10030    2    1    2    0    0  0.00000000000E+00  0.00000000000E+00 -0.33128719988E+03  0.77883203983E+03  0.70486036736E+03 0.  0.
        1    1    3    3  502    0 -0.23440653347E+03  0.35336993026E+02 -0.45380326977E+03  0.51198880230E+03  0.50400001928E-02 0. -1.
       -1    1    3    3    0  502  0.23440653347E+03 -0.35336993026E+02  0.12251606989E+03  0.26684323753E+03  0.50400001928E-02 0.  1.
</event>
<event>
 5   0  0.1233912E-02  0.6898318E+03  0.7818609E-02  0.9734781E-01
       -3   -1    0    0    0  501  0.00000000000E+00  0.00000000000E+00  0.29501632322E+03  0.29501634050E+03  0.10100000352E+00 0. -1.
        3   -1    0    0  501    0  0.00000000000E+00  0.00000000000E+00 -0.40325552851E+03  0.40325554115E+03  0.10100000352E+00 0.  1.
    10030    2    1    2    0    0  0.00000000000E+00  0.00000000000E+00 -0.10823920529E+03  0.69827188166E+03  0.68983178758E+03 0.  0.
        3    1    3    3  502    0 -0.33696383917E+02  0.29709554280E+03  0.11993112511E+03  0.32215631735E+03  0.10100000352E+00 0. -1.
       -3    1    3    3    0  502  0.33696383917E+02 -0.29709554280E+03 -0.22817033040E+03  0.37611556431E+03  0.10100000352E+00 0.  1.
</event>
<event>
 5   0  0.1969818E-02  0.7128920E+03  0.7818609E-02  0.9695436E-01
        1   -1    0    0  501    0  0.00000000000E+00  0.00000000000E+00  0.45111526689E+03  0.45111526692E+03  0.50400001928E-02 0.  1.
       -1   -1    0    0    0  501  0.00000000000E+00  0.00000000000E+00 -0.28164367158E+03  0.28164367163E+03  0.50400001928E-02 0. -1.
    10030    2    1    2    0    0  0.00000000000E+00  0.00000000000E+00  0.16947159531E+03  0.73275893855E+03  0.71289202577E+03 0.  0.
        1    1    3    3  502    0  0.23604490275E+03  0.26591162400E+03  0.58986273291E+02  0.36042415062E+03  0.50400001928E-02 0. -1.
       -1    1    3    3    0  502 -0.23604490275E+03 -0.26591162400E+03  0.11048532202E+03  0.37233478792E+03  0.50400001928E-02 0.  1.
</event>
<event>
 5   0  0.1858013E-02  0.7026129E+03  0.7818609E-02  0.9712774E-01
        1   -1    0    0  501    0  0.00000000000E+00  0.00000000000E+00  0.77199495825E+03  0.77199495827E+03  0.50400001928E-02 0. -1.
       -1   -1    0    0    0  501  0.00000000000E+00  0.00000000000E+00 -0.15986660091E+03  0.15986660099E+03  0.50400001928E-02 0.  1.
    10030    2    1    2    0    0  0.00000000000E+00  0.00000000000E+00  0.61212835735E+03  0.93186155926E+03  0.70261286621E+03 0.  0.
        2    1    3    3  502    0 -0.25782324100E+03  0.20876086013E+03  0.45937603376E+03  0.56663944508E+03  0.25500000920E-02 0. -1.
       -2    1    3    3    0  502  0.25782324100E+03 -0.20876086013E+03  0.15275232359E+03  0.36522211418E+03  0.25500000920E-02 0.  1.
</event>
<event>
 5   0  0.3183963E-02  0.6986495E+03  0.7818609E-02  0.9719544E-01
       -2   -1    0    0    0  501  0.00000000000E+00  0.00000000000E+00  0.11876246748E+03  0.11876246750E+03  0.25500000920E-02 0. -1.
        2   -1    0    0  501    0  0.00000000000E+00  0.00000000000E+00 -0.10274946200E+04  0.10274946200E+04  0.25500000920E-02 0.  1.
    10030    2    1    2    0    0  0.00000000000E+00  0.00000000000E+00 -0.90873215252E+03  0.11462570875E+04  0.69864954421E+03 0.  0.
        4    1    3    3  502    0 -0.13416305825E+03  0.32197960855E+03 -0.48530440182E+03  0.59765589585E+03  0.12699999809E+01 0. -1.
       -4    1    3    3    0  502  0.13416305825E+03 -0.32197960855E+03 -0.42342775070E+03  0.54860119165E+03  0.12699999809E+01 0.  1.
</event>
<event>
 5   0  0.1951465E-02  0.6354482E+03  0.7818609E-02  0.9834474E-01
       -1   -1    0    0    0  501  0.00000000000E+00  0.00000000000E+00  0.23765430231E+03  0.23765430237E+03  0.50400001928E-02 0. -1.
        1   -1    0    0  501    0  0.00000000000E+00  0.00000000000E+00 -0.42477078481E+03  0.42477078484E+03  0.50400001928E-02 0.  1.
    10030    2    1    2    0    0  0.00000000000E+00  0.00000000000E+00 -0.18711648250E+03  0.66242508721E+03  0.63544820256E+03 0.  0.
        4    1    3    3  502    0  0.12387947948E+03 -0.22126484899E+03 -0.29310769526E+03  0.38757965989E+03  0.12699999809E+01 0.  1.
       -4    1    3    3    0  502 -0.12387947948E+03  0.22126484899E+03  0.10599121276E+03  0.27484542732E+03  0.12699999809E+01 0. -1.
</event>
<event>
 5   0  0.1884172E-02  0.7139691E+03  0.7818609E-02  0.9693637E-01
        1   -1    0    0  501    0  0.00000000000E+00  0.00000000000E+00  0.13946345075E+04  0.13946345075E+04  0.50400001928E-02 0. -1.
       -1   -1    0    0    0  501  0.00000000000E+00  0.00000000000E+00 -0.91377331418E+02  0.91377331557E+02  0.50400001928E-02 0.  1.
    10030    2    1    2    0    0  0.00000000000E+00  0.00000000000E+00  0.13032571761E+04  0.14860118390E+04  0.71396913017E+03 0.  0.
        3    1    3    3  502    0 -0.20630876180E+03  0.25515072125E+03  0.94429752719E+03  0.99968146217E+03  0.10100000352E+00 0. -1.
       -3    1    3    3    0  502  0.20630876180E+03 -0.25515072125E+03  0.35895964887E+03  0.48633037688E+03  0.10100000352E+00 0.  1.
</event>
<event>
 5   0  0.3290656E-02  0.6995838E+03  0.7818609E-02  0.9717944E-01
       -2   -1    0    0    0  501  0.00000000000E+00  0.00000000000E+00  0.76545929823E+03  0.76545929824E+03  0.25500000920E-02 0. -1.
        2   -1    0    0  501    0  0.00000000000E+00  0.00000000000E+00 -0.15984438759E+03  0.15984438761E+03  0.25500000920E-02 0.  1.
    10030    2    1    2    0    0  0.00000000000E+00  0.00000000000E+00  0.60561491065E+03  0.92530368585E+03  0.69958379844E+03 0.  0.
        1    1    3    3  502    0 -0.14464233916E+03  0.17597095255E+03 -0.48298363290E+02  0.23285170031E+03  0.50400001928E-02 0.  1.
       -1    1    3    3    0  502  0.14464233916E+03 -0.17597095255E+03  0.65391327393E+03  0.69245198553E+03  0.50400001928E-02 0. -1.
</event>
<event>
 5   0  0.3113940E-02  0.7097118E+03  0.7818609E-02  0.9700766E-01
       -2   -1    0    0    0  501  0.00000000000E+00  0.00000000000E+00  0.15814504646E+03  0.15814504648E+03  0.25500000920E-02 0.  1.
        2   -1    0    0  501    0  0.00000000000E+00  0.00000000000E+00 -0.79624819056E+03  0.79624819056E+03  0.25500000920E-02 0. -1.
    10030    2    1    2    0    0  0.00000000000E+00  0.00000000000E+00 -0.63810314410E+03  0.95439323704E+03  0.70971179248E+03 0.  0.
        5    1    3    3  502    0  0.10496713899E+03  0.20580395516E+03 -0.68120777967E+03  0.71933267499E+03  0.46999998093E+01 0. -1.
       -5    1    3    3    0  502 -0.10496713899E+03 -0.20580395516E+03  0.43104635569E+02  0.23506056205E+03  0.46999998093E+01 0.  1.
</event>
<event>
 5   0  0.1951465E-02  0.7020823E+03  0.7818609E-02  0.9713678E-01
       -1   -1    0    0    0  501  0.00000000000E+00  0.00000000000E+00  0.11244914511E+03  0.11244914522E+03  0.50400001928E-02 0.  1.
        1   -1    0    0  501    0  0.00000000000E+00  0.00000000000E+00 -0.10958720626E+04  0.10958720626E+04  0.50400001928E-02 0. -1.
    10030    2    1    2    0    0  0.00000000000E+00  0.00000000000E+00 -0.98342291744E+03  0.12083212078E+04  0.70208226486E+03 0.  0.
        4    1    3    3  502    0 -0.78060899639E+02 -0.13138730306E+02 -0.10803070926E+04  0.10832041163E+04  0.12699999809E+01 0. -1.
       -4    1    3    3    0  502  0.78060899639E+02  0.13138730306E+02  0.96884175171E+02  0.12511709150E+03  0.12699999809E+01 0.  1.
</event>
<event>
 5   0  0.3183963E-02  0.6933924E+03  0.7818609E-02  0.9728599E-01
        2   -1    0    0  501    0  0.00000000000E+00  0.00000000000E+00  0.14144224907E+04  0.14144224907E+04  0.25500000920E-02 0.  1.
       -2   -1    0    0    0  501  0.00000000000E+00  0.00000000000E+00 -0.84980440496E+02  0.84980440534E+02  0.25500000920E-02 0. -1.
    10030    2    1    2    0    0  0.00000000000E+00  0.00000000000E+00  0.13294420502E+04  0.14994029312E+04  0.69339237473E+03 0.  0.
        4    1    3    3  502    0 -0.10766635925E+03 -0.32882678004E+03  0.71197549762E+03  0.79159953152E+03  0.12699999809E+01 0.  1.
       -4    1    3    3    0  502  0.10766635925E+03  0.32882678004E+03  0.61746655254E+03  0.70780339967E+03  0.12699999809E+01 0. -1.
</event>
<event>
 5   0  0.2933851E-02  0.7025440E+03  0.7818609E-02  0.9712892E-01
        2   -1    0    0  501    0  0.00000000000E+00  0.00000000000E+00  0.48690141109E+03  0.48690141110E+03  0.25500000920E-02 0. -1.
       -2   -1    0    0    0  501  0.00000000000E+00  0.00000000000E+00 -0.25342297473E+03  0.25342297474E+03  0.25500000920E-02 0.  1.
    10030    2    1    2    0    0  0.00000000000E+00  0.00000000000E+00  0.23347843636E+03  0.74032438584E+03  0.70254396020E+03 0.  0.
        2    1    3    3  502    0 -0.27109366434E+03 -0.16360755352E+03  0.27701305341E+03  0.42070825780E+03  0.25500000920E-02 0. -1.
       -2    1    3    3    0  502  0.27109366434E+03  0.16360755352E+03 -0.43534617051E+02  0.31961612804E+03  0.25500000920E-02 0.  1.
</event>
<event>
 5   0  0.1969818E-02  0.6945764E+03  0.7818609E-02  0.9726552E-01
        1   -1    0    0  501    0  0.00000000000E+00  0.00000000000E+00  0.27652418663E+03  0.27652418668E+03  0.50400001928E-02 0. -1.
       -1   -1    0    0    0  501  0.00000000000E+00  0.00000000000E+00 -0.43616114815E+03  0.43616114818E+03  0.50400001928E-02 0.  1.
    10030    2    1    2    0    0  0.00000000000E+00  0.00000000000E+00 -0.15963696152E+03  0.71268533486E+03  0.69457643715E+03 0.  0.
        1    1    3    3  502    0  0.54858858880E+02 -0.32182855193E+03  0.41700641435E+02  0.32912316047E+03  0.50400001928E-02 0. -1.
       -1    1    3    3    0  502 -0.54858858880E+02  0.32182855193E+03 -0.20133760296E+03  0.38356217439E+03  0.50400001928E-02 0.  1.
</event>
<event>
 5   0  0.2933851E-02  0.6673016E+03  0.7818609E-02  0.9774845E-01
        2   -1    0    0  501    0  0.00000000000E+00  0.00000000000E+00  0.24234549452E+03  0.24234549453E+03  0.25500000920E-02 0. -1.
       -2   -1    0    0    0  501  0.00000000000E+00  0.00000000000E+00 -0.45935601145E+03  0.45935601146E+03  0.25500000920E-02 0.  1.
    10030    2    1    2    0    0  0.00000000000E+00  0.00000000000E+00 -0.21701051693E+03  0.70170150599E+03  0.66730161026E+03 0.  0.
        2    1    3    3  502    0 -0.11809974323E+03  0.37801820761E+02  0.21721474121E+03  0.25011751400E+03  0.25500000920E-02 0. -1.
       -2    1    3    3    0  502  0.11809974323E+03 -0.37801820761E+02 -0.43422525815E+03  0.45158399199E+03  0.25500000920E-02 0.  1.
</event>
<event>
 5   0  0.1858013E-02  0.7030704E+03  0.7818609E-02  0.9711996E-01
       -1   -1    0    0    0  501  0.00000000000E+00  0.00000000000E+00  0.21508833594E+03  0.21508833600E+03  0.50400001928E-02 0.  1.
        1   -1    0    0  501    0  0.00000000000E+00  0.00000000000E+00 -0.57454064651E+03  0.57454064654E+03  0.50400001928E-02 0. -1.
    10030    2    1    2    0    0  0.00000000000E+00  0.00000000000E+00 -0.35945231057E+03  0.78962898254E+03  0.70307038516E+03 0.  0.
        2    1    3    3  502    0 -0.30779520382E+03 -0.13973107166E+03 -0.28811887817E+03  0.44415667038E+03  0.25500000920E-02 0. -1.
       -2    1    3    3    0  502  0.30779520382E+03  0.13973107166E+03 -0.71333432401E+02  0.34547231215E+03  0.25500000920E-02 0.  1.
</event>
<event>
 5   0  0.1951465E-02  0.7010215E+03  0.7818609E-02  0.9715487E-01
        1   -1    0    0  501    0  0.00000000000E+00  0.00000000000E+00  0.41311743513E+03  0.41311743516E+03  0.50400001928E-02 0.  1.
       -1   -1    0    0    0  501  0.00000000000E+00  0.00000000000E+00 -0.29739189028E+03  0.29739189032E+03  0.50400001928E-02 0. -1.
    10030    2    1    2    0    0  0.00000000000E+00  0.00000000000E+00  0.11572554486E+03  0.71050932548E+03  0.70102146890E+03 0.  0.
        4    1    3    3  502    0  0.84574749066E+02  0.30052824498E+03  0.21934919406E+03  0.38155706788E+03  0.12699999809E+01 0.  1.
       -4    1    3    3    0  502 -0.84574749066E+02 -0.30052824498E+03 -0.10362364921E+03  0.32895225761E+03  0.12699999809E+01 0. -1.
</event>
<event>
 5   0  0.3290656E-02  0.6790189E+03  0.7818609E-02  0.9753801E-01
        2   -1    0    0  501    0  0.00000000000E+00  0.00000000000E+00  0.16049329578E+04  0.16049329578E+04  0.25500000920E-02 0. -1.
       -2   -1    0    0    0  501  0.00000000000E+00  0.00000000000E+00 -0.71820228642E+02  0.71820228687E+02  0.25500000920E-02 0.  1.
    10030    2    1    2    0    0  0.00000000000E+00  0.00000000000E+00  0.15331127291E+04  0.16767531865E+04  0.67901885695E+03 0.  0.
        1    1    3    3  502    0 -0.81570033544E+02 -0.31875167345E+03  0.97331193866E+03  0.10274202790E+04  0.50400001928E-02 0. -1.
       -1    1    3    3    0  502  0.81570033544E+02  0.31875167345E+03  0.55980079048E+03  0.64933290749E+03  0.50400001928E-02 0.  1.
</event>
<event>
 5   0  0.2933851E-02  0.7047234E+03  0.7818609E-02  0.9709188E-01
        2   -1    0    0  501    0  0.00000000000E+00  0.00000000000E+00  0.63401016813E+03  0.63401016814E+03  0.25500000920E-02 0. -1.
       -2   -1    0    0    0  501  0.00000000000E+00  0.00000000000E+00 -0.19583088226E+03  0.19583088228E+03  0.25500000920E-02 0.  1.
    10030    2    1    2    0    0  0.00000000000E+00  0.00000000000E+00  0.43817928587E+03  0.82984105041E+03  0.70472340843E+03 0.  0.
        2    1    3    3  502    0 -0.49919680406E+02  0.12120073167E+03 -0.16605316050E+03  0.21155435228E+03  0.25500000920E-02 0.  1.
       -2    1    3    3    0  502  0.49919680406E+02 -0.12120073167E+03  0.60423244637E+03  0.61828669814E+03  0.25500000920E-02 0. -1.
</event>
<event>
 5   0  0.1969818E-02  0.7011107E+03  0.7818609E-02  0.9715335E-01
        1   -1    0    0  501    0  0.00000000000E+00  0.00000000000E+00  0.74609406347E+03  0.74609406349E+03  0.50400001928E-02 0.  1.
       -1   -1    0    0    0  501  0.00000000000E+00  0.00000000000E+00 -0.16470987274E+03  0.16470987282E+03  0.50400001928E-02 0. -1.
    10030    2    1    2    0    0  0.00000000000E+00  0.00000000000E+00  0.58138419073E+03  0.91080393631E+03  0.70111071391E+03 0.  0.
        1    1    3    3  502    0 -0.16888618374E+03 -0.14352178916E+03  0.64352764264E+03  0.68062388578E+03  0.50400001928E-02 0.  1.
       -1    1    3    3    0  502  0.16888618374E+03  0.14352178916E+03 -0.62143451908E+02  0.23018005053E+03  0.50400001928E-02 0. -1.
</event>
<event>
 5   0  0.1858013E-02  0.7039983E+03  0.7818609E-02  0.9710419E-01
       -1   -1    0    0    0  501  0.00000000000E+00  0.00000000000E+00  0.37589585943E+03  0.37589585946E+03  0.50400001928E-02 0.  1.
        1   -1    0    0  501    0  0.00000000000E+00  0.00000000000E+00 -0.32962165908E+03  0.32962165912E+03  0.50400001928E-02 0. -1.
    10030    2    1    2    0    0  0.00000000000E+00  0.00000000000E+00  0.46274200347E+02  0.70551751859E+03  0.70399834333E+03 0.  0.
        2    1    3    3  502    0  0.33847382327E+03 -0.78936440899E+02  0.79006178565E+02  0.35642315721E+03  0.25500000920E-02 0.  1.
       -2    1    3    3    0  502 -0.33847382327E+03  0.78936440899E+02 -0.32731978218E+02  0.34909436137E+03  0.25500000920E-02 0. -1.
</event>
<event>
 5   0  0.3290656E-02  0.7029465E+03  0.7818609E-02  0.9712206E-01
       -2   -1    0    0    0  501  0.00000000000E+00  0.00000000000E+00  0.14146993106E+03  0.14146993109E+03  0.25500000920E-02 0.  1.
        2   -1    0    0  501    0  0.00000000000E+00  0.00000000000E+00 -0.87321352010E+03  0.87321352011E+03  0.25500000920E-02 0. -1.
    10030    2    1    2    0    0  0.00000000000E+00  0.00000000000E+00 -0.73174358904E+03  0.10146834512E+04  0.70294653141E+03 0.  0.
        1    1    3    3  502    0 -0.11743969880E+03 -0.24100006206E+03 -0.69395721440E+03  0.74394201938E+03  0.50400001928E-02 0. -1.
       -1    1    3    3    0  502  0.11743969880E+03  0.24100006206E+03 -0.37786374642E+02  0.27074143181E+03  0.50400001928E-02 0.  1.
</event>
<event>
 5   0  0.1858013E-02  0.7042211E+03  0.7818609E-02  0.9710041E-01
       -1   -1    0    0    0  501  0.00000000000E+00  0.00000000000E+00  0.17202805797E+03  0.17202805805E+03  0.50400001928E-02 0. -1.
        1   -1    0    0  501    0  0.00000000000E+00  0.00000000000E+00 -0.72070707090E+03  0.72070707092E+03  0.50400001928E-02 0.  1.
    10030    2    1    2    0    0  0.00000000000E+00  0.00000000000E+00 -0.54867901293E+03  0.89273512897E+03  0.70422109544E+03 0.  0.
        2    1    3    3  502    0  0.37424585643E+02  0.33765247069E+03 -0.39170917331E+03  0.51850348797E+03  0.25500000920E-02 0. -1.
       -2    1    3    3    0  502 -0.37424585643E+02 -0.33765247069E+03 -0.15696983962E+03  0.37423164100E+03  0.25500000920E-02 0.  1.
</event>
<event>
 5   0  0.1884172E-02  0.7018229E+03  0.7818609E-02  0.9714120E-01
       -1   -1    0    0    0  501  0.00000000000E+00  0.00000000000E+00  0.16848944280E+03  0.16848944287E+03  0.50400001928E-02 0.  1.
        1   -1    0    0  501    0  0.00000000000E+00  0.00000000000E+00 -0.73084019159E+03  0.73084019161E+03  0.50400001928E-02 0. -1.
    10030    2    1    2    0    0  0.00000000000E+00  0.00000000000E+00 -0.56235074880E+03  0.89932963448E+03  0.70182293122E+03 0.  0.
        3    1    3    3  502    0  0.13413990390E+03 -0.28196919790E+03 -0.75993314546E+02  0.32136449156E+03  0.10100000352E+00 0.  1.
       -3    1    3    3    0  502 -0.13413990390E+03  0.28196919790E+03 -0.48635743425E+03  0.57796514292E+03  0.10100000352E+00 0. -1.
</event>
<event>
 5   0  0.3183963E-02  0.7266295E+03  0.7818609E-02  0.9672746E-01
        2   -1    0    0  501    0  0.00000000000E+00  0.00000000000E+00  0.11415291470E+04  0.11415291470E+04  0.25500000920E-02 0. -1.
       -2   -1    0    0    0  501  0.00000000000E+00  0.00000000000E+00 -0.11563227243E+03  0.11563227246E+03  0.25500000920E-02 0.  1.
    10030    2    1    2    0    0  0.00000000000E+00  0.00000000000E+00  0.10258968746E+04  0.12571614195E+04  0.72662950487E+03 0.  0.
        4    1    3    3  502    0  0.18237710542E+03  0.14029854462E+03  0.99939085992E+03  0.10255382947E+04  0.12699999809E+01 0. -1.
       -4    1    3    3    0  502 -0.18237710542E+03 -0.14029854462E+03  0.26506014682E+02  0.23162312475E+03  0.12699999809E+01 0.  1.
</event>
<event>
 5   0  0.3183963E-02  0.6986349E+03  0.7818609E-02  0.9719570E-01
       -2   -1    0    0    0  501  0.00000000000E+00  0.00000000000E+00  0.93548991624E+02  0.93548991659E+02  0.25500000920E-02 0. -1.
        2   -1    0    0  501    0  0.00000000000E+00  0.00000000000E+00 -0.13043717749E+04  0.13043717749E+04  0.25500000920E-02 0.  1.
    10030    2    1    2    0    0  0.00000000000E+00  0.00000000000E+00 -0.12108227833E+04  0.13979207665E+04  0.69863485246E+03 0.  0.
        4    1    3    3  502    0  0.22643896500E+03  0.40042436638E+02 -0.11315577574E+04  0.11546872186E+04  0.12699999809E+01 0.  1.
       -4    1    3    3    0  502 -0.22643896500E+03 -0.40042436638E+02 -0.79265025819E+02  0.24323354789E+03  0.12699999809E+01 0. -1.
</event>
<event>
 5   0  0.3183963E-02  0.6961956E+03  0.7818609E-02  0.9723760E-01
       -2   -1    0    0    0  501  0.00000000000E+00  0.00000000000E+00  0.22503260595E+03  0.22503260596E+03  0.25500000920E-02 0. -1.
        2   -1    0    0  501    0  0.00000000000E+00  0.00000000000E+00 -0.53846453919E+03  0.53846453920E+03  0.25500000920E-02 0.  1.
    10030    2    1    2    0    0  0.00000000000E+00  0.00000000000E+00 -0.31343193324E+03  0.76349714516E+03  0.69619560031E+03 0.  0.
        4    1    3    3  502    0 -0.21732552331E+03 -0.10525252917E+03  0.11824446281E+03  0.26887142627E+03  0.12699999809E+01 0. -1.
       -4    1    3    3    0  502  0.21732552331E+03  0.10525252917E+03 -0.43167639606E+03  0.49462571889E+03  0.12699999809E+01 0.  1.
</event>
<event>
 5   0  0.3184443E-02  0.6965522E+03  0.7818609E-02  0.9723147E-01
       -2   -1    0    0    0  501  0.00000000000E+00  0.00000000000E+00  0.13194626182E+03  0.13194626185E+03  0.25500000920E-02 0.  1.
        2   -1    0    0  501    0  0.00000000000E+00  0.00000000000E+00 -0.91928523266E+03  0.91928523267E+03  0.25500000920E-02 0. -1.
    10030    2    1    2    0    0  0.00000000000E+00  0.00000000000E+00 -0.78733897084E+03  0.10512314945E+04  0.69655222349E+03 0.  0.
        3    1    3    3  502    0  0.21014042741E+02  0.45744427266E+02  0.12642662978E+03  0.13608029077E+03  0.10100000352E+00 0.  1.
       -3    1    3    3    0  502 -0.21014042741E+02 -0.45744427266E+02 -0.91376560063E+03  0.91515120374E+03  0.10100000352E+00 0. -1.
</event>
<event>
 5   0  0.1969818E-02  0.7047093E+03  0.7818609E-02  0.9709212E-01
        1   -1    0    0  501    0  0.00000000000E+00  0.00000000000E+00  0.76146742666E+03  0.76146742668E+03  0.50400001928E-02 0.  1.
       -1   -1    0    0    0  501  0.00000000000E+00  0.00000000000E+00 -0.16304543773E+03  0.16304543781E+03  0.50400001928E-02 0. -1.
    10030    2    1    2    0    0  0.00000000000E+00  0.00000000000E+00  0.59842198893E+03  0.92451286449E+03  0.70470927322E+03 0.  0.
        1    1    3    3  502    0 -0.35181017821E+03  0.19344297188E+02  0.29523468511E+03  0.45968263252E+03  0.50400001928E-02 0. -1.
       -1    1    3    3    0  502  0.35181017821E+03 -0.19344297188E+02  0.30318730383E+03  0.46483023197E+03  0.50400001928E-02 0.  1.
</event>
<event>
 5   0  0.2933851E-02  0.6996255E+03  0.7818609E-02  0.9717873E-01
        2   -1    0    0  501    0  0.00000000000E+00  0.00000000000E+00  0.81083272755E+03  0.81083272756E+03  0.25500000920E-02 0.  1.
       -2   -1    0    0    0  501  0.00000000000E+00  0.00000000000E+00 -0.15091763873E+03  0.15091763875E+03  0.25500000920E-02 0. -1.
    10030    2    1    2    0    0  0.00000000000E+00  0.00000000000E+00  0.65991508883E+03  0.96175036630E+03  0.69962550170E+03 0.  0.
        2    1    3    3  502    0  0.15350219117E+03  0.27852654379E+03  0.53024858447E+03  0.61830697847E+03  0.25500000920E-02 0.  1.
       -2    1    3    3    0  502 -0.15350219117E+03 -0.27852654379E+03  0.12966650436E+03  0.34344338783E+03  0.25500000920E-02 0. -1.
</event>
<event>
 5   0  0.3290656E-02  0.6710009E+03  0.7818609E-02  0.9768151E-01
       -2   -1    0    0    0  501  0.00000000000E+00  0.00000000000E+00  0.24412704749E+03  0.24412704751E+03  0.25500000920E-02 0.  1.
        2   -1    0    0  501    0  0.00000000000E+00  0.00000000000E+00 -0.46107367135E+03  0.46107367136E+03  0.25500000920E-02 0. -1.
    10030    2    1    2    0    0  0.00000000000E+00  0.00000000000E+00 -0.21694662386E+03  0.70520071887E+03  0.67100090632E+03 0.  0.
        1    1    3    3  502    0  0.22655086509E+03  0.13246357026E+03 -0.32814496205E+03  0.42017973305E+03  0.50400001928E-02 0. -1.
       -1    1    3    3    0  502 -0.22655086509E+03 -0.13246357026E+03  0.11119833819E+03  0.28502098582E+03  0.50400001928E-02 0.  1.
</event>
<event>
 5   0  0.1858013E-02  0.6954879E+03  0.7818609E-02  0.9724980E-01
        1   -1    0    0  501    0  0.00000000000E+00  0.00000000000E+00  0.51791703430E+03  0.51791703433E+03  0.50400001928E-02 0.  1.
       -1   -1    0    0    0  501  0.00000000000E+00  0.00000000000E+00 -0.23348496711E+03  0.23348496717E+03  0.50400001928E-02 0. -1.
    10030    2    1    2    0    0  0.00000000000E+00  0.00000000000E+00  0.28443206719E+03  0.75140200149E+03  0.69548786258E+03 0.  0.
        2    1    3    3  502    0 -0.56040588402E+02  0.56185857338E+02 -0.22357157582E+03  0.23723753420E+03  0.25500000920E-02 0. -1.
       -2    1    3    3    0  502  0.56040588402E+02 -0.56185857338E+02  0.50800364301E+03  0.51416446730E+03  0.25500000920E-02 0.  1.
</event>
<event>
 5   0  0.1858013E-02  0.6635572E+03  0.7818609E-02  0.9781667E-01
        1   -1    0    0  501    0  0.00000000000E+00  0.00000000000E+00  0.76698713261E+03  0.76698713262E+03  0.50400001928E-02 0.  1.
       -1   -1    0    0    0  501  0.00000000000E+00  0.00000000000E+00 -0.14351874850E+03  0.14351874859E+03  0.50400001928E-02 0. -1.
    10030    2    1    2    0    0  0.00000000000E+00  0.00000000000E+00  0.62346838410E+03  0.91050588121E+03  0.66355718197E+03 0.  0.
        2    1    3    3  502    0 -0.68757606283E+02 -0.17103721407E+03  0.69025037269E+03  0.71444167993E+03  0.25500000920E-02 0.  1.
       -2    1    3    3    0  502  0.68757606283E+02  0.17103721407E+03 -0.66781988589E+02  0.19606420128E+03  0.25500000920E-02 0. -1.
</event>
<event>
 5   0  0.3183963E-02  0.7012091E+03  0.7818609E-02  0.9715167E-01
        2   -1    0    0  501    0  0.00000000000E+00  0.00000000000E+00  0.81862307011E+03  0.81862307011E+03  0.25500000920E-02 0. -1.
       -2   -1    0    0    0  501  0.00000000000E+00  0.00000000000E+00 -0.15015892085E+03  0.15015892087E+03  0.25500000920E-02 0.  1.
    10030    2    1    2    0    0  0.00000000000E+00  0.00000000000E+00  0.66846414926E+03  0.96878199098E+03  0.70120911803E+03 0.  0.
        4    1    3    3  502    0  0.56650160168E+02 -0.16699869790E+03 -0.84423552253E+02  0.19551663566E+03  0.12699999809E+01 0.  1.
       -4    1    3    3    0  502 -0.56650160168E+02  0.16699869790E+03  0.75288770152E+03  0.77326535532E+03  0.12699999809E+01 0. -1.
</event>
<event>
 5   0  0.3183963E-02  0.6968081E+03  0.7818609E-02  0.9722706E-01
        2   -1    0    0  501    0  0.00000000000E+00  0.00000000000E+00  0.38300714565E+03  0.38300714566E+03  0.25500000920E-02 0.  1.
       -2   -1    0    0    0  501  0.00000000000E+00  0.00000000000E+00 -0.31692716429E+03  0.31692716430E+03  0.25500000920E-02 0. -1.
    10030    2    1    2    0    0  0.00000000000E+00  0.00000000000E+00  0.66079981361E+02  0.69993430996E+03  0.69680806132E+03 0.  0.
        4    1    3    3  502    0  0.29804725394E+03 -0.52532468368E+02 -0.14033778811E+03  0.33359876122E+03  0.12699999809E+01 0. -1.
       -4    1    3    3    0  502 -0.29804725394E+03  0.52532468368E+02  0.20641776947E+03  0.36633554874E+03  0.12699999809E+01 0.  1.
</event>
<event>
 5   0  0.3183963E-02  0.6767071E+03  0.7818609E-02  0.9757917E-01
       -2   -1    0    0    0  501  0.00000000000E+00  0.00000000000E+00  0.12627484464E+04  0.12627484464E+04  0.25500000920E-02 0. -1.
        2   -1    0    0  501    0  0.00000000000E+00  0.00000000000E+00 -0.90661849031E+02  0.90661849066E+02  0.25500000920E-02 0.  1.
    10030    2    1    2    0    0  0.00000000000E+00  0.00000000000E+00  0.11720865974E+04  0.13534102954E+04  0.67670705341E+03 0.  0.
        4    1    3    3  502    0  0.29319027301E+03  0.13887496151E+03  0.77823750253E+03  0.84315005448E+03  0.12699999809E+01 0. -1.
       -4    1    3    3    0  502 -0.29319027301E+03 -0.13887496151E+03  0.39384909482E+03  0.51026024097E+03  0.12699999809E+01 0.  1.
</event>
<event>
 5   0  0.1884172E-02  0.6972520E+03  0.7818609E-02  0.9721943E-01
       -1   -1    0    0    0  501  0.00000000000E+00  0.00000000000E+00  0.11176805895E+03  0.11176805906E+03  0.50400001928E-02 0.  1.
        1   -1    0    0  501    0  0.00000000000E+00  0.00000000000E+00 -0.10874313640E+04  0.10874313640E+04  0.50400001928E-02 0. -1.
    10030    2    1    2    0    0  0.00000000000E+00  0.00000000000E+00 -0.97566330501E+03  0.11991994230E+04  0.69725201431E+03 0.  0.
        3    1    3    3  502    0  0.44958581025E+02 -0.34068907619E+03 -0.38681424897E+03  0.51741240229E+03  0.10100000352E+00 0.  1.
       -3    1    3    3    0  502 -0.44958581025E+02  0.34068907619E+03 -0.58884905604E+03  0.68178702073E+03  0.10100000352E+00 0. -1.
</event>
<event>
 5   0  0.1233912E-02  0.6974077E+03  0.7818609E-02  0.9721676E-01
        3   -1    0    0  501    0  0.00000000000E+00  0.00000000000E+00  0.93432206805E+03  0.93432207351E+03  0.10100000352E+00 0. -1.
       -3   -1    0    0    0  501  0.00000000000E+00  0.00000000000E+00 -0.13014177960E+03  0.13014181879E+03  0.10100000352E+00 0.  1.
    10030    2    1    2    0    0  0.00000000000E+00  0.00000000000E+00  0.80418028845E+03  0.10644638923E+04  0.69740765817E+03 0.  0.
        1    1    3    3  502    0  0.22803224529E+03 -0.11196980010E+03  0.76667958848E+03  0.80767167367E+03  0.50400001928E-02 0.  1.
       -1    1    3    3    0  502 -0.22803224529E+03  0.11196980010E+03  0.37500699970E+02  0.25679221863E+03  0.50400001928E-02 0. -1.
</event>
<event>
 5   0  0.1839038E-02  0.7019312E+03  0.7818609E-02  0.9713935E-01
       -1   -1    0    0    0  501  0.00000000000E+00  0.00000000000E+00  0.38350361530E+03  0.38350361533E+03  0.50400001928E-02 0. -1.
        1   -1    0    0  501    0  0.00000000000E+00  0.00000000000E+00 -0.32118822284E+03  0.32118822288E+03  0.50400001928E-02 0.  1.
    10030    2    1    2    0    0  0.00000000000E+00  0.00000000000E+00  0.62315392460E+02  0.70469183821E+03  0.70193117804E+03 0.  0.
        5    1    3    3  502    0 -0.63785075274E+02 -0.17067236252E+03 -0.26995050530E+03  0.32571913739E+03  0.46999998093E+01 0.  1.
       -5    1    3    3    0  502  0.63785075274E+02  0.17067236252E+03  0.33226589776E+03  0.37897270082E+03  0.46999998093E+01 0. -1.
</event>
<event>
 5   0  0.2933851E-02  0.6985545E+03  0.7818609E-02  0.9719707E-01
       -2   -1    0    0    0  501  0.00000000000E+00  0.00000000000E+00  0.13232648756E+03  0.13232648759E+03  0.25500000920E-02 0.  1.
        2   -1    0    0  501    0  0.00000000000E+00  0.00000000000E+00 -0.92192128046E+03  0.92192128046E+03  0.25500000920E-02 0. -1.
    10030    2    1    2    0    0  0.00000000000E+00  0.00000000000E+00 -0.78959479289E+03  0.10542477680E+04  0.69855452148E+03 0.  0.
        2    1    3    3  502    0 -0.41552845857E+02 -0.34081053700E+03 -0.49162242815E+03  0.59964245430E+03  0.25500000920E-02 0. -1.
       -2    1    3    3    0  502  0.41552845857E+02  0.34081053700E+03 -0.29797236474E+03  0.45460531375E+03  0.25500000920E-02 0.  1.
</event>
<event>
 5   0  0.1858013E-02  0.7052468E+03  0.7818609E-02  0.9708301E-01
       -1   -1    0    0    0  501  0.00000000000E+00  0.00000000000E+00  0.34548472209E+03  0.34548472212E+03  0.50400001928E-02 0.  1.
        1   -1    0    0  501    0  0.00000000000E+00  0.00000000000E+00 -0.35990957645E+03  0.35990957649E+03  0.50400001928E-02 0. -1.
    10030    2    1    2    0    0  0.00000000000E+00  0.00000000000E+00 -0.14424854366E+02  0.70539429861E+03  0.70524679374E+03 0.  0.
        2    1    3    3  502    0 -0.14155189588E+03 -0.12943703161E+03  0.28874196668E+03  0.34664507454E+03  0.25500000920E-02 0.  1.
       -2    1    3    3    0  502  0.14155189588E+03  0.12943703161E+03 -0.30316682104E+03  0.35874922406E+03  0.25500000920E-02 0. -1.
</event>
<event>
 5   0  0.1858013E-02  0.7089937E+03  0.7818609E-02  0.9701974E-01
        1   -1    0    0  501    0  0.00000000000E+00  0.00000000000E+00  0.46262185874E+03  0.46262185876E+03  0.50400001928E-02 0.  1.
       -1   -1    0    0    0  501  0.00000000000E+00  0.00000000000E+00 -0.27164306181E+03  0.27164306186E+03  0.50400001928E-02 0. -1.
    10030    2    1    2    0    0  0.00000000000E+00  0.00000000000E+00  0.19097879693E+03  0.73426492062E+03  0.70899370433E+03 0.  0.
        2    1    3    3  502    0  0.96551341530E+02  0.20179739687E+02  0.44812364943E+03  0.45885094381E+03  0.25500000920E-02 0.  1.
       -2    1    3    3    0  502 -0.96551341530E+02 -0.20179739687E+02 -0.25714485251E+03  0.27541397681E+03  0.25500000920E-02 0. -1.
</event>
<event>
 5   0  0.1969818E-02  0.6963059E+03  0.7818609E-02  0.9723570E-01
        1   -1    0    0  501    0  0.00000000000E+00  0.00000000000E+00  0.19503185012E+03  0.19503185019E+03  0.50400001928E-02 0.  1.
       -1   -1    0    0    0  501  0.00000000000E+00  0.00000000000E+00 -0.62149076578E+03  0.62149076580E+03  0.50400001928E-02 0. -1.
    10030    2    1    2    0    0  0.00000000000E+00  0.00000000000E+00 -0.42645891565E+03  0.81652261599E+03  0.69630594976E+03 0.  0.
        1    1    3    3  502    0  0.15421327278E+03 -0.24418199616E+03  0.14771404997E+02  0.28917948610E+03  0.50400001928E-02 0.  1.
       -1    1    3    3    0  502 -0.15421327278E+03  0.24418199616E+03 -0.44123032065E+03  0.52734312989E+03  0.50400001928E-02 0. -1.
</event>
<event>
 5   0  0.2933851E-02  0.7014635E+03  0.7818609E-02  0.9714733E-01
        2   -1    0    0  501    0  0.00000000000E+00  0.00000000000E+00  0.86415216124E+03  0.86415216124E+03  0.25500000920E-02 0. -1.
       -2   -1    0    0    0  501  0.00000000000E+00  0.00000000000E+00 -0.14235082977E+03  0.14235082979E+03  0.25500000920E-02 0.  1.
    10030    2    1    2    0    0  0.00000000000E+00  0.00000000000E+00  0.72180133147E+03  0.10065029910E+04  0.70146354776E+03 0.  0.
        2    1    3    3  502    0 -0.62152043842E+02  0.29729738130E+03  0.61257130230E+03  0.68373401984E+03  0.25500000920E-02 0. -1.
       -2    1    3    3    0  502  0.62152043842E+02 -0.29729738130E+03  0.10923002918E+03  0.32276897119E+03  0.25500000920E-02 0.  1.
</event>
<event>
 5   0  0.3183963E-02  0.7048453E+03  0.7818609E-02  0.9708982E-01
        2   -1    0    0  501    0  0.00000000000E+00  0.00000000000E+00  0.44402527662E+03  0.44402527663E+03  0.25500000920E-02 0. -1.
       -2   -1    0    0    0  501  0.00000000000E+00  0.00000000000E+00 -0.27971766527E+03  0.27971766528E+03  0.25500000920E-02 0.  1.
    10030    2    1    2    0    0  0.00000000000E+00  0.00000000000E+00  0.16430761135E+03  0.72374294191E+03  0.70484527012E+03 0.  0.
        4    1    3    3  502    0  0.45706688132E+02  0.59879788031E+02  0.43565939563E+03  0.44212601400E+03  0.12699999809E+01 0. -1.
       -4    1    3    3    0  502 -0.45706688132E+02 -0.59879788031E+02 -0.27135178428E+03  0.28161692791E+03  0.12699999809E+01 0.  1.
</event>
<event>
 5   0  0.1969818E-02  0.7083599E+03  0.7818609E-02  0.9703041E-01
        1   -1    0    0  501    0  0.00000000000E+00  0.00000000000E+00  0.90879027558E+03  0.90879027560E+03  0.50400001928E-02 0.  1.
       -1   -1    0    0    0  501  0.00000000000E+00  0.00000000000E+00 -0.13803344209E+03  0.13803344219E+03  0.50400001928E-02 0. -1.
    10030    2    1    2    0    0  0.00000000000E+00  0.00000000000E+00  0.77075683349E+03  0.10468237178E+04  0.70835993658E+03 0.  0.
        1    1    3    3  502    0  0.33933186492E+03 -0.10147275765E+03  0.38653717333E+03  0.52426502982E+03  0.50400001928E-02 0.  1.
       -1    1    3    3    0  502 -0.33933186492E+03  0.10147275765E+03  0.38421966015E+03  0.52255868797E+03  0.50400001928E-02 0. -1.
</event>
<event>
 5   0  0.3290656E-02  0.6988983E+03  0.7818609E-02  0.9719118E-01
       -2   -1    0    0    0  501  0.00000000000E+00  0.00000000000E+00  0.13259859769E+03  0.13259859771E+03  0.25500000920E-02 0. -1.
        2   -1    0    0  501    0  0.00000000000E+00  0.00000000000E+00 -0.92093523877E+03  0.92093523878E+03  0.25500000920E-02 0.  1.
    10030    2    1    2    0    0  0.00000000000E+00  0.00000000000E+00 -0.78833664109E+03  0.10535338365E+04  0.69889833663E+03 0.  0.
        1    1    3    3  502    0 -0.16143196565E+03 -0.70274867743E+02 -0.84918941388E+03  0.86724938584E+03  0.50400001928E-02 0.  1.
       -1    1    3    3    0  502  0.16143196565E+03  0.70274867743E+02  0.60852772793E+02  0.18628445065E+03  0.50400001928E-02 0. -1.
</event>
<event>
 5   0  0.1858013E-02  0.7524222E+03  0.7818609E-02  0.9631558E-01
       -1   -1    0    0    0  501  0.00000000000E+00  0.00000000000E+00  0.30181841267E+03  0.30181841271E+03  0.50400001928E-02 0.  1.
        1   -1    0    0  501    0  0.00000000000E+00  0.00000000000E+00 -0.46894022884E+03  0.46894022887E+03  0.50400001928E-02 0. -1.
    10030    2    1    2    0    0  0.00000000000E+00  0.00000000000E+00 -0.16712181617E+03  0.77075864158E+03  0.75242221002E+03 0.  0.
        2    1    3    3  502    0  0.30837228701E+02 -0.87006851770E+01  0.30041817543E+03  0.30212202292E+03  0.25500000920E-02 0.  1.
       -2    1    3    3    0  502 -0.30837228701E+02  0.87006851770E+01 -0.46753999160E+03  0.46863661866E+03  0.25500000920E-02 0. -1.
</event>
<event>
 5   0  0.1951465E-02  0.6938447E+03  0.7818609E-02  0.9727817E-01
        1   -1    0    0  501    0  0.00000000000E+00  0.00000000000E+00  0.26402424860E+03  0.26402424865E+03  0.50400001928E-02 0. -1.
       -1   -1    0    0    0  501  0.00000000000E+00  0.00000000000E+00 -0.45584869983E+03  0.45584869986E+03  0.50400001928E-02 0.  1.
    10030    2    1    2    0    0  0.00000000000E+00  0.00000000000E+00 -0.19182445123E+03  0.71987294851E+03  0.69384468140E+03 0.  0.
        4    1    3    3  502    0 -0.11353940289E+03 -0.21658598548E+03  0.15939361485E+03  0.29190516006E+03  0.12699999809E+01 0. -1.
       -4    1    3    3    0  502  0.11353940289E+03  0.21658598548E+03 -0.35121806608E+03  0.42796778845E+03  0.12699999809E+01 0.  1.
</event>
<event>
 5   0  0.1969818E-02  0.7028740E+03  0.7818609E-02  0.9712330E-01
       -1   -1    0    0    0  501  0.00000000000E+00  0.00000000000E+00  0.52144768260E+03  0.52144768262E+03  0.50400001928E-02 0. -1.
        1   -1    0    0  501    0  0.00000000000E+00  0.00000000000E+00 -0.23685593472E+03  0.23685593477E+03  0.50400001928E-02 0.  1.
    10030    2    1    2    0    0  0.00000000000E+00  0.00000000000E+00  0.28459174788E+03  0.75830361739E+03  0.70287403792E+03 0.  0.
        1    1    3    3  502    0 -0.11011026052E+03  0.26657382034E+03 -0.74343421766E+02  0.29784696666E+03  0.50400001928E-02 0.  1.
       -1    1    3    3    0  502  0.11011026052E+03 -0.26657382034E+03  0.35893516965E+03  0.46045665073E+03  0.50400001928E-02 0. -1.
</event>
<event>
 5   0  0.1969818E-02  0.7022448E+03  0.7818609E-02  0.9713401E-01
       -1   -1    0    0    0  501  0.00000000000E+00  0.00000000000E+00  0.64213654786E+02  0.64213654983E+02  0.50400001928E-02 0.  1.
        1   -1    0    0  501    0  0.00000000000E+00  0.00000000000E+00 -0.19199488557E+04  0.19199488557E+04  0.50400001928E-02 0. -1.
    10030    2    1    2    0    0  0.00000000000E+00  0.00000000000E+00 -0.18557352009E+04  0.19841625107E+04  0.70224478134E+03 0.  0.
        1    1    3    3  502    0  0.49780422052E+02  0.16762061355E+03 -0.17881818151E+04  0.17967105956E+04  0.50400001928E-02 0. -1.
       -1    1    3    3    0  502 -0.49780422052E+02 -0.16762061355E+03 -0.67553385811E+02  0.18745191507E+03  0.50400001928E-02 0.  1.
</event>
<event>
 5   0  0.1969818E-02  0.6970580E+03  0.7818609E-02  0.9722277E-01
        1   -1    0    0  501    0  0.00000000000E+00  0.00000000000E+00  0.13401877740E+04  0.13401877740E+04  0.50400001928E-02 0.  1.
       -1   -1    0    0    0  501  0.00000000000E+00  0.00000000000E+00 -0.90638396332E+02  0.90638396472E+02  0.50400001928E-02 0. -1.
    10030    2    1    2    0    0  0.00000000000E+00  0.00000000000E+00  0.12495493777E+04  0.14308261705E+04  0.69705801975E+03 0.  0.
        1    1    3    3  502    0  0.31056102101E+03  0.22858279271E+02  0.30346994544E+03  0.43481565808E+03  0.50400001928E-02 0. -1.
       -1    1    3    3    0  502 -0.31056102101E+03 -0.22858279271E+02  0.94607943222E+03  0.99601051239E+03  0.50400001928E-02 0.  1.
</event>
<event>
 5   0  0.1858013E-02  0.7047593E+03  0.7818609E-02  0.9709128E-01
        1   -1    0    0  501    0  0.00000000000E+00  0.00000000000E+00  0.62854873279E+03  0.62854873282E+03  0.50400001928E-02 0.  1.
       -1   -1    0    0    0  501  0.00000000000E+00  0.00000000000E+00 -0.19755254596E+03  0.19755254603E+03  0.50400001928E-02 0. -1.
    10030    2    1    2    0    0  0.00000000000E+00  0.00000000000E+00  0.43099618683E+03  0.82610127884E+03  0.70475925665E+03 0.  0.
        2    1    3    3  502    0 -0.13476571446E+03 -0.65917653685E+02  0.58924456469E+03  0.60804283722E+03  0.25500000920E-02 0.  1.
       -2    1    3    3    0  502  0.13476571446E+03  0.65917653685E+02 -0.15824837786E+03  0.21805844163E+03  0.25500000920E-02 0. -1.
</event>
<event>
 5   0  0.1951465E-02  0.6980728E+03  0.7818609E-02  0.9720534E-01
       -1   -1    0    0    0  501  0.00000000000E+00  0.00000000000E+00  0.15977077118E+03  0.15977077126E+03  0.50400001928E-02 0. -1.
        1   -1    0    0  501    0  0.00000000000E+00  0.00000000000E+00 -0.76250744220E+03  0.76250744221E+03  0.50400001928E-02 0.  1.
    10030    2    1    2    0    0  0.00000000000E+00  0.00000000000E+00 -0.60273667102E+03  0.92227821347E+03  0.69807278164E+03 0.  0.
        4    1    3    3  502    0  0.97712111704E+02 -0.23668456491E+03  0.11997502113E+02  0.25634506626E+03  0.12699999809E+01 0. -1.
       -4    1    3    3    0  502 -0.97712111704E+02  0.23668456491E+03 -0.61473417313E+03  0.66593314721E+03  0.12699999809E+01 0.  1.
</event>
<event>
 5   0  0.2933851E-02  0.6993780E+03  0.7818609E-02  0.9718296E-01
       -2   -1    0    0    0  501  0.00000000000E+00  0.00000000000E+00  0.60472914015E+03  0.60472914015E+03  0.25500000920E-02 0. -1.
        2   -1    0    0  501    0  0.00000000000E+00  0.00000000000E+00 -0.20221019684E+03  0.20221019686E+03  0.25500000920E-02 0.  1.
    10030    2    1    2    0    0  0.00000000000E+00  0.00000000000E+00  0.40251894330E+03  0.80693933702E+03  0.69937800502E+03 0.  0.
        2    1    3    3  502    0  0.31370669873E+03  0.27298010209E+01  0.23024907812E+02  0.31456238018E+03  0.25500000920E-02 0. -1.
       -2    1    3    3    0  502 -0.31370669873E+03 -0.27298010209E+01  0.37949403549E+03  0.49237695683E+03  0.25500000920E-02 0.  1.
</event>
<event>
 5   0  0.1858013E-02  0.6931793E+03  0.7818609E-02  0.9728968E-01
        1   -1    0    0  501    0  0.00000000000E+00  0.00000000000E+00  0.31590882496E+03  0.31590882500E+03  0.50400001928E-02 0.  1.
       -1   -1    0    0    0  501  0.00000000000E+00  0.00000000000E+00 -0.38025017219E+03  0.38025017222E+03  0.50400001928E-02 0. -1.
    10030    2    1    2    0    0  0.00000000000E+00  0.00000000000E+00 -0.64341347231E+02  0.69615899723E+03  0.69317929892E+03 0.  0.
        2    1    3    3  502    0 -0.21658579859E+03  0.76405010543E+02  0.22851640237E+03  0.32398592553E+03  0.25500000920E-02 0.  1.
       -2    1    3    3    0  502  0.21658579859E+03 -0.76405010543E+02 -0.29285774960E+03  0.37217307169E+03  0.25500000920E-02 0. -1.
</event>
<event>
 5   0  0.1839038E-02  0.6985170E+03  0.7818609E-02  0.9719772E-01
       -1   -1    0    0    0  501  0.00000000000E+00  0.00000000000E+00  0.65708381954E+02  0.65708382148E+02  0.50400001928E-02 0. -1.
        1   -1    0    0  501    0  0.00000000000E+00  0.00000000000E+00 -0.18564067616E+04  0.18564067616E+04  0.50400001928E-02 0.  1.
    10030    2    1    2    0    0  0.00000000000E+00  0.00000000000E+00 -0.17906983797E+04  0.19221151438E+04  0.69851695684E+03 0.  0.
        5    1    3    3  502    0 -0.13775288913E+03  0.31280653451E+03 -0.10925453214E+04  0.11447712242E+04  0.46999998093E+01 0.  1.
       -5    1    3    3    0  502  0.13775288913E+03 -0.31280653451E+03 -0.69815305826E+03  0.77734391955E+03  0.46999998093E+01 0. -1.
</event>
<event>
 5   0  0.3290656E-02  0.6942281E+03  0.7818609E-02  0.9727154E-01
        2   -1    0    0  501    0  0.00000000000E+00  0.00000000000E+00  0.15858758008E+04  0.15858758008E+04  0.25500000920E-02 0.  1.
       -2   -1    0    0    0  501  0.00000000000E+00  0.00000000000E+00 -0.75975784974E+02  0.75975785017E+02  0.25500000920E-02 0. -1.
    10030    2    1    2    0    0  0.00000000000E+00  0.00000000000E+00  0.15099000159E+04  0.16618515859E+04  0.69422808609E+03 0.  0.
        1    1    3    3  502    0 -0.13055948589E+03 -0.19202760968E+03  0.13732896852E+03  0.26977699653E+03  0.50400001928E-02 0. -1.
       -1    1    3    3    0  502  0.13055948589E+03  0.19202760968E+03  0.13725710473E+04  0.13920745893E+04  0.50400001928E-02 0.  1.
</event>
<event>
 5   0  0.3290656E-02  0.7053581E+03  0.7818609E-02  0.9708113E-01
        2   -1    0    0  501    0  0.00000000000E+00  0.00000000000E+00  0.13071296472E+04  0.13071296472E+04  0.25500000920E-02 0. -1.
       -2   -1    0    0    0  501  0.00000000000E+00  0.00000000000E+00 -0.95156984478E+02  0.95156984512E+02  0.25500000920E-02 0.  1.
    10030    2    1    2    0    0  0.00000000000E+00  0.00000000000E+00  0.12119726627E+04  0.14022866317E+04  0.70535810925E+03 0.  0.
        1    1    3    3  502    0 -0.22959569854E+03 -0.13458823356E+03  0.14591575563E+03  0.30351208406E+03  0.50400001928E-02 0.  1.
       -1    1    3    3    0  502  0.22959569854E+03  0.13458823356E+03  0.10660569070E+04  0.10987745476E+04  0.50400001928E-02 0. -1.
</event>
<event>
 5   0  0.2933851E-02  0.6979816E+03  0.7818609E-02  0.9720690E-01
        2   -1    0    0  501    0  0.00000000000E+00  0.00000000000E+00  0.72440577842E+03  0.72440577842E+03  0.25500000920E-02 0. -1.
       -2   -1    0    0    0  501  0.00000000000E+00  0.00000000000E+00 -0.16813032120E+03  0.16813032122E+03  0.25500000920E-02 0.  1.
    10030    2    1    2    0    0  0.00000000000E+00  0.00000000000E+00  0.55627545722E+03  0.89253609964E+03  0.69798159350E+03 0.  0.
        2    1    3    3  502    0 -0.22108692581E+03  0.18902242699E+03  0.31551042895E+02  0.29258225336E+03  0.25500000920E-02 0.  1.
       -2    1    3    3    0  502  0.22108692581E+03 -0.18902242699E+03  0.52472441432E+03  0.59995384628E+03  0.25500000920E-02 0. -1.
</event>
<event>
 5   0  0.3113940E-02  0.7060845E+03  0.7818609E-02  0.9706883E-01
        2   -1    0    0  501    0  0.00000000000E+00  0.00000000000E+00  0.78000237493E+03  0.78000237493E+03  0.25500000920E-02 0.  1.
       -2   -1    0    0    0  501  0.00000000000E+00  0.00000000000E+00 -0.15979290652E+03  0.15979290654E+03  0.25500000920E-02 0. -1.
    10030    2    1    2    0    0  0.00000000000E+00  0.00000000000E+00  0.62020946841E+03  0.93979528148E+03  0.70608454620E+03 0.  0.
        5    1    3    3  502    0  0.22008930584E+02  0.18428538909E+03  0.70978308110E+03  0.73366178166E+03  0.46999998093E+01 0.  1.
       -5    1    3    3    0  502 -0.22008930584E+02 -0.18428538909E+03 -0.89573612688E+02  0.20613349982E+03  0.46999998093E+01 0. -1.
</event>
<event>
 5   0  0.1951465E-02  0.7007433E+03  0.7818609E-02  0.9715962E-01
        1   -1    0    0  501    0  0.00000000000E+00  0.00000000000E+00  0.10789172480E+04  0.10789172480E+04  0.50400001928E-02 0. -1.
       -1   -1    0    0    0  501  0.00000000000E+00  0.00000000000E+00 -0.11378101156E+03  0.11378101167E+03  0.50400001928E-02 0.  1.
    10030    2    1    2    0    0  0.00000000000E+00  0.00000000000E+00  0.96513623642E+03  0.11926982597E+04  0.70074330802E+03 0.  0.
        4    1    3    3  502    0  0.20137970856E+03  0.28371441571E+03  0.41216369036E+03  0.53937758319E+03  0.12699999809E+01 0.  1.
       -4    1    3    3    0  502 -0.20137970856E+03 -0.28371441571E+03  0.55297254606E+03  0.65332067646E+03  0.12699999809E+01 0. -1.
</event>
<event>
 5   0  0.3290656E-02  0.7045608E+03  0.7818609E-02  0.9709464E-01
       -2   -1    0    0    0  501  0.00000000000E+00  0.00000000000E+00  0.65874556801E+02  0.65874556850E+02  0.25500000920E-02 0.  1.
        2   -1    0    0  501    0  0.00000000000E+00  0.00000000000E+00 -0.18839062125E+04  0.18839062125E+04  0.25500000920E-02 0. -1.
    10030    2    1    2    0    0  0.00000000000E+00  0.00000000000E+00 -0.18180316557E+04  0.19497807693E+04  0.70456081881E+03 0.  0.
        1    1    3    3  502    0  0.30503498099E+03  0.17566557771E+03 -0.87019838926E+03  0.93869588873E+03  0.50400001928E-02 0.  1.
       -1    1    3    3    0  502 -0.30503498099E+03 -0.17566557771E+03 -0.94783326640E+03  0.10110848806E+04  0.50400001928E-02 0. -1.
</event>
<event>
 5   0  0.1969818E-02  0.7011035E+03  0.7818609E-02  0.9715347E-01
        1   -1    0    0  501    0  0.00000000000E+00  0.00000000000E+00  0.82727269716E+03  0.82727269718E+03  0.50400001928E-02 0.  1.
       -1   -1    0    0    0  501  0.00000000000E+00  0.00000000000E+00 -0.14854414372E+03  0.14854414380E+03  0.50400001928E-02 0. -1.
    10030    2    1    2    0    0  0.00000000000E+00  0.00000000000E+00  0.67872855344E+03  0.97581684098E+03  0.70110345733E+03 0.  0.
        1    1    3    3  502    0  0.15625124607E+03  0.29310769372E+03  0.49534826650E+03  0.59640294866E+03  0.50400001928E-02 0.  1.
       -1    1    3    3    0  502 -0.15625124607E+03 -0.29310769372E+03  0.18338028694E+03  0.37941389232E+03  0.50400001928E-02 0. -1.
</event>
<event>
 5   0  0.1233912E-02  0.7004288E+03  0.7818609E-02  0.9716499E-01
       -4   -1    0    0    0  501  0.00000000000E+00  0.00000000000E+00  0.14372493124E+03  0.14373054220E+03  0.12699999809E+01 0.  1.
        4   -1    0    0  501    0  0.00000000000E+00  0.00000000000E+00 -0.85334430027E+03  0.85334524531E+03  0.12699999809E+01 0. -1.
    10030    2    1    2    0    0  0.00000000000E+00  0.00000000000E+00 -0.70961936902E+03  0.99707578752E+03  0.70042878093E+03 0.  0.
        5    1    3    3  502    0  0.39920904356E+02  0.12255955799E+03 -0.81830439753E+03  0.82840732787E+03  0.46999998093E+01 0. -1.
       -5    1    3    3    0  502 -0.39920904356E+02 -0.12255955799E+03  0.10868502851E+03  0.16866845964E+03  0.46999998093E+01 0.  1.
</event>
<event>
 5   0  0.1969818E-02  0.6883620E+03  0.7818609E-02  0.9737344E-01
       -1   -1    0    0    0  501  0.00000000000E+00  0.00000000000E+00  0.14471778202E+03  0.14471778211E+03  0.50400001928E-02 0.  1.
        1   -1    0    0  501    0  0.00000000000E+00  0.00000000000E+00 -0.81856258797E+03  0.81856258798E+03  0.50400001928E-02 0. -1.
    10030    2    1    2    0    0  0.00000000000E+00  0.00000000000E+00 -0.67384480595E+03  0.96328037009E+03  0.68836200425E+03 0.  0.
        1    1    3    3  502    0  0.18599706010E+03  0.23307910642E+03 -0.57743592167E+03  0.64988692853E+03  0.50400001928E-02 0. -1.
       -1    1    3    3    0  502 -0.18599706010E+03 -0.23307910642E+03 -0.96408884282E+02  0.31339344156E+03  0.50400001928E-02 0.  1.
</event>
<event>
 5   0  0.1839038E-02  0.6980467E+03  0.7818609E-02  0.9720578E-01
        1   -1    0    0  501    0  0.00000000000E+00  0.00000000000E+00  0.55116977181E+03  0.55116977184E+03  0.50400001928E-02 0.  1.
       -1   -1    0    0    0  501  0.00000000000E+00  0.00000000000E+00 -0.22101592230E+03  0.22101592236E+03  0.50400001928E-02 0. -1.
    10030    2    1    2    0    0  0.00000000000E+00  0.00000000000E+00  0.33015384951E+03  0.77218569420E+03  0.69804669040E+03 0.  0.
        5    1    3    3  502    0 -0.20917369069E+03  0.18274374292E+03  0.39881528948E+03  0.48602945752E+03  0.46999998093E+01 0.  1.
       -5    1    3    3    0  502  0.20917369069E+03 -0.18274374292E+03 -0.68661439970E+02  0.28615623668E+03  0.46999998093E+01 0. -1.
</event>
<event>
 5   0  0.1233912E-02  0.7009758E+03  0.7818609E-02  0.9715565E-01
       -4   -1    0    0    0  501  0.00000000000E+00  0.00000000000E+00  0.11048882824E+04  0.11048890123E+04  0.12699999809E+01 0.  1.
        4   -1    0    0  501    0  0.00000000000E+00  0.00000000000E+00 -0.11117586475E+03  0.11118311834E+03  0.12699999809E+01 0. -1.
    10030    2    1    2    0    0  0.00000000000E+00  0.00000000000E+00  0.99371241763E+03  0.12160721306E+04  0.70097578981E+03 0.  0.
        5    1    3    3  502    0 -0.24351924296E+02  0.34728167075E+03  0.56672690191E+03  0.66513084908E+03  0.46999998093E+01 0.  1.
       -5    1    3    3    0  502  0.24351924296E+02 -0.34728167075E+03  0.42698551572E+03  0.55094128153E+03  0.46999998093E+01 0. -1.
</event>
<event>
 5   0  0.3290656E-02  0.6976083E+03  0.7818609E-02  0.9721331E-01
        2   -1    0    0  501    0  0.00000000000E+00  0.00000000000E+00  0.36848758171E+03  0.36848758172E+03  0.25500000920E-02 0.  1.
       -2   -1    0    0    0  501  0.00000000000E+00  0.00000000000E+00 -0.33017218568E+03  0.33017218569E+03  0.25500000920E-02 0. -1.
    10030    2    1    2    0    0  0.00000000000E+00  0.00000000000E+00  0.38315396030E+02  0.69865976741E+03  0.69760834357E+03 0.  0.
        1    1    3    3  502    0 -0.14187978983E+03 -0.27255665407E+03  0.18447418596E+03  0.35839605153E+03  0.50400001928E-02 0.  1.
       -1    1    3    3    0  502  0.14187978983E+03  0.27255665407E+03 -0.14615878993E+03  0.34026371587E+03  0.50400001928E-02 0. -1.
</event>
<event>
 5   0  0.3184443E-02  0.6873862E+03  0.7818609E-02  0.9739050E-01
       -2   -1    0    0    0  501  0.00000000000E+00  0.00000000000E+00  0.50556448960E+02  0.50556449024E+02  0.25500000920E-02 0. -1.
        2   -1    0    0  501    0  0.00000000000E+00  0.00000000000E+00 -0.23364961856E+04  0.23364961856E+04  0.25500000920E-02 0.  1.
    10030    2    1    2    0    0  0.00000000000E+00  0.00000000000E+00 -0.22859397366E+04  0.23870526346E+04  0.68738620944E+03 0.  0.
        3    1    3    3  502    0  0.30390230330E+03 -0.62114629174E+02 -0.16569938593E+04  0.16857768230E+04  0.10100000352E+00 0.  1.
       -3    1    3    3    0  502 -0.30390230330E+03  0.62114629174E+02 -0.62894587736E+03  0.70127581162E+03  0.10100000352E+00 0. -1.
</event>
<event>
 5   0  0.1969818E-02  0.7037964E+03  0.7818609E-02  0.9710762E-01
       -1   -1    0    0    0  501  0.00000000000E+00  0.00000000000E+00  0.14822874284E+03  0.14822874293E+03  0.50400001928E-02 0. -1.
        1   -1    0    0  501    0  0.00000000000E+00  0.00000000000E+00 -0.83541394553E+03  0.83541394554E+03  0.50400001928E-02 0.  1.
    10030    2    1    2    0    0  0.00000000000E+00  0.00000000000E+00 -0.68718520268E+03  0.98364268847E+03  0.70379644485E+03 0.  0.
        1    1    3    3  502    0 -0.16742346246E+03 -0.30916419976E+03 -0.36428690960E+03  0.50627864929E+03  0.50400001928E-02 0. -1.
       -1    1    3    3    0  502  0.16742346246E+03  0.30916419976E+03 -0.32289829308E+03  0.47736403917E+03  0.50400001928E-02 0.  1.
</event>
<event>
 5   0  0.1858013E-02  0.7009658E+03  0.7818609E-02  0.9715582E-01
       -1   -1    0    0    0  501  0.00000000000E+00  0.00000000000E+00  0.15103102306E+03  0.15103102315E+03  0.50400001928E-02 0.  1.
        1   -1    0    0  501    0  0.00000000000E+00  0.00000000000E+00 -0.81333134296E+03  0.81333134298E+03  0.50400001928E-02 0. -1.
    10030    2    1    2    0    0  0.00000000000E+00  0.00000000000E+00 -0.66230031990E+03  0.96436236613E+03  0.70096580477E+03 0.  0.
        2    1    3    3  502    0 -0.15674099849E+03  0.30268591278E+03 -0.44335505075E+03  0.55924073835E+03  0.25500000920E-02 0. -1.
       -2    1    3    3    0  502  0.15674099849E+03 -0.30268591278E+03 -0.21894526915E+03  0.40512162777E+03  0.25500000920E-02 0.  1.
</event>
<event>
 5   0  0.1233912E-02  0.7062436E+03  0.7818609E-02  0.9706614E-01
       -3   -1    0    0    0  501  0.00000000000E+00  0.00000000000E+00  0.57695763396E+03  0.57695764280E+03  0.10100000352E+00 0. -1.
        3   -1    0    0  501    0  0.00000000000E+00  0.00000000000E+00 -0.21612503689E+03  0.21612506049E+03  0.10100000352E+00 0.  1.
    10030    2    1    2    0    0  0.00000000000E+00  0.00000000000E+00  0.36083259707E+03  0.79308270330E+03  0.70624359194E+03 0.  0.
        1    1    3    3  502    0  0.38359264427E+02 -0.16723086028E+03 -0.16617155637E+03  0.23885263233E+03  0.50400001928E-02 0.  1.
       -1    1    3    3    0  502 -0.38359264427E+02  0.16723086028E+03  0.52700415344E+03  0.55423007097E+03  0.50400001928E-02 0. -1.
</event>
<event>
 5   0  0.1951465E-02  0.7107041E+03  0.7818609E-02  0.9699100E-01
        1   -1    0    0  501    0  0.00000000000E+00  0.00000000000E+00  0.13160304278E+03  0.13160304288E+03  0.50400001928E-02 0. -1.
       -1   -1    0    0    0  501  0.00000000000E+00  0.00000000000E+00 -0.95951495204E+03  0.95951495205E+03  0.50400001928E-02 0.  1.
    10030    2    1    2    0    0  0.00000000000E+00  0.00000000000E+00 -0.82791190926E+03  0.10911179949E+04  0.71070412224E+03 0.  0.
        4    1    3    3  502    0 -0.20871757861E+03 -0.19836590777E+03 -0.94261871028E+02  0.30298345535E+03  0.12699999809E+01 0. -1.
       -4    1    3    3    0  502  0.20871757861E+03  0.19836590777E+03 -0.73365003823E+03  0.78813453958E+03  0.12699999809E+01 0.  1.
</event>
<event>
 5   0  0.1858013E-02  0.6950275E+03  0.7818609E-02  0.9725774E-01
       -1   -1    0    0    0  501  0.00000000000E+00  0.00000000000E+00  0.34564277123E+03  0.34564277126E+03  0.50400001928E-02 0. -1.
        1   -1    0    0  501    0  0.00000000000E+00  0.00000000000E+00 -0.34939486746E+03  0.34939486750E+03  0.50400001928E-02 0.  1.
    10030    2    1    2    0    0  0.00000000000E+00  0.00000000000E+00 -0.37520962387E+01  0.69503763876E+03  0.69502751102E+03 0.  0.
        2    1    3    3  502    0 -0.15337195833E+03 -0.81035042297E+02 -0.30300528485E+03  0.34914443764E+03  0.25500000920E-02 0.  1.
       -2    1    3    3    0  502  0.15337195833E+03  0.81035042297E+02  0.29925318861E+03  0.34589320112E+03  0.25500000920E-02 0. -1.
</event>
<event>
 5   0  0.1884172E-02  0.6990669E+03  0.7818609E-02  0.9718829E-01
        1   -1    0    0  501    0  0.00000000000E+00  0.00000000000E+00  0.19732720142E+04  0.19732720142E+04  0.50400001928E-02 0.  1.
       -1   -1    0    0    0  501  0.00000000000E+00  0.00000000000E+00 -0.61914242989E+02  0.61914243194E+02  0.50400001928E-02 0. -1.
    10030    2    1    2    0    0  0.00000000000E+00  0.00000000000E+00  0.19113577712E+04  0.20351862574E+04  0.69906693008E+03 0.  0.
        3    1    3    3  502    0 -0.30534950850E+03 -0.51766493235E+02  0.14274114830E+04  0.14606237175E+04  0.10100000352E+00 0.  1.
       -3    1    3    3    0  502  0.30534950850E+03  0.51766493235E+02  0.48394628820E+03  0.57456253987E+03  0.10100000352E+00 0. -1.
</event>
<event>
 5   0  0.3290656E-02  0.7103357E+03  0.7818609E-02  0.9699718E-01
       -2   -1    0    0    0  501  0.00000000000E+00  0.00000000000E+00  0.16629521333E+03  0.16629521335E+03  0.25500000920E-02 0. -1.
        2   -1    0    0  501    0  0.00000000000E+00  0.00000000000E+00 -0.75855588685E+03  0.75855588685E+03  0.25500000920E-02 0.  1.
    10030    2    1    2    0    0  0.00000000000E+00  0.00000000000E+00 -0.59226067352E+03  0.92485110020E+03  0.71033573200E+03 0.  0.
        1    1    3    3  502    0 -0.94784177595E+02 -0.19829802533E+03  0.67118451240E+02  0.22980651360E+03  0.50400001928E-02 0. -1.
       -1    1    3    3    0  502  0.94784177595E+02  0.19829802533E+03 -0.65937912476E+03  0.69504458660E+03  0.50400001928E-02 0.  1.
</event>
<event>
 5   0  0.1839038E-02  0.6973339E+03  0.7818609E-02  0.9721803E-01
        1   -1    0    0  501    0  0.00000000000E+00  0.00000000000E+00  0.84749311849E+03  0.84749311850E+03  0.50400001928E-02 0.  1.
       -1   -1    0    0    0  501  0.00000000000E+00  0.00000000000E+00 -0.14344497937E+03  0.14344497946E+03  0.50400001928E-02 0. -1.
    10030    2    1    2    0    0  0.00000000000E+00  0.00000000000E+00  0.70404813911E+03  0.99093809797E+03  0.69733387399E+03 0.  0.
        5    1    3    3  502    0 -0.14236167386E+03  0.31724610595E+03  0.31622617219E+03  0.47003512624E+03  0.46999998093E+01 0.  1.
       -5    1    3    3    0  502  0.14236167386E+03 -0.31724610595E+03  0.38782196693E+03  0.52090297173E+03  0.46999998093E+01 0. -1.
</event>
<event>
 5   0  0.2933851E-02  0.6967111E+03  0.7818609E-02  0.9722873E-01
        2   -1    0    0  501    0  0.00000000000E+00  0.00000000000E+00  0.13146453167E+04  0.13146453167E+04  0.25500000920E-02 0.  1.
       -2   -1    0    0    0  501  0.00000000000E+00  0.00000000000E+00 -0.92307461662E+02  0.92307461697E+02  0.25500000920E-02 0. -1.
    10030    2    1    2    0    0  0.00000000000E+00  0.00000000000E+00  0.12223378550E+04  0.14069527784E+04  0.69671105113E+03 0.  0.
        2    1    3    3  502    0 -0.22304897843E+02  0.15423258729E+03 -0.17991244564E+02  0.15687219109E+03  0.25500000920E-02 0. -1.
       -2    1    3    3    0  502  0.22304897843E+02 -0.15423258729E+03  0.12403290996E+04  0.12500805873E+04  0.25500000920E-02 0.  1.
</event>
<event>
 5   0  0.1858013E-02  0.6979482E+03  0.7818609E-02  0.9720747E-01
       -1   -1    0    0    0  501  0.00000000000E+00  0.00000000000E+00  0.18164840136E+03  0.18164840143E+03  0.50400001928E-02 0. -1.
        1   -1    0    0  501    0  0.00000000000E+00  0.00000000000E+00 -0.67043221375E+03  0.67043221376E+03  0.50400001928E-02 0.  1.
    10030    2    1    2    0    0  0.00000000000E+00  0.00000000000E+00 -0.48878381239E+03  0.85208061519E+03  0.69794824990E+03 0.  0.
        2    1    3    3  502    0  0.20330743021E+02  0.28371460087E+03 -0.49121720484E+03  0.56762809673E+03  0.25500000920E-02 0.  1.
       -2    1    3    3    0  502 -0.20330743021E+02 -0.28371460087E+03  0.24333924503E+01  0.28445251847E+03  0.25500000920E-02 0. -1.
</event>
<event>
 5   0  0.3184443E-02  0.7259457E+03  0.7818609E-02  0.9673862E-01
       -2   -1    0    0    0  501  0.00000000000E+00  0.00000000000E+00  0.64551712700E+03  0.64551712701E+03  0.25500000920E-02 0.  1.
        2   -1    0    0  501    0  0.00000000000E+00  0.00000000000E+00 -0.20409881179E+03  0.20409881181E+03  0.25500000920E-02 0. -1.
    10030    2    1    2    0    0  0.00000000000E+00  0.00000000000E+00  0.44141831521E+03  0.84961593882E+03  0.72594566910E+03 0.  0.
        3    1    3    3  502    0  0.28790795389E+02 -0.41772879435E+02 -0.19992875631E+03  0.20626536587E+03  0.10100000352E+00 0. -1.
       -3    1    3    3    0  502 -0.28790795389E+02  0.41772879435E+02  0.64134707152E+03  0.64335057295E+03  0.10100000352E+00 0.  1.
</event>
<event>
 5   0  0.1969818E-02  0.7103591E+03  0.7818609E-02  0.9699679E-01
       -1   -1    0    0    0  501  0.00000000000E+00  0.00000000000E+00  0.35435089646E+03  0.35435089649E+03  0.50400001928E-02 0. -1.
        1   -1    0    0  501    0  0.00000000000E+00  0.00000000000E+00 -0.35601013530E+03  0.35601013534E+03  0.50400001928E-02 0.  1.
    10030    2    1    2    0    0  0.00000000000E+00  0.00000000000E+00 -0.16592388442E+01  0.71036103183E+03  0.71035909403E+03 0.  0.
        1    1    3    3  502    0  0.28132320250E+03 -0.18869482052E+03 -0.10761956863E+03  0.35542995250E+03  0.50400001928E-02 0.  1.
       -1    1    3    3    0  502 -0.28132320250E+03  0.18869482052E+03  0.10596032979E+03  0.35493107933E+03  0.50400001928E-02 0. -1.
</event>
<event>
 5   0  0.3184443E-02  0.6999535E+03  0.7818609E-02  0.9717312E-01
        2   -1    0    0  501    0  0.00000000000E+00  0.00000000000E+00  0.14604665707E+04  0.14604665708E+04  0.25500000920E-02 0.  1.
       -2   -1    0    0    0  501  0.00000000000E+00  0.00000000000E+00 -0.83866152315E+02  0.83866152354E+02  0.25500000920E-02 0. -1.
    10030    2    1    2    0    0  0.00000000000E+00  0.00000000000E+00  0.13766004184E+04  0.15443327231E+04  0.69995346104E+03 0.  0.
        3    1    3    3  502    0 -0.73455367791E+02  0.31781871494E+03  0.40852776238E+03  0.52278042184E+03  0.10100000352E+00 0. -1.
       -3    1    3    3    0  502  0.73455367791E+02 -0.31781871494E+03  0.96807265605E+03  0.10215523013E+04  0.10100000352E+00 0.  1.
</event>
<event>
 5   0  0.1884172E-02  0.6702212E+03  0.7818609E-02  0.9769558E-01
       -1   -1    0    0    0  501  0.00000000000E+00  0.00000000000E+00  0.69059218959E+03  0.69059218961E+03  0.50400001928E-02 0.  1.
        1   -1    0    0  501    0  0.00000000000E+00  0.00000000000E+00 -0.16261279529E+03  0.16261279536E+03  0.50400001928E-02 0. -1.
    10030    2    1    2    0    0  0.00000000000E+00  0.00000000000E+00  0.52797939431E+03  0.85320498498E+03  0.67022123629E+03 0.  0.
        3    1    3    3  502    0  0.10522450273E+03 -0.92851539440E+02 -0.12340495211E+03  0.18687535086E+03  0.10100000352E+00 0. -1.
       -3    1    3    3    0  502 -0.10522450273E+03  0.92851539440E+02  0.65138434641E+03  0.66632963412E+03  0.10100000352E+00 0.  1.
</event>
<event>
 5   0  0.1839038E-02  0.6773805E+03  0.7818609E-02  0.9756716E-01
       -1   -1    0    0    0  501  0.00000000000E+00  0.00000000000E+00  0.75038808440E+03  0.75038808442E+03  0.50400001928E-02 0. -1.
        1   -1    0    0  501    0  0.00000000000E+00  0.00000000000E+00 -0.15286902964E+03  0.15286902972E+03  0.50400001928E-02 0.  1.
    10030    2    1    2    0    0  0.00000000000E+00  0.00000000000E+00  0.59751905476E+03  0.90325711414E+03  0.67738053813E+03 0.  0.
        5    1    3    3  502    0 -0.24794898000E+03 -0.17099415425E+03  0.50521412950E+03  0.58820158459E+03  0.46999998093E+01 0. -1.
       -5    1    3    3    0  502  0.24794898000E+03  0.17099415425E+03  0.92304925260E+02  0.31505552954E+03  0.46999998093E+01 0.  1.
</event>
<event>
 5   0  0.1884172E-02  0.7046620E+03  0.7818609E-02  0.9709293E-01
        1   -1    0    0  501    0  0.00000000000E+00  0.00000000000E+00  0.14192250230E+04  0.14192250230E+04  0.50400001928E-02 0.  1.
       -1   -1    0    0    0  501  0.00000000000E+00  0.00000000000E+00 -0.87468249069E+02  0.87468249215E+02  0.50400001928E-02 0. -1.
    10030    2    1    2    0    0  0.00000000000E+00  0.00000000000E+00  0.13317567739E+04  0.15066932722E+04  0.70466198397E+03 0.  0.
        3    1    3    3  502    0  0.14114080766E+03 -0.30727873162E+03  0.87750593023E+03  0.94040289998E+03  0.10100000352E+00 0.  1.
       -3    1    3    3    0  502 -0.14114080766E+03  0.30727873162E+03  0.45425084370E+03  0.56629037224E+03  0.10100000352E+00 0. -1.
</event>
<event>
 5   0  0.3113940E-02  0.6987464E+03  0.7818609E-02  0.9719378E-01
        2   -1    0    0  501    0  0.00000000000E+00  0.00000000000E+00  0.81013873263E+03  0.81013873263E+03  0.25500000920E-02 0. -1.
       -2   -1    0    0    0  501  0.00000000000E+00  0.00000000000E+00 -0.15066757023E+03  0.15066757025E+03  0.25500000920E-02 0.  1.
    10030    2    1    2    0    0  0.00000000000E+00  0.00000000000E+00  0.65947116240E+03  0.96080630288E+03  0.69874640437E+03 0.  0.
        5    1    3    3  502    0 -0.17042000960E+03 -0.28588203363E+03  0.18377344596E+03  0.38021873476E+03  0.46999998093E+01 0. -1.
       -5    1    3    3    0  502  0.17042000960E+03  0.28588203363E+03  0.47569771644E+03  0.58058756812E+03  0.46999998093E+01 0.  1.
</event>
<event>
 5   0  0.3290656E-02  0.6976011E+03  0.7818609E-02  0.9721343E-01
        2   -1    0    0  501    0  0.00000000000E+00  0.00000000000E+00  0.11108060869E+04  0.11108060869E+04  0.25500000920E-02 0.  1.
       -2   -1    0    0    0  501  0.00000000000E+00  0.00000000000E+00 -0.10952571736E+03  0.10952571739E+03  0.25500000920E-02 0. -1.
    10030    2    1    2    0    0  0.00000000000E+00  0.00000000000E+00  0.10012803695E+04  0.12203318043E+04  0.69760112826E+03 0.  0.
        1    1    3    3  502    0  0.10916245244E+02 -0.32887243983E+03  0.29824998780E+03  0.44410505665E+03  0.50400001928E-02 0. -1.
       -1    1    3    3    0  502 -0.10916245244E+02  0.32887243983E+03  0.70303038171E+03  0.77622674763E+03  0.50400001928E-02 0.  1.
</event>
<event>
 5   0  0.3290656E-02  0.6994821E+03  0.7818609E-02  0.9718118E-01
        2   -1    0    0  501    0  0.00000000000E+00  0.00000000000E+00  0.10501478926E+04  0.10501478926E+04  0.25500000920E-02 0.  1.
       -2   -1    0    0    0  501  0.00000000000E+00  0.00000000000E+00 -0.11647769316E+03  0.11647769319E+03  0.25500000920E-02 0. -1.
    10030    2    1    2    0    0  0.00000000000E+00  0.00000000000E+00  0.93367019939E+03  0.11666255857E+04  0.69948210561E+03 0.  0.
        1    1    3    3  502    0  0.42809451525E+02  0.23318822607E+03  0.38003760856E+02  0.24011181517E+03  0.50400001928E-02 0. -1.
       -1    1    3    3    0  502 -0.42809451525E+02 -0.23318822607E+03  0.89566643854E+03  0.92651377057E+03  0.50400001928E-02 0.  1.
</event>
<event>
 5   0  0.1858013E-02  0.6997272E+03  0.7818609E-02  0.9717699E-01
        1   -1    0    0  501    0  0.00000000000E+00  0.00000000000E+00  0.63457337810E+03  0.63457337812E+03  0.50400001928E-02 0. -1.
       -1   -1    0    0    0  501  0.00000000000E+00  0.00000000000E+00 -0.19289262889E+03  0.19289262895E+03  0.50400001928E-02 0.  1.
    10030    2    1    2    0    0  0.00000000000E+00  0.00000000000E+00  0.44168074921E+03  0.82746600707E+03  0.69972716728E+03 0.  0.
        2    1    3    3  502    0  0.28516247242E+03 -0.17800968800E+03  0.33548995575E+03  0.47493009497E+03  0.25500000920E-02 0. -1.
       -2    1    3    3    0  502 -0.28516247242E+03  0.17800968800E+03  0.10619079346E+03  0.35253591210E+03  0.25500000920E-02 0.  1.
</event>
<event>
 5   0  0.1233912E-02  0.6991562E+03  0.7818609E-02  0.9718676E-01
        4   -1    0    0  501    0  0.00000000000E+00  0.00000000000E+00  0.19758954797E+03  0.19759362936E+03  0.12699999809E+01 0.  1.
       -4   -1    0    0    0  501  0.00000000000E+00  0.00000000000E+00 -0.61846709500E+03  0.61846839895E+03  0.12699999809E+01 0. -1.
    10030    2    1    2    0    0  0.00000000000E+00  0.00000000000E+00 -0.42087754703E+03  0.81606202831E+03  0.69915615170E+03 0.  0.
        1    1    3    3  502    0  0.61636462210E+02 -0.68652097486E+02 -0.60400263638E+03  0.61100846863E+03  0.50400001928E-02 0. -1.
       -1    1    3    3    0  502 -0.61636462210E+02  0.68652097486E+02  0.18312508935E+03  0.20505355968E+03  0.50400001928E-02 0.  1.
</event>
<event>
 5   0  0.2933851E-02  0.6138728E+03  0.7818609E-02  0.9877035E-01
       -2   -1    0    0    0  501  0.00000000000E+00  0.00000000000E+00  0.55733794850E+03  0.55733794850E+03  0.25500000920E-02 0. -1.
        2   -1    0    0  501    0  0.00000000000E+00  0.00000000000E+00 -0.16903562490E+03  0.16903562492E+03  0.25500000920E-02 0.  1.
    10030    2    1    2    0    0  0.00000000000E+00  0.00000000000E+00  0.38830232359E+03  0.72637357342E+03  0.61387284812E+03 0.  0.
        2    1    3    3  502    0  0.28979721339E+03  0.51071796052E+02  0.90866286403E+02  0.30797310800E+03  0.25500000920E-02 0.  1.
       -2    1    3    3    0  502 -0.28979721339E+03 -0.51071796052E+02  0.29743603719E+03  0.41840046542E+03  0.25500000920E-02 0. -1.
</event>
<event>
 5   0  0.1839038E-02  0.7185451E+03  0.7818609E-02  0.9686033E-01
       -1   -1    0    0    0  501  0.00000000000E+00  0.00000000000E+00  0.12152389705E+03  0.12152389716E+03  0.50400001928E-02 0. -1.
        1   -1    0    0  501    0  0.00000000000E+00  0.00000000000E+00 -0.10621513373E+04  0.10621513373E+04  0.50400001928E-02 0.  1.
    10030    2    1    2    0    0  0.00000000000E+00  0.00000000000E+00 -0.94062744026E+03  0.11836752345E+04  0.71854511296E+03 0.  0.
        5    1    3    3  502    0  0.33894561242E+03  0.10727890495E+03 -0.38532422094E+03  0.52429928177E+03  0.46999998093E+01 0.  1.
       -5    1    3    3    0  502 -0.33894561242E+03 -0.10727890495E+03 -0.55530321932E+03  0.65937595271E+03  0.46999998093E+01 0. -1.
</event>
<event>
 5   0  0.1951465E-02  0.7057039E+03  0.7818609E-02  0.9707527E-01
        1   -1    0    0  501    0  0.00000000000E+00  0.00000000000E+00  0.19100840444E+04  0.19100840444E+04  0.50400001928E-02 0.  1.
       -1   -1    0    0    0  501  0.00000000000E+00  0.00000000000E+00 -0.65182736147E+02  0.65182736342E+02  0.50400001928E-02 0. -1.
    10030    2    1    2    0    0  0.00000000000E+00  0.00000000000E+00  0.18449013082E+04  0.19752667807E+04  0.70570391662E+03 0.  0.
        4    1    3    3  502    0  0.20800776919E+02 -0.32077933057E+03  0.13297111453E+04  0.13680151294E+04  0.12699999809E+01 0.  1.
       -4    1    3    3    0  502 -0.20800776919E+02  0.32077933057E+03  0.51519016289E+03  0.60725165136E+03  0.12699999809E+01 0. -1.
</event>
<event>
 5   0  0.1884172E-02  0.6443802E+03  0.7818609E-02  0.9817382E-01
       -1   -1    0    0    0  501  0.00000000000E+00  0.00000000000E+00  0.96867575194E+02  0.96867575325E+02  0.50400001928E-02 0.  1.
        1   -1    0    0  501    0  0.00000000000E+00  0.00000000000E+00 -0.10716328469E+04  0.10716328469E+04  0.50400001928E-02 0. -1.
    10030    2    1    2    0    0  0.00000000000E+00  0.00000000000E+00 -0.97476527170E+03  0.11685004222E+04  0.64438024631E+03 0.  0.
        3    1    3    3  502    0 -0.29536950462E+03 -0.17267495368E+02 -0.71865074682E+03  0.77717450856E+03  0.10100000352E+00 0. -1.
       -3    1    3    3    0  502  0.29536950462E+03  0.17267495368E+02 -0.25611452489E+03  0.39132591367E+03  0.10100000352E+00 0.  1.
</event>
<event>
 5   0  0.1839038E-02  0.7008302E+03  0.7818609E-02  0.9715813E-01
        1   -1    0    0  501    0  0.00000000000E+00  0.00000000000E+00  0.23386370812E+03  0.23386370818E+03  0.50400001928E-02 0.  1.
       -1   -1    0    0    0  501  0.00000000000E+00  0.00000000000E+00 -0.52505263282E+03  0.52505263285E+03  0.50400001928E-02 0. -1.
    10030    2    1    2    0    0  0.00000000000E+00  0.00000000000E+00 -0.29118892470E+03  0.75891634102E+03  0.70083023822E+03 0.  0.
        5    1    3    3  502    0  0.21112853137E+03 -0.20718646827E+03  0.57765951443E+02  0.30143072925E+03  0.46999998093E+01 0.  1.
       -5    1    3    3    0  502 -0.21112853137E+03  0.20718646827E+03 -0.34895487614E+03  0.45748561177E+03  0.46999998093E+01 0. -1.
</event>
<event>
 5   0  0.2933851E-02  0.7009574E+03  0.7818609E-02  0.9715596E-01
       -2   -1    0    0    0  501  0.00000000000E+00  0.00000000000E+00  0.81649354078E+02  0.81649354118E+02  0.25500000920E-02 0.  1.
        2   -1    0    0  501    0  0.00000000000E+00  0.00000000000E+00 -0.15044247978E+04  0.15044247978E+04  0.25500000920E-02 0. -1.
    10030    2    1    2    0    0  0.00000000000E+00  0.00000000000E+00 -0.14227754437E+04  0.15860741519E+04  0.70095738254E+03 0.  0.
        2    1    3    3  502    0 -0.14603789758E+03  0.26207137104E+03 -0.30142305747E+03  0.42528147224E+03  0.25500000920E-02 0.  1.
       -2    1    3    3    0  502  0.14603789758E+03 -0.26207137104E+03 -0.11213523863E+04  0.11607926797E+04  0.25500000920E-02 0. -1.
</event>
<event>
 5   0  0.2933851E-02  0.7027361E+03  0.7818609E-02  0.9712565E-01
        2   -1    0    0  501    0  0.00000000000E+00  0.00000000000E+00  0.90174256109E+03  0.90174256109E+03  0.25500000920E-02 0.  1.
       -2   -1    0    0    0  501  0.00000000000E+00  0.00000000000E+00 -0.13691213582E+03  0.13691213584E+03  0.25500000920E-02 0. -1.
    10030    2    1    2    0    0  0.00000000000E+00  0.00000000000E+00  0.76483042527E+03  0.10386546969E+04  0.70273608136E+03 0.  0.
        2    1    3    3  502    0  0.94954727314E+02 -0.16876424732E+02  0.88179695086E+03  0.88705528379E+03  0.25500000920E-02 0.  1.
       -2    1    3    3    0  502 -0.94954727314E+02  0.16876424732E+02 -0.11696652559E+03  0.15159941314E+03  0.25500000920E-02 0. -1.
</event>
<event>
 5   0  0.1951465E-02  0.6672487E+03  0.7818609E-02  0.9774941E-01
        1   -1    0    0  501    0  0.00000000000E+00  0.00000000000E+00  0.11774543748E+04  0.11774543748E+04  0.50400001928E-02 0. -1.
       -1   -1    0    0    0  501  0.00000000000E+00  0.00000000000E+00 -0.94530374352E+02  0.94530374486E+02  0.50400001928E-02 0.  1.
    10030    2    1    2    0    0  0.00000000000E+00  0.00000000000E+00  0.10829240005E+04  0.12719847493E+04  0.66724868805E+03 0.  0.
        4    1    3    3  502    0 -0.28362957221E+03  0.47602453239E+01  0.20671435443E+03  0.35099975982E+03  0.12699999809E+01 0.  1.
       -4    1    3    3    0  502  0.28362957221E+03 -0.47602453239E+01  0.87620964602E+03  0.92098498948E+03  0.12699999809E+01 0. -1.
</event>
<event>
 5   0  0.1969818E-02  0.6919087E+03  0.7818609E-02  0.9731170E-01
        1   -1    0    0  501    0  0.00000000000E+00  0.00000000000E+00  0.60528145663E+03  0.60528145665E+03  0.50400001928E-02 0.  1.
       -1   -1    0    0    0  501  0.00000000000E+00  0.00000000000E+00 -0.19773349174E+03  0.19773349180E+03  0.50400001928E-02 0. -1.
    10030    2    1    2    0    0  0.00000000000E+00  0.00000000000E+00  0.40754796489E+03  0.80301494846E+03  0.69190871057E+03 0.  0.
        1    1    3    3  502    0  0.11876321228E+03  0.42981584604E+01  0.58084840601E+03  0.59288113948E+03  0.50400001928E-02 0.  1.
       -1    1    3    3    0  502 -0.11876321228E+03 -0.42981584604E+01 -0.17330044112E+03  0.21013380898E+03  0.50400001928E-02 0. -1.
</event>
<event>
 5   0  0.1969818E-02  0.6734229E+03  0.7818609E-02  0.9763794E-01
        1   -1    0    0  501    0  0.00000000000E+00  0.00000000000E+00  0.18398170204E+04  0.18398170204E+04  0.50400001928E-02 0. -1.
       -1   -1    0    0    0  501  0.00000000000E+00  0.00000000000E+00 -0.61622751154E+02  0.61622751360E+02  0.50400001928E-02 0.  1.
    10030    2    1    2    0    0  0.00000000000E+00  0.00000000000E+00  0.17781942693E+04  0.19014397718E+04  0.67342285860E+03 0.  0.
        1    1    3    3  502    0 -0.34545541021E+01  0.25523708964E+03  0.15090995404E+04  0.15305356346E+04  0.50400001928E-02 0. -1.
       -1    1    3    3    0  502  0.34545541021E+01 -0.25523708964E+03  0.26909472891E+03  0.37090413724E+03  0.50400001928E-02 0.  1.
</event>
<event>
 5   0  0.1233912E-02  0.6934834E+03  0.7818609E-02  0.9728442E-01
       -3   -1    0    0    0  501  0.00000000000E+00  0.00000000000E+00  0.18697903952E+03  0.18697906680E+03  0.10100000352E+00 0. -1.
        3   -1    0    0  501    0  0.00000000000E+00  0.00000000000E+00 -0.64301207321E+03  0.64301208114E+03  0.10100000352E+00 0.  1.
    10030    2    1    2    0    0  0.00000000000E+00  0.00000000000E+00 -0.45603303369E+03  0.82999114794E+03  0.69348336522E+03 0.  0.
        5    1    3    3  502    0  0.29564568775E+03  0.18098917155E+03 -0.23597814145E+03  0.41937003487E+03  0.46999998093E+01 0.  1.
       -5    1    3    3    0  502 -0.29564568775E+03 -0.18098917155E+03 -0.22005489224E+03  0.41062111307E+03  0.46999998093E+01 0. -1.
</event>
<event>
 5   0  0.1233912E-02  0.6908286E+03  0.7818609E-02  0.9733046E-01
       -3   -1    0    0    0  501  0.00000000000E+00  0.00000000000E+00  0.15666732211E+04  0.15666732243E+04  0.10100000352E+00 0. -1.
        3   -1    0    0  501    0  0.00000000000E+00  0.00000000000E+00 -0.76155622959E+02  0.76155689934E+02  0.10100000352E+00 0.  1.
    10030    2    1    2    0    0  0.00000000000E+00  0.00000000000E+00  0.14905175981E+04  0.16428289143E+04  0.69082858311E+03 0.  0.
        1    1    3    3  502    0  0.30338517091E+02 -0.37008092388E+02  0.15587520563E+04  0.15594864531E+04  0.50400001928E-02 0. -1.
       -1    1    3    3    0  502 -0.30338517091E+02  0.37008092388E+02 -0.68234458163E+02  0.83342461133E+02  0.50400001928E-02 0.  1.
</event>
<event>
 5   0  0.1839038E-02  0.7137371E+03  0.7818609E-02  0.9694024E-01
       -1   -1    0    0    0  501  0.00000000000E+00  0.00000000000E+00  0.15441684528E+03  0.15441684536E+03  0.50400001928E-02 0.  1.
        1   -1    0    0  501    0  0.00000000000E+00  0.00000000000E+00 -0.82474917091E+03  0.82474917093E+03  0.50400001928E-02 0. -1.
    10030    2    1    2    0    0  0.00000000000E+00  0.00000000000E+00 -0.67033232563E+03  0.97916601629E+03  0.71373710894E+03 0.  0.
        5    1    3    3  502    0  0.16243918904E+03 -0.69275060839E+02 -0.76055605669E+03  0.78080287497E+03  0.46999998093E+01 0. -1.
       -5    1    3    3    0  502 -0.16243918904E+03  0.69275060839E+02  0.90223731062E+02  0.19836314132E+03  0.46999998093E+01 0.  1.
</event>
<event>
 5   0  0.3183963E-02  0.6875460E+03  0.7818609E-02  0.9738770E-01
       -2   -1    0    0    0  501  0.00000000000E+00  0.00000000000E+00  0.74840700327E+02  0.74840700370E+02  0.25500000920E-02 0.  1.
        2   -1    0    0  501    0  0.00000000000E+00  0.00000000000E+00 -0.15790856505E+04  0.15790856505E+04  0.25500000920E-02 0. -1.
    10030    2    1    2    0    0  0.00000000000E+00  0.00000000000E+00 -0.15042449502E+04  0.16539263509E+04  0.68754600136E+03 0.  0.
        4    1    3    3  502    0  0.31429027747E+02  0.57134979174E+02 -0.15640662765E+04  0.15654255395E+04  0.12699999809E+01 0. -1.
       -4    1    3    3    0  502 -0.31429027747E+02 -0.57134979174E+02  0.59821326308E+02  0.88500811361E+02  0.12699999809E+01 0.  1.
</event>
<event>
 5   0  0.3184443E-02  0.6956641E+03  0.7818609E-02  0.9724676E-01
        2   -1    0    0  501    0  0.00000000000E+00  0.00000000000E+00  0.29863286762E+03  0.29863286763E+03  0.25500000920E-02 0.  1.
       -2   -1    0    0    0  501  0.00000000000E+00  0.00000000000E+00 -0.40513668003E+03  0.40513668003E+03  0.25500000920E-02 0. -1.
    10030    2    1    2    0    0  0.00000000000E+00  0.00000000000E+00 -0.10650381240E+03  0.70376954767E+03  0.69566408141E+03 0.  0.
        3    1    3    3  502    0 -0.18129429306E+03 -0.20779697418E+03 -0.26771225825E+03  0.38433978013E+03  0.10100000352E+00 0. -1.
       -3    1    3    3    0  502  0.18129429306E+03  0.20779697418E+03  0.16120844584E+03  0.31942976753E+03  0.10100000352E+00 0.  1.
</event>
<event>
 5   0  0.3290656E-02  0.7030252E+03  0.7818609E-02  0.9712073E-01
        2   -1    0    0  501    0  0.00000000000E+00  0.00000000000E+00  0.10506948035E+04  0.10506948035E+04  0.25500000920E-02 0.  1.
       -2   -1    0    0    0  501  0.00000000000E+00  0.00000000000E+00 -0.11759942690E+03  0.11759942693E+03  0.25500000920E-02 0. -1.
    10030    2    1    2    0    0  0.00000000000E+00  0.00000000000E+00  0.93309537664E+03  0.11682942305E+04  0.70302519659E+03 0.  0.
        1    1    3    3  502    0 -0.23148000235E+03 -0.61554480609E+02  0.89408574615E+03  0.92561399463E+03  0.50400001928E-02 0.  1.
       -1    1    3    3    0  502  0.23148000235E+03  0.61554480609E+02  0.39009630496E+02  0.24268023584E+03  0.50400001928E-02 0. -1.
</event>
<event>
 5   0  0.1233912E-02  0.7047469E+03  0.7818609E-02  0.9709149E-01
       -3   -1    0    0    0  501  0.00000000000E+00  0.00000000000E+00  0.92012459353E+03  0.92012459907E+03  0.10100000352E+00 0. -1.
        3   -1    0    0  501    0  0.00000000000E+00  0.00000000000E+00 -0.13494588271E+03  0.13494592051E+03  0.10100000352E+00 0.  1.
    10030    2    1    2    0    0  0.00000000000E+00  0.00000000000E+00  0.78517871081E+03  0.10550705196E+04  0.70474690023E+03 0.  0.
        5    1    3    3  502    0  0.10618530881E+03 -0.31554125429E+03  0.21991457579E+03  0.39903146944E+03  0.46999998093E+01 0.  1.
       -5    1    3    3    0  502 -0.10618530881E+03  0.31554125429E+03  0.56526413502E+03  0.65603905014E+03  0.46999998093E+01 0. -1.
</event>
<event>
 5   0  0.3184443E-02  0.6988713E+03  0.7818609E-02  0.9719164E-01
        2   -1    0    0  501    0  0.00000000000E+00  0.00000000000E+00  0.99342326855E+03  0.99342326855E+03  0.25500000920E-02 0.  1.
       -2   -1    0    0    0  501  0.00000000000E+00  0.00000000000E+00 -0.12291364648E+03  0.12291364650E+03  0.25500000920E-02 0. -1.
    10030    2    1    2    0    0  0.00000000000E+00  0.00000000000E+00  0.87050962207E+03  0.11163369151E+04  0.69887130847E+03 0.  0.
        3    1    3    3  502    0 -0.14362427439E+03  0.31588736485E+03  0.36953999694E+03  0.50692462853E+03  0.10100000352E+00 0. -1.
       -3    1    3    3    0  502  0.14362427439E+03 -0.31588736485E+03  0.50096962513E+03  0.60941228653E+03  0.10100000352E+00 0.  1.
</event>
<event>
 5   0  0.3113940E-02  0.6910441E+03  0.7818609E-02  0.9732672E-01
       -2   -1    0    0    0  501  0.00000000000E+00  0.00000000000E+00  0.94244364307E+02  0.94244364341E+02  0.25500000920E-02 0.  1.
        2   -1    0    0  501    0  0.00000000000E+00  0.00000000000E+00 -0.12667652103E+04  0.12667652103E+04  0.25500000920E-02 0. -1.
    10030    2    1    2    0    0  0.00000000000E+00  0.00000000000E+00 -0.11725208459E+04  0.13610095746E+04  0.69104408540E+03 0.  0.
        5    1    3    3  502    0  0.21092892161E+03 -0.16995325830E+03 -0.10086167184E+04  0.10443681797E+04  0.46999998093E+01 0. -1.
       -5    1    3    3    0  502 -0.21092892161E+03  0.16995325830E+03 -0.16390412751E+03  0.31664139494E+03  0.46999998093E+01 0.  1.
</event>
<event>
 5   0  0.1233912E-02  0.7018126E+03  0.7818609E-02  0.9714137E-01
        4   -1    0    0  501    0  0.00000000000E+00  0.00000000000E+00  0.27198486398E+03  0.27198782902E+03  0.12699999809E+01 0. -1.
       -4   -1    0    0    0  501  0.00000000000E+00  0.00000000000E+00 -0.45272199050E+03  0.45272377183E+03  0.12699999809E+01 0.  1.
    10030    2    1    2    0    0  0.00000000000E+00  0.00000000000E+00 -0.18073712652E+03  0.72471160086E+03  0.70181264987E+03 0.  0.
        4    1    3    3  502    0  0.60834219178E+02  0.22929928623E+03 -0.35736772612E+03  0.42894320074E+03  0.12699999809E+01 0.  1.
       -4    1    3    3    0  502 -0.60834219178E+02 -0.22929928623E+03  0.17663059960E+03  0.29576840011E+03  0.12699999809E+01 0. -1.
</event>
<event>
 5   0  0.1969818E-02  0.6997640E+03  0.7818609E-02  0.9717636E-01
       -1   -1    0    0    0  501  0.00000000000E+00  0.00000000000E+00  0.78852147021E+02  0.78852147182E+02  0.50400001928E-02 0. -1.
        1   -1    0    0  501    0  0.00000000000E+00  0.00000000000E+00 -0.15524929186E+04  0.15524929186E+04  0.50400001928E-02 0.  1.
    10030    2    1    2    0    0  0.00000000000E+00  0.00000000000E+00 -0.14736407715E+04  0.16313450658E+04  0.69976396021E+03 0.  0.
        1    1    3    3  502    0 -0.25307027547E+01 -0.15186237814E+03 -0.14716313114E+04  0.14794483103E+04  0.50400001928E-02 0.  1.
       -1    1    3    3    0  502  0.25307027547E+01  0.15186237814E+03 -0.20094601808E+01  0.15189675542E+03  0.50400001928E-02 0. -1.
</event>
<event>
 5   0  0.3290656E-02  0.6286055E+03  0.7818609E-02  0.9847774E-01
        2   -1    0    0  501    0  0.00000000000E+00  0.00000000000E+00  0.60420926729E+03  0.60420926730E+03  0.25500000920E-02 0.  1.
       -2   -1    0    0    0  501  0.00000000000E+00  0.00000000000E+00 -0.16349668355E+03  0.16349668357E+03  0.25500000920E-02 0. -1.
    10030    2    1    2    0    0  0.00000000000E+00  0.00000000000E+00  0.44071258374E+03  0.76770595087E+03  0.62860547685E+03 0.  0.
        1    1    3    3  502    0  0.15634602780E+03  0.10344702776E+03 -0.87738750264E+02  0.20698660895E+03  0.50400001928E-02 0.  1.
       -1    1    3    3    0  502 -0.15634602780E+03 -0.10344702776E+03  0.52845133400E+03  0.56071934192E+03  0.50400001928E-02 0. -1.
</event>
<event>
 5   0  0.1884172E-02  0.7026729E+03  0.7818609E-02  0.9712672E-01
        1   -1    0    0  501    0  0.00000000000E+00  0.00000000000E+00  0.86602419411E+03  0.86602419412E+03  0.50400001928E-02 0. -1.
       -1   -1    0    0    0  501  0.00000000000E+00  0.00000000000E+00 -0.14253330893E+03  0.14253330901E+03  0.50400001928E-02 0.  1.
    10030    2    1    2    0    0  0.00000000000E+00  0.00000000000E+00  0.72349088518E+03  0.10085575031E+04  0.70267287993E+03 0.  0.
        3    1    3    3  502    0 -0.17933299439E+03 -0.71502279950E+02  0.78306475695E+03  0.80651306418E+03  0.10100000352E+00 0. -1.
       -3    1    3    3    0  502  0.17933299439E+03  0.71502279950E+02 -0.59573871771E+02  0.20204443895E+03  0.10100000352E+00 0.  1.
</event>
<event>
 5   0  0.1858013E-02  0.6938853E+03  0.7818609E-02  0.9727747E-01
       -1   -1    0    0    0  501  0.00000000000E+00  0.00000000000E+00  0.69876018031E+02  0.69876018213E+02  0.50400001928E-02 0. -1.
        1   -1    0    0  501    0  0.00000000000E+00  0.00000000000E+00 -0.17226111921E+04  0.17226111921E+04  0.50400001928E-02 0.  1.
    10030    2    1    2    0    0  0.00000000000E+00  0.00000000000E+00 -0.16527351740E+04  0.17924872103E+04  0.69388532450E+03 0.  0.
        2    1    3    3  502    0  0.29563004668E+03  0.14917168134E+03 -0.55890462708E+03  0.64963350990E+03  0.25500000920E-02 0. -1.
       -2    1    3    3    0  502 -0.29563004668E+03 -0.14917168134E+03 -0.10938305470E+04  0.11428537004E+04  0.25500000920E-02 0.  1.
</event>
<event>
 5   0  0.1951465E-02  0.7056445E+03  0.7818609E-02  0.9707628E-01
        1   -1    0    0  501    0  0.00000000000E+00  0.00000000000E+00  0.39002792612E+03  0.39002792615E+03  0.50400001928E-02 0.  1.
       -1   -1    0    0    0  501  0.00000000000E+00  0.00000000000E+00 -0.31916566567E+03  0.31916566571E+03  0.50400001928E-02 0. -1.
    10030    2    1    2    0    0  0.00000000000E+00  0.00000000000E+00  0.70862260445E+02  0.70919359187E+03  0.70564445069E+03 0.  0.
        4    1    3    3  502    0 -0.15803540479E+03 -0.10174888962E+02 -0.28143734796E+03  0.32293545990E+03  0.12699999809E+01 0. -1.
       -4    1    3    3    0  502  0.15803540479E+03  0.10174888962E+02  0.35229960840E+03  0.38625813197E+03  0.12699999809E+01 0.  1.
</event>
<event>
 5   0  0.3183963E-02  0.6752004E+03  0.7818609E-02  0.9760609E-01
       -2   -1    0    0    0  501  0.00000000000E+00  0.00000000000E+00  0.45210783097E+03  0.45210783098E+03  0.25500000920E-02 0.  1.
        2   -1    0    0  501    0  0.00000000000E+00  0.00000000000E+00 -0.25209448130E+03  0.25209448131E+03  0.25500000920E-02 0. -1.
    10030    2    1    2    0    0  0.00000000000E+00  0.00000000000E+00  0.20001334968E+03  0.70420231229E+03  0.67520038254E+03 0.  0.
        4    1    3    3  502    0 -0.11934548245E+02 -0.32168810266E+03  0.20609406179E+03  0.38223297090E+03  0.12699999809E+01 0.  1.
       -4    1    3    3    0  502  0.11934548245E+02  0.32168810266E+03 -0.60807121148E+01  0.32196934139E+03  0.12699999809E+01 0. -1.
</event>
<event>
 5   0  0.1839038E-02  0.7079142E+03  0.7818609E-02  0.9703793E-01
        1   -1    0    0  501    0  0.00000000000E+00  0.00000000000E+00  0.73575909793E+03  0.73575909794E+03  0.50400001928E-02 0. -1.
       -1   -1    0    0    0  501  0.00000000000E+00  0.00000000000E+00 -0.17028077698E+03  0.17028077705E+03  0.50400001928E-02 0.  1.
    10030    2    1    2    0    0  0.00000000000E+00  0.00000000000E+00  0.56547832095E+03  0.90603987500E+03  0.70791420640E+03 0.  0.
        5    1    3    3  502    0  0.29622877445E+02  0.23909780783E+03 -0.49086777544E+02  0.24592047151E+03  0.46999998093E+01 0.  1.
       -5    1    3    3    0  502 -0.29622877445E+02 -0.23909780783E+03  0.61456509849E+03  0.66011940349E+03  0.46999998093E+01 0. -1.
</event>
<event>
 5   0  0.1839038E-02  0.7028212E+03  0.7818609E-02  0.9712420E-01
       -1   -1    0    0    0  501  0.00000000000E+00  0.00000000000E+00  0.49282451829E+03  0.49282451831E+03  0.50400001928E-02 0. -1.
        1   -1    0    0  501    0  0.00000000000E+00  0.00000000000E+00 -0.25057482744E+03  0.25057482749E+03  0.50400001928E-02 0.  1.
    10030    2    1    2    0    0  0.00000000000E+00  0.00000000000E+00  0.24224969085E+03  0.74339934580E+03  0.70282122523E+03 0.  0.
        5    1    3    3  502    0 -0.12308137199E+02 -0.35080937623E+03  0.10444679394E+03  0.36626483786E+03  0.46999998093E+01 0. -1.
       -5    1    3    3    0  502  0.12308137199E+02  0.35080937623E+03  0.13780289691E+03  0.37713450795E+03  0.46999998093E+01 0.  1.
</event>
<event>
 5   0  0.1839038E-02  0.6988694E+03  0.7818609E-02  0.9719168E-01
       -1   -1    0    0    0  501  0.00000000000E+00  0.00000000000E+00  0.81594472673E+02  0.81594472828E+02  0.50400001928E-02 0.  1.
        1   -1    0    0  501    0  0.00000000000E+00  0.00000000000E+00 -0.14964815670E+04  0.14964815670E+04  0.50400001928E-02 0. -1.
    10030    2    1    2    0    0  0.00000000000E+00  0.00000000000E+00 -0.14148870943E+04  0.15780760398E+04  0.69886944260E+03 0.  0.
        5    1    3    3  502    0 -0.19868682640E+03 -0.15681765096E+03 -0.16356814599E+03  0.30140480921E+03  0.46999998093E+01 0.  1.
       -5    1    3    3    0  502  0.19868682640E+03  0.15681765096E+03 -0.12513189483E+04  0.12766712306E+04  0.46999998093E+01 0. -1.
</event>
<event>
 5   0  0.3113940E-02  0.7112619E+03  0.7818609E-02  0.9698164E-01
        2   -1    0    0  501    0  0.00000000000E+00  0.00000000000E+00  0.45307166139E+03  0.45307166139E+03  0.25500000920E-02 0.  1.
       -2   -1    0    0    0  501  0.00000000000E+00  0.00000000000E+00 -0.27914651454E+03  0.27914651455E+03  0.25500000920E-02 0. -1.
    10030    2    1    2    0    0  0.00000000000E+00  0.00000000000E+00  0.17392514684E+03  0.73221817595E+03  0.71126190709E+03 0.  0.
        5    1    3    3  502    0 -0.29757484195E+02  0.34264554097E+03 -0.60305836481E+01  0.34402025021E+03  0.46999998093E+01 0.  1.
       -5    1    3    3    0  502  0.29757484195E+02 -0.34264554097E+03  0.17995573049E+03  0.38819792574E+03  0.46999998093E+01 0. -1.
</event>
<event>
 5   0  0.3290656E-02  0.7014353E+03  0.7818609E-02  0.9714781E-01
       -2   -1    0    0    0  501  0.00000000000E+00  0.00000000000E+00  0.11362242363E+03  0.11362242365E+03  0.25500000920E-02 0. -1.
        2   -1    0    0  501    0  0.00000000000E+00  0.00000000000E+00 -0.10825580401E+04  0.10825580401E+04  0.25500000920E-02 0.  1.
    10030    2    1    2    0    0  0.00000000000E+00  0.00000000000E+00 -0.96893561647E+03  0.11961804638E+04  0.70143529495E+03 0.  0.
        1    1    3    3  502    0  0.16750236353E+03  0.14006081155E+03 -0.95251495462E+03  0.97721994019E+03  0.50400001928E-02 0.  1.
       -1    1    3    3    0  502 -0.16750236353E+03 -0.14006081155E+03 -0.16420661857E+02  0.21896052356E+03  0.50400001928E-02 0. -1.
</event>
<event>
 5   0  0.1858013E-02  0.7006773E+03  0.7818609E-02  0.9716075E-01
        1   -1    0    0  501    0  0.00000000000E+00  0.00000000000E+00  0.14871679942E+03  0.14871679951E+03  0.50400001928E-02 0. -1.
       -1   -1    0    0    0  501  0.00000000000E+00  0.00000000000E+00 -0.82530802087E+03  0.82530802089E+03  0.50400001928E-02 0.  1.
    10030    2    1    2    0    0  0.00000000000E+00  0.00000000000E+00 -0.67659122145E+03  0.97402482039E+03  0.70067729362E+03 0.  0.
        2    1    3    3  502    0  0.17272429686E+03  0.27014387768E+03 -0.53452296000E+03  0.62331869228E+03  0.25500000920E-02 0.  1.
       -2    1    3    3    0  502 -0.17272429686E+03 -0.27014387768E+03 -0.14206826145E+03  0.35070612811E+03  0.25500000920E-02 0. -1.
</event>
<event>
 5   0  0.1233912E-02  0.6995798E+03  0.7818609E-02  0.9717951E-01
        4   -1    0    0  501    0  0.00000000000E+00  0.00000000000E+00  0.59321565980E+03  0.59321701925E+03  0.12699999809E+01 0. -1.
       -4   -1    0    0    0  501  0.00000000000E+00  0.00000000000E+00 -0.20625025775E+03  0.20625416776E+03  0.12699999809E+01 0.  1.
    10030    2    1    2    0    0  0.00000000000E+00  0.00000000000E+00  0.38696540205E+03  0.79947118702E+03  0.69957984282E+03 0.  0.
        4    1    3    3  502    0 -0.14467015725E+03 -0.16672429712E+03 -0.11660031385E+03  0.24964713445E+03  0.12699999809E+01 0.  1.
       -4    1    3    3    0  502  0.14467015725E+03  0.16672429712E+03  0.50356571590E+03  0.54982405257E+03  0.12699999809E+01 0. -1.
</event>
<event>
 5   0  0.3290656E-02  0.7034669E+03  0.7818609E-02  0.9711322E-01
        2   -1    0    0  501    0  0.00000000000E+00  0.00000000000E+00  0.31393031097E+03  0.31393031098E+03  0.25500000920E-02 0.  1.
       -2   -1    0    0    0  501  0.00000000000E+00  0.00000000000E+00 -0.39408881940E+03  0.39408881941E+03  0.25500000920E-02 0. -1.
    10030    2    1    2    0    0  0.00000000000E+00  0.00000000000E+00 -0.80158508427E+02  0.70801913039E+03  0.70346691644E+03 0.  0.
        1    1    3    3  502    0  0.22374047732E+03 -0.22591332273E+03 -0.19145128842E+03  0.37114717626E+03  0.50400001928E-02 0. -1.
       -1    1    3    3    0  502 -0.22374047732E+03  0.22591332273E+03  0.11129278000E+03  0.33687195414E+03  0.50400001928E-02 0.  1.
</event>
<event>
 5   0  0.1233912E-02  0.7003174E+03  0.7818609E-02  0.9716689E-01
        3   -1    0    0  501    0  0.00000000000E+00  0.00000000000E+00  0.40061901282E+03  0.40061902555E+03  0.10100000352E+00 0.  1.
       -3   -1    0    0    0  501  0.00000000000E+00  0.00000000000E+00 -0.30605416172E+03  0.30605417838E+03  0.10100000352E+00 0. -1.
    10030    2    1    2    0    0  0.00000000000E+00  0.00000000000E+00  0.94564851099E+02  0.70667320393E+03  0.70031743237E+03 0.  0.
        4    1    3    3  502    0 -0.25511183352E+03 -0.18873209788E+03 -0.10207323786E+03  0.33335028298E+03  0.12699999809E+01 0. -1.
       -4    1    3    3    0  502  0.25511183352E+03  0.18873209788E+03  0.19663808896E+03  0.37332292095E+03  0.12699999809E+01 0.  1.
</event>
<event>
 5   0  0.3290656E-02  0.6703555E+03  0.7818609E-02  0.9769316E-01
        2   -1    0    0  501    0  0.00000000000E+00  0.00000000000E+00  0.24267984878E+03  0.24267984879E+03  0.25500000920E-02 0. -1.
       -2   -1    0    0    0  501  0.00000000000E+00  0.00000000000E+00 -0.46293147507E+03  0.46293147508E+03  0.25500000920E-02 0.  1.
    10030    2    1    2    0    0  0.00000000000E+00  0.00000000000E+00 -0.22025162630E+03  0.70561132387E+03  0.67035554856E+03 0.  0.
        1    1    3    3  502    0 -0.11457055843E+03 -0.44982241262E+02  0.21803051871E+03  0.25037396431E+03  0.50400001928E-02 0. -1.
       -1    1    3    3    0  502  0.11457055843E+03  0.44982241262E+02 -0.43828214501E+03  0.45523735957E+03  0.50400001928E-02 0.  1.
</event>
<event>
 5   0  0.3184443E-02  0.6888858E+03  0.7818609E-02  0.9736430E-01
        2   -1    0    0  501    0  0.00000000000E+00  0.00000000000E+00  0.79387546645E+03  0.79387546645E+03  0.25500000920E-02 0.  1.
       -2   -1    0    0    0  501  0.00000000000E+00  0.00000000000E+00 -0.14944525568E+03  0.14944525570E+03  0.25500000920E-02 0. -1.
    10030    2    1    2    0    0  0.00000000000E+00  0.00000000000E+00  0.64443021077E+03  0.94332072216E+03  0.68888583111E+03 0.  0.
        3    1    3    3  502    0 -0.82665170185E+02  0.26474133631E+03  0.60190783829E+03  0.66273264708E+03  0.10100000352E+00 0.  1.
       -3    1    3    3    0  502  0.82665170185E+02 -0.26474133631E+03  0.42522372474E+02  0.28058807507E+03  0.10100000352E+00 0. -1.
</event>
<event>
 5   0  0.1951465E-02  0.7030536E+03  0.7818609E-02  0.9712024E-01
       -1   -1    0    0    0  501  0.00000000000E+00  0.00000000000E+00  0.36001237510E+03  0.36001237513E+03  0.50400001928E-02 0. -1.
        1   -1    0    0  501    0  0.00000000000E+00  0.00000000000E+00 -0.34324127396E+03  0.34324127400E+03  0.50400001928E-02 0.  1.
    10030    2    1    2    0    0  0.00000000000E+00  0.00000000000E+00  0.16771101135E+02  0.70325364913E+03  0.70305364318E+03 0.  0.
        4    1    3    3  502    0 -0.65438396661E+01  0.19147769026E+03  0.30319463215E+03  0.35865739302E+03  0.12699999809E+01 0. -1.
       -4    1    3    3    0  502  0.65438396661E+01 -0.19147769026E+03 -0.28642353102E+03  0.34459625611E+03  0.12699999809E+01 0.  1.
</event>
<event>
 5   0  0.1951465E-02  0.6976459E+03  0.7818609E-02  0.9721266E-01
       -1   -1    0    0    0  501  0.00000000000E+00  0.00000000000E+00  0.51950808805E+03  0.51950808808E+03  0.50400001928E-02 0. -1.
        1   -1    0    0  501    0  0.00000000000E+00  0.00000000000E+00 -0.23421666580E+03  0.23421666585E+03  0.50400001928E-02 0.  1.
    10030    2    1    2    0    0  0.00000000000E+00  0.00000000000E+00  0.28529142226E+03  0.75372475393E+03  0.69764590522E+03 0.  0.
        4    1    3    3  502    0  0.33033598216E+03  0.27597814278E+02  0.25996723765E+03  0.42126960253E+03  0.12699999809E+01 0.  1.
       -4    1    3    3    0  502 -0.33033598216E+03 -0.27597814278E+02  0.25324184607E+02  0.33245515140E+03  0.12699999809E+01 0. -1.
</event>
<event>
 5   0  0.1969818E-02  0.6952311E+03  0.7818609E-02  0.9725423E-01
        1   -1    0    0  501    0  0.00000000000E+00  0.00000000000E+00  0.88561018763E+03  0.88561018764E+03  0.50400001928E-02 0. -1.
       -1   -1    0    0    0  501  0.00000000000E+00  0.00000000000E+00 -0.13644440782E+03  0.13644440792E+03  0.50400001928E-02 0.  1.
    10030    2    1    2    0    0  0.00000000000E+00  0.00000000000E+00  0.74916577980E+03  0.10220545956E+04  0.69523106279E+03 0.  0.
        1    1    3    3  502    0 -0.50482590968E+02 -0.78591449089E+02 -0.11764918701E+03  0.15022130039E+03  0.50400001928E-02 0.  1.
       -1    1    3    3    0  502  0.50482590968E+02  0.78591449089E+02  0.86681496681E+03  0.87183329517E+03  0.50400001928E-02 0. -1.
</event>
<event>
 5   0  0.3113940E-02  0.7114252E+03  0.7818609E-02  0.9697891E-01
       -2   -1    0    0    0  501  0.00000000000E+00  0.00000000000E+00  0.36414177265E+03  0.36414177266E+03  0.25500000920E-02 0. -1.
        2   -1    0    0  501    0  0.00000000000E+00  0.00000000000E+00 -0.34747859254E+03  0.34747859255E+03  0.25500000920E-02 0.  1.
    10030    2    1    2    0    0  0.00000000000E+00  0.00000000000E+00  0.16663180110E+02  0.71162036521E+03  0.71142524738E+03 0.  0.
        5    1    3    3  502    0 -0.25462877480E+03  0.47745811302E+02 -0.23544389847E+03  0.35010197768E+03  0.46999998093E+01 0.  1.
       -5    1    3    3    0  502  0.25462877480E+03 -0.47745811302E+02  0.25210707858E+03  0.36151838753E+03  0.46999998093E+01 0. -1.
</event>
<event>
 5   0  0.1969818E-02  0.6994354E+03  0.7818609E-02  0.9718198E-01
       -1   -1    0    0    0  501  0.00000000000E+00  0.00000000000E+00  0.28748089010E+03  0.28748089014E+03  0.50400001928E-02 0.  1.
        1   -1    0    0  501    0  0.00000000000E+00  0.00000000000E+00 -0.42542821283E+03  0.42542821286E+03  0.50400001928E-02 0. -1.
    10030    2    1    2    0    0  0.00000000000E+00  0.00000000000E+00 -0.13794732273E+03  0.71290910300E+03  0.69943543326E+03 0.  0.
        1    1    3    3  502    0 -0.11689839624E+03  0.28562011707E+03 -0.23663678244E+03  0.38889722698E+03  0.50400001928E-02 0. -1.
       -1    1    3    3    0  502  0.11689839624E+03 -0.28562011707E+03  0.98689459708E+02  0.32401187603E+03  0.50400001928E-02 0.  1.
</event>
<event>
 5   0  0.1233912E-02  0.6652406E+03  0.7818609E-02  0.9778594E-01
        3   -1    0    0  501    0  0.00000000000E+00  0.00000000000E+00  0.13803991128E+03  0.13803994823E+03  0.10100000352E+00 0. -1.
       -3   -1    0    0    0  501  0.00000000000E+00  0.00000000000E+00 -0.80148015221E+03  0.80148015858E+03  0.10100000352E+00 0.  1.
    10030    2    1    2    0    0  0.00000000000E+00  0.00000000000E+00 -0.66344024093E+03  0.93952010681E+03  0.66524061648E+03 0.  0.
        1    1    3    3  502    0 -0.17262708764E+03  0.11870430701E+03  0.33149865351E+02  0.21210784400E+03  0.50400001928E-02 0. -1.
       -1    1    3    3    0  502  0.17262708764E+03 -0.11870430701E+03 -0.69659010628E+03  0.72741226281E+03  0.50400001928E-02 0.  1.
</event>
<event>
 5   0  0.3113940E-02  0.6875517E+03  0.7818609E-02  0.9738760E-01
       -2   -1    0    0    0  501  0.00000000000E+00  0.00000000000E+00  0.13814411263E+03  0.13814411266E+03  0.25500000920E-02 0.  1.
        2   -1    0    0  501    0  0.00000000000E+00  0.00000000000E+00 -0.85549675899E+03  0.85549675899E+03  0.25500000920E-02 0. -1.
    10030    2    1    2    0    0  0.00000000000E+00  0.00000000000E+00 -0.71735264635E+03  0.99364087165E+03  0.68755171629E+03 0.  0.
        5    1    3    3  502    0 -0.29042804790E+03 -0.17351282082E+03 -0.27071438791E+03  0.43331688153E+03  0.46999998093E+01 0.  1.
       -5    1    3    3    0  502  0.29042804790E+03  0.17351282082E+03 -0.44663825845E+03  0.56032399012E+03  0.46999998093E+01 0. -1.
</event>
<event>
 5   0  0.3290656E-02  0.7011506E+03  0.7818609E-02  0.9715266E-01
       -2   -1    0    0    0  501  0.00000000000E+00  0.00000000000E+00  0.14715255384E+03  0.14715255386E+03  0.25500000920E-02 0. -1.
        2   -1    0    0  501    0  0.00000000000E+00  0.00000000000E+00 -0.83520842332E+03  0.83520842333E+03  0.25500000920E-02 0.  1.
    10030    2    1    2    0    0  0.00000000000E+00  0.00000000000E+00 -0.68805586948E+03  0.98236097719E+03  0.70115063287E+03 0.  0.
        1    1    3    3  502    0 -0.48142946197E+02 -0.21165473248E+03  0.41680202930E+02  0.22102648799E+03  0.50400001928E-02 0. -1.
       -1    1    3    3    0  502  0.48142946197E+02  0.21165473248E+03 -0.72973607241E+03  0.76133448921E+03  0.50400001928E-02 0.  1.
</event>
<event>
 5   0  0.3183963E-02  0.7013656E+03  0.7818609E-02  0.9714900E-01
       -2   -1    0    0    0  501  0.00000000000E+00  0.00000000000E+00  0.15901882343E+03  0.15901882345E+03  0.25500000920E-02 0.  1.
        2   -1    0    0  501    0  0.00000000000E+00  0.00000000000E+00 -0.77335769258E+03  0.77335769258E+03  0.25500000920E-02 0. -1.
    10030    2    1    2    0    0  0.00000000000E+00  0.00000000000E+00 -0.61433886915E+03  0.93237651603E+03  0.70136561185E+03 0.  0.
        4    1    3    3  502    0  0.15329597160E+02  0.22232458341E+03  0.52778041155E+02  0.22902041713E+03  0.12699999809E+01 0.  1.
       -4    1    3    3    0  502 -0.15329597160E+02 -0.22232458341E+03 -0.66711691031E+03  0.70335609890E+03  0.12699999809E+01 0. -1.
</event>
<event>
 5   0  0.3113940E-02  0.7018896E+03  0.7818609E-02  0.9714006E-01
       -2   -1    0    0    0  501  0.00000000000E+00  0.00000000000E+00  0.45072911827E+03  0.45072911828E+03  0.25500000920E-02 0.  1.
        2   -1    0    0  501    0  0.00000000000E+00  0.00000000000E+00 -0.27325113099E+03  0.27325113100E+03  0.25500000920E-02 0. -1.
    10030    2    1    2    0    0  0.00000000000E+00  0.00000000000E+00  0.17747798728E+03  0.72398024927E+03  0.70188956779E+03 0.  0.
        5    1    3    3  502    0  0.10837167947E+03  0.31793175066E+03  0.19349895593E+03  0.38767119435E+03  0.46999998093E+01 0. -1.
       -5    1    3    3    0  502 -0.10837167947E+03 -0.31793175066E+03 -0.16020968643E+02  0.33630905492E+03  0.46999998093E+01 0.  1.
</event>
<event>
 5   0  0.1951465E-02  0.6994650E+03  0.7818609E-02  0.9718147E-01
        1   -1    0    0  501    0  0.00000000000E+00  0.00000000000E+00  0.20026770688E+04  0.20026770688E+04  0.50400001928E-02 0.  1.
       -1   -1    0    0    0  501  0.00000000000E+00  0.00000000000E+00 -0.61074667893E+02  0.61074668101E+02  0.50400001928E-02 0. -1.
    10030    2    1    2    0    0  0.00000000000E+00  0.00000000000E+00  0.19416024009E+04  0.20637517369E+04  0.69946504443E+03 0.  0.
        4    1    3    3  502    0 -0.10738924800E+03  0.25154911074E+03  0.16138538828E+04  0.16368675492E+04  0.12699999809E+01 0. -1.
       -4    1    3    3    0  502  0.10738924800E+03 -0.25154911074E+03  0.32774851817E+03  0.42688418777E+03  0.12699999809E+01 0.  1.
</event>
<event>
 5   0  0.3290656E-02  0.7023115E+03  0.7818609E-02  0.9713287E-01
        2   -1    0    0  501    0  0.00000000000E+00  0.00000000000E+00  0.19959945022E+04  0.19959945022E+04  0.25500000920E-02 0.  1.
       -2   -1    0    0    0  501  0.00000000000E+00  0.00000000000E+00 -0.61778913887E+02  0.61778913940E+02  0.25500000920E-02 0. -1.
    10030    2    1    2    0    0  0.00000000000E+00  0.00000000000E+00  0.19342155883E+04  0.20577734162E+04  0.70231153352E+03 0.  0.
        1    1    3    3  502    0 -0.45277189036E+02  0.17006590667E+03  0.76763800477E+02  0.19200291026E+03  0.50400001928E-02 0. -1.
       -1    1    3    3    0  502  0.45277189036E+02 -0.17006590667E+03  0.18574517878E+04  0.18657705059E+04  0.50400001928E-02 0.  1.
</event>
<event>
 5   0  0.1951465E-02  0.7085089E+03  0.7818609E-02  0.9702791E-01
        1   -1    0    0  501    0  0.00000000000E+00  0.00000000000E+00  0.14881020334E+04  0.14881020334E+04  0.50400001928E-02 0. -1.
       -1   -1    0    0    0  501  0.00000000000E+00  0.00000000000E+00 -0.84333069746E+02  0.84333069896E+02  0.50400001928E-02 0.  1.
    10030    2    1    2    0    0  0.00000000000E+00  0.00000000000E+00  0.14037689637E+04  0.15724351033E+04  0.70850889253E+03 0.  0.
        4    1    3    3  502    0 -0.26059184624E+03  0.76347686323E+02  0.12067946949E+04  0.12369689277E+04  0.12699999809E+01 0. -1.
       -4    1    3    3    0  502  0.26059184624E+03 -0.76347686323E+02  0.19697426878E+03  0.33546617564E+03  0.12699999809E+01 0.  1.
</event>
<event>
 5   0  0.1858013E-02  0.6948214E+03  0.7818609E-02  0.9726129E-01
       -1   -1    0    0    0  501  0.00000000000E+00  0.00000000000E+00  0.93369327063E+02  0.93369327199E+02  0.50400001928E-02 0.  1.
        1   -1    0    0  501    0  0.00000000000E+00  0.00000000000E+00 -0.12926537418E+04  0.12926537418E+04  0.50400001928E-02 0. -1.
    10030    2    1    2    0    0  0.00000000000E+00  0.00000000000E+00 -0.11992844148E+04  0.13860230690E+04  0.69482144498E+03 0.  0.
        2    1    3    3  502    0  0.83330880964E+02 -0.30902936771E+03 -0.33015331714E+03  0.45983083700E+03  0.25500000920E-02 0.  1.
       -2    1    3    3    0  502 -0.83330880964E+02  0.30902936771E+03 -0.86913109761E+03  0.92619223203E+03  0.25500000920E-02 0. -1.
</event>
<event>
 5   0  0.1233912E-02  0.6939143E+03  0.7818609E-02  0.9727697E-01
        4   -1    0    0  501    0  0.00000000000E+00  0.00000000000E+00  0.21927610724E+03  0.21927978499E+03  0.12699999809E+01 0.  1.
       -4   -1    0    0    0  501  0.00000000000E+00  0.00000000000E+00 -0.54897585337E+03  0.54897732238E+03  0.12699999809E+01 0. -1.
    10030    2    1    2    0    0  0.00000000000E+00  0.00000000000E+00 -0.32969974614E+03  0.76825710737E+03  0.69391430337E+03 0.  0.
        3    1    3    3  502    0 -0.13556629097E+02 -0.20352723216E+03  0.14588290304E+03  0.25077668956E+03  0.10100000352E+00 0.  1.
       -3    1    3    3    0  502  0.13556629097E+02  0.20352723216E+03 -0.47558264917E+03  0.51748041781E+03  0.10100000352E+00 0. -1.
</event>
<event>
 5   0  0.1969818E-02  0.7012335E+03  0.7818609E-02  0.9715125E-01
       -1   -1    0    0    0  501  0.00000000000E+00  0.00000000000E+00  0.74592557516E+03  0.74592557517E+03  0.50400001928E-02 0. -1.
        1   -1    0    0  501    0  0.00000000000E+00  0.00000000000E+00 -0.16480476604E+03  0.16480476611E+03  0.50400001928E-02 0.  1.
    10030    2    1    2    0    0  0.00000000000E+00  0.00000000000E+00  0.58112080912E+03  0.91073034129E+03  0.70123345595E+03 0.  0.
        1    1    3    3  502    0  0.11945508141E+03 -0.27842989258E+03  0.61377575146E+02  0.30912768933E+03  0.50400001928E-02 0.  1.
       -1    1    3    3    0  502 -0.11945508141E+03  0.27842989258E+03  0.51974323397E+03  0.60160265196E+03  0.50400001928E-02 0. -1.
</event>
<event>
 5   0  0.1951465E-02  0.7123113E+03  0.7818609E-02  0.9696407E-01
        1   -1    0    0  501    0  0.00000000000E+00  0.00000000000E+00  0.16272986103E+04  0.16272986103E+04  0.50400001928E-02 0.  1.
       -1   -1    0    0    0  501  0.00000000000E+00  0.00000000000E+00 -0.77949331732E+02  0.77949331895E+02  0.50400001928E-02 0. -1.
    10030    2    1    2    0    0  0.00000000000E+00  0.00000000000E+00  0.15493492786E+04  0.17052479422E+04  0.71231127844E+03 0.  0.
        4    1    3    3  502    0  0.33610075713E+03  0.48390276524E+02  0.51750569488E+03  0.61896615008E+03  0.12699999809E+01 0. -1.
       -4    1    3    3    0  502 -0.33610075713E+03 -0.48390276524E+02  0.10318435837E+04  0.10862817921E+04  0.12699999809E+01 0.  1.
</event>
<event>
 5   0  0.3183963E-02  0.6941563E+03  0.7818609E-02  0.9727278E-01
       -2   -1    0    0    0  501  0.00000000000E+00  0.00000000000E+00  0.44181206935E+03  0.44181206936E+03  0.25500000920E-02 0.  1.
        2   -1    0    0  501    0  0.00000000000E+00  0.00000000000E+00 -0.27265718139E+03  0.27265718140E+03  0.25500000920E-02 0. -1.
    10030    2    1    2    0    0  0.00000000000E+00  0.00000000000E+00  0.16915488796E+03  0.71446925076E+03  0.69415627502E+03 0.  0.
        4    1    3    3  502    0 -0.26936414362E+03  0.20679969247E+03  0.10796699913E+02  0.33976659091E+03  0.12699999809E+01 0.  1.
       -4    1    3    3    0  502  0.26936414362E+03 -0.20679969247E+03  0.15835818805E+03  0.37470265984E+03  0.12699999809E+01 0. -1.
</event>
<event>
 5   0  0.2933851E-02  0.7014260E+03  0.7818609E-02  0.9714797E-01
        2   -1    0    0  501    0  0.00000000000E+00  0.00000000000E+00  0.23191266701E+04  0.23191266701E+04  0.25500000920E-02 0.  1.
       -2   -1    0    0    0  501  0.00000000000E+00  0.00000000000E+00 -0.53037037058E+02  0.53037037120E+02  0.25500000920E-02 0. -1.
    10030    2    1    2    0    0  0.00000000000E+00  0.00000000000E+00  0.22660896330E+04  0.23721637072E+04  0.70142599672E+03 0.  0.
        2    1    3    3  502    0  0.19805309558E+02  0.36213395268E+02  0.23108838531E+04  0.23112524403E+04  0.25500000920E-02 0.  1.
       -2    1    3    3    0  502 -0.19805309558E+02 -0.36213395268E+02 -0.44794220044E+02  0.60911266932E+02  0.25500000920E-02 0. -1.
</event>
<event>
 5   0  0.1839038E-02  0.7032800E+03  0.7818609E-02  0.9711639E-01
        1   -1    0    0  501    0  0.00000000000E+00  0.00000000000E+00  0.55149578658E+03  0.55149578660E+03  0.50400001928E-02 0. -1.
       -1   -1    0    0    0  501  0.00000000000E+00  0.00000000000E+00 -0.22420968928E+03  0.22420968934E+03  0.50400001928E-02 0.  1.
    10030    2    1    2    0    0  0.00000000000E+00  0.00000000000E+00  0.32728609730E+03  0.77570547594E+03  0.70328002667E+03 0.  0.
        5    1    3    3  502    0 -0.45738062272E+02 -0.31142246062E+03  0.33647264316E+03  0.46077309916E+03  0.46999998093E+01 0. -1.
       -5    1    3    3    0  502  0.45738062272E+02  0.31142246062E+03 -0.91865458589E+01  0.31493237678E+03  0.46999998093E+01 0.  1.
</event>
<event>
 5   0  0.2933851E-02  0.6995494E+03  0.7818609E-02  0.9718003E-01
        2   -1    0    0  501    0  0.00000000000E+00  0.00000000000E+00  0.54928266149E+03  0.54928266149E+03  0.25500000920E-02 0.  1.
       -2   -1    0    0    0  501  0.00000000000E+00  0.00000000000E+00 -0.22273110143E+03  0.22273110145E+03  0.25500000920E-02 0. -1.
    10030    2    1    2    0    0  0.00000000000E+00  0.00000000000E+00  0.32655156005E+03  0.77201376294E+03  0.69954937553E+03 0.  0.
        2    1    3    3  502    0 -0.35747513089E+02 -0.25829729018E+03  0.42054882522E+03  0.49482995989E+03  0.25500000920E-02 0.  1.
       -2    1    3    3    0  502  0.35747513089E+02  0.25829729018E+03 -0.93997265173E+02  0.27718380305E+03  0.25500000920E-02 0. -1.
</event>
<event>
 5   0  0.1839038E-02  0.7136228E+03  0.7818609E-02  0.9694215E-01
        1   -1    0    0  501    0  0.00000000000E+00  0.00000000000E+00  0.44955144441E+03  0.44955144444E+03  0.50400001928E-02 0.  1.
       -1   -1    0    0    0  501  0.00000000000E+00  0.00000000000E+00 -0.28320313548E+03  0.28320313552E+03  0.50400001928E-02 0. -1.
    10030    2    1    2    0    0  0.00000000000E+00  0.00000000000E+00  0.16634830893E+03  0.73275457996E+03  0.71362280973E+03 0.  0.
        5    1    3    3  502    0 -0.18088386232E+03 -0.10464364991E+03  0.38010324741E+03  0.43378546979E+03  0.46999998093E+01 0.  1.
       -5    1    3    3    0  502  0.18088386232E+03  0.10464364991E+03 -0.21375493848E+03  0.29896911017E+03  0.46999998093E+01 0. -1.
</event>
<event>
 5   0  0.3290656E-02  0.6981749E+03  0.7818609E-02  0.9720358E-01
       -2   -1    0    0    0  501  0.00000000000E+00  0.00000000000E+00  0.11847477505E+03  0.11847477507E+03  0.25500000920E-02 0. -1.
        2   -1    0    0  501    0  0.00000000000E+00  0.00000000000E+00 -0.10285907979E+04  0.10285907979E+04  0.25500000920E-02 0.  1.
    10030    2    1    2    0    0  0.00000000000E+00  0.00000000000E+00 -0.91011602288E+03  0.11470655730E+04  0.69817494489E+03 0.  0.
        1    1    3    3  502    0 -0.20941234636E+03 -0.17607769581E+01  0.38085489265E+01  0.20945437740E+03  0.50400001928E-02 0. -1.
       -1    1    3    3    0  502  0.20941234636E+03  0.17607769581E+01 -0.91392457180E+03  0.93761119560E+03  0.50400001928E-02 0.  1.
</event>
<event>
 5   0  0.3183963E-02  0.6885536E+03  0.7818609E-02  0.9737010E-01
        2   -1    0    0  501    0  0.00000000000E+00  0.00000000000E+00  0.15799700726E+04  0.15799700726E+04  0.25500000920E-02 0. -1.
       -2   -1    0    0    0  501  0.00000000000E+00  0.00000000000E+00 -0.75018197830E+02  0.75018197873E+02  0.25500000920E-02 0.  1.
    10030    2    1    2    0    0  0.00000000000E+00  0.00000000000E+00  0.15049518748E+04  0.16549882705E+04  0.68855357819E+03 0.  0.
        4    1    3    3  502    0 -0.14243564920E+03 -0.31342398916E+03  0.74876518661E+03  0.82411979028E+03  0.12699999809E+01 0.  1.
       -4    1    3    3    0  502  0.14243564920E+03  0.31342398916E+03  0.75618668818E+03  0.83086848022E+03  0.12699999809E+01 0. -1.
</event>
<event>
 5   0  0.1884172E-02  0.7006398E+03  0.7818609E-02  0.9716139E-01
       -1   -1    0    0    0  501  0.00000000000E+00  0.00000000000E+00  0.29620286383E+03  0.29620286388E+03  0.50400001928E-02 0.  1.
        1   -1    0    0  501    0  0.00000000000E+00  0.00000000000E+00 -0.41432427085E+03  0.41432427088E+03  0.50400001928E-02 0. -1.
    10030    2    1    2    0    0  0.00000000000E+00  0.00000000000E+00 -0.11812140701E+03  0.71052713475E+03  0.70063980934E+03 0.  0.
        3    1    3    3  502    0  0.26706402742E+03 -0.16033991173E+03 -0.22160971639E+03  0.38228648764E+03  0.10100000352E+00 0. -1.
       -3    1    3    3    0  502 -0.26706402742E+03  0.16033991173E+03  0.10348830938E+03  0.32824064711E+03  0.10100000352E+00 0.  1.
</event>
<event>
 5   0  0.3183963E-02  0.7113383E+03  0.7818609E-02  0.9698036E-01
        2   -1    0    0  501    0  0.00000000000E+00  0.00000000000E+00  0.16253357296E+04  0.16253357296E+04  0.25500000920E-02 0.  1.
       -2   -1    0    0    0  501  0.00000000000E+00  0.00000000000E+00 -0.77830417923E+02  0.77830417965E+02  0.25500000920E-02 0. -1.
    10030    2    1    2    0    0  0.00000000000E+00  0.00000000000E+00  0.15475053117E+04  0.17031661476E+04  0.71133834183E+03 0.  0.
        4    1    3    3  502    0  0.83572395554E+02  0.30487050492E+03  0.38348286234E+03  0.49698198023E+03  0.12699999809E+01 0. -1.
       -4    1    3    3    0  502 -0.83572395554E+02 -0.30487050492E+03  0.11640224494E+04  0.12061841674E+04  0.12699999809E+01 0.  1.
</event>
<event>
 5   0  0.3113940E-02  0.7040242E+03  0.7818609E-02  0.9710375E-01
       -2   -1    0    0    0  501  0.00000000000E+00  0.00000000000E+00  0.17218868242E+03  0.17218868244E+03  0.25500000920E-02 0. -1.
        2   -1    0    0  501    0  0.00000000000E+00  0.00000000000E+00 -0.71963220804E+03  0.71963220804E+03  0.25500000920E-02 0.  1.
    10030    2    1    2    0    0  0.00000000000E+00  0.00000000000E+00 -0.54744352561E+03  0.89182089048E+03  0.70402420907E+03 0.  0.
        5    1    3    3  502    0 -0.22252671179E+03 -0.27120110375E+03 -0.31004574638E+03  0.46820789290E+03  0.46999998093E+01 0.  1.
       -5    1    3    3    0  502  0.22252671179E+03  0.27120110375E+03 -0.23739777924E+03  0.42361299758E+03  0.46999998093E+01 0. -1.
</event>
<event>
 5   0  0.3290656E-02  0.6957152E+03  0.7818609E-02  0.9724588E-01
       -2   -1    0    0    0  501  0.00000000000E+00  0.00000000000E+00  0.12095160727E+03  0.12095160730E+03  0.25500000920E-02 0.  1.
        2   -1    0    0  501    0  0.00000000000E+00  0.00000000000E+00 -0.10004406914E+04  0.10004406914E+04  0.25500000920E-02 0. -1.
    10030    2    1    2    0    0  0.00000000000E+00  0.00000000000E+00 -0.87948908418E+03  0.11213922987E+04  0.69571519927E+03 0.  0.
        1    1    3    3  502    0  0.32348067715E+03 -0.11641775129E+03 -0.52521952245E+03  0.62773273620E+03  0.50400001928E-02 0. -1.
       -1    1    3    3    0  502 -0.32348067715E+03  0.11641775129E+03 -0.35426956173E+03  0.49365956255E+03  0.50400001928E-02 0.  1.
</event>
<event>
 5   0  0.1951465E-02  0.7005749E+03  0.7818609E-02  0.9716250E-01
       -1   -1    0    0    0  501  0.00000000000E+00  0.00000000000E+00  0.31501666005E+03  0.31501666009E+03  0.50400001928E-02 0. -1.
        1   -1    0    0  501    0  0.00000000000E+00  0.00000000000E+00 -0.38950733817E+03  0.38950733820E+03  0.50400001928E-02 0.  1.
    10030    2    1    2    0    0  0.00000000000E+00  0.00000000000E+00 -0.74490678114E+02  0.70452399829E+03  0.70057490894E+03 0.  0.
        4    1    3    3  502    0 -0.13127368594E+03  0.19765310292E+03  0.22188947845E+03  0.32486317622E+03  0.12699999809E+01 0. -1.
       -4    1    3    3    0  502  0.13127368594E+03 -0.19765310292E+03 -0.29638015656E+03  0.37966082207E+03  0.12699999809E+01 0.  1.
</event>
<event>
 5   0  0.3290656E-02  0.6732935E+03  0.7818609E-02  0.9764026E-01
        2   -1    0    0  501    0  0.00000000000E+00  0.00000000000E+00  0.13718670938E+04  0.13718670938E+04  0.25500000920E-02 0. -1.
       -2   -1    0    0    0  501  0.00000000000E+00  0.00000000000E+00 -0.82610802378E+02  0.82610802417E+02  0.25500000920E-02 0.  1.
    10030    2    1    2    0    0  0.00000000000E+00  0.00000000000E+00  0.12892562914E+04  0.14544778962E+04  0.67329352114E+03 0.  0.
        1    1    3    3  502    0  0.88748389933E+01 -0.33151878358E+03  0.76961600551E+03  0.83802879580E+03  0.50400001928E-02 0. -1.
       -1    1    3    3    0  502 -0.88748389933E+01  0.33151878358E+03  0.51964028589E+03  0.61644910040E+03  0.50400001928E-02 0.  1.
</event>
<event>
 5   0  0.1858013E-02  0.6990879E+03  0.7818609E-02  0.9718793E-01
       -1   -1    0    0    0  501  0.00000000000E+00  0.00000000000E+00  0.24321021621E+03  0.24321021626E+03  0.50400001928E-02 0. -1.
        1   -1    0    0  501    0  0.00000000000E+00  0.00000000000E+00 -0.50236781091E+03  0.50236781093E+03  0.50400001928E-02 0.  1.
    10030    2    1    2    0    0  0.00000000000E+00  0.00000000000E+00 -0.25915759470E+03  0.74557802720E+03  0.69908793134E+03 0.  0.
        2    1    3    3  502    0 -0.30169333949E+03  0.75431007525E+02  0.40635160887E+02  0.31362385799E+03  0.25500000920E-02 0. -1.
       -2    1    3    3    0  502  0.30169333949E+03 -0.75431007525E+02 -0.29979275558E+03  0.43195416921E+03  0.25500000920E-02 0.  1.
</event>
<event>
 5   0  0.3184443E-02  0.6855295E+03  0.7818609E-02  0.9742304E-01
       -2   -1    0    0    0  501  0.00000000000E+00  0.00000000000E+00  0.63102283550E+02  0.63102283602E+02  0.25500000920E-02 0. -1.
        2   -1    0    0  501    0  0.00000000000E+00  0.00000000000E+00 -0.18618608572E+04  0.18618608572E+04  0.25500000920E-02 0.  1.
    10030    2    1    2    0    0  0.00000000000E+00  0.00000000000E+00 -0.17987585736E+04  0.19249631408E+04  0.68552949401E+03 0.  0.
        3    1    3    3  502    0 -0.15588928986E+03 -0.11471728506E+03 -0.16937298282E+04  0.17047528464E+04  0.10100000352E+00 0.  1.
       -3    1    3    3    0  502  0.15588928986E+03  0.11471728506E+03 -0.10502874543E+03  0.22021029438E+03  0.10100000352E+00 0. -1.
</event>
<event>
 5   0  0.1951465E-02  0.7422294E+03  0.7818609E-02  0.9647621E-01
       -1   -1    0    0    0  501  0.00000000000E+00  0.00000000000E+00  0.45699359322E+03  0.45699359325E+03  0.50400001928E-02 0.  1.
        1   -1    0    0  501    0  0.00000000000E+00  0.00000000000E+00 -0.30137430789E+03  0.30137430794E+03  0.50400001928E-02 0. -1.
    10030    2    1    2    0    0  0.00000000000E+00  0.00000000000E+00  0.15561928532E+03  0.75836790118E+03  0.74222941977E+03 0.  0.
        4    1    3    3  502    0  0.24576682136E+02 -0.11999178534E+03 -0.28012507746E+03  0.30573471144E+03  0.12699999809E+01 0. -1.
       -4    1    3    3    0  502 -0.24576682136E+02  0.11999178534E+03  0.43574436279E+03  0.45263318974E+03  0.12699999809E+01 0.  1.
</event>
<event>
 5   0  0.1951465E-02  0.6994536E+03  0.7818609E-02  0.9718167E-01
       -1   -1    0    0    0  501  0.00000000000E+00  0.00000000000E+00  0.20971906127E+03  0.20971906133E+03  0.50400001928E-02 0. -1.
        1   -1    0    0  501    0  0.00000000000E+00  0.00000000000E+00 -0.58320327822E+03  0.58320327824E+03  0.50400001928E-02 0.  1.
    10030    2    1    2    0    0  0.00000000000E+00  0.00000000000E+00 -0.37348421694E+03  0.79292233957E+03  0.69945362697E+03 0.  0.
        4    1    3    3  502    0  0.24364225226E+02 -0.18956275715E+03 -0.51876167393E+03  0.55284983640E+03  0.12699999809E+01 0.  1.
       -4    1    3    3    0  502 -0.24364225226E+02  0.18956275715E+03  0.14527745699E+03  0.24007250317E+03  0.12699999809E+01 0. -1.
</event>
<event>
 5   0  0.3290656E-02  0.7043093E+03  0.7818609E-02  0.9709891E-01
        2   -1    0    0  501    0  0.00000000000E+00  0.00000000000E+00  0.14367611496E+04  0.14367611496E+04  0.25500000920E-02 0.  1.
       -2   -1    0    0    0  501  0.00000000000E+00  0.00000000000E+00 -0.86314202738E+02  0.86314202776E+02  0.25500000920E-02 0. -1.
    10030    2    1    2    0    0  0.00000000000E+00  0.00000000000E+00  0.13504469468E+04  0.15230753524E+04  0.70430928769E+03 0.  0.
        1    1    3    3  502    0 -0.31116703957E+03  0.78691393664E+02  0.98856823772E+03  0.10393673184E+04  0.50400001928E-02 0.  1.
       -1    1    3    3    0  502  0.31116703957E+03 -0.78691393664E+02  0.36187870912E+03  0.48370803393E+03  0.50400001928E-02 0. -1.
</event>
<event>
 5   0  0.3183963E-02  0.6949571E+03  0.7818609E-02  0.9725895E-01
        2   -1    0    0  501    0  0.00000000000E+00  0.00000000000E+00  0.63531641114E+03  0.63531641115E+03  0.25500000920E-02 0.  1.
       -2   -1    0    0    0  501  0.00000000000E+00  0.00000000000E+00 -0.19004912296E+03  0.19004912298E+03  0.25500000920E-02 0. -1.
    10030    2    1    2    0    0  0.00000000000E+00  0.00000000000E+00  0.44526728818E+03  0.82536553413E+03  0.69495705407E+03 0.  0.
        4    1    3    3  502    0 -0.80832165988E+02  0.27903443152E+03  0.44905357142E+03  0.53483153977E+03  0.12699999809E+01 0.  1.
       -4    1    3    3    0  502  0.80832165988E+02 -0.27903443152E+03 -0.37862832360E+01  0.29053399435E+03  0.12699999809E+01 0. -1.
</event>
<event>
 5   0  0.1839038E-02  0.7187750E+03  0.7818609E-02  0.9685652E-01
        1   -1    0    0  501    0  0.00000000000E+00  0.00000000000E+00  0.44768777476E+03  0.44768777479E+03  0.50400001928E-02 0. -1.
       -1   -1    0    0    0  501  0.00000000000E+00  0.00000000000E+00 -0.28850324464E+03  0.28850324469E+03  0.50400001928E-02 0.  1.
    10030    2    1    2    0    0  0.00000000000E+00  0.00000000000E+00  0.15918453012E+03  0.73619101948E+03  0.71877500133E+03 0.  0.
        5    1    3    3  502    0 -0.20797195312E+03 -0.13103667765E+02  0.37945432700E+03  0.43293384676E+03  0.46999998093E+01 0. -1.
       -5    1    3    3    0  502  0.20797195312E+03  0.13103667765E+02 -0.22026979688E+03  0.30325717272E+03  0.46999998093E+01 0.  1.
</event>
<event>
 5   0  0.3290656E-02  0.6997564E+03  0.7818609E-02  0.9717649E-01
        2   -1    0    0  501    0  0.00000000000E+00  0.00000000000E+00  0.87544613295E+03  0.87544613295E+03  0.25500000920E-02 0.  1.
       -2   -1    0    0    0  501  0.00000000000E+00  0.00000000000E+00 -0.13983130099E+03  0.13983130102E+03  0.25500000920E-02 0. -1.
    10030    2    1    2    0    0  0.00000000000E+00  0.00000000000E+00  0.73561483196E+03  0.10152774340E+04  0.69975644829E+03 0.  0.
        1    1    3    3  502    0  0.11055279296E+03  0.19898370994E+03 -0.17702056020E+02  0.22831951223E+03  0.50400001928E-02 0. -1.
       -1    1    3    3    0  502 -0.11055279296E+03 -0.19898370994E+03  0.75331688798E+03  0.78695792174E+03  0.50400001928E-02 0.  1.
</event>
<event>
 5   0  0.3184443E-02  0.6965912E+03  0.7818609E-02  0.9723079E-01
       -2   -1    0    0    0  501  0.00000000000E+00  0.00000000000E+00  0.14736728810E+03  0.14736728812E+03  0.25500000920E-02 0. -1.
        2   -1    0    0  501    0  0.00000000000E+00  0.00000000000E+00 -0.82318025092E+03  0.82318025093E+03  0.25500000920E-02 0.  1.
    10030    2    1    2    0    0  0.00000000000E+00  0.00000000000E+00 -0.67581296282E+03  0.97054753905E+03  0.69659124660E+03 0.  0.
        3    1    3    3  502    0  0.10637929636E+03  0.23900444438E+03 -0.65827075539E+03  0.70835025004E+03  0.10100000352E+00 0.  1.
       -3    1    3    3    0  502 -0.10637929636E+03 -0.23900444438E+03 -0.17542207433E+02  0.26219728902E+03  0.10100000352E+00 0. -1.
</event>
<event>
 5   0  0.1969818E-02  0.7046086E+03  0.7818609E-02  0.9709383E-01
       -1   -1    0    0    0  501  0.00000000000E+00  0.00000000000E+00  0.23628375203E+03  0.23628375209E+03  0.50400001928E-02 0.  1.
        1   -1    0    0  501    0  0.00000000000E+00  0.00000000000E+00 -0.52529350538E+03  0.52529350541E+03  0.50400001928E-02 0. -1.
    10030    2    1    2    0    0  0.00000000000E+00  0.00000000000E+00 -0.28900975335E+03  0.76157725749E+03  0.70460860171E+03 0.  0.
        1    1    3    3  502    0 -0.20540542528E+03 -0.25529231763E+03 -0.28440215444E+03  0.43387802623E+03  0.50400001928E-02 0. -1.
       -1    1    3    3    0  502  0.20540542528E+03  0.25529231763E+03 -0.46075989140E+01  0.32769923126E+03  0.50400001928E-02 0.  1.
</event>
<event>
 5   0  0.1951465E-02  0.7029070E+03  0.7818609E-02  0.9712274E-01
        1   -1    0    0  501    0  0.00000000000E+00  0.00000000000E+00  0.70588830316E+02  0.70588830496E+02  0.50400001928E-02 0.  1.
       -1   -1    0    0    0  501  0.00000000000E+00  0.00000000000E+00 -0.17498458638E+04  0.17498458638E+04  0.50400001928E-02 0. -1.
    10030    2    1    2    0    0  0.00000000000E+00  0.00000000000E+00 -0.16792570334E+04  0.18204346943E+04  0.70290702920E+03 0.  0.
        4    1    3    3  502    0  0.48710591633E+02 -0.34787994841E+03 -0.81069845733E+03  0.88353086073E+03  0.12699999809E+01 0.  1.
       -4    1    3    3    0  502 -0.48710591633E+02  0.34787994841E+03 -0.86855857611E+03  0.93690383353E+03  0.12699999809E+01 0. -1.
</event>
<event>
 5   0  0.1884172E-02  0.7064609E+03  0.7818609E-02  0.9706247E-01
       -1   -1    0    0    0  501  0.00000000000E+00  0.00000000000E+00  0.12586712610E+03  0.12586712620E+03  0.50400001928E-02 0.  1.
        1   -1    0    0  501    0  0.00000000000E+00  0.00000000000E+00 -0.99129733057E+03  0.99129733058E+03  0.50400001928E-02 0. -1.
    10030    2    1    2    0    0  0.00000000000E+00  0.00000000000E+00 -0.86543020447E+03  0.11171644568E+04  0.70646088687E+03 0.  0.
        3    1    3    3  502    0  0.30734935430E+03 -0.17273611320E+03 -0.39841957220E+03  0.53201462020E+03  0.10100000352E+00 0.  1.
       -3    1    3    3    0  502 -0.30734935430E+03  0.17273611320E+03 -0.46701063227E+03  0.58514983658E+03  0.10100000352E+00 0. -1.
</event>
<event>
 5   0  0.1839038E-02  0.6982019E+03  0.7818609E-02  0.9720312E-01
       -1   -1    0    0    0  501  0.00000000000E+00  0.00000000000E+00  0.87488651376E+02  0.87488651521E+02  0.50400001928E-02 0. -1.
        1   -1    0    0  501    0  0.00000000000E+00  0.00000000000E+00 -0.13929974927E+04  0.13929974927E+04  0.50400001928E-02 0.  1.
    10030    2    1    2    0    0  0.00000000000E+00  0.00000000000E+00 -0.13055088413E+04  0.14804861442E+04  0.69820189664E+03 0.  0.
        5    1    3    3  502    0  0.22699685880E+03  0.26513928423E+03 -0.66291659228E+03  0.74920418597E+03  0.46999998093E+01 0.  1.
       -5    1    3    3    0  502 -0.22699685880E+03 -0.26513928423E+03 -0.64259224902E+03  0.73128195824E+03  0.46999998093E+01 0. -1.
</event>
<event>
 5   0  0.1233912E-02  0.7007202E+03  0.7818609E-02  0.9716001E-01
        3   -1    0    0  501    0  0.00000000000E+00  0.00000000000E+00  0.10686967972E+03  0.10686972745E+03  0.10100000352E+00 0. -1.
       -3   -1    0    0    0  501  0.00000000000E+00  0.00000000000E+00 -0.11486156010E+04  0.11486156055E+04  0.10100000352E+00 0.  1.
    10030    2    1    2    0    0  0.00000000000E+00  0.00000000000E+00 -0.10417459213E+04  0.12554853329E+04  0.70072024134E+03 0.  0.
        3    1    3    3  502    0 -0.49793102738E+01 -0.55189291014E+02 -0.11407143719E+04  0.11420595167E+04  0.10100000352E+00 0.  1.
       -3    1    3    3    0  502  0.49793102738E+01  0.55189291014E+02  0.98968450553E+02  0.11342581619E+03  0.10100000352E+00 0. -1.
</event>
<event>
 5   0  0.1884172E-02  0.6872992E+03  0.7818609E-02  0.9739202E-01
       -1   -1    0    0    0  501  0.00000000000E+00  0.00000000000E+00  0.59564537307E+03  0.59564537309E+03  0.50400001928E-02 0.  1.
        1   -1    0    0  501    0  0.00000000000E+00  0.00000000000E+00 -0.19826402090E+03  0.19826402096E+03  0.50400001928E-02 0. -1.
    10030    2    1    2    0    0  0.00000000000E+00  0.00000000000E+00  0.39738135218E+03  0.79390939405E+03  0.68729919752E+03 0.  0.
        3    1    3    3  502    0  0.22617662011E+03 -0.23772371451E+03  0.80741030698E+02  0.33791648697E+03  0.10100000352E+00 0.  1.
       -3    1    3    3    0  502 -0.22617662011E+03  0.23772371451E+03  0.31664032148E+03  0.45599290709E+03  0.10100000352E+00 0. -1.
</event>
<event>
 5   0  0.3183963E-02  0.7088283E+03  0.7818609E-02  0.9702253E-01
       -2   -1    0    0    0  501  0.00000000000E+00  0.00000000000E+00  0.10373205895E+03  0.10373205898E+03  0.25500000920E-02 0. -1.
        2   -1    0    0  501    0  0.00000000000E+00  0.00000000000E+00 -0.12109021627E+04  0.12109021627E+04  0.25500000920E-02 0.  1.
    10030    2    1    2    0    0  0.00000000000E+00  0.00000000000E+00 -0.11071701037E+04  0.13146342216E+04  0.70882825717E+03 0.  0.
        4    1    3    3  502    0 -0.33377819849E+03 -0.84634440616E+02 -0.70916521032E+03  0.78834496431E+03  0.12699999809E+01 0.  1.
       -4    1    3    3    0  502  0.33377819849E+03  0.84634440616E+02 -0.39800489338E+03  0.52628925733E+03  0.12699999809E+01 0. -1.
</event>
<event>
 5   0  0.3290656E-02  0.7046281E+03  0.7818609E-02  0.9709350E-01
        2   -1    0    0  501    0  0.00000000000E+00  0.00000000000E+00  0.85637869804E+03  0.85637869804E+03  0.25500000920E-02 0.  1.
       -2   -1    0    0    0  501  0.00000000000E+00  0.00000000000E+00 -0.14494192873E+03  0.14494192876E+03  0.25500000920E-02 0. -1.
    10030    2    1    2    0    0  0.00000000000E+00  0.00000000000E+00  0.71143676930E+03  0.10013206268E+04  0.70462807277E+03 0.  0.
        1    1    3    3  502    0  0.14867299144E+03  0.14226825708E+03  0.76210568939E+03  0.78939787001E+03  0.50400001928E-02 0.  1.
       -1    1    3    3    0  502 -0.14867299144E+03 -0.14226825708E+03 -0.50668920084E+02  0.21192275679E+03  0.50400001928E-02 0. -1.
</event>
<event>
 5   0  0.1858013E-02  0.6646545E+03  0.7818609E-02  0.9779663E-01
       -1   -1    0    0    0  501  0.00000000000E+00  0.00000000000E+00  0.73392075587E+02  0.73392075760E+02  0.50400001928E-02 0. -1.
        1   -1    0    0  501    0  0.00000000000E+00  0.00000000000E+00 -0.15048138879E+04  0.15048138879E+04  0.50400001928E-02 0.  1.
    10030    2    1    2    0    0  0.00000000000E+00  0.00000000000E+00 -0.14314218123E+04  0.15782059637E+04  0.66465454110E+03 0.  0.
        2    1    3    3  502    0  0.21388224832E+03  0.91132408638E+02 -0.12795710270E+04  0.13005201825E+04  0.25500000920E-02 0.  1.
       -2    1    3    3    0  502 -0.21388224832E+03 -0.91132408638E+02 -0.15185078537E+03  0.27768578119E+03  0.25500000920E-02 0. -1.
</event>
<event>
 5   0  0.3113940E-02  0.6869979E+03  0.7818609E-02  0.9739730E-01
        2   -1    0    0  501    0  0.00000000000E+00  0.00000000000E+00  0.31732193157E+03  0.31732193158E+03  0.25500000920E-02 0. -1.
       -2   -1    0    0    0  501  0.00000000000E+00  0.00000000000E+00 -0.37183536371E+03  0.37183536372E+03  0.25500000920E-02 0.  1.
    10030    2    1    2    0    0  0.00000000000E+00  0.00000000000E+00 -0.54513432141E+02  0.68915729530E+03  0.68699786272E+03 0.  0.
        5    1    3    3  502    0 -0.16065252893E+03 -0.45819494639E+02  0.27378784623E+03  0.32076554659E+03  0.46999998093E+01 0. -1.
       -5    1    3    3    0  502  0.16065252893E+03  0.45819494639E+02 -0.32830127837E+03  0.36839174871E+03  0.46999998093E+01 0.  1.
</event>
<event>
 5   0  0.1858013E-02  0.6943360E+03  0.7818609E-02  0.9726968E-01
       -1   -1    0    0    0  501  0.00000000000E+00  0.00000000000E+00  0.44422031844E+03  0.44422031847E+03  0.50400001928E-02 0.  1.
        1   -1    0    0  501    0  0.00000000000E+00  0.00000000000E+00 -0.27131947593E+03  0.27131947597E+03  0.50400001928E-02 0. -1.
    10030    2    1    2    0    0  0.00000000000E+00  0.00000000000E+00  0.17290084251E+03  0.71553979444E+03  0.69433601094E+03 0.  0.
        2    1    3    3  502    0  0.21881956145E+03 -0.20967337207E+03  0.26097595694E+03  0.39994171267E+03  0.25500000920E-02 0.  1.
       -2    1    3    3    0  502 -0.21881956145E+03  0.20967337207E+03 -0.88075114428E+02  0.31559808177E+03  0.25500000920E-02 0. -1.
</event>
<event>
 5   0  0.2933851E-02  0.7091400E+03  0.7818609E-02  0.9701728E-01
       -2   -1    0    0    0  501  0.00000000000E+00  0.00000000000E+00  0.63282464150E+02  0.63282464201E+02  0.25500000920E-02 0. -1.
        2   -1    0    0  501    0  0.00000000000E+00  0.00000000000E+00 -0.19866465184E+04  0.19866465184E+04  0.25500000920E-02 0.  1.
    10030    2    1    2    0    0  0.00000000000E+00  0.00000000000E+00 -0.19233640543E+04  0.20499289826E+04  0.70914000630E+03 0.  0.
        2    1    3    3  502    0  0.28312444474E+03 -0.86349051503E+02 -0.39740328067E+03  0.49552495133E+03  0.25500000920E-02 0. -1.
       -2    1    3    3    0  502 -0.28312444474E+03  0.86349051503E+02 -0.15259607736E+04  0.15544040313E+04  0.25500000920E-02 0.  1.
</event>
<event>
 5   0  0.3184443E-02  0.7003026E+03  0.7818609E-02  0.9716715E-01
        2   -1    0    0  501    0  0.00000000000E+00  0.00000000000E+00  0.12659656717E+04  0.12659656717E+04  0.25500000920E-02 0.  1.
       -2   -1    0    0    0  501  0.00000000000E+00  0.00000000000E+00 -0.96847747243E+02  0.96847747277E+02  0.25500000920E-02 0. -1.
    10030    2    1    2    0    0  0.00000000000E+00  0.00000000000E+00  0.11691179245E+04  0.13628134190E+04  0.70030257295E+03 0.  0.
        3    1    3    3  502    0  0.16556234817E+03 -0.19242513780E+03  0.11521502890E+03  0.27877022416E+03  0.10100000352E+00 0. -1.
       -3    1    3    3    0  502 -0.16556234817E+03  0.19242513780E+03  0.10539028956E+04  0.10840431949E+04  0.10100000352E+00 0.  1.
</event>
<event>
 5   0  0.1233912E-02  0.7041601E+03  0.7818609E-02  0.9710144E-01
        3   -1    0    0  501    0  0.00000000000E+00  0.00000000000E+00  0.22979692838E+03  0.22979695058E+03  0.10100000352E+00 0.  1.
       -3   -1    0    0    0  501  0.00000000000E+00  0.00000000000E+00 -0.53943438118E+03  0.53943439063E+03  0.10100000352E+00 0. -1.
    10030    2    1    2    0    0  0.00000000000E+00  0.00000000000E+00 -0.30963745280E+03  0.76923134121E+03  0.70416014096E+03 0.  0.
        4    1    3    3  502    0  0.25107058984E+03 -0.20091750376E+03 -0.31143567784E+03  0.44765843981E+03  0.12699999809E+01 0. -1.
       -4    1    3    3    0  502 -0.25107058984E+03  0.20091750376E+03  0.17982250455E+01  0.32157290140E+03  0.12699999809E+01 0.  1.
</event>
<event>
 5   0  0.3290656E-02  0.6903474E+03  0.7818609E-02  0.9733883E-01
        2   -1    0    0  501    0  0.00000000000E+00  0.00000000000E+00  0.13590601799E+03  0.13590601802E+03  0.25500000920E-02 0. -1.
       -2   -1    0    0    0  501  0.00000000000E+00  0.00000000000E+00 -0.87667109904E+03  0.87667109904E+03  0.25500000920E-02 0.  1.
    10030    2    1    2    0    0  0.00000000000E+00  0.00000000000E+00 -0.74076508104E+03  0.10125771171E+04  0.69034738552E+03 0.  0.
        1    1    3    3  502    0  0.16460772261E+03  0.10164298827E+03  0.48911767186E+02  0.19954789000E+03  0.50400001928E-02 0. -1.
       -1    1    3    3    0  502 -0.16460772261E+03 -0.10164298827E+03 -0.78967684823E+03  0.81302922706E+03  0.50400001928E-02 0.  1.
</event>
<event>
 5   0  0.3183963E-02  0.6749991E+03  0.7818609E-02  0.9760969E-01
        2   -1    0    0  501    0  0.00000000000E+00  0.00000000000E+00  0.37509167357E+03  0.37509167358E+03  0.25500000920E-02 0. -1.
       -2   -1    0    0    0  501  0.00000000000E+00  0.00000000000E+00 -0.30367495067E+03  0.30367495068E+03  0.25500000920E-02 0.  1.
    10030    2    1    2    0    0  0.00000000000E+00  0.00000000000E+00  0.71416722898E+02  0.67876662426E+03  0.67499909770E+03 0.  0.
        4    1    3    3  502    0 -0.26373786504E+03  0.91002505936E+02  0.22667677931E+03  0.35947613651E+03  0.12699999809E+01 0. -1.
       -4    1    3    3    0  502  0.26373786504E+03 -0.91002505936E+02 -0.15526005641E+03  0.31929048774E+03  0.12699999809E+01 0.  1.
</event>
<event>
 5   0  0.1839038E-02  0.6895172E+03  0.7818609E-02  0.9735329E-01
        1   -1    0    0  501    0  0.00000000000E+00  0.00000000000E+00  0.59468622948E+03  0.59468622950E+03  0.50400001928E-02 0. -1.
       -1   -1    0    0    0  501  0.00000000000E+00  0.00000000000E+00 -0.19986759738E+03  0.19986759745E+03  0.50400001928E-02 0.  1.
    10030    2    1    2    0    0  0.00000000000E+00  0.00000000000E+00  0.39481863209E+03  0.79455382694E+03  0.68951724537E+03 0.  0.
        5    1    3    3  502    0  0.18294530975E+03 -0.20946941755E+03 -0.37310567267E+02  0.28064317500E+03  0.46999998093E+01 0.  1.
       -5    1    3    3    0  502 -0.18294530975E+03  0.20946941755E+03  0.43212919936E+03  0.51391065195E+03  0.46999998093E+01 0. -1.
</event>
<event>
 5   0  0.1858013E-02  0.6807945E+03  0.7818609E-02  0.9750652E-01
        1   -1    0    0  501    0  0.00000000000E+00  0.00000000000E+00  0.43355653833E+03  0.43355653836E+03  0.50400001928E-02 0.  1.
       -1   -1    0    0    0  501  0.00000000000E+00  0.00000000000E+00 -0.26725530964E+03  0.26725530968E+03  0.50400001928E-02 0. -1.
    10030    2    1    2    0    0  0.00000000000E+00  0.00000000000E+00  0.16630122870E+03  0.70081184805E+03  0.68079449740E+03 0.  0.
        2    1    3    3  502    0 -0.24531083076E+03 -0.12272099646E+03  0.29065240620E+03  0.39964567794E+03  0.25500000920E-02 0. -1.
       -2    1    3    3    0  502  0.24531083076E+03  0.12272099646E+03 -0.12435117751E+03  0.30116617010E+03  0.25500000920E-02 0.  1.
</event>
<event>
 5   0  0.1839038E-02  0.7018905E+03  0.7818609E-02  0.9714005E-01
        1   -1    0    0  501    0  0.00000000000E+00  0.00000000000E+00  0.26779326706E+03  0.26779326711E+03  0.50400001928E-02 0.  1.
       -1   -1    0    0    0  501  0.00000000000E+00  0.00000000000E+00 -0.45991664662E+03  0.45991664665E+03  0.50400001928E-02 0. -1.
    10030    2    1    2    0    0  0.00000000000E+00  0.00000000000E+00 -0.19212337955E+03  0.72770991376E+03  0.70189053677E+03 0.  0.
        5    1    3    3  502    0 -0.89285449748E+02  0.11095057166E+03  0.23645170631E+03  0.27606778208E+03  0.46999998093E+01 0.  1.
       -5    1    3    3    0  502  0.89285449748E+02 -0.11095057166E+03 -0.42857508586E+03  0.45164213168E+03  0.46999998093E+01 0. -1.
</event>
<event>
 5   0  0.3184443E-02  0.6651395E+03  0.7818609E-02  0.9778778E-01
       -2   -1    0    0    0  501  0.00000000000E+00  0.00000000000E+00  0.80584478346E+03  0.80584478347E+03  0.25500000920E-02 0.  1.
        2   -1    0    0  501    0  0.00000000000E+00  0.00000000000E+00 -0.13725055034E+03  0.13725055037E+03  0.25500000920E-02 0. -1.
    10030    2    1    2    0    0  0.00000000000E+00  0.00000000000E+00  0.66859423312E+03  0.94309533383E+03  0.66513950427E+03 0.  0.
        3    1    3    3  502    0 -0.10772065754E+03  0.75696135650E+02  0.76732062910E+03  0.77853362359E+03  0.10100000352E+00 0.  1.
       -3    1    3    3    0  502  0.10772065754E+03 -0.75696135650E+02 -0.98726395983E+02  0.16456171024E+03  0.10100000352E+00 0. -1.
</event>
<event>
 5   0  0.2933851E-02  0.7097445E+03  0.7818609E-02  0.9700711E-01
       -2   -1    0    0    0  501  0.00000000000E+00  0.00000000000E+00  0.63330299162E+02  0.63330299213E+02  0.25500000920E-02 0.  1.
        2   -1    0    0  501    0  0.00000000000E+00  0.00000000000E+00 -0.19885319545E+04  0.19885319545E+04  0.25500000920E-02 0. -1.
    10030    2    1    2    0    0  0.00000000000E+00  0.00000000000E+00 -0.19252016554E+04  0.20518622538E+04  0.70974452764E+03 0.  0.
        2    1    3    3  502    0  0.14739870511E+03  0.19919144378E+03 -0.16969952758E+04  0.17149917130E+04  0.25500000920E-02 0. -1.
       -2    1    3    3    0  502 -0.14739870511E+03 -0.19919144378E+03 -0.22820637957E+03  0.33687054075E+03  0.25500000920E-02 0.  1.
</event>
<event>
 5   0  0.3113940E-02  0.7125264E+03  0.7818609E-02  0.9696047E-01
        2   -1    0    0  501    0  0.00000000000E+00  0.00000000000E+00  0.60855059930E+03  0.60855059930E+03  0.25500000920E-02 0. -1.
       -2   -1    0    0    0  501  0.00000000000E+00  0.00000000000E+00 -0.20856684879E+03  0.20856684880E+03  0.25500000920E-02 0.  1.
    10030    2    1    2    0    0  0.00000000000E+00  0.00000000000E+00  0.39998375051E+03  0.81711744810E+03  0.71252643693E+03 0.  0.
        5    1    3    3  502    0 -0.19787703604E+03 -0.24969555372E+03  0.17230267453E+02  0.31909585246E+03  0.46999998093E+01 0.  1.
       -5    1    3    3    0  502  0.19787703604E+03  0.24969555372E+03  0.38275348306E+03  0.49802159565E+03  0.46999998093E+01 0. -1.
</event>
<event>
 5   0  0.1951465E-02  0.6998451E+03  0.7818609E-02  0.9717497E-01
        1   -1    0    0  501    0  0.00000000000E+00  0.00000000000E+00  0.11294493602E+04  0.11294493602E+04  0.50400001928E-02 0. -1.
       -1   -1    0    0    0  501  0.00000000000E+00  0.00000000000E+00 -0.10841192476E+03  0.10841192488E+03  0.50400001928E-02 0.  1.
    10030    2    1    2    0    0  0.00000000000E+00  0.00000000000E+00  0.10210374355E+04  0.12378612851E+04  0.69984506613E+03 0.  0.
        4    1    3    3  502    0  0.20850858966E+03 -0.18903920666E+03  0.14274955281E+03  0.31557994446E+03  0.12699999809E+01 0.  1.
       -4    1    3    3    0  502 -0.20850858966E+03  0.18903920666E+03  0.87828788265E+03  0.92228134066E+03  0.12699999809E+01 0. -1.
</event>
<event>
 5   0  0.1969818E-02  0.6998180E+03  0.7818609E-02  0.9717543E-01
       -1   -1    0    0    0  501  0.00000000000E+00  0.00000000000E+00  0.96330759942E+02  0.96330760074E+02  0.50400001928E-02 0.  1.
        1   -1    0    0  501    0  0.00000000000E+00  0.00000000000E+00 -0.12709992641E+04  0.12709992641E+04  0.50400001928E-02 0. -1.
    10030    2    1    2    0    0  0.00000000000E+00  0.00000000000E+00 -0.11746685041E+04  0.13673300242E+04  0.69981804804E+03 0.  0.
        1    1    3    3  502    0 -0.17855930038E+03  0.28533512098E+03 -0.77409455047E+03  0.84411013980E+03  0.50400001928E-02 0. -1.
       -1    1    3    3    0  502  0.17855930038E+03 -0.28533512098E+03 -0.40057395366E+03  0.52321988436E+03  0.50400001928E-02 0.  1.
</event>
<event>
 5   0  0.2933851E-02  0.7086990E+03  0.7818609E-02  0.9702470E-01
        2   -1    0    0  501    0  0.00000000000E+00  0.00000000000E+00  0.24567146199E+03  0.24567146200E+03  0.25500000920E-02 0.  1.
       -2   -1    0    0    0  501  0.00000000000E+00  0.00000000000E+00 -0.51110364444E+03  0.51110364444E+03  0.25500000920E-02 0. -1.
    10030    2    1    2    0    0  0.00000000000E+00  0.00000000000E+00 -0.26543218245E+03  0.75677510644E+03  0.70869903221E+03 0.  0.
        2    1    3    3  502    0 -0.25081707922E+03  0.17318196847E+03 -0.32570346637E+03  0.44607617000E+03  0.25500000920E-02 0.  1.
       -2    1    3    3    0  502  0.25081707922E+03 -0.17318196847E+03  0.60271283926E+02  0.31069893644E+03  0.25500000920E-02 0. -1.
</event>
<event>
 5   0  0.1233912E-02  0.7757912E+03  0.7818609E-02  0.9595735E-01
       -3   -1    0    0    0  501  0.00000000000E+00  0.00000000000E+00  0.17779969787E+04  0.17779969815E+04  0.10100000352E+00 0. -1.
        3   -1    0    0  501    0  0.00000000000E+00  0.00000000000E+00 -0.84624976765E+02  0.84625037037E+02  0.10100000352E+00 0.  1.
    10030    2    1    2    0    0  0.00000000000E+00  0.00000000000E+00  0.16933720019E+04  0.18626220186E+04  0.77579123948E+03 0.  0.
        4    1    3    3  502    0  0.20327186583E+03  0.30080822611E+03  0.11746251774E+04  0.12294514877E+04  0.12699999809E+01 0. -1.
       -4    1    3    3    0  502 -0.20327186583E+03 -0.30080822611E+03  0.51874682451E+03  0.63317053088E+03  0.12699999809E+01 0.  1.
</event>
<event>
 5   0  0.1951465E-02  0.6969563E+03  0.7818609E-02  0.9722452E-01
       -1   -1    0    0    0  501  0.00000000000E+00  0.00000000000E+00  0.22436446182E+03  0.22436446188E+03  0.50400001928E-02 0.  1.
        1   -1    0    0  501    0  0.00000000000E+00  0.00000000000E+00 -0.54124889094E+03  0.54124889096E+03  0.50400001928E-02 0. -1.
    10030    2    1    2    0    0  0.00000000000E+00  0.00000000000E+00 -0.31688442912E+03  0.76561335284E+03  0.69695628602E+03 0.  0.
        4    1    3    3  502    0  0.35497829479E+02  0.30034785894E+03 -0.34860334934E+03  0.46151364047E+03  0.12699999809E+01 0.  1.
       -4    1    3    3    0  502 -0.35497829479E+02 -0.30034785894E+03  0.31718920221E+02  0.30409971237E+03  0.12699999809E+01 0. -1.
</event>
<event>
 5   0  0.3183963E-02  0.7004008E+03  0.7818609E-02  0.9716547E-01
        2   -1    0    0  501    0  0.00000000000E+00  0.00000000000E+00  0.61482754114E+03  0.61482754114E+03  0.25500000920E-02 0. -1.
       -2   -1    0    0    0  501  0.00000000000E+00  0.00000000000E+00 -0.19947109141E+03  0.19947109143E+03  0.25500000920E-02 0.  1.
    10030    2    1    2    0    0  0.00000000000E+00  0.00000000000E+00  0.41535644973E+03  0.81429863257E+03  0.70040080145E+03 0.  0.
        4    1    3    3  502    0 -0.11581434029E+03 -0.30479071630E+03  0.59115988235E+02  0.33137087248E+03  0.12699999809E+01 0.  1.
       -4    1    3    3    0  502  0.11581434029E+03  0.30479071630E+03  0.35624046149E+03  0.48292776009E+03  0.12699999809E+01 0. -1.
</event>
<event>
 5   0  0.1839038E-02  0.7059603E+03  0.7818609E-02  0.9707093E-01
       -1   -1    0    0    0  501  0.00000000000E+00  0.00000000000E+00  0.12437569911E+03  0.12437569921E+03  0.50400001928E-02 0.  1.
        1   -1    0    0  501    0  0.00000000000E+00  0.00000000000E+00 -0.10017631589E+04  0.10017631589E+04  0.50400001928E-02 0. -1.
    10030    2    1    2    0    0  0.00000000000E+00  0.00000000000E+00 -0.87738745977E+03  0.11261388581E+04  0.70596031984E+03 0.  0.
        5    1    3    3  502    0 -0.31046730785E+03  0.16644638026E+03 -0.47358994193E+03  0.59025746064E+03  0.46999998093E+01 0. -1.
       -5    1    3    3    0  502  0.31046730785E+03 -0.16644638026E+03 -0.40379751784E+03  0.53588139747E+03  0.46999998093E+01 0.  1.
</event>
<event>
 5   0  0.3113940E-02  0.6923090E+03  0.7818609E-02  0.9730476E-01
        2   -1    0    0  501    0  0.00000000000E+00  0.00000000000E+00  0.31359340627E+03  0.31359340628E+03  0.25500000920E-02 0.  1.
       -2   -1    0    0    0  501  0.00000000000E+00  0.00000000000E+00 -0.38209648138E+03  0.38209648139E+03  0.25500000920E-02 0. -1.
    10030    2    1    2    0    0  0.00000000000E+00  0.00000000000E+00 -0.68503075114E+02  0.69568988767E+03  0.69230899786E+03 0.  0.
        5    1    3    3  502    0 -0.59919377878E+02  0.32610491016E+03  0.65561789906E+02  0.33801654186E+03  0.46999998093E+01 0. -1.
       -5    1    3    3    0  502  0.59919377878E+02 -0.32610491016E+03 -0.13406486502E+03  0.35767334582E+03  0.46999998093E+01 0.  1.
</event>
<event>
 5   0  0.3290656E-02  0.6894743E+03  0.7818609E-02  0.9735404E-01
       -2   -1    0    0    0  501  0.00000000000E+00  0.00000000000E+00  0.83963395052E+02  0.83963395091E+02  0.25500000920E-02 0. -1.
        2   -1    0    0  501    0  0.00000000000E+00  0.00000000000E+00 -0.14154227157E+04  0.14154227157E+04  0.25500000920E-02 0.  1.
    10030    2    1    2    0    0  0.00000000000E+00  0.00000000000E+00 -0.13314593207E+04  0.14993861108E+04  0.68947428285E+03 0.  0.
        1    1    3    3  502    0  0.30875673215E+03  0.99339624912E+02 -0.91975443191E+03  0.97526780721E+03  0.50400001928E-02 0.  1.
       -1    1    3    3    0  502 -0.30875673215E+03 -0.99339624912E+02 -0.41170488876E+03  0.52411830361E+03  0.50400001928E-02 0. -1.
</event>
<event>
 5   0  0.1884172E-02  0.6905450E+03  0.7818609E-02  0.9733539E-01
        1   -1    0    0  501    0  0.00000000000E+00  0.00000000000E+00  0.52647487281E+03  0.52647487284E+03  0.50400001928E-02 0. -1.
       -1   -1    0    0    0  501  0.00000000000E+00  0.00000000000E+00 -0.22643645513E+03  0.22643645519E+03  0.50400001928E-02 0.  1.
    10030    2    1    2    0    0  0.00000000000E+00  0.00000000000E+00  0.30003841768E+03  0.75291132802E+03  0.69054501358E+03 0.  0.
        3    1    3    3  502    0 -0.14710228048E+03 -0.28109681625E+03  0.29855268954E+03  0.43564689791E+03  0.10100000352E+00 0. -1.
       -3    1    3    3    0  502  0.14710228048E+03  0.28109681625E+03  0.14857281453E+01  0.31726443011E+03  0.10100000352E+00 0.  1.
</event>
<event>
 5   0  0.1233912E-02  0.6993052E+03  0.7818609E-02  0.9718421E-01
       -3   -1    0    0    0  501  0.00000000000E+00  0.00000000000E+00  0.24772985761E+03  0.24772987820E+03  0.10100000352E+00 0.  1.
        3   -1    0    0  501    0  0.00000000000E+00  0.00000000000E+00 -0.49350912750E+03  0.49350913783E+03  0.10100000352E+00 0. -1.
    10030    2    1    2    0    0  0.00000000000E+00  0.00000000000E+00 -0.24577926989E+03  0.74123901603E+03  0.69930524764E+03 0.  0.
        3    1    3    3  502    0  0.22641683276E+03  0.60417579431E+02  0.15217499592E+03  0.27941386087E+03  0.10100000352E+00 0.  1.
       -3    1    3    3    0  502 -0.22641683276E+03 -0.60417579431E+02 -0.39795426581E+03  0.46182515516E+03  0.10100000352E+00 0. -1.
</event>
<event>
 5   0  0.1858013E-02  0.6978605E+03  0.7818609E-02  0.9720898E-01
       -1   -1    0    0    0  501  0.00000000000E+00  0.00000000000E+00  0.10587312262E+03  0.10587312274E+03  0.50400001928E-02 0.  1.
        1   -1    0    0  501    0  0.00000000000E+00  0.00000000000E+00 -0.11499832398E+04  0.11499832398E+04  0.50400001928E-02 0. -1.
    10030    2    1    2    0    0  0.00000000000E+00  0.00000000000E+00 -0.10441101172E+04  0.12558563625E+04  0.69786049219E+03 0.  0.
        2    1    3    3  502    0 -0.23172619473E+03 -0.43239785973E+02 -0.59084749632E+02  0.24301793362E+03  0.25500000920E-02 0.  1.
       -2    1    3    3    0  502  0.23172619473E+03  0.43239785973E+02 -0.98502536754E+03  0.10128384289E+04  0.25500000920E-02 0. -1.
</event>
<event>
 5   0  0.1951465E-02  0.7037994E+03  0.7818609E-02  0.9710757E-01
       -1   -1    0    0    0  501  0.00000000000E+00  0.00000000000E+00  0.31529233480E+03  0.31529233484E+03  0.50400001928E-02 0.  1.
        1   -1    0    0  501    0  0.00000000000E+00  0.00000000000E+00 -0.39275745557E+03  0.39275745560E+03  0.50400001928E-02 0. -1.
    10030    2    1    2    0    0  0.00000000000E+00  0.00000000000E+00 -0.77465120768E+02  0.70804979045E+03  0.70379944645E+03 0.  0.
        4    1    3    3  502    0 -0.16771726468E+03  0.28275432270E+03  0.87535229131E+02  0.34021040125E+03  0.12699999809E+01 0. -1.
       -4    1    3    3    0  502  0.16771726468E+03 -0.28275432270E+03 -0.16500034990E+03  0.36783938920E+03  0.12699999809E+01 0.  1.
</event>
<event>
 5   0  0.1951465E-02  0.6992807E+03  0.7818609E-02  0.9718463E-01
        1   -1    0    0  501    0  0.00000000000E+00  0.00000000000E+00  0.39165881075E+03  0.39165881078E+03  0.50400001928E-02 0. -1.
       -1   -1    0    0    0  501  0.00000000000E+00  0.00000000000E+00 -0.31212980340E+03  0.31212980344E+03  0.50400001928E-02 0.  1.
    10030    2    1    2    0    0  0.00000000000E+00  0.00000000000E+00  0.79529007348E+02  0.70378861422E+03  0.69928073797E+03 0.  0.
        4    1    3    3  502    0  0.42236321125E+02 -0.34676939211E+03  0.25046395252E+02  0.35023114216E+03  0.12699999809E+01 0. -1.
       -4    1    3    3    0  502 -0.42236321125E+02  0.34676939211E+03  0.54482612096E+02  0.35355747205E+03  0.12699999809E+01 0.  1.
</event>
<event>
 5   0  0.1969818E-02  0.8090999E+03  0.7818609E-02  0.9546938E-01
        1   -1    0    0  501    0  0.00000000000E+00  0.00000000000E+00  0.16936096958E+04  0.16936096958E+04  0.50400001928E-02 0. -1.
       -1   -1    0    0    0  501  0.00000000000E+00  0.00000000000E+00 -0.96634236801E+02  0.96634236932E+02  0.50400001928E-02 0.  1.
    10030    2    1    2    0    0  0.00000000000E+00  0.00000000000E+00  0.15969754590E+04  0.17902439328E+04  0.80909994566E+03 0.  0.
        1    1    3    3  502    0 -0.27049461523E+03  0.24119860454E+03  0.40072625766E+03  0.54030143189E+03  0.50400001928E-02 0.  1.
       -1    1    3    3    0  502  0.27049461523E+03 -0.24119860454E+03  0.11962492014E+04  0.12499425009E+04  0.50400001928E-02 0. -1.
</event>
<event>
 5   0  0.3113940E-02  0.7009116E+03  0.7818609E-02  0.9715675E-01
       -2   -1    0    0    0  501  0.00000000000E+00  0.00000000000E+00  0.47228697702E+03  0.47228697703E+03  0.25500000920E-02 0.  1.
        2   -1    0    0  501    0  0.00000000000E+00  0.00000000000E+00 -0.26005218428E+03  0.26005218429E+03  0.25500000920E-02 0. -1.
    10030    2    1    2    0    0  0.00000000000E+00  0.00000000000E+00  0.21223479274E+03  0.73233916132E+03  0.70091157785E+03 0.  0.
        5    1    3    3  502    0 -0.69121968616E+02  0.90206644453E+02 -0.24023043267E+03  0.26579660650E+03  0.46999998093E+01 0. -1.
       -5    1    3    3    0  502  0.69121968616E+02 -0.90206644453E+02  0.45246522541E+03  0.46654255482E+03  0.46999998093E+01 0.  1.
</event>
<event>
 5   0  0.2933851E-02  0.7008289E+03  0.7818609E-02  0.9715816E-01
        2   -1    0    0  501    0  0.00000000000E+00  0.00000000000E+00  0.51059376558E+03  0.51059376559E+03  0.25500000920E-02 0.  1.
       -2   -1    0    0    0  501  0.00000000000E+00  0.00000000000E+00 -0.24048529384E+03  0.24048529386E+03  0.25500000920E-02 0. -1.
    10030    2    1    2    0    0  0.00000000000E+00  0.00000000000E+00  0.27010847174E+03  0.75107905944E+03  0.70082891424E+03 0.  0.
        2    1    3    3  502    0  0.28541114901E+03  0.14160886566E+03  0.29138194075E+03  0.43175922714E+03  0.25500000920E-02 0.  1.
       -2    1    3    3    0  502 -0.28541114901E+03 -0.14160886566E+03 -0.21273469017E+02  0.31931983231E+03  0.25500000920E-02 0. -1.
</event>
<event>
 5   0  0.1858013E-02  0.6980484E+03  0.7818609E-02  0.9720575E-01
       -1   -1    0    0    0  501  0.00000000000E+00  0.00000000000E+00  0.18423839811E+03  0.18423839818E+03  0.50400001928E-02 0.  1.
        1   -1    0    0  501    0  0.00000000000E+00  0.00000000000E+00 -0.66119712497E+03  0.66119712499E+03  0.50400001928E-02 0. -1.
    10030    2    1    2    0    0  0.00000000000E+00  0.00000000000E+00 -0.47695872686E+03  0.84543552316E+03  0.69804842002E+03 0.  0.
        2    1    3    3  502    0 -0.23140114790E+03 -0.10154833938E+02  0.77738306825E+02  0.24432121532E+03  0.25500000920E-02 0.  1.
       -2    1    3    3    0  502  0.23140114790E+03  0.10154833938E+02 -0.55469703368E+03  0.60111430784E+03  0.25500000920E-02 0. -1.
</event>
<event>
 5   0  0.1969818E-02  0.6966532E+03  0.7818609E-02  0.9722973E-01
       -1   -1    0    0    0  501  0.00000000000E+00  0.00000000000E+00  0.94066290158E+02  0.94066290293E+02  0.50400001928E-02 0.  1.
        1   -1    0    0  501    0  0.00000000000E+00  0.00000000000E+00 -0.12898500361E+04  0.12898500361E+04  0.50400001928E-02 0. -1.
    10030    2    1    2    0    0  0.00000000000E+00  0.00000000000E+00 -0.11957837459E+04  0.13839163264E+04  0.69665316436E+03 0.  0.
        1    1    3    3  502    0 -0.19884651396E+03 -0.27571237710E+03 -0.44694034745E+03  0.56152731474E+03  0.50400001928E-02 0. -1.
       -1    1    3    3    0  502  0.19884651396E+03  0.27571237710E+03 -0.74884339846E+03  0.82238901162E+03  0.50400001928E-02 0.  1.
</event>
<event>
 5   0  0.1884172E-02  0.6990762E+03  0.7818609E-02  0.9718813E-01
        1   -1    0    0  501    0  0.00000000000E+00  0.00000000000E+00  0.10087795030E+04  0.10087795031E+04  0.50400001928E-02 0.  1.
       -1   -1    0    0    0  501  0.00000000000E+00  0.00000000000E+00 -0.12111355935E+03  0.12111355946E+03  0.50400001928E-02 0. -1.
    10030    2    1    2    0    0  0.00000000000E+00  0.00000000000E+00  0.88766594369E+03  0.11298930625E+04  0.69907617978E+03 0.  0.
        3    1    3    3  502    0 -0.98004973522E+02  0.28494306744E+03  0.15752414514E+03  0.34001675403E+03  0.10100000352E+00 0. -1.
       -3    1    3    3    0  502  0.98004973522E+02 -0.28494306744E+03  0.73014179856E+03  0.78987630849E+03  0.10100000352E+00 0.  1.
</event>
<event>
 5   0  0.1969818E-02  0.7028130E+03  0.7818609E-02  0.9712434E-01
        1   -1    0    0  501    0  0.00000000000E+00  0.00000000000E+00  0.10477918759E+04  0.10477918759E+04  0.50400001928E-02 0. -1.
       -1   -1    0    0    0  501  0.00000000000E+00  0.00000000000E+00 -0.11785407794E+03  0.11785407805E+03  0.50400001928E-02 0.  1.
    10030    2    1    2    0    0  0.00000000000E+00  0.00000000000E+00  0.92993779793E+03  0.11656459539E+04  0.70281304903E+03 0.  0.
        1    1    3    3  502    0  0.12751462738E+03 -0.78484057053E+02  0.99223656606E+03  0.10034705429E+04  0.50400001928E-02 0. -1.
       -1    1    3    3    0  502 -0.12751462738E+03  0.78484057053E+02 -0.62298768131E+02  0.16217541103E+03  0.50400001928E-02 0.  1.
</event>
<event>
 5   0  0.1951465E-02  0.7197567E+03  0.7818609E-02  0.9684030E-01
       -1   -1    0    0    0  501  0.00000000000E+00  0.00000000000E+00  0.10461267422E+03  0.10461267434E+03  0.50400001928E-02 0. -1.
        1   -1    0    0  501    0  0.00000000000E+00  0.00000000000E+00 -0.12380184900E+04  0.12380184900E+04  0.50400001928E-02 0.  1.
    10030    2    1    2    0    0  0.00000000000E+00  0.00000000000E+00 -0.11334058158E+04  0.13426311644E+04  0.71975669518E+03 0.  0.
        4    1    3    3  502    0 -0.11549083472E+03  0.34061702776E+02 -0.11993237467E+04  0.12053536388E+04  0.12699999809E+01 0.  1.
       -4    1    3    3    0  502  0.11549083472E+03 -0.34061702776E+02  0.65917930867E+02  0.13727752551E+03  0.12699999809E+01 0. -1.
</event>
<event>
 5   0  0.1951465E-02  0.7277756E+03  0.7818609E-02  0.9670877E-01
        1   -1    0    0  501    0  0.00000000000E+00  0.00000000000E+00  0.67999569541E+03  0.67999569543E+03  0.50400001928E-02 0. -1.
       -1   -1    0    0    0  501  0.00000000000E+00  0.00000000000E+00 -0.19472819173E+03  0.19472819180E+03  0.50400001928E-02 0.  1.
    10030    2    1    2    0    0  0.00000000000E+00  0.00000000000E+00  0.48526750368E+03  0.87472388722E+03  0.72777560330E+03 0.  0.
        4    1    3    3  502    0  0.11537929773E+03  0.32592871825E+03  0.10627708013E+03  0.36171583098E+03  0.12699999809E+01 0.  1.
       -4    1    3    3    0  502 -0.11537929773E+03 -0.32592871825E+03  0.37899042355E+03  0.51300805624E+03  0.12699999809E+01 0. -1.
</event>
<event>
 5   0  0.1884172E-02  0.6913767E+03  0.7818609E-02  0.9732094E-01
        1   -1    0    0  501    0  0.00000000000E+00  0.00000000000E+00  0.18889936016E+03  0.18889936023E+03  0.50400001928E-02 0. -1.
       -1   -1    0    0    0  501  0.00000000000E+00  0.00000000000E+00 -0.63261431848E+03  0.63261431850E+03  0.50400001928E-02 0.  1.
    10030    2    1    2    0    0  0.00000000000E+00  0.00000000000E+00 -0.44371495832E+03  0.82151367872E+03  0.69137671359E+03 0.  0.
        3    1    3    3  502    0  0.18803891390E+03  0.56153606995E+02  0.11629448488E+03  0.22811461622E+03  0.10100000352E+00 0. -1.
       -3    1    3    3    0  502 -0.18803891390E+03 -0.56153606995E+02 -0.56000944319E+03  0.59339906251E+03  0.10100000352E+00 0.  1.
</event>
<event>
 5   0  0.2933851E-02  0.6981131E+03  0.7818609E-02  0.9720465E-01
        2   -1    0    0  501    0  0.00000000000E+00  0.00000000000E+00  0.86067547464E+03  0.86067547465E+03  0.25500000920E-02 0.  1.
       -2   -1    0    0    0  501  0.00000000000E+00  0.00000000000E+00 -0.14156377565E+03  0.14156377568E+03  0.25500000920E-02 0. -1.
    10030    2    1    2    0    0  0.00000000000E+00  0.00000000000E+00  0.71911169899E+03  0.10022392503E+04  0.69811308487E+03 0.  0.
        2    1    3    3  502    0 -0.22799936518E+02 -0.27854460580E+03  0.59326654625E+02  0.28570366900E+03  0.25500000920E-02 0. -1.
       -2    1    3    3    0  502  0.22799936518E+02  0.27854460580E+03  0.65978504437E+03  0.71653558132E+03  0.25500000920E-02 0.  1.
</event>
<event>
 5   0  0.1839038E-02  0.6930074E+03  0.7818609E-02  0.9729266E-01
        1   -1    0    0  501    0  0.00000000000E+00  0.00000000000E+00  0.26372342942E+03  0.26372342946E+03  0.50400001928E-02 0. -1.
       -1   -1    0    0    0  501  0.00000000000E+00  0.00000000000E+00 -0.45526787412E+03  0.45526787415E+03  0.50400001928E-02 0.  1.
    10030    2    1    2    0    0  0.00000000000E+00  0.00000000000E+00 -0.19154444470E+03  0.71899130361E+03  0.69300737397E+03 0.  0.
        5    1    3    3  502    0 -0.14123580021E+03 -0.31130428063E+03 -0.37222147226E+02  0.34389749148E+03  0.46999998093E+01 0. -1.
       -5    1    3    3    0  502  0.14123580021E+03  0.31130428063E+03 -0.15432229748E+03  0.37509381213E+03  0.46999998093E+01 0.  1.
</event>
<event>
 5   0  0.3290656E-02  0.6977070E+03  0.7818609E-02  0.9721162E-01
       -2   -1    0    0    0  501  0.00000000000E+00  0.00000000000E+00  0.17735705001E+03  0.17735705003E+03  0.25500000920E-02 0. -1.
        2   -1    0    0  501    0  0.00000000000E+00  0.00000000000E+00 -0.68617951428E+03  0.68617951429E+03  0.25500000920E-02 0.  1.
    10030    2    1    2    0    0  0.00000000000E+00  0.00000000000E+00 -0.50882246428E+03  0.86353656431E+03  0.69770702860E+03 0.  0.
        1    1    3    3  502    0 -0.16704273507E+03 -0.26650307322E+03 -0.44118011104E+03  0.54181828483E+03  0.50400001928E-02 0. -1.
       -1    1    3    3    0  502  0.16704273507E+03  0.26650307322E+03 -0.67642353237E+02  0.32171827948E+03  0.50400001928E-02 0.  1.
</event>
<event>
 5   0  0.1884172E-02  0.6952342E+03  0.7818609E-02  0.9725417E-01
        1   -1    0    0  501    0  0.00000000000E+00  0.00000000000E+00  0.40843661403E+03  0.40843661406E+03  0.50400001928E-02 0.  1.
       -1   -1    0    0    0  501  0.00000000000E+00  0.00000000000E+00 -0.29585411693E+03  0.29585411698E+03  0.50400001928E-02 0. -1.
    10030    2    1    2    0    0  0.00000000000E+00  0.00000000000E+00  0.11258249710E+03  0.70429073104E+03  0.69523421605E+03 0.  0.
        3    1    3    3  502    0  0.98572521837E+02  0.28075916586E+03 -0.12575893338E+03  0.32304422422E+03  0.10100000352E+00 0. -1.
       -3    1    3    3    0  502 -0.98572521837E+02 -0.28075916586E+03  0.23834143047E+03  0.38124650681E+03  0.10100000352E+00 0.  1.
</event>
<event>
 5   0  0.3290656E-02  0.7034189E+03  0.7818609E-02  0.9711403E-01
        2   -1    0    0  501    0  0.00000000000E+00  0.00000000000E+00  0.52767682763E+03  0.52767682763E+03  0.25500000920E-02 0. -1.
       -2   -1    0    0    0  501  0.00000000000E+00  0.00000000000E+00 -0.23442287870E+03  0.23442287871E+03  0.25500000920E-02 0.  1.
    10030    2    1    2    0    0  0.00000000000E+00  0.00000000000E+00  0.29325394893E+03  0.76209970635E+03  0.70341885378E+03 0.  0.
        1    1    3    3  502    0 -0.23612818701E+03 -0.66991941397E+02 -0.12629027632E+03  0.27603201777E+03  0.50400001928E-02 0.  1.
       -1    1    3    3    0  502  0.23612818701E+03  0.66991941397E+02  0.41954422525E+03  0.48606768858E+03  0.50400001928E-02 0. -1.
</event>
<event>
 5   0  0.1969818E-02  0.7015386E+03  0.7818609E-02  0.9714605E-01
       -1   -1    0    0    0  501  0.00000000000E+00  0.00000000000E+00  0.26866373607E+03  0.26866373611E+03  0.50400001928E-02 0. -1.
        1   -1    0    0  501    0  0.00000000000E+00  0.00000000000E+00 -0.45796688919E+03  0.45796688922E+03  0.50400001928E-02 0.  1.
    10030    2    1    2    0    0  0.00000000000E+00  0.00000000000E+00 -0.18930315312E+03  0.72663062533E+03  0.70153858189E+03 0.  0.
        1    1    3    3  502    0 -0.57190975653E+02  0.32309821279E+03 -0.22308600556E+03  0.39677528742E+03  0.50400001928E-02 0. -1.
       -1    1    3    3    0  502  0.57190975653E+02 -0.32309821279E+03  0.33782852434E+02  0.32985533791E+03  0.50400001928E-02 0.  1.
</event>
<event>
 5   0  0.3113940E-02  0.7002984E+03  0.7818609E-02  0.9716722E-01
        2   -1    0    0  501    0  0.00000000000E+00  0.00000000000E+00  0.90975092048E+03  0.90975092048E+03  0.25500000920E-02 0.  1.
       -2   -1    0    0    0  501  0.00000000000E+00  0.00000000000E+00 -0.13476706613E+03  0.13476706615E+03  0.25500000920E-02 0. -1.
    10030    2    1    2    0    0  0.00000000000E+00  0.00000000000E+00  0.77498385435E+03  0.10445179866E+04  0.70029840062E+03 0.  0.
        5    1    3    3  502    0  0.97986629286E+02  0.22390729144E+03  0.13576487711E+02  0.24483109626E+03  0.46999998093E+01 0. -1.
       -5    1    3    3    0  502 -0.97986629286E+02 -0.22390729144E+03  0.76140736664E+03  0.79968689038E+03  0.46999998093E+01 0.  1.
</event>
<event>
 5   0  0.1858013E-02  0.7177033E+03  0.7818609E-02  0.9687427E-01
        1   -1    0    0  501    0  0.00000000000E+00  0.00000000000E+00  0.18605533145E+03  0.18605533152E+03  0.50400001928E-02 0.  1.
       -1   -1    0    0    0  501  0.00000000000E+00  0.00000000000E+00 -0.69213013305E+03  0.69213013307E+03  0.50400001928E-02 0. -1.
    10030    2    1    2    0    0  0.00000000000E+00  0.00000000000E+00 -0.50607480160E+03  0.87818546458E+03  0.71770328506E+03 0.  0.
        2    1    3    3  502    0  0.11450342403E+02  0.25984462886E+03 -0.55555299159E+03  0.61342437835E+03  0.25500000920E-02 0. -1.
       -2    1    3    3    0  502 -0.11450342403E+02 -0.25984462886E+03  0.49478189990E+02  0.26476108623E+03  0.25500000920E-02 0.  1.
</event>
<event>
 5   0  0.3184443E-02  0.7007072E+03  0.7818609E-02  0.9716024E-01
        2   -1    0    0  501    0  0.00000000000E+00  0.00000000000E+00  0.67004676202E+03  0.67004676203E+03  0.25500000920E-02 0.  1.
       -2   -1    0    0    0  501  0.00000000000E+00  0.00000000000E+00 -0.18319265327E+03  0.18319265329E+03  0.25500000920E-02 0. -1.
    10030    2    1    2    0    0  0.00000000000E+00  0.00000000000E+00  0.48685410876E+03  0.85323941532E+03  0.70070719751E+03 0.  0.
        3    1    3    3  502    0 -0.15683324359E+03 -0.14074568915E+03 -0.97397284672E+02  0.23214705807E+03  0.10100000352E+00 0. -1.
       -3    1    3    3    0  502  0.15683324359E+03  0.14074568915E+03  0.58425139343E+03  0.62109235725E+03  0.10100000352E+00 0.  1.
</event>
<event>
 5   0  0.2933851E-02  0.6970245E+03  0.7818609E-02  0.9722334E-01
        2   -1    0    0  501    0  0.00000000000E+00  0.00000000000E+00  0.85905554597E+03  0.85905554598E+03  0.25500000920E-02 0.  1.
       -2   -1    0    0    0  501  0.00000000000E+00  0.00000000000E+00 -0.14138876399E+03  0.14138876402E+03  0.25500000920E-02 0. -1.
    10030    2    1    2    0    0  0.00000000000E+00  0.00000000000E+00  0.71766678198E+03  0.10004443100E+04  0.69702453862E+03 0.  0.
        2    1    3    3  502    0  0.24346040426E+03 -0.12832299596E+03  0.66573764712E+03  0.72037932684E+03  0.25500000920E-02 0.  1.
       -2    1    3    3    0  502 -0.24346040426E+03  0.12832299596E+03  0.51929134858E+02  0.28006498316E+03  0.25500000920E-02 0. -1.
</event>
<event>
 5   0  0.1233912E-02  0.7058992E+03  0.7818609E-02  0.9707197E-01
       -4   -1    0    0    0  501  0.00000000000E+00  0.00000000000E+00  0.33283869643E+03  0.33284111937E+03  0.12699999809E+01 0. -1.
        4   -1    0    0  501    0  0.00000000000E+00  0.00000000000E+00 -0.37427083586E+03  0.37427299057E+03  0.12699999809E+01 0.  1.
    10030    2    1    2    0    0  0.00000000000E+00  0.00000000000E+00 -0.41432139421E+02  0.70711410994E+03  0.70589924373E+03 0.  0.
        3    1    3    3  502    0  0.25845961947E+02 -0.32825688665E+03  0.10659643749E+03  0.34609739680E+03  0.10100000352E+00 0. -1.
       -3    1    3    3    0  502 -0.25845961947E+02  0.32825688665E+03 -0.14802857691E+03  0.36101671314E+03  0.10100000352E+00 0.  1.
</event>
<event>
 5   0  0.3113940E-02  0.7157568E+03  0.7818609E-02  0.9690659E-01
        2   -1    0    0  501    0  0.00000000000E+00  0.00000000000E+00  0.20461792851E+04  0.20461792851E+04  0.25500000920E-02 0. -1.
       -2   -1    0    0    0  501  0.00000000000E+00  0.00000000000E+00 -0.62593226378E+02  0.62593226430E+02  0.25500000920E-02 0.  1.
    10030    2    1    2    0    0  0.00000000000E+00  0.00000000000E+00  0.19835860587E+04  0.21087725115E+04  0.71575683931E+03 0.  0.
        5    1    3    3  502    0  0.13508111273E+03  0.33131954145E+03  0.10093044696E+04  0.10708581362E+04  0.46999998093E+01 0. -1.
       -5    1    3    3    0  502 -0.13508111273E+03 -0.33131954145E+03  0.97428158906E+03  0.10379143752E+04  0.46999998093E+01 0.  1.
</event>
<event>
 5   0  0.3113940E-02  0.7022326E+03  0.7818609E-02  0.9713422E-01
        2   -1    0    0  501    0  0.00000000000E+00  0.00000000000E+00  0.96984151023E+03  0.96984151024E+03  0.25500000920E-02 0. -1.
       -2   -1    0    0    0  501  0.00000000000E+00  0.00000000000E+00 -0.12711628464E+03  0.12711628467E+03  0.25500000920E-02 0.  1.
    10030    2    1    2    0    0  0.00000000000E+00  0.00000000000E+00  0.84272522559E+03  0.10969577949E+04  0.70223258110E+03 0.  0.
        5    1    3    3  502    0  0.19311478758E+03  0.26173023028E+03  0.62779951369E+03  0.70707167530E+03  0.46999998093E+01 0. -1.
       -5    1    3    3    0  502 -0.19311478758E+03 -0.26173023028E+03  0.21492571190E+03  0.38988611960E+03  0.46999998093E+01 0.  1.
</event>
<event>
 5   0  0.3184443E-02  0.7480159E+03  0.7818609E-02  0.9638468E-01
       -2   -1    0    0    0  501  0.00000000000E+00  0.00000000000E+00  0.32985103034E+03  0.32985103035E+03  0.25500000920E-02 0.  1.
        2   -1    0    0  501    0  0.00000000000E+00  0.00000000000E+00 -0.42407617859E+03  0.42407617860E+03  0.25500000920E-02 0. -1.
    10030    2    1    2    0    0  0.00000000000E+00  0.00000000000E+00 -0.94225148251E+02  0.75392720894E+03  0.74801594757E+03 0.  0.
        3    1    3    3  502    0 -0.18160141109E+03 -0.14756549740E+03 -0.34118411973E+03  0.41371640322E+03  0.10100000352E+00 0. -1.
       -3    1    3    3    0  502  0.18160141109E+03  0.14756549740E+03  0.24695897148E+03  0.34021080572E+03  0.10100000352E+00 0.  1.
</event>
<event>
 5   0  0.3290656E-02  0.6942109E+03  0.7818609E-02  0.9727184E-01
        2   -1    0    0  501    0  0.00000000000E+00  0.00000000000E+00  0.10614843197E+04  0.10614843197E+04  0.25500000920E-02 0. -1.
       -2   -1    0    0    0  501  0.00000000000E+00  0.00000000000E+00 -0.11350350701E+03  0.11350350704E+03  0.25500000920E-02 0.  1.
    10030    2    1    2    0    0  0.00000000000E+00  0.00000000000E+00  0.94798081266E+03  0.11749878267E+04  0.69421089860E+03 0.  0.
        1    1    3    3  502    0 -0.24462253284E+03  0.16627045575E+03  0.16654108366E+03  0.33944363391E+03  0.50400001928E-02 0.  1.
       -1    1    3    3    0  502  0.24462253284E+03 -0.16627045575E+03  0.78143972899E+03  0.83554419279E+03  0.50400001928E-02 0. -1.
</event>
<event>
 5   0  0.1839038E-02  0.6954313E+03  0.7818609E-02  0.9725077E-01
        1   -1    0    0  501    0  0.00000000000E+00  0.00000000000E+00  0.22586624108E+03  0.22586624114E+03  0.50400001928E-02 0.  1.
       -1   -1    0    0    0  501  0.00000000000E+00  0.00000000000E+00 -0.53529987717E+03  0.53529987719E+03  0.50400001928E-02 0. -1.
    10030    2    1    2    0    0  0.00000000000E+00  0.00000000000E+00 -0.30943363608E+03  0.76116611833E+03  0.69543129392E+03 0.  0.
        5    1    3    3  502    0 -0.85181710113E+02  0.19395076504E+03  0.14704492467E+03  0.25790913684E+03  0.46999998093E+01 0.  1.
       -5    1    3    3    0  502  0.85181710113E+02 -0.19395076504E+03 -0.45647856075E+03  0.50325698149E+03  0.46999998093E+01 0. -1.
</event>
<event>
 5   0  0.1969818E-02  0.7010853E+03  0.7818609E-02  0.9715378E-01
        1   -1    0    0  501    0  0.00000000000E+00  0.00000000000E+00  0.63676856886E+03  0.63676856888E+03  0.50400001928E-02 0.  1.
       -1   -1    0    0    0  501  0.00000000000E+00  0.00000000000E+00 -0.19297457985E+03  0.19297457992E+03  0.50400001928E-02 0. -1.
    10030    2    1    2    0    0  0.00000000000E+00  0.00000000000E+00  0.44379398901E+03  0.82974314880E+03  0.70108529317E+03 0.  0.
        1    1    3    3  502    0 -0.19987583378E+03 -0.28238174292E+03  0.15504845218E+03  0.37911715895E+03  0.50400001928E-02 0.  1.
       -1    1    3    3    0  502  0.19987583378E+03  0.28238174292E+03  0.28874553683E+03  0.45062598985E+03  0.50400001928E-02 0. -1.
</event>
<event>
 5   0  0.1233912E-02  0.7029903E+03  0.7818609E-02  0.9712132E-01
       -3   -1    0    0    0  501  0.00000000000E+00  0.00000000000E+00  0.39471105756E+02  0.39471234976E+02  0.10100000352E+00 0.  1.
        3   -1    0    0  501    0  0.00000000000E+00  0.00000000000E+00 -0.31301034763E+04  0.31301034779E+04  0.10100000352E+00 0. -1.
    10030    2    1    2    0    0  0.00000000000E+00  0.00000000000E+00 -0.30906323705E+04  0.31695747129E+04  0.70299033481E+03 0.  0.
        1    1    3    3  502    0  0.18855214136E+03  0.25932207951E+03 -0.89585942329E+03  0.95150615198E+03  0.50400001928E-02 0.  1.
       -1    1    3    3    0  502 -0.18855214136E+03 -0.25932207951E+03 -0.21947729472E+04  0.22180685609E+04  0.50400001928E-02 0. -1.
</event>
<event>
 5   0  0.2933851E-02  0.7008972E+03  0.7818609E-02  0.9715699E-01
       -2   -1    0    0    0  501  0.00000000000E+00  0.00000000000E+00  0.98459219394E+02  0.98459219427E+02  0.25500000920E-02 0. -1.
        2   -1    0    0  501    0  0.00000000000E+00  0.00000000000E+00 -0.12473611718E+04  0.12473611718E+04  0.25500000920E-02 0.  1.
    10030    2    1    2    0    0  0.00000000000E+00  0.00000000000E+00 -0.11489019524E+04  0.13458203912E+04  0.70089716023E+03 0.  0.
        2    1    3    3  502    0  0.15808261367E+03 -0.19884381391E+03 -0.10380175036E+04  0.10686483579E+04  0.25500000920E-02 0.  1.
       -2    1    3    3    0  502 -0.15808261367E+03  0.19884381391E+03 -0.11088444886E+03  0.27717203337E+03  0.25500000920E-02 0. -1.
</event>
<event>
 5   0  0.1858013E-02  0.6963967E+03  0.7818609E-02  0.9723414E-01
        1   -1    0    0  501    0  0.00000000000E+00  0.00000000000E+00  0.70398720749E+03  0.70398720751E+03  0.50400001928E-02 0.  1.
       -1   -1    0    0    0  501  0.00000000000E+00  0.00000000000E+00 -0.17222199098E+03  0.17222199106E+03  0.50400001928E-02 0. -1.
    10030    2    1    2    0    0  0.00000000000E+00  0.00000000000E+00  0.53176521650E+03  0.87620919856E+03  0.69639666438E+03 0.  0.
        2    1    3    3  502    0  0.31601796738E+03  0.50080210542E+02  0.43870461516E+03  0.54298906303E+03  0.25500000920E-02 0.  1.
       -2    1    3    3    0  502 -0.31601796738E+03 -0.50080210542E+02  0.93060601340E+02  0.33322013553E+03  0.25500000920E-02 0. -1.
</event>
<event>
 5   0  0.3184443E-02  0.6902013E+03  0.7818609E-02  0.9734137E-01
        2   -1    0    0  501    0  0.00000000000E+00  0.00000000000E+00  0.18502464955E+04  0.18502464955E+04  0.25500000920E-02 0. -1.
       -2   -1    0    0    0  501  0.00000000000E+00  0.00000000000E+00 -0.64366813227E+02  0.64366813278E+02  0.25500000920E-02 0.  1.
    10030    2    1    2    0    0  0.00000000000E+00  0.00000000000E+00  0.17858796823E+04  0.19146133088E+04  0.69020133483E+03 0.  0.
        3    1    3    3  502    0  0.13719092228E+03  0.23779209037E+03  0.31286337036E+03  0.41623301901E+03  0.10100000352E+00 0.  1.
       -3    1    3    3    0  502 -0.13719092228E+03 -0.23779209037E+03  0.14730163119E+04  0.14983802898E+04  0.10100000352E+00 0. -1.
</event>
<event>
 5   0  0.3113940E-02  0.7029072E+03  0.7818609E-02  0.9712273E-01
       -2   -1    0    0    0  501  0.00000000000E+00  0.00000000000E+00  0.71591358200E+02  0.71591358245E+02  0.25500000920E-02 0.  1.
        2   -1    0    0  501    0  0.00000000000E+00  0.00000000000E+00 -0.17253428449E+04  0.17253428449E+04  0.25500000920E-02 0. -1.
    10030    2    1    2    0    0  0.00000000000E+00  0.00000000000E+00 -0.16537514867E+04  0.17969342031E+04  0.70290721341E+03 0.  0.
        5    1    3    3  502    0  0.71673446945E+01 -0.41566169104E+01 -0.17250127745E+04  0.17250390751E+04  0.46999998093E+01 0. -1.
       -5    1    3    3    0  502 -0.71673446945E+01  0.41566169104E+01  0.71261287840E+02  0.71895128048E+02  0.46999998093E+01 0.  1.
</event>
<event>
 5   0  0.1233912E-02  0.6973284E+03  0.7818609E-02  0.9721812E-01
       -3   -1    0    0    0  501  0.00000000000E+00  0.00000000000E+00  0.13337914206E+04  0.13337914245E+04  0.10100000352E+00 0. -1.
        3   -1    0    0  501    0  0.00000000000E+00  0.00000000000E+00 -0.91143704945E+02  0.91143760906E+02  0.10100000352E+00 0.  1.
    10030    2    1    2    0    0  0.00000000000E+00  0.00000000000E+00  0.12426477157E+04  0.14249351854E+04  0.69732842849E+03 0.  0.
        1    1    3    3  502    0 -0.34221181913E+03  0.93584570161E+01  0.75640962970E+03  0.83027226727E+03  0.50400001928E-02 0.  1.
       -1    1    3    3    0  502  0.34221181913E+03 -0.93584570161E+01  0.48623808599E+03  0.59466291810E+03  0.50400001928E-02 0. -1.
</event>
<event>
 5   0  0.1884172E-02  0.6991875E+03  0.7818609E-02  0.9718623E-01
        1   -1    0    0  501    0  0.00000000000E+00  0.00000000000E+00  0.18070022514E+03  0.18070022521E+03  0.50400001928E-02 0.  1.
       -1   -1    0    0    0  501  0.00000000000E+00  0.00000000000E+00 -0.67634556331E+03  0.67634556333E+03  0.50400001928E-02 0. -1.
    10030    2    1    2    0    0  0.00000000000E+00  0.00000000000E+00 -0.49564533817E+03  0.85704578854E+03  0.69918751590E+03 0.  0.
        3    1    3    3  502    0 -0.26189982521E+02 -0.18784462789E+02 -0.67452054745E+03  0.67529012310E+03  0.10100000352E+00 0. -1.
       -3    1    3    3    0  502  0.26189982521E+02  0.18784462789E+02  0.17887520927E+03  0.18175566544E+03  0.10100000352E+00 0.  1.
</event>
<event>
 5   0  0.1839038E-02  0.6978757E+03  0.7818609E-02  0.9720872E-01
        1   -1    0    0  501    0  0.00000000000E+00  0.00000000000E+00  0.64025636791E+03  0.64025636793E+03  0.50400001928E-02 0.  1.
       -1   -1    0    0    0  501  0.00000000000E+00  0.00000000000E+00 -0.19017010690E+03  0.19017010697E+03  0.50400001928E-02 0. -1.
    10030    2    1    2    0    0  0.00000000000E+00  0.00000000000E+00  0.45008626101E+03  0.83042647490E+03  0.69787569657E+03 0.  0.
        5    1    3    3  502    0 -0.11937165038E+03 -0.12782761050E+03  0.58428919715E+03  0.60992249083E+03  0.46999998093E+01 0.  1.
       -5    1    3    3    0  502  0.11937165038E+03  0.12782761050E+03 -0.13420293614E+03  0.22050398406E+03  0.46999998093E+01 0. -1.
</event>
<event>
 5   0  0.3290656E-02  0.6857881E+03  0.7818609E-02  0.9741850E-01
       -2   -1    0    0    0  501  0.00000000000E+00  0.00000000000E+00  0.43630079430E+03  0.43630079430E+03  0.25500000920E-02 0. -1.
        2   -1    0    0  501    0  0.00000000000E+00  0.00000000000E+00 -0.26948456972E+03  0.26948456973E+03  0.25500000920E-02 0.  1.
    10030    2    1    2    0    0  0.00000000000E+00  0.00000000000E+00  0.16681622458E+03  0.70578536404E+03  0.68578810671E+03 0.  0.
        1    1    3    3  502    0  0.25185182042E+03  0.23266054374E+03  0.87532941885E+02  0.35386760802E+03  0.50400001928E-02 0.  1.
       -1    1    3    3    0  502 -0.25185182042E+03 -0.23266054374E+03  0.79283282691E+02  0.35191775602E+03  0.50400001928E-02 0. -1.
</event>
<event>
 5   0  0.3183963E-02  0.6923642E+03  0.7818609E-02  0.9730380E-01
        2   -1    0    0  501    0  0.00000000000E+00  0.00000000000E+00  0.26993540065E+03  0.26993540066E+03  0.25500000920E-02 0.  1.
       -2   -1    0    0    0  501  0.00000000000E+00  0.00000000000E+00 -0.44396567247E+03  0.44396567248E+03  0.25500000920E-02 0. -1.
    10030    2    1    2    0    0  0.00000000000E+00  0.00000000000E+00 -0.17403027183E+03  0.71390107314E+03  0.69236421537E+03 0.  0.
        4    1    3    3  502    0  0.48296485746E+02 -0.97058013133E+02 -0.42600867359E+03  0.43958822928E+03  0.12699999809E+01 0. -1.
       -4    1    3    3    0  502 -0.48296485746E+02  0.97058013133E+02  0.25197840177E+03  0.27431284386E+03  0.12699999809E+01 0.  1.
</event>
<event>
 5   0  0.1233912E-02  0.6939260E+03  0.7818609E-02  0.9727676E-01
       -4   -1    0    0    0  501  0.00000000000E+00  0.00000000000E+00  0.10135500803E+03  0.10136296440E+03  0.12699999809E+01 0. -1.
        4   -1    0    0  501    0  0.00000000000E+00  0.00000000000E+00 -0.11876844686E+04  0.11876851476E+04  0.12699999809E+01 0.  1.
    10030    2    1    2    0    0  0.00000000000E+00  0.00000000000E+00 -0.10863294606E+04  0.12890481120E+04  0.69392603221E+03 0.  0.
        3    1    3    3  502    0  0.34621571302E+03  0.92575611835E+01 -0.50454141486E+03  0.61197473141E+03  0.10100000352E+00 0. -1.
       -3    1    3    3    0  502 -0.34621571302E+03 -0.92575611835E+01 -0.58178804570E+03  0.67707338059E+03  0.10100000352E+00 0.  1.
</event>
<event>
 5   0  0.1858013E-02  0.7222696E+03  0.7818609E-02  0.9679888E-01
        1   -1    0    0  501    0  0.00000000000E+00  0.00000000000E+00  0.69148730041E+03  0.69148730043E+03  0.50400001928E-02 0. -1.
       -1   -1    0    0    0  501  0.00000000000E+00  0.00000000000E+00 -0.18860554449E+03  0.18860554456E+03  0.50400001928E-02 0.  1.
    10030    2    1    2    0    0  0.00000000000E+00  0.00000000000E+00  0.50288175591E+03  0.88009284499E+03  0.72226958635E+03 0.  0.
        2    1    3    3  502    0 -0.32115095318E+03  0.74439635191E+01  0.50386729294E+02  0.32516483484E+03  0.25500000920E-02 0.  1.
       -2    1    3    3    0  502  0.32115095318E+03 -0.74439635191E+01  0.45249502662E+03  0.55492801015E+03  0.25500000920E-02 0. -1.
</event>
<event>
 5   0  0.3113940E-02  0.6949496E+03  0.7818609E-02  0.9725908E-01
       -2   -1    0    0    0  501  0.00000000000E+00  0.00000000000E+00  0.17124790486E+03  0.17124790488E+03  0.25500000920E-02 0. -1.
        2   -1    0    0  501    0  0.00000000000E+00  0.00000000000E+00 -0.70505239600E+03  0.70505239600E+03  0.25500000920E-02 0.  1.
    10030    2    1    2    0    0  0.00000000000E+00  0.00000000000E+00 -0.53380449114E+03  0.87630030088E+03  0.69494962592E+03 0.  0.
        5    1    3    3  502    0  0.14241624525E+03  0.13118526203E+03  0.96866802364E+02  0.21655767658E+03  0.46999998093E+01 0. -1.
       -5    1    3    3    0  502 -0.14241624525E+03 -0.13118526203E+03 -0.63067129350E+03  0.65974262431E+03  0.46999998093E+01 0.  1.
</event>
<event>
 5   0  0.1969818E-02  0.7210474E+03  0.7818609E-02  0.9681900E-01
       -1   -1    0    0    0  501  0.00000000000E+00  0.00000000000E+00  0.20665126816E+03  0.20665126822E+03  0.50400001928E-02 0. -1.
        1   -1    0    0  501    0  0.00000000000E+00  0.00000000000E+00 -0.62896948579E+03  0.62896948581E+03  0.50400001928E-02 0.  1.
    10030    2    1    2    0    0  0.00000000000E+00  0.00000000000E+00 -0.42231821763E+03  0.83562075403E+03  0.72104741011E+03 0.  0.
        1    1    3    3  502    0  0.33351982948E+03 -0.28314320637E+02 -0.55935203154E+02  0.33936105314E+03  0.50400001928E-02 0. -1.
       -1    1    3    3    0  502 -0.33351982948E+03  0.28314320637E+02 -0.36638301447E+03  0.49625970089E+03  0.50400001928E-02 0.  1.
</event>
<event>
 5   0  0.3113940E-02  0.7089574E+03  0.7818609E-02  0.9702035E-01
        2   -1    0    0  501    0  0.00000000000E+00  0.00000000000E+00  0.13212272933E+04  0.13212272933E+04  0.25500000920E-02 0. -1.
       -2   -1    0    0    0  501  0.00000000000E+00  0.00000000000E+00 -0.95104877151E+02  0.95104877185E+02  0.25500000920E-02 0.  1.
    10030    2    1    2    0    0  0.00000000000E+00  0.00000000000E+00  0.12261224161E+04  0.14163321704E+04  0.70895743015E+03 0.  0.
        5    1    3    3  502    0 -0.26539648185E+03 -0.91373507476E+02  0.18065338416E+03  0.33382951585E+03  0.46999998093E+01 0.  1.
       -5    1    3    3    0  502  0.26539648185E+03  0.91373507476E+02  0.10454690319E+04  0.10825026546E+04  0.46999998093E+01 0. -1.
</event>
<event>
 5   0  0.1858013E-02  0.7027705E+03  0.7818609E-02  0.9712506E-01
       -1   -1    0    0    0  501  0.00000000000E+00  0.00000000000E+00  0.18418717283E+03  0.18418717290E+03  0.50400001928E-02 0.  1.
        1   -1    0    0  501    0  0.00000000000E+00  0.00000000000E+00 -0.67035930842E+03  0.67035930844E+03  0.50400001928E-02 0. -1.
    10030    2    1    2    0    0  0.00000000000E+00  0.00000000000E+00 -0.48617213559E+03  0.85454648135E+03  0.70277047701E+03 0.  0.
        2    1    3    3  502    0  0.16048956135E+03 -0.99221769129E+02  0.11736126834E+03  0.22220604421E+03  0.25500000920E-02 0.  1.
       -2    1    3    3    0  502 -0.16048956135E+03  0.99221769129E+02 -0.60353340393E+03  0.63234043713E+03  0.25500000920E-02 0. -1.
</event>
<event>
 5   0  0.3290656E-02  0.6942132E+03  0.7818609E-02  0.9727180E-01
       -2   -1    0    0    0  501  0.00000000000E+00  0.00000000000E+00  0.12810423110E+03  0.12810423112E+03  0.25500000920E-02 0. -1.
        2   -1    0    0  501    0  0.00000000000E+00  0.00000000000E+00 -0.94050762981E+03  0.94050762982E+03  0.25500000920E-02 0.  1.
    10030    2    1    2    0    0  0.00000000000E+00  0.00000000000E+00 -0.81240339872E+03  0.10686118609E+04  0.69421324325E+03 0.  0.
        1    1    3    3  502    0  0.18174944271E+03 -0.13122372429E+02  0.48555271369E+02  0.18858067501E+03  0.50400001928E-02 0. -1.
       -1    1    3    3    0  502 -0.18174944271E+03  0.13122372429E+02 -0.86095867009E+03  0.88003118593E+03  0.50400001928E-02 0.  1.
</event>
<event>
 5   0  0.2933851E-02  0.6686064E+03  0.7818609E-02  0.9772479E-01
        2   -1    0    0  501    0  0.00000000000E+00  0.00000000000E+00  0.90075678462E+03  0.90075678462E+03  0.25500000920E-02 0.  1.
       -2   -1    0    0    0  501  0.00000000000E+00  0.00000000000E+00 -0.12407194142E+03  0.12407194144E+03  0.25500000920E-02 0. -1.
    10030    2    1    2    0    0  0.00000000000E+00  0.00000000000E+00  0.77668484320E+03  0.10248287261E+04  0.66860644037E+03 0.  0.
        2    1    3    3  502    0 -0.17853206090E+03  0.22480212763E+03  0.12575312715E+03  0.31340635340E+03  0.25500000920E-02 0. -1.
       -2    1    3    3    0  502  0.17853206090E+03 -0.22480212763E+03  0.65093171605E+03  0.71142237266E+03  0.25500000920E-02 0.  1.
</event>
<event>
 5   0  0.1233912E-02  0.5927195E+03  0.7818609E-02  0.9920627E-01
        3   -1    0    0  501    0  0.00000000000E+00  0.00000000000E+00  0.51170202809E+03  0.51170203806E+03  0.10100000352E+00 0.  1.
       -3   -1    0    0    0  501  0.00000000000E+00  0.00000000000E+00 -0.17164109926E+03  0.17164112898E+03  0.10100000352E+00 0. -1.
    10030    2    1    2    0    0  0.00000000000E+00  0.00000000000E+00  0.34006092883E+03  0.68334316704E+03  0.59271953623E+03 0.  0.
        2    1    3    3  502    0  0.84166138830E+02  0.33475906199E+01 -0.15754982344E+03  0.17865355345E+03  0.25500000920E-02 0. -1.
       -2    1    3    3    0  502 -0.84166138830E+02 -0.33475906199E+01  0.49761075226E+03  0.50468961359E+03  0.25500000920E-02 0.  1.
</event>
<event>
 5   0  0.1951465E-02  0.8051092E+03  0.7818609E-02  0.9552651E-01
       -1   -1    0    0    0  501  0.00000000000E+00  0.00000000000E+00  0.41927638503E+03  0.41927638506E+03  0.50400001928E-02 0. -1.
        1   -1    0    0  501    0  0.00000000000E+00  0.00000000000E+00 -0.38649969872E+03  0.38649969875E+03  0.50400001928E-02 0.  1.
    10030    2    1    2    0    0  0.00000000000E+00  0.00000000000E+00  0.32776686311E+02  0.80577608381E+03  0.80510917649E+03 0.  0.
        4    1    3    3  502    0  0.32767231425E+02  0.31986335213E+03 -0.22601535638E+03  0.39302774674E+03  0.12699999809E+01 0.  1.
       -4    1    3    3    0  502 -0.32767231425E+02 -0.31986335213E+03  0.25879204269E+03  0.41274833707E+03  0.12699999809E+01 0. -1.
</event>
<event>
 5   0  0.1233912E-02  0.6999349E+03  0.7818609E-02  0.9717343E-01
       -3   -1    0    0    0  501  0.00000000000E+00  0.00000000000E+00  0.24896654948E+03  0.24896656997E+03  0.10100000352E+00 0. -1.
        3   -1    0    0  501    0  0.00000000000E+00  0.00000000000E+00 -0.49194245381E+03  0.49194246418E+03  0.10100000352E+00 0.  1.
    10030    2    1    2    0    0  0.00000000000E+00  0.00000000000E+00 -0.24297590432E+03  0.74090903415E+03  0.69993493040E+03 0.  0.
        4    1    3    3  502    0 -0.22884326735E+03 -0.84330620004E+02 -0.38716821688E+03  0.45758249042E+03  0.12699999809E+01 0. -1.
       -4    1    3    3    0  502  0.22884326735E+03  0.84330620004E+02  0.14419231255E+03  0.28332654372E+03  0.12699999809E+01 0.  1.
</event>
<event>
 5   0  0.3183963E-02  0.6905146E+03  0.7818609E-02  0.9733592E-01
       -2   -1    0    0    0  501  0.00000000000E+00  0.00000000000E+00  0.76078462504E+02  0.76078462547E+02  0.25500000920E-02 0. -1.
        2   -1    0    0  501    0  0.00000000000E+00  0.00000000000E+00 -0.15668375747E+04  0.15668375747E+04  0.25500000920E-02 0.  1.
    10030    2    1    2    0    0  0.00000000000E+00  0.00000000000E+00 -0.14907591122E+04  0.16429160373E+04  0.69051457252E+03 0.  0.
        4    1    3    3  502    0 -0.23884714574E+03  0.53886758105E+02 -0.13245200196E+04  0.13469620027E+04  0.12699999809E+01 0.  1.
       -4    1    3    3    0  502  0.23884714574E+03 -0.53886758105E+02 -0.16623909266E+03  0.29595403453E+03  0.12699999809E+01 0. -1.
</event>
<event>
 5   0  0.3113940E-02  0.7014169E+03  0.7818609E-02  0.9714812E-01
       -2   -1    0    0    0  501  0.00000000000E+00  0.00000000000E+00  0.53922023301E+03  0.53922023301E+03  0.25500000920E-02 0.  1.
        2   -1    0    0  501    0  0.00000000000E+00  0.00000000000E+00 -0.22810054074E+03  0.22810054076E+03  0.25500000920E-02 0. -1.
    10030    2    1    2    0    0  0.00000000000E+00  0.00000000000E+00  0.31111969227E+03  0.76732077377E+03  0.70141692804E+03 0.  0.
        5    1    3    3  502    0 -0.54908372065E+02  0.17663777108E+03  0.48147586223E+03  0.51580706413E+03  0.46999998093E+01 0.  1.
       -5    1    3    3    0  502  0.54908372065E+02 -0.17663777108E+03 -0.17035616996E+03  0.25151370964E+03  0.46999998093E+01 0. -1.
</event>
<event>
 5   0  0.1969818E-02  0.6964643E+03  0.7818609E-02  0.9723298E-01
        1   -1    0    0  501    0  0.00000000000E+00  0.00000000000E+00  0.11902438599E+04  0.11902438599E+04  0.50400001928E-02 0. -1.
       -1   -1    0    0    0  501  0.00000000000E+00  0.00000000000E+00 -0.10188301360E+03  0.10188301373E+03  0.50400001928E-02 0.  1.
    10030    2    1    2    0    0  0.00000000000E+00  0.00000000000E+00  0.10883608463E+04  0.12921268737E+04  0.69646430335E+03 0.  0.
        1    1    3    3  502    0  0.71632269432E+02  0.33140165474E+03  0.69152400757E+03  0.77017120944E+03  0.50400001928E-02 0. -1.
       -1    1    3    3    0  502 -0.71632269432E+02 -0.33140165474E+03  0.39683683877E+03  0.52195566423E+03  0.50400001928E-02 0.  1.
</event>
<event>
 5   0  0.3183963E-02  0.7058200E+03  0.7818609E-02  0.9707331E-01
        2   -1    0    0  501    0  0.00000000000E+00  0.00000000000E+00  0.39715742006E+03  0.39715742006E+03  0.25500000920E-02 0. -1.
       -2   -1    0    0    0  501  0.00000000000E+00  0.00000000000E+00 -0.31359220484E+03  0.31359220485E+03  0.25500000920E-02 0.  1.
    10030    2    1    2    0    0  0.00000000000E+00  0.00000000000E+00  0.83565215220E+02  0.71074962491E+03  0.70582000830E+03 0.  0.
        4    1    3    3  502    0  0.27742398304E+02  0.10694982071E+03  0.37928904551E+03  0.39505657539E+03  0.12699999809E+01 0. -1.
       -4    1    3    3    0  502 -0.27742398304E+02 -0.10694982071E+03 -0.29572383029E+03  0.31569304952E+03  0.12699999809E+01 0.  1.
</event>
<event>
 5   0  0.1233912E-02  0.6936637E+03  0.7818609E-02  0.9728130E-01
        3   -1    0    0  501    0  0.00000000000E+00  0.00000000000E+00  0.56198316882E+03  0.56198317790E+03  0.10100000352E+00 0.  1.
       -3   -1    0    0    0  501  0.00000000000E+00  0.00000000000E+00 -0.21404971143E+03  0.21404973526E+03  0.10100000352E+00 0. -1.
    10030    2    1    2    0    0  0.00000000000E+00  0.00000000000E+00  0.34793345739E+03  0.77603291316E+03  0.69366374529E+03 0.  0.
        4    1    3    3  502    0  0.27667289023E+03 -0.14544066658E+03  0.34211325799E+03  0.46340475815E+03  0.12699999809E+01 0. -1.
       -4    1    3    3    0  502 -0.27667289023E+03  0.14544066658E+03  0.58201993962E+01  0.31262815501E+03  0.12699999809E+01 0.  1.
</event>
<event>
 5   0  0.1884172E-02  0.7051410E+03  0.7818609E-02  0.9708481E-01
       -1   -1    0    0    0  501  0.00000000000E+00  0.00000000000E+00  0.17237648179E+03  0.17237648187E+03  0.50400001928E-02 0. -1.
        1   -1    0    0  501    0  0.00000000000E+00  0.00000000000E+00 -0.72113065479E+03  0.72113065481E+03  0.50400001928E-02 0.  1.
    10030    2    1    2    0    0  0.00000000000E+00  0.00000000000E+00 -0.54875417300E+03  0.89350713667E+03  0.70514102200E+03 0.  0.
        3    1    3    3  502    0  0.11030398011E+03 -0.23295522240E+03  0.30448894855E+02  0.25954238396E+03  0.10100000352E+00 0. -1.
       -3    1    3    3    0  502 -0.11030398011E+03  0.23295522240E+03 -0.57920306785E+03  0.63396475271E+03  0.10100000352E+00 0.  1.
</event>
<event>
 5   0  0.1858013E-02  0.7003996E+03  0.7818609E-02  0.9716549E-01
       -1   -1    0    0    0  501  0.00000000000E+00  0.00000000000E+00  0.24794630826E+03  0.24794630831E+03  0.50400001928E-02 0. -1.
        1   -1    0    0  501    0  0.00000000000E+00  0.00000000000E+00 -0.49462281007E+03  0.49462281010E+03  0.50400001928E-02 0.  1.
    10030    2    1    2    0    0  0.00000000000E+00  0.00000000000E+00 -0.24667650182E+03  0.74256911840E+03  0.70039959956E+03 0.  0.
        2    1    3    3  502    0 -0.68892043639E+02  0.77380287476E+02  0.23132633961E+03  0.25346735089E+03  0.25500000920E-02 0. -1.
       -2    1    3    3    0  502  0.68892043639E+02 -0.77380287476E+02 -0.47800284142E+03  0.48910176751E+03  0.25500000920E-02 0.  1.
</event>
<event>
 5   0  0.1858013E-02  0.7074303E+03  0.7818609E-02  0.9704609E-01
        1   -1    0    0  501    0  0.00000000000E+00  0.00000000000E+00  0.20153342674E+03  0.20153342680E+03  0.50400001928E-02 0. -1.
       -1   -1    0    0    0  501  0.00000000000E+00  0.00000000000E+00 -0.62081216410E+03  0.62081216412E+03  0.50400001928E-02 0.  1.
    10030    2    1    2    0    0  0.00000000000E+00  0.00000000000E+00 -0.41927873736E+03  0.82234559092E+03  0.70743028723E+03 0.  0.
        2    1    3    3  502    0  0.87792660181E+02 -0.26859330783E+03  0.37675096453E+02  0.28507775972E+03  0.25500000920E-02 0. -1.
       -2    1    3    3    0  502 -0.87792660181E+02  0.26859330783E+03 -0.45695383381E+03  0.53726783119E+03  0.25500000920E-02 0.  1.
</event>
<event>
 5   0  0.1969818E-02  0.7034427E+03  0.7818609E-02  0.9711363E-01
       -1   -1    0    0    0  501  0.00000000000E+00  0.00000000000E+00  0.61440692478E+03  0.61440692480E+03  0.50400001928E-02 0.  1.
        1   -1    0    0  501    0  0.00000000000E+00  0.00000000000E+00 -0.20134522965E+03  0.20134522971E+03  0.50400001928E-02 0. -1.
    10030    2    1    2    0    0  0.00000000000E+00  0.00000000000E+00  0.41306169513E+03  0.81575215451E+03  0.70344268679E+03 0.  0.
        1    1    3    3  502    0  0.34967099610E+03  0.35580101449E+02  0.22174642266E+03  0.41558058800E+03  0.50400001928E-02 0. -1.
       -1    1    3    3    0  502 -0.34967099610E+03 -0.35580101449E+02  0.19131527247E+03  0.40017156651E+03  0.50400001928E-02 0.  1.
</event>
<event>
 5   0  0.1839038E-02  0.7018305E+03  0.7818609E-02  0.9714107E-01
        1   -1    0    0  501    0  0.00000000000E+00  0.00000000000E+00  0.24775948918E+03  0.24775948923E+03  0.50400001928E-02 0.  1.
       -1   -1    0    0    0  501  0.00000000000E+00  0.00000000000E+00 -0.49702034414E+03  0.49702034417E+03  0.50400001928E-02 0. -1.
    10030    2    1    2    0    0  0.00000000000E+00  0.00000000000E+00 -0.24926085496E+03  0.74477983340E+03  0.70183048268E+03 0.  0.
        5    1    3    3  502    0  0.12168698534E+03  0.10906863612E+02 -0.47368612429E+03  0.48921091200E+03  0.46999998093E+01 0. -1.
       -5    1    3    3    0  502 -0.12168698534E+03 -0.10906863612E+02  0.22442526933E+03  0.25556892140E+03  0.46999998093E+01 0.  1.
</event>
<event>
 5   0  0.1858013E-02  0.6999008E+03  0.7818609E-02  0.9717402E-01
       -1   -1    0    0    0  501  0.00000000000E+00  0.00000000000E+00  0.19997232683E+03  0.19997232689E+03  0.50400001928E-02 0. -1.
        1   -1    0    0  501    0  0.00000000000E+00  0.00000000000E+00 -0.61241120279E+03  0.61241120281E+03  0.50400001928E-02 0.  1.
    10030    2    1    2    0    0  0.00000000000E+00  0.00000000000E+00 -0.41243887596E+03  0.81238352970E+03  0.69990083078E+03 0.  0.
        2    1    3    3  502    0  0.33693168839E+03 -0.92580342345E+02 -0.18385618889E+03  0.39483817018E+03  0.25500000920E-02 0. -1.
       -2    1    3    3    0  502 -0.33693168839E+03  0.92580342345E+02 -0.22858268707E+03  0.41754535953E+03  0.25500000920E-02 0.  1.
</event>
<event>
 5   0  0.3183963E-02  0.6606949E+03  0.7818609E-02  0.9786915E-01
        2   -1    0    0  501    0  0.00000000000E+00  0.00000000000E+00  0.10191305053E+04  0.10191305053E+04  0.25500000920E-02 0. -1.
       -2   -1    0    0    0  501  0.00000000000E+00  0.00000000000E+00 -0.10708093120E+03  0.10708093123E+03  0.25500000920E-02 0.  1.
    10030    2    1    2    0    0  0.00000000000E+00  0.00000000000E+00  0.91204957409E+03  0.11262114365E+04  0.66069491762E+03 0.  0.
        4    1    3    3  502    0 -0.29289698997E+03  0.26341744877E+02  0.71253695535E+03  0.77083919198E+03  0.12699999809E+01 0. -1.
       -4    1    3    3    0  502  0.29289698997E+03 -0.26341744877E+02  0.19951261874E+03  0.35537224455E+03  0.12699999809E+01 0.  1.
</event>
<event>
 5   0  0.3183963E-02  0.7024468E+03  0.7818609E-02  0.9713057E-01
       -2   -1    0    0    0  501  0.00000000000E+00  0.00000000000E+00  0.74686418976E+03  0.74686418976E+03  0.25500000920E-02 0.  1.
        2   -1    0    0  501    0  0.00000000000E+00  0.00000000000E+00 -0.16516775802E+03  0.16516775804E+03  0.25500000920E-02 0. -1.
    10030    2    1    2    0    0  0.00000000000E+00  0.00000000000E+00  0.58169643174E+03  0.91203194780E+03  0.70244682013E+03 0.  0.
        4    1    3    3  502    0 -0.19985045407E+02  0.11006115521E+03  0.72311467799E+03  0.73171668722E+03  0.12699999809E+01 0.  1.
       -4    1    3    3    0  502  0.19985045407E+02 -0.11006115521E+03 -0.14141824625E+03  0.18031526058E+03  0.12699999809E+01 0. -1.
</event>
<event>
 5   0  0.3290656E-02  0.7008561E+03  0.7818609E-02  0.9715769E-01
       -2   -1    0    0    0  501  0.00000000000E+00  0.00000000000E+00  0.39261157678E+03  0.39261157679E+03  0.25500000920E-02 0.  1.
        2   -1    0    0  501    0  0.00000000000E+00  0.00000000000E+00 -0.31277682963E+03  0.31277682964E+03  0.25500000920E-02 0. -1.
    10030    2    1    2    0    0  0.00000000000E+00  0.00000000000E+00  0.79834747158E+02  0.70538840643E+03  0.70085606017E+03 0.  0.
        1    1    3    3  502    0  0.10213164405E+03  0.27234777747E+03 -0.15678348899E+03  0.33043190987E+03  0.50400001928E-02 0. -1.
       -1    1    3    3    0  502 -0.10213164405E+03 -0.27234777747E+03  0.23661823615E+03  0.37495649656E+03  0.50400001928E-02 0.  1.
</event>
<event>
 5   0  0.1951465E-02  0.6839896E+03  0.7818609E-02  0.9745011E-01
       -1   -1    0    0    0  501  0.00000000000E+00  0.00000000000E+00  0.15259152505E+03  0.15259152513E+03  0.50400001928E-02 0.  1.
        1   -1    0    0  501    0  0.00000000000E+00  0.00000000000E+00 -0.76649377046E+03  0.76649377048E+03  0.50400001928E-02 0. -1.
    10030    2    1    2    0    0  0.00000000000E+00  0.00000000000E+00 -0.61390224542E+03  0.91908529561E+03  0.68398962980E+03 0.  0.
        4    1    3    3  502    0 -0.11915202719E+03 -0.22124530221E+03  0.47558214086E+01  0.25133825827E+03  0.12699999809E+01 0.  1.
       -4    1    3    3    0  502  0.11915202719E+03  0.22124530221E+03 -0.61865806682E+03  0.66774703734E+03  0.12699999809E+01 0. -1.
</event>
<event>
 5   0  0.1951465E-02  0.6949733E+03  0.7818609E-02  0.9725867E-01
       -1   -1    0    0    0  501  0.00000000000E+00  0.00000000000E+00  0.66614571134E+03  0.66614571136E+03  0.50400001928E-02 0.  1.
        1   -1    0    0  501    0  0.00000000000E+00  0.00000000000E+00 -0.18126210943E+03  0.18126210950E+03  0.50400001928E-02 0. -1.
    10030    2    1    2    0    0  0.00000000000E+00  0.00000000000E+00  0.48488360191E+03  0.84740782086E+03  0.69497331420E+03 0.  0.
        4    1    3    3  502    0  0.32214213018E+03  0.62388167277E+02  0.10300186429E+03  0.34391689752E+03  0.12699999809E+01 0. -1.
       -4    1    3    3    0  502 -0.32214213018E+03 -0.62388167277E+02  0.38188173762E+03  0.50349092334E+03  0.12699999809E+01 0.  1.
</event>
<event>
 5   0  0.3113940E-02  0.7042662E+03  0.7818609E-02  0.9709964E-01
        2   -1    0    0  501    0  0.00000000000E+00  0.00000000000E+00  0.92546802772E+03  0.92546802772E+03  0.25500000920E-02 0.  1.
       -2   -1    0    0    0  501  0.00000000000E+00  0.00000000000E+00 -0.13398379269E+03  0.13398379271E+03  0.25500000920E-02 0. -1.
    10030    2    1    2    0    0  0.00000000000E+00  0.00000000000E+00  0.79148423503E+03  0.10594518204E+04  0.70426618940E+03 0.  0.
        5    1    3    3  502    0 -0.20864198097E+03  0.11747203154E+03  0.78409491511E+03  0.81985247473E+03  0.46999998093E+01 0.  1.
       -5    1    3    3    0  502  0.20864198097E+03 -0.11747203154E+03  0.73893199164E+01  0.23959934571E+03  0.46999998093E+01 0. -1.
</event>
<event>
 5   0  0.1839038E-02  0.7025884E+03  0.7818609E-02  0.9712816E-01
       -1   -1    0    0    0  501  0.00000000000E+00  0.00000000000E+00  0.38192130727E+03  0.38192130731E+03  0.50400001928E-02 0. -1.
        1   -1    0    0  501    0  0.00000000000E+00  0.00000000000E+00 -0.32312316911E+03  0.32312316915E+03  0.50400001928E-02 0.  1.
    10030    2    1    2    0    0  0.00000000000E+00  0.00000000000E+00  0.58798138166E+02  0.70504447645E+03  0.70258842342E+03 0.  0.
        5    1    3    3  502    0 -0.25060905029E+03 -0.22943882740E+03  0.11880857573E+03  0.35997866502E+03  0.46999998093E+01 0.  1.
       -5    1    3    3    0  502  0.25060905029E+03  0.22943882740E+03 -0.60010437560E+02  0.34506581143E+03  0.46999998093E+01 0. -1.
</event>
<event>
 5   0  0.1839038E-02  0.7028291E+03  0.7818609E-02  0.9712406E-01
        1   -1    0    0  501    0  0.00000000000E+00  0.00000000000E+00  0.27859223901E+03  0.27859223905E+03  0.50400001928E-02 0.  1.
       -1   -1    0    0    0  501  0.00000000000E+00  0.00000000000E+00 -0.44327216094E+03  0.44327216097E+03  0.50400001928E-02 0. -1.
    10030    2    1    2    0    0  0.00000000000E+00  0.00000000000E+00 -0.16467992194E+03  0.72186440002E+03  0.70282909397E+03 0.  0.
        5    1    3    3  502    0 -0.34787868061E+03  0.31726016999E+02 -0.43311082692E+02  0.35202848814E+03  0.46999998093E+01 0.  1.
       -5    1    3    3    0  502  0.34787868061E+03 -0.31726016999E+02 -0.12136883924E+03  0.36983591188E+03  0.46999998093E+01 0. -1.
</event>
<event>
 5   0  0.2933851E-02  0.6943904E+03  0.7818609E-02  0.9726874E-01
       -2   -1    0    0    0  501  0.00000000000E+00  0.00000000000E+00  0.12157012823E+03  0.12157012826E+03  0.25500000920E-02 0.  1.
        2   -1    0    0  501    0  0.00000000000E+00  0.00000000000E+00 -0.99156363370E+03  0.99156363371E+03  0.25500000920E-02 0. -1.
    10030    2    1    2    0    0  0.00000000000E+00  0.00000000000E+00 -0.86999350547E+03  0.11131337620E+04  0.69439043230E+03 0.  0.
        2    1    3    3  502    0  0.14301527069E+03  0.31480835548E+03 -0.48535483126E+03  0.59592531459E+03  0.25500000920E-02 0. -1.
       -2    1    3    3    0  502 -0.14301527069E+03 -0.31480835548E+03 -0.38463867421E+03  0.51720844738E+03  0.25500000920E-02 0.  1.
</event>
<event>
 5   0  0.1884172E-02  0.6955943E+03  0.7818609E-02  0.9724796E-01
       -1   -1    0    0    0  501  0.00000000000E+00  0.00000000000E+00  0.53655355212E+03  0.53655355215E+03  0.50400001928E-02 0.  1.
        1   -1    0    0  501    0  0.00000000000E+00  0.00000000000E+00 -0.22544414552E+03  0.22544414558E+03  0.50400001928E-02 0. -1.
    10030    2    1    2    0    0  0.00000000000E+00  0.00000000000E+00  0.31110940660E+03  0.76199769772E+03  0.69559429875E+03 0.  0.
        3    1    3    3  502    0 -0.24291457157E+02 -0.26036198759E+03  0.40675846444E+03  0.48356064570E+03  0.10100000352E+00 0.  1.
       -3    1    3    3    0  502  0.24291457157E+02  0.26036198759E+03 -0.95649057842E+02  0.27843705202E+03  0.10100000352E+00 0. -1.
</event>
<event>
 5   0  0.3184443E-02  0.6956116E+03  0.7818609E-02  0.9724766E-01
        2   -1    0    0  501    0  0.00000000000E+00  0.00000000000E+00  0.25378701814E+03  0.25378701815E+03  0.25500000920E-02 0. -1.
       -2   -1    0    0    0  501  0.00000000000E+00  0.00000000000E+00 -0.47665514515E+03  0.47665514515E+03  0.25500000920E-02 0.  1.
    10030    2    1    2    0    0  0.00000000000E+00  0.00000000000E+00 -0.22286812701E+03  0.73044216331E+03  0.69561163870E+03 0.  0.
        3    1    3    3  502    0  0.10604188213E+03 -0.21901507432E+03 -0.37238566086E+03  0.44484106618E+03  0.10100000352E+00 0.  1.
       -3    1    3    3    0  502 -0.10604188213E+03  0.21901507432E+03  0.14951753386E+03  0.28560109712E+03  0.10100000352E+00 0. -1.
</event>
<event>
 5   0  0.1233912E-02  0.6970151E+03  0.7818609E-02  0.9722350E-01
       -3   -1    0    0    0  501  0.00000000000E+00  0.00000000000E+00  0.67318664668E+02  0.67318740434E+02  0.10100000352E+00 0.  1.
        3   -1    0    0  501    0  0.00000000000E+00  0.00000000000E+00 -0.18042165515E+04  0.18042165543E+04  0.10100000352E+00 0. -1.
    10030    2    1    2    0    0  0.00000000000E+00  0.00000000000E+00 -0.17368978868E+04  0.18715352947E+04  0.69701512914E+03 0.  0.
        4    1    3    3  502    0 -0.11013722248E+02  0.20752293136E+03 -0.16196397550E+04  0.16329181296E+04  0.12699999809E+01 0. -1.
       -4    1    3    3    0  502  0.11013722248E+02 -0.20752293136E+03 -0.11725813180E+03  0.23861716513E+03  0.12699999809E+01 0.  1.
</event>
<event>
 5   0  0.3183963E-02  0.6988755E+03  0.7818609E-02  0.9719157E-01
        2   -1    0    0  501    0  0.00000000000E+00  0.00000000000E+00  0.39865555191E+03  0.39865555192E+03  0.25500000920E-02 0.  1.
       -2   -1    0    0    0  501  0.00000000000E+00  0.00000000000E+00 -0.30629634059E+03  0.30629634060E+03  0.25500000920E-02 0. -1.
    10030    2    1    2    0    0  0.00000000000E+00  0.00000000000E+00  0.92359211316E+02  0.70495189252E+03  0.69887548737E+03 0.  0.
        4    1    3    3  502    0 -0.11671065532E+03 -0.24413158294E+03  0.26919810780E+03  0.38169469606E+03  0.12699999809E+01 0.  1.
       -4    1    3    3    0  502  0.11671065532E+03  0.24413158294E+03 -0.17683889648E+03  0.32325719646E+03  0.12699999809E+01 0. -1.
</event>
<event>
 5   0  0.3183963E-02  0.7132548E+03  0.7818609E-02  0.9694829E-01
       -2   -1    0    0    0  501  0.00000000000E+00  0.00000000000E+00  0.32473321002E+03  0.32473321003E+03  0.25500000920E-02 0. -1.
        2   -1    0    0  501    0  0.00000000000E+00  0.00000000000E+00 -0.39165408651E+03  0.39165408652E+03  0.25500000920E-02 0.  1.
    10030    2    1    2    0    0  0.00000000000E+00  0.00000000000E+00 -0.66920876491E+02  0.71638729655E+03  0.71325476160E+03 0.  0.
        4    1    3    3  502    0  0.73459573315E+02  0.22981146722E+03  0.23031791598E+03  0.33355295636E+03  0.12699999809E+01 0. -1.
       -4    1    3    3    0  502 -0.73459573315E+02 -0.22981146722E+03 -0.29723879247E+03  0.38283434019E+03  0.12699999809E+01 0.  1.
</event>
<event>
 5   0  0.1858013E-02  0.7005013E+03  0.7818609E-02  0.9716375E-01
       -1   -1    0    0    0  501  0.00000000000E+00  0.00000000000E+00  0.21780932826E+03  0.21780932832E+03  0.50400001928E-02 0. -1.
        1   -1    0    0  501    0  0.00000000000E+00  0.00000000000E+00 -0.56322441969E+03  0.56322441971E+03  0.50400001928E-02 0.  1.
    10030    2    1    2    0    0  0.00000000000E+00  0.00000000000E+00 -0.34541509143E+03  0.78103374803E+03  0.70050134202E+03 0.  0.
        2    1    3    3  502    0  0.76336662207E+02 -0.18911085476E+03 -0.49019895281E+03  0.53092863431E+03  0.25500000920E-02 0.  1.
       -2    1    3    3    0  502 -0.76336662207E+02  0.18911085476E+03  0.14478386138E+03  0.25010511372E+03  0.25500000920E-02 0. -1.
</event>
<event>
 5   0  0.3290656E-02  0.7008163E+03  0.7818609E-02  0.9715837E-01
        2   -1    0    0  501    0  0.00000000000E+00  0.00000000000E+00  0.98627400790E+03  0.98627400791E+03  0.25500000920E-02 0. -1.
       -2   -1    0    0    0  501  0.00000000000E+00  0.00000000000E+00 -0.12449468736E+03  0.12449468738E+03  0.25500000920E-02 0.  1.
    10030    2    1    2    0    0  0.00000000000E+00  0.00000000000E+00  0.86177932054E+03  0.11107686953E+04  0.70081630769E+03 0.  0.
        1    1    3    3  502    0 -0.79611911648E+02 -0.17779129346E+02 -0.10923606469E+03  0.13633294456E+03  0.50400001928E-02 0.  1.
       -1    1    3    3    0  502  0.79611911648E+02  0.17779129346E+02  0.97101538524E+03  0.97443575073E+03  0.50400001928E-02 0. -1.
</event>
<event>
 5   0  0.1969818E-02  0.7067305E+03  0.7818609E-02  0.9705791E-01
        1   -1    0    0  501    0  0.00000000000E+00  0.00000000000E+00  0.80688790526E+03  0.80688790528E+03  0.50400001928E-02 0. -1.
       -1   -1    0    0    0  501  0.00000000000E+00  0.00000000000E+00 -0.15475135480E+03  0.15475135488E+03  0.50400001928E-02 0.  1.
    10030    2    1    2    0    0  0.00000000000E+00  0.00000000000E+00  0.65213655046E+03  0.96163926016E+03  0.70673049052E+03 0.  0.
        1    1    3    3  502    0  0.18161217579E+03  0.30164150801E+03  0.28532904096E+03  0.45319228082E+03  0.50400001928E-02 0.  1.
       -1    1    3    3    0  502 -0.18161217579E+03 -0.30164150801E+03  0.36680750950E+03  0.50844697934E+03  0.50400001928E-02 0. -1.
</event>
<event>
 5   0  0.1839038E-02  0.7000536E+03  0.7818609E-02  0.9717140E-01
        1   -1    0    0  501    0  0.00000000000E+00  0.00000000000E+00  0.76077985999E+03  0.76077986001E+03  0.50400001928E-02 0. -1.
       -1   -1    0    0    0  501  0.00000000000E+00  0.00000000000E+00 -0.16104366289E+03  0.16104366297E+03  0.50400001928E-02 0.  1.
    10030    2    1    2    0    0  0.00000000000E+00  0.00000000000E+00  0.59973619709E+03  0.92182352298E+03  0.70005364181E+03 0.  0.
        5    1    3    3  502    0 -0.54057712306E+02  0.33608422003E+03  0.40702151186E+03  0.53062551798E+03  0.46999998093E+01 0. -1.
       -5    1    3    3    0  502  0.54057712306E+02 -0.33608422003E+03  0.19271468523E+03  0.39119800500E+03  0.46999998093E+01 0.  1.
</event>
<event>
 5   0  0.3290656E-02  0.6958822E+03  0.7818609E-02  0.9724300E-01
        2   -1    0    0  501    0  0.00000000000E+00  0.00000000000E+00  0.12317049147E+04  0.12317049147E+04  0.25500000920E-02 0.  1.
       -2   -1    0    0    0  501  0.00000000000E+00  0.00000000000E+00 -0.98288976481E+02  0.98288976514E+02  0.25500000920E-02 0. -1.
    10030    2    1    2    0    0  0.00000000000E+00  0.00000000000E+00  0.11334159382E+04  0.13299938912E+04  0.69588221824E+03 0.  0.
        1    1    3    3  502    0  0.26176060303E+02  0.13808416426E+03  0.11750409121E+04  0.11834160586E+04  0.50400001928E-02 0.  1.
       -1    1    3    3    0  502 -0.26176060303E+02 -0.13808416426E+03 -0.41624973869E+02  0.14657783266E+03  0.50400001928E-02 0. -1.
</event>
<event>
 5   0  0.1839038E-02  0.6899452E+03  0.7818609E-02  0.9734583E-01
        1   -1    0    0  501    0  0.00000000000E+00  0.00000000000E+00  0.64319802654E+03  0.64319802656E+03  0.50400001928E-02 0. -1.
       -1   -1    0    0    0  501  0.00000000000E+00  0.00000000000E+00 -0.18502248027E+03  0.18502248034E+03  0.50400001928E-02 0.  1.
    10030    2    1    2    0    0  0.00000000000E+00  0.00000000000E+00  0.45817554627E+03  0.82822050690E+03  0.68994519844E+03 0.  0.
        5    1    3    3  502    0  0.85420333732E+02 -0.19363513277E+03  0.55606106650E+03  0.59499344344E+03  0.46999998093E+01 0. -1.
       -5    1    3    3    0  502 -0.85420333732E+02  0.19363513277E+03 -0.97885520232E+02  0.23322706346E+03  0.46999998093E+01 0.  1.
</event>
<event>
 5   0  0.1884172E-02  0.6998253E+03  0.7818609E-02  0.9717531E-01
        1   -1    0    0  501    0  0.00000000000E+00  0.00000000000E+00  0.11543441638E+04  0.11543441638E+04  0.50400001928E-02 0. -1.
       -1   -1    0    0    0  501  0.00000000000E+00  0.00000000000E+00 -0.10606790512E+03  0.10606790524E+03  0.50400001928E-02 0.  1.
    10030    2    1    2    0    0  0.00000000000E+00  0.00000000000E+00  0.10482762587E+04  0.12604120691E+04  0.69982531342E+03 0.  0.
        3    1    3    3  502    0 -0.11166355151E+03  0.11012254224E+03  0.10875008220E+04  0.10987510051E+04  0.10100000352E+00 0. -1.
       -3    1    3    3    0  502  0.11166355151E+03 -0.11012254224E+03 -0.39224563321E+02  0.16166106400E+03  0.10100000352E+00 0.  1.
</event>
<event>
 5   0  0.1951465E-02  0.6997878E+03  0.7818609E-02  0.9717595E-01
        1   -1    0    0  501    0  0.00000000000E+00  0.00000000000E+00  0.26049346955E+03  0.26049346960E+03  0.50400001928E-02 0. -1.
       -1   -1    0    0    0  501  0.00000000000E+00  0.00000000000E+00 -0.46997623492E+03  0.46997623494E+03  0.50400001928E-02 0.  1.
    10030    2    1    2    0    0  0.00000000000E+00  0.00000000000E+00 -0.20948276536E+03  0.73046970454E+03  0.69978779660E+03 0.  0.
        4    1    3    3  502    0  0.28489059338E+03  0.20831637930E+02  0.10617598535E+03  0.30474835537E+03  0.12699999809E+01 0. -1.
       -4    1    3    3    0  502 -0.28489059338E+03 -0.20831637930E+02 -0.31565875072E+03  0.42572134917E+03  0.12699999809E+01 0.  1.
</event>
<event>
 5   0  0.3113940E-02  0.7068229E+03  0.7818609E-02  0.9705635E-01
        2   -1    0    0  501    0  0.00000000000E+00  0.00000000000E+00  0.14624541752E+04  0.14624541752E+04  0.25500000920E-02 0.  1.
       -2   -1    0    0    0  501  0.00000000000E+00  0.00000000000E+00 -0.85404137902E+02  0.85404137940E+02  0.25500000920E-02 0. -1.
    10030    2    1    2    0    0  0.00000000000E+00  0.00000000000E+00  0.13770500373E+04  0.15478583132E+04  0.70682285783E+03 0.  0.
        5    1    3    3  502    0  0.33773017650E+03 -0.52636014568E+02  0.49210197333E+03  0.59918166219E+03  0.46999998093E+01 0.  1.
       -5    1    3    3    0  502 -0.33773017650E+03  0.52636014568E+02  0.88494806401E+03  0.94867665100E+03  0.46999998093E+01 0. -1.
</event>
<event>
 5   0  0.3290656E-02  0.7016813E+03  0.7818609E-02  0.9714361E-01
        2   -1    0    0  501    0  0.00000000000E+00  0.00000000000E+00  0.30487459114E+03  0.30487459116E+03  0.25500000920E-02 0. -1.
       -2   -1    0    0    0  501  0.00000000000E+00  0.00000000000E+00 -0.40373707470E+03  0.40373707471E+03  0.25500000920E-02 0.  1.
    10030    2    1    2    0    0  0.00000000000E+00  0.00000000000E+00 -0.98862483555E+02  0.70861166586E+03  0.70168133960E+03 0.  0.
        1    1    3    3  502    0 -0.15744311591E+03  0.23911093254E+03 -0.25423166267E+03  0.38287871596E+03  0.50400001928E-02 0.  1.
       -1    1    3    3    0  502  0.15744311591E+03 -0.23911093254E+03  0.15536917912E+03  0.32573294990E+03  0.50400001928E-02 0. -1.
</event>
<event>
 5   0  0.1858013E-02  0.6925278E+03  0.7818609E-02  0.9730097E-01
       -1   -1    0    0    0  501  0.00000000000E+00  0.00000000000E+00  0.19683673404E+03  0.19683673411E+03  0.50400001928E-02 0. -1.
        1   -1    0    0  501    0  0.00000000000E+00  0.00000000000E+00 -0.60912758593E+03  0.60912758595E+03  0.50400001928E-02 0.  1.
    10030    2    1    2    0    0  0.00000000000E+00  0.00000000000E+00 -0.41229085189E+03  0.80596432006E+03  0.69252778909E+03 0.  0.
        2    1    3    3  502    0  0.10080556069E+03  0.30253277280E+03 -0.49093357849E+02  0.32264221280E+03  0.25500000920E-02 0. -1.
       -2    1    3    3    0  502 -0.10080556069E+03 -0.30253277280E+03 -0.36319749404E+03  0.48332210726E+03  0.25500000920E-02 0.  1.
</event>
<event>
 5   0  0.1839038E-02  0.7231801E+03  0.7818609E-02  0.9678392E-01
       -1   -1    0    0    0  501  0.00000000000E+00  0.00000000000E+00  0.16926217840E+03  0.16926217848E+03  0.50400001928E-02 0.  1.
        1   -1    0    0  501    0  0.00000000000E+00  0.00000000000E+00 -0.77245477622E+03  0.77245477624E+03  0.50400001928E-02 0. -1.
    10030    2    1    2    0    0  0.00000000000E+00  0.00000000000E+00 -0.60319259782E+03  0.94171695472E+03  0.72318013851E+03 0.  0.
        5    1    3    3  502    0 -0.25349287144E+03 -0.11685336128E+03 -0.23422896529E+01  0.27917901109E+03  0.46999998093E+01 0.  1.
       -5    1    3    3    0  502  0.25349287144E+03  0.11685336128E+03 -0.60085030817E+03  0.66253794362E+03  0.46999998093E+01 0. -1.
</event>
<event>
 5   0  0.3184443E-02  0.6952896E+03  0.7818609E-02  0.9725322E-01
       -2   -1    0    0    0  501  0.00000000000E+00  0.00000000000E+00  0.59732121923E+03  0.59732121923E+03  0.25500000920E-02 0. -1.
        2   -1    0    0  501    0  0.00000000000E+00  0.00000000000E+00 -0.20233151771E+03  0.20233151772E+03  0.25500000920E-02 0.  1.
    10030    2    1    2    0    0  0.00000000000E+00  0.00000000000E+00  0.39498970152E+03  0.79965273695E+03  0.69528960542E+03 0.  0.
        3    1    3    3  502    0 -0.80471068678E+02  0.31884028461E+03  0.32721768732E+03  0.46390316347E+03  0.10100000352E+00 0. -1.
       -3    1    3    3    0  502  0.80471068678E+02 -0.31884028461E+03  0.67772014199E+02  0.33574957348E+03  0.10100000352E+00 0.  1.
</event>
<event>
 5   0  0.3290656E-02  0.6971116E+03  0.7818609E-02  0.9722185E-01
       -2   -1    0    0    0  501  0.00000000000E+00  0.00000000000E+00  0.14887424917E+03  0.14887424919E+03  0.25500000920E-02 0.  1.
        2   -1    0    0  501    0  0.00000000000E+00  0.00000000000E+00 -0.81606556463E+03  0.81606556463E+03  0.25500000920E-02 0. -1.
    10030    2    1    2    0    0  0.00000000000E+00  0.00000000000E+00 -0.66719131546E+03  0.96493981382E+03  0.69711160719E+03 0.  0.
        1    1    3    3  502    0 -0.19087699109E+03 -0.58083177070E+02 -0.72920359220E+03  0.75600632278E+03  0.50400001928E-02 0. -1.
       -1    1    3    3    0  502  0.19087699109E+03  0.58083177070E+02  0.62012276739E+02  0.20893349104E+03  0.50400001928E-02 0.  1.
</event>
<event>
 5   0  0.1233912E-02  0.6972882E+03  0.7818609E-02  0.9721881E-01
        3   -1    0    0  501    0  0.00000000000E+00  0.00000000000E+00  0.11791039154E+04  0.11791039197E+04  0.10100000352E+00 0. -1.
       -3   -1    0    0    0  501  0.00000000000E+00  0.00000000000E+00 -0.10308902067E+03  0.10308907014E+03  0.10100000352E+00 0.  1.
    10030    2    1    2    0    0  0.00000000000E+00  0.00000000000E+00  0.10760148947E+04  0.12821929899E+04  0.69728818260E+03 0.  0.
        3    1    3    3  502    0 -0.30237695951E+03 -0.13148953244E+03  0.32971304581E+03  0.46629607071E+03  0.10100000352E+00 0.  1.
       -3    1    3    3    0  502  0.30237695951E+03  0.13148953244E+03  0.74630184893E+03  0.81589691916E+03  0.10100000352E+00 0. -1.
</event>
<event>
 5   0  0.1839038E-02  0.6995709E+03  0.7818609E-02  0.9717966E-01
        1   -1    0    0  501    0  0.00000000000E+00  0.00000000000E+00  0.20488115533E+03  0.20488115539E+03  0.50400001928E-02 0.  1.
       -1   -1    0    0    0  501  0.00000000000E+00  0.00000000000E+00 -0.59717477634E+03  0.59717477636E+03  0.50400001928E-02 0. -1.
    10030    2    1    2    0    0  0.00000000000E+00  0.00000000000E+00 -0.39229362101E+03  0.80205593176E+03  0.69957089175E+03 0.  0.
        5    1    3    3  502    0 -0.12475600227E+03  0.11902334387E+03  0.15272970672E+03  0.23038895330E+03  0.46999998093E+01 0.  1.
       -5    1    3    3    0  502  0.12475600227E+03 -0.11902334387E+03 -0.54502332773E+03  0.57166697846E+03  0.46999998093E+01 0. -1.
</event>
<event>
 5   0  0.1858013E-02  0.7079544E+03  0.7818609E-02  0.9703725E-01
        1   -1    0    0  501    0  0.00000000000E+00  0.00000000000E+00  0.86177217519E+03  0.86177217520E+03  0.50400001928E-02 0.  1.
       -1   -1    0    0    0  501  0.00000000000E+00  0.00000000000E+00 -0.14539788914E+03  0.14539788923E+03  0.50400001928E-02 0. -1.
    10030    2    1    2    0    0  0.00000000000E+00  0.00000000000E+00  0.71637428604E+03  0.10071700644E+04  0.70795439188E+03 0.  0.
        2    1    3    3  502    0  0.31507422492E+02  0.20985447636E+03 -0.44872567831E+02  0.21689897711E+03  0.25500000920E-02 0. -1.
       -2    1    3    3    0  502 -0.31507422492E+02 -0.20985447636E+03  0.76124685387E+03  0.79027108732E+03  0.25500000920E-02 0.  1.
</event>
<event>
 5   0  0.1839038E-02  0.6997654E+03  0.7818609E-02  0.9717633E-01
       -1   -1    0    0    0  501  0.00000000000E+00  0.00000000000E+00  0.29531267947E+03  0.29531267951E+03  0.50400001928E-02 0. -1.
        1   -1    0    0  501    0  0.00000000000E+00  0.00000000000E+00 -0.41453656331E+03  0.41453656334E+03  0.50400001928E-02 0.  1.
    10030    2    1    2    0    0  0.00000000000E+00  0.00000000000E+00 -0.11922388384E+03  0.70984924286E+03  0.69976539862E+03 0.  0.
        5    1    3    3  502    0 -0.26575907594E+03  0.15913022322E+03  0.10535219589E+03  0.32721780142E+03  0.46999998093E+01 0. -1.
       -5    1    3    3    0  502  0.26575907594E+03 -0.15913022322E+03 -0.22457607973E+03  0.38263144144E+03  0.46999998093E+01 0.  1.
</event>
<event>
 5   0  0.1858013E-02  0.6955872E+03  0.7818609E-02  0.9724809E-01
       -1   -1    0    0    0  501  0.00000000000E+00  0.00000000000E+00  0.96305045048E+02  0.96305045180E+02  0.50400001928E-02 0.  1.
        1   -1    0    0  501    0  0.00000000000E+00  0.00000000000E+00 -0.12560129248E+04  0.12560129248E+04  0.50400001928E-02 0. -1.
    10030    2    1    2    0    0  0.00000000000E+00  0.00000000000E+00 -0.11597078797E+04  0.13523179700E+04  0.69558718044E+03 0.  0.
        2    1    3    3  502    0  0.37280346249E+02  0.31836302382E+03 -0.31746332238E+03  0.45114055483E+03  0.25500000920E-02 0.  1.
       -2    1    3    3    0  502 -0.37280346249E+02 -0.31836302382E+03 -0.84224455735E+03  0.90117741513E+03  0.25500000920E-02 0. -1.
</event>
<event>
 5   0  0.1839038E-02  0.7138101E+03  0.7818609E-02  0.9693902E-01
        1   -1    0    0  501    0  0.00000000000E+00  0.00000000000E+00  0.55346371178E+03  0.55346371181E+03  0.50400001928E-02 0.  1.
       -1   -1    0    0    0  501  0.00000000000E+00  0.00000000000E+00 -0.23015280668E+03  0.23015280673E+03  0.50400001928E-02 0. -1.
    10030    2    1    2    0    0  0.00000000000E+00  0.00000000000E+00  0.32331090511E+03  0.78361651854E+03  0.71381013356E+03 0.  0.
        5    1    3    3  502    0 -0.16423912595E+03 -0.28771653479E+03  0.16000719413E+02  0.33171283952E+03  0.46999998093E+01 0.  1.
       -5    1    3    3    0  502  0.16423912595E+03  0.28771653479E+03  0.30731018569E+03  0.45190367902E+03  0.46999998093E+01 0. -1.
</event>
<event>
 5   0  0.1233912E-02  0.6882797E+03  0.7818609E-02  0.9737488E-01
       -4   -1    0    0    0  501  0.00000000000E+00  0.00000000000E+00  0.21915542321E+03  0.21915910299E+03  0.12699999809E+01 0. -1.
        4   -1    0    0  501    0  0.00000000000E+00  0.00000000000E+00 -0.54039390901E+03  0.54039540135E+03  0.12699999809E+01 0.  1.
    10030    2    1    2    0    0  0.00000000000E+00  0.00000000000E+00 -0.32123848580E+03  0.75955450433E+03  0.68827965268E+03 0.  0.
        5    1    3    3  502    0 -0.18388909182E+03 -0.17790236615E+03 -0.41454647477E+03  0.48717072953E+03  0.46999998093E+01 0.  1.
       -5    1    3    3    0  502  0.18388909182E+03  0.17790236615E+03  0.93307988963E+02  0.27238377480E+03  0.46999998093E+01 0. -1.
</event>
<event>
 5   0  0.3184443E-02  0.7054751E+03  0.7818609E-02  0.9707915E-01
       -2   -1    0    0    0  501  0.00000000000E+00  0.00000000000E+00  0.16677814881E+03  0.16677814883E+03  0.25500000920E-02 0. -1.
        2   -1    0    0  501    0  0.00000000000E+00  0.00000000000E+00 -0.74604356634E+03  0.74604356634E+03  0.25500000920E-02 0.  1.
    10030    2    1    2    0    0  0.00000000000E+00  0.00000000000E+00 -0.57926541753E+03  0.91282171517E+03  0.70547505962E+03 0.  0.
        3    1    3    3  502    0 -0.41004797751E+02  0.80976698145E+02  0.15140891944E+03  0.17653127249E+03  0.10100000352E+00 0. -1.
       -3    1    3    3    0  502  0.41004797751E+02 -0.80976698145E+02 -0.73067433696E+03  0.73629044268E+03  0.10100000352E+00 0.  1.
</event>
<event>
 5   0  0.2933851E-02  0.7092676E+03  0.7818609E-02  0.9701513E-01
        2   -1    0    0  501    0  0.00000000000E+00  0.00000000000E+00  0.36439604083E+03  0.36439604084E+03  0.25500000920E-02 0.  1.
       -2   -1    0    0    0  501  0.00000000000E+00  0.00000000000E+00 -0.34513311883E+03  0.34513311884E+03  0.25500000920E-02 0. -1.
    10030    2    1    2    0    0  0.00000000000E+00  0.00000000000E+00  0.19262922002E+02  0.70952915967E+03  0.70926762810E+03 0.  0.
        2    1    3    3  502    0 -0.15247903885E+03  0.65459436254E+02  0.32316423792E+03  0.36327664357E+03  0.25500000920E-02 0.  1.
       -2    1    3    3    0  502  0.15247903885E+03 -0.65459436254E+02 -0.30390131592E+03  0.34625251610E+03  0.25500000920E-02 0. -1.
</event>
<event>
 5   0  0.3290656E-02  0.6977484E+03  0.7818609E-02  0.9721091E-01
       -2   -1    0    0    0  501  0.00000000000E+00  0.00000000000E+00  0.15495177889E+03  0.15495177891E+03  0.25500000920E-02 0.  1.
        2   -1    0    0  501    0  0.00000000000E+00  0.00000000000E+00 -0.78549081939E+03  0.78549081939E+03  0.25500000920E-02 0. -1.
    10030    2    1    2    0    0  0.00000000000E+00  0.00000000000E+00 -0.63053904050E+03  0.94044259830E+03  0.69774837808E+03 0.  0.
        1    1    3    3  502    0 -0.16100403963E+03 -0.29738484046E+03 -0.19969280798E+03  0.39273052045E+03  0.50400001928E-02 0.  1.
       -1    1    3    3    0  502  0.16100403963E+03  0.29738484046E+03 -0.43084623253E+03  0.54771207785E+03  0.50400001928E-02 0. -1.
</event>
<event>
 5   0  0.1858013E-02  0.7015366E+03  0.7818609E-02  0.9714608E-01
       -1   -1    0    0    0  501  0.00000000000E+00  0.00000000000E+00  0.18003377328E+03  0.18003377335E+03  0.50400001928E-02 0.  1.
        1   -1    0    0  501    0  0.00000000000E+00  0.00000000000E+00 -0.68341841434E+03  0.68341841436E+03  0.50400001928E-02 0. -1.
    10030    2    1    2    0    0  0.00000000000E+00  0.00000000000E+00 -0.50338464106E+03  0.86345218771E+03  0.70153658751E+03 0.  0.
        2    1    3    3  502    0  0.16576515417E+03 -0.29733037160E+03 -0.14758253214E+03  0.37103104993E+03  0.25500000920E-02 0. -1.
       -2    1    3    3    0  502 -0.16576515417E+03  0.29733037160E+03 -0.35580210892E+03  0.49242113778E+03  0.25500000920E-02 0.  1.
</event>
<event>
 5   0  0.3183963E-02  0.6992502E+03  0.7818609E-02  0.9718515E-01
        2   -1    0    0  501    0  0.00000000000E+00  0.00000000000E+00  0.20468344532E+03  0.20468344533E+03  0.25500000920E-02 0.  1.
       -2   -1    0    0    0  501  0.00000000000E+00  0.00000000000E+00 -0.59720370473E+03  0.59720370474E+03  0.25500000920E-02 0. -1.
    10030    2    1    2    0    0  0.00000000000E+00  0.00000000000E+00 -0.39252025941E+03  0.80188715007E+03  0.69925020371E+03 0.  0.
        4    1    3    3  502    0  0.10781266084E+03  0.13499141353E+03 -0.54483235375E+03  0.57156815705E+03  0.12699999809E+01 0. -1.
       -4    1    3    3    0  502 -0.10781266084E+03 -0.13499141353E+03  0.15231209434E+03  0.23031899302E+03  0.12699999809E+01 0.  1.
</event>
<event>
 5   0  0.1951465E-02  0.7582747E+03  0.7818609E-02  0.9622457E-01
       -1   -1    0    0    0  501  0.00000000000E+00  0.00000000000E+00  0.15999739558E+03  0.15999739565E+03  0.50400001928E-02 0. -1.
        1   -1    0    0  501    0  0.00000000000E+00  0.00000000000E+00 -0.89842164398E+03  0.89842164399E+03  0.50400001928E-02 0.  1.
    10030    2    1    2    0    0  0.00000000000E+00  0.00000000000E+00 -0.73842424840E+03  0.10584190396E+04  0.75827468167E+03 0.  0.
        4    1    3    3  502    0  0.67584873577E+02  0.25014712821E+03 -0.75553616620E+03  0.79873513271E+03  0.12699999809E+01 0.  1.
       -4    1    3    3    0  502 -0.67584873577E+02 -0.25014712821E+03  0.17111917798E+02  0.25968390694E+03  0.12699999809E+01 0. -1.
</event>
<event>
 5   0  0.1858013E-02  0.7098606E+03  0.7818609E-02  0.9700516E-01
        1   -1    0    0  501    0  0.00000000000E+00  0.00000000000E+00  0.34564137340E+03  0.34564137343E+03  0.50400001928E-02 0. -1.
       -1   -1    0    0    0  501  0.00000000000E+00  0.00000000000E+00 -0.36446884994E+03  0.36446884997E+03  0.50400001928E-02 0.  1.
    10030    2    1    2    0    0  0.00000000000E+00  0.00000000000E+00 -0.18827476542E+02  0.71011022341E+03  0.70986058879E+03 0.  0.
        2    1    3    3  502    0 -0.17697347287E+03 -0.30762022318E+03 -0.14485241089E+02  0.35518957477E+03  0.25500000920E-02 0. -1.
       -2    1    3    3    0  502  0.17697347287E+03  0.30762022318E+03 -0.43422354531E+01  0.35492064863E+03  0.25500000920E-02 0.  1.
</event>
<event>
 5   0  0.3184443E-02  0.7144599E+03  0.7818609E-02  0.9692818E-01
        2   -1    0    0  501    0  0.00000000000E+00  0.00000000000E+00  0.62440342791E+03  0.62440342791E+03  0.25500000920E-02 0.  1.
       -2   -1    0    0    0  501  0.00000000000E+00  0.00000000000E+00 -0.20437625608E+03  0.20437625609E+03  0.25500000920E-02 0. -1.
    10030    2    1    2    0    0  0.00000000000E+00  0.00000000000E+00  0.42002717183E+03  0.82877968401E+03  0.71445989359E+03 0.  0.
        3    1    3    3  502    0 -0.65539187631E+02 -0.12171737612E+03  0.59211756000E+03  0.60804088664E+03  0.10100000352E+00 0.  1.
       -3    1    3    3    0  502  0.65539187631E+02  0.12171737612E+03 -0.17209038816E+03  0.22073879737E+03  0.10100000352E+00 0. -1.
</event>
<event>
 5   0  0.1839038E-02  0.6014542E+03  0.7818609E-02  0.9902394E-01
        1   -1    0    0  501    0  0.00000000000E+00  0.00000000000E+00  0.64083250704E+03  0.64083250706E+03  0.50400001928E-02 0.  1.
       -1   -1    0    0    0  501  0.00000000000E+00  0.00000000000E+00 -0.14112390342E+03  0.14112390351E+03  0.50400001928E-02 0. -1.
    10030    2    1    2    0    0  0.00000000000E+00  0.00000000000E+00  0.49970860362E+03  0.78195641057E+03  0.60145418736E+03 0.  0.
        5    1    3    3  502    0 -0.17438262189E+03 -0.80151456653E+01 -0.68450023175E+02  0.18756608715E+03  0.46999998093E+01 0. -1.
       -5    1    3    3    0  502  0.17438262189E+03  0.80151456653E+01  0.56815862680E+03  0.59439032342E+03  0.46999998093E+01 0.  1.
</event>
<event>
 5   0  0.3184443E-02  0.7194930E+03  0.7818609E-02  0.9684465E-01
        2   -1    0    0  501    0  0.00000000000E+00  0.00000000000E+00  0.24167557998E+03  0.24167558000E+03  0.25500000920E-02 0.  1.
       -2   -1    0    0    0  501  0.00000000000E+00  0.00000000000E+00 -0.53550110492E+03  0.53550110493E+03  0.25500000920E-02 0. -1.
    10030    2    1    2    0    0  0.00000000000E+00  0.00000000000E+00 -0.29382552494E+03  0.77717668493E+03  0.71949298849E+03 0.  0.
        3    1    3    3  502    0  0.30805326535E+03 -0.18024182545E+03 -0.98201883899E+02  0.37017232492E+03  0.10100000352E+00 0.  1.
       -3    1    3    3    0  502 -0.30805326535E+03  0.18024182545E+03 -0.19562364104E+03  0.40700436001E+03  0.10100000352E+00 0. -1.
</event>
<event>
 5   0  0.1233912E-02  0.7008207E+03  0.7818609E-02  0.9715830E-01
       -3   -1    0    0    0  501  0.00000000000E+00  0.00000000000E+00  0.15934113270E+03  0.15934116471E+03  0.10100000352E+00 0.  1.
        3   -1    0    0  501    0  0.00000000000E+00  0.00000000000E+00 -0.77059438237E+03  0.77059438899E+03  0.10100000352E+00 0. -1.
    10030    2    1    2    0    0  0.00000000000E+00  0.00000000000E+00 -0.61125324967E+03  0.92993555370E+03  0.70082066094E+03 0.  0.
        3    1    3    3  502    0  0.32992743638E+03 -0.11542432647E+03 -0.33846634035E+03  0.48655355529E+03  0.10100000352E+00 0.  1.
       -3    1    3    3    0  502 -0.32992743638E+03  0.11542432647E+03 -0.27278690932E+03  0.44338199841E+03  0.10100000352E+00 0. -1.
</event>
<event>
 5   0  0.1951465E-02  0.6642545E+03  0.7818609E-02  0.9780393E-01
        1   -1    0    0  501    0  0.00000000000E+00  0.00000000000E+00  0.29105074076E+03  0.29105074080E+03  0.50400001928E-02 0. -1.
       -1   -1    0    0    0  501  0.00000000000E+00  0.00000000000E+00 -0.37900098862E+03  0.37900098865E+03  0.50400001928E-02 0.  1.
    10030    2    1    2    0    0  0.00000000000E+00  0.00000000000E+00 -0.87950247860E+02  0.67005172945E+03  0.66425452504E+03 0.  0.
        4    1    3    3  502    0  0.12475306322E+03  0.26395477438E+03  0.11574645253E+03  0.31406098751E+03  0.12699999809E+01 0.  1.
       -4    1    3    3    0  502 -0.12475306322E+03 -0.26395477438E+03 -0.20369670039E+03  0.35599074194E+03  0.12699999809E+01 0. -1.
</event>
<event>
 5   0  0.1839038E-02  0.7005495E+03  0.7818609E-02  0.9716293E-01
        1   -1    0    0  501    0  0.00000000000E+00  0.00000000000E+00  0.42653054024E+03  0.42653054027E+03  0.50400001928E-02 0. -1.
       -1   -1    0    0    0  501  0.00000000000E+00  0.00000000000E+00 -0.28765208856E+03  0.28765208860E+03  0.50400001928E-02 0.  1.
    10030    2    1    2    0    0  0.00000000000E+00  0.00000000000E+00  0.13887845168E+03  0.71418262888E+03  0.70054950078E+03 0.  0.
        5    1    3    3  502    0  0.27205385057E+03 -0.88189879983E+02 -0.13668239629E+03  0.31700933739E+03  0.46999998093E+01 0.  1.
       -5    1    3    3    0  502 -0.27205385057E+03  0.88189879983E+02  0.27556084797E+03  0.39717329149E+03  0.46999998093E+01 0. -1.
</event>
<event>
 5   0  0.3113940E-02  0.6980244E+03  0.7818609E-02  0.9720617E-01
        2   -1    0    0  501    0  0.00000000000E+00  0.00000000000E+00  0.52977843210E+03  0.52977843211E+03  0.25500000920E-02 0. -1.
       -2   -1    0    0    0  501  0.00000000000E+00  0.00000000000E+00 -0.22992537691E+03  0.22992537693E+03  0.25500000920E-02 0.  1.
    10030    2    1    2    0    0  0.00000000000E+00  0.00000000000E+00  0.29985305519E+03  0.75970380903E+03  0.69802437118E+03 0.  0.
        5    1    3    3  502    0  0.14741319620E+03 -0.29822920892E+03  0.35177233429E+02  0.33456066598E+03  0.46999998093E+01 0. -1.
       -5    1    3    3    0  502 -0.14741319620E+03  0.29822920892E+03  0.26467582176E+03  0.42514314306E+03  0.46999998093E+01 0.  1.
</event>
<event>
 5   0  0.1969818E-02  0.6943657E+03  0.7818609E-02  0.9726916E-01
        1   -1    0    0  501    0  0.00000000000E+00  0.00000000000E+00  0.30000933668E+03  0.30000933672E+03  0.50400001928E-02 0.  1.
       -1   -1    0    0    0  501  0.00000000000E+00  0.00000000000E+00 -0.40177392640E+03  0.40177392644E+03  0.50400001928E-02 0. -1.
    10030    2    1    2    0    0  0.00000000000E+00  0.00000000000E+00 -0.10176458972E+03  0.70178326316E+03  0.69436569380E+03 0.  0.
        1    1    3    3  502    0 -0.21215815307E+03  0.10312100826E+03  0.20657586803E+03  0.31355799071E+03  0.50400001928E-02 0.  1.
       -1    1    3    3    0  502  0.21215815307E+03 -0.10312100826E+03 -0.30834045776E+03  0.38822527245E+03  0.50400001928E-02 0. -1.
</event>
<event>
 5   0  0.3113940E-02  0.7031055E+03  0.7818609E-02  0.9711936E-01
       -2   -1    0    0    0  501  0.00000000000E+00  0.00000000000E+00  0.38133137318E+03  0.38133137319E+03  0.25500000920E-02 0. -1.
        2   -1    0    0  501    0  0.00000000000E+00  0.00000000000E+00 -0.32409957161E+03  0.32409957162E+03  0.25500000920E-02 0.  1.
    10030    2    1    2    0    0  0.00000000000E+00  0.00000000000E+00  0.57231801565E+02  0.70543094481E+03  0.70310549620E+03 0.  0.
        5    1    3    3  502    0  0.15061354053E+03  0.58357864615E+02  0.34186184776E+03  0.37812920001E+03  0.46999998093E+01 0. -1.
       -5    1    3    3    0  502 -0.15061354053E+03 -0.58357864615E+02 -0.28463004619E+03  0.32730174480E+03  0.46999998093E+01 0.  1.
</event>
<event>
 5   0  0.1858013E-02  0.6979456E+03  0.7818609E-02  0.9720752E-01
        1   -1    0    0  501    0  0.00000000000E+00  0.00000000000E+00  0.17212061556E+04  0.17212061556E+04  0.50400001928E-02 0.  1.
       -1   -1    0    0    0  501  0.00000000000E+00  0.00000000000E+00 -0.70753885022E+02  0.70753885202E+02  0.50400001928E-02 0. -1.
    10030    2    1    2    0    0  0.00000000000E+00  0.00000000000E+00  0.16504522705E+04  0.17919600408E+04  0.69794562137E+03 0.  0.
        2    1    3    3  502    0 -0.34630487507E+03 -0.39552188780E+02  0.86899244551E+03  0.93629018605E+03  0.25500000920E-02 0. -1.
       -2    1    3    3    0  502  0.34630487507E+03  0.39552188780E+02  0.78145982504E+03  0.85566985473E+03  0.25500000920E-02 0.  1.
</event>
<event>
 5   0  0.1884172E-02  0.6982229E+03  0.7818609E-02  0.9720276E-01
       -1   -1    0    0    0  501  0.00000000000E+00  0.00000000000E+00  0.22756196456E+03  0.22756196462E+03  0.50400001928E-02 0.  1.
        1   -1    0    0  501    0  0.00000000000E+00  0.00000000000E+00 -0.53558509746E+03  0.53558509748E+03  0.50400001928E-02 0. -1.
    10030    2    1    2    0    0  0.00000000000E+00  0.00000000000E+00 -0.30802313289E+03  0.76314706210E+03  0.69822287845E+03 0.  0.
        3    1    3    3  502    0  0.55881111857E+02 -0.32696744886E+03 -0.35039894033E+02  0.33355391716E+03  0.10100000352E+00 0. -1.
       -3    1    3    3    0  502 -0.55881111857E+02  0.32696744886E+03 -0.27298323886E+03  0.42959314494E+03  0.10100000352E+00 0.  1.
</event>
<event>
 5   0  0.1233912E-02  0.6091560E+03  0.7818609E-02  0.9886590E-01
       -3   -1    0    0    0  501  0.00000000000E+00  0.00000000000E+00  0.41780669473E+03  0.41780670693E+03  0.10100000352E+00 0.  1.
        3   -1    0    0  501    0  0.00000000000E+00  0.00000000000E+00 -0.22203509631E+03  0.22203511928E+03  0.10100000352E+00 0. -1.
    10030    2    1    2    0    0  0.00000000000E+00  0.00000000000E+00  0.19577159842E+03  0.63984182621E+03  0.60915600943E+03 0.  0.
        3    1    3    3  502    0  0.20401468998E+02 -0.19820318580E+03 -0.14408138807E+03  0.24588651730E+03  0.10100000352E+00 0. -1.
       -3    1    3    3    0  502 -0.20401468998E+02  0.19820318580E+03  0.33985298649E+03  0.39395530892E+03  0.10100000352E+00 0.  1.
</event>
<event>
 5   0  0.1839038E-02  0.6989031E+03  0.7818609E-02  0.9719110E-01
       -1   -1    0    0    0  501  0.00000000000E+00  0.00000000000E+00  0.25600430671E+03  0.25600430676E+03  0.50400001928E-02 0.  1.
        1   -1    0    0  501    0  0.00000000000E+00  0.00000000000E+00 -0.47700904901E+03  0.47700904904E+03  0.50400001928E-02 0. -1.
    10030    2    1    2    0    0  0.00000000000E+00  0.00000000000E+00 -0.22100474230E+03  0.73301335579E+03  0.69890305741E+03 0.  0.
        5    1    3    3  502    0 -0.14899332226E+03 -0.13600628161E+03  0.18872453797E+03  0.27628926860E+03  0.46999998093E+01 0.  1.
       -5    1    3    3    0  502  0.14899332226E+03  0.13600628161E+03 -0.40972928027E+03  0.45672408719E+03  0.46999998093E+01 0. -1.
</event>
<event>
 5   0  0.2933851E-02  0.7002723E+03  0.7818609E-02  0.9716767E-01
       -2   -1    0    0    0  501  0.00000000000E+00  0.00000000000E+00  0.70588086873E+02  0.70588086919E+02  0.25500000920E-02 0.  1.
        2   -1    0    0  501    0  0.00000000000E+00  0.00000000000E+00 -0.17367705523E+04  0.17367705523E+04  0.25500000920E-02 0. -1.
    10030    2    1    2    0    0  0.00000000000E+00  0.00000000000E+00 -0.16661824654E+04  0.18073586392E+04  0.70027226324E+03 0.  0.
        2    1    3    3  502    0  0.26945340046E+03  0.18593103300E+02 -0.14081508396E+04  0.14338199418E+04  0.25500000920E-02 0. -1.
       -2    1    3    3    0  502 -0.26945340046E+03 -0.18593103300E+02 -0.25803162581E+03  0.37353869737E+03  0.25500000920E-02 0.  1.
</event>
<event>
 5   0  0.3290656E-02  0.6963657E+03  0.7818609E-02  0.9723468E-01
       -2   -1    0    0    0  501  0.00000000000E+00  0.00000000000E+00  0.93593322146E+02  0.93593322180E+02  0.25500000920E-02 0. -1.
        2   -1    0    0  501    0  0.00000000000E+00  0.00000000000E+00 -0.12952984959E+04  0.12952984959E+04  0.25500000920E-02 0.  1.
    10030    2    1    2    0    0  0.00000000000E+00  0.00000000000E+00 -0.12017051738E+04  0.13888918181E+04  0.69636567816E+03 0.  0.
        1    1    3    3  502    0  0.22878878338E+03 -0.17100173348E+03 -0.99797774818E+03  0.10380488843E+04  0.50400001928E-02 0.  1.
       -1    1    3    3    0  502 -0.22878878338E+03  0.17100173348E+03 -0.20372742560E+03  0.35084293383E+03  0.50400001928E-02 0. -1.
</event>
<event>
 5   0  0.1969818E-02  0.6993381E+03  0.7818609E-02  0.9718365E-01
        1   -1    0    0  501    0  0.00000000000E+00  0.00000000000E+00  0.14318598697E+04  0.14318598697E+04  0.50400001928E-02 0. -1.
       -1   -1    0    0    0  501  0.00000000000E+00  0.00000000000E+00 -0.85391344473E+02  0.85391344622E+02  0.50400001928E-02 0.  1.
    10030    2    1    2    0    0  0.00000000000E+00  0.00000000000E+00  0.13464685252E+04  0.15172512143E+04  0.69933808559E+03 0.  0.
        1    1    3    3  502    0 -0.18189596445E+03 -0.18359502105E+03  0.16223577124E+03  0.30514540654E+03  0.50400001928E-02 0.  1.
       -1    1    3    3    0  502  0.18189596445E+03  0.18359502105E+03  0.11842327540E+04  0.12121058078E+04  0.50400001928E-02 0. -1.
</event>
<event>
 5   0  0.1884172E-02  0.7144204E+03  0.7818609E-02  0.9692884E-01
       -1   -1    0    0    0  501  0.00000000000E+00  0.00000000000E+00  0.10067706362E+03  0.10067706374E+03  0.50400001928E-02 0. -1.
        1   -1    0    0  501    0  0.00000000000E+00  0.00000000000E+00 -0.12674100837E+04  0.12674100837E+04  0.50400001928E-02 0.  1.
    10030    2    1    2    0    0  0.00000000000E+00  0.00000000000E+00 -0.11667330201E+04  0.13680871475E+04  0.71442039646E+03 0.  0.
        3    1    3    3  502    0 -0.23976912876E+03  0.47036000481E+02 -0.84382310251E+02  0.25849952598E+03  0.10100000352E+00 0. -1.
       -3    1    3    3    0  502  0.23976912876E+03 -0.47036000481E+02 -0.10823507099E+04  0.11095876215E+04  0.10100000352E+00 0.  1.
</event>
<event>
 5   0  0.1884172E-02  0.7174085E+03  0.7818609E-02  0.9687916E-01
        1   -1    0    0  501    0  0.00000000000E+00  0.00000000000E+00  0.12973410512E+04  0.12973410512E+04  0.50400001928E-02 0. -1.
       -1   -1    0    0    0  501  0.00000000000E+00  0.00000000000E+00 -0.99178798164E+02  0.99178798292E+02  0.50400001928E-02 0.  1.
    10030    2    1    2    0    0  0.00000000000E+00  0.00000000000E+00  0.11981622530E+04  0.13965198495E+04  0.71740846486E+03 0.  0.
        3    1    3    3  502    0 -0.17983319300E+03  0.16519365023E+03  0.87599110344E+02  0.25942731875E+03  0.10100000352E+00 0.  1.
       -3    1    3    3    0  502  0.17983319300E+03 -0.16519365023E+03  0.11105631427E+04  0.11370925307E+04  0.10100000352E+00 0. -1.
</event>
<event>
 5   0  0.1858013E-02  0.7308160E+03  0.7818609E-02  0.9665937E-01
       -1   -1    0    0    0  501  0.00000000000E+00  0.00000000000E+00  0.50878287869E+03  0.50878287871E+03  0.50400001928E-02 0.  1.
        1   -1    0    0  501    0  0.00000000000E+00  0.00000000000E+00 -0.26243614180E+03  0.26243614185E+03  0.50400001928E-02 0. -1.
    10030    2    1    2    0    0  0.00000000000E+00  0.00000000000E+00  0.24634673689E+03  0.77121902056E+03  0.73081602535E+03 0.  0.
        2    1    3    3  502    0  0.33856657919E+03 -0.53979503548E+02  0.25658198469E+03  0.42822357504E+03  0.25500000920E-02 0.  1.
       -2    1    3    3    0  502 -0.33856657919E+03  0.53979503548E+02 -0.10235247797E+02  0.34299544552E+03  0.25500000920E-02 0. -1.
</event>
<event>
 5   0  0.3290656E-02  0.7047160E+03  0.7818609E-02  0.9709201E-01
        2   -1    0    0  501    0  0.00000000000E+00  0.00000000000E+00  0.17479782869E+04  0.17479782869E+04  0.25500000920E-02 0.  1.
       -2   -1    0    0    0  501  0.00000000000E+00  0.00000000000E+00 -0.71028443371E+02  0.71028443417E+02  0.25500000920E-02 0. -1.
    10030    2    1    2    0    0  0.00000000000E+00  0.00000000000E+00  0.16769498435E+04  0.18190067303E+04  0.70471604724E+03 0.  0.
        1    1    3    3  502    0  0.97526998331E+02 -0.29709390665E+03  0.41924093123E+03  0.52300981178E+03  0.50400001928E-02 0. -1.
       -1    1    3    3    0  502 -0.97526998331E+02  0.29709390665E+03  0.12577089123E+04  0.12959969185E+04  0.50400001928E-02 0.  1.
</event>
<event>
 5   0  0.3184443E-02  0.6827916E+03  0.7818609E-02  0.9747122E-01
       -2   -1    0    0    0  501  0.00000000000E+00  0.00000000000E+00  0.12611360293E+03  0.12611360296E+03  0.25500000920E-02 0.  1.
        2   -1    0    0  501    0  0.00000000000E+00  0.00000000000E+00 -0.92417536070E+03  0.92417536071E+03  0.25500000920E-02 0. -1.
    10030    2    1    2    0    0  0.00000000000E+00  0.00000000000E+00 -0.79806175778E+03  0.10502889637E+04  0.68279157726E+03 0.  0.
        3    1    3    3  502    0  0.80432711316E+02  0.33156220886E+03 -0.41775401761E+03  0.53937125324E+03  0.10100000352E+00 0. -1.
       -3    1    3    3    0  502 -0.80432711316E+02 -0.33156220886E+03 -0.38030774017E+03  0.51091771043E+03  0.10100000352E+00 0.  1.
</event>
<event>
 5   0  0.1884172E-02  0.7696068E+03  0.7818609E-02  0.9605083E-01
       -1   -1    0    0    0  501  0.00000000000E+00  0.00000000000E+00  0.12653963119E+03  0.12653963129E+03  0.50400001928E-02 0.  1.
        1   -1    0    0  501    0  0.00000000000E+00  0.00000000000E+00 -0.11701762619E+04  0.11701762620E+04  0.50400001928E-02 0. -1.
    10030    2    1    2    0    0  0.00000000000E+00  0.00000000000E+00 -0.10436366308E+04  0.12967158932E+04  0.76960684166E+03 0.  0.
        3    1    3    3  502    0  0.52150663960E+02  0.37325830377E+03 -0.65268048557E+03  0.75367982561E+03  0.10100000352E+00 0. -1.
       -3    1    3    3    0  502 -0.52150663960E+02 -0.37325830377E+03 -0.39095614519E+03  0.54303606763E+03  0.10100000352E+00 0.  1.
</event>
<event>
 5   0  0.3183963E-02  0.7174477E+03  0.7818609E-02  0.9687851E-01
        2   -1    0    0  501    0  0.00000000000E+00  0.00000000000E+00  0.94179461428E+03  0.94179461428E+03  0.25500000920E-02 0. -1.
       -2   -1    0    0    0  501  0.00000000000E+00  0.00000000000E+00 -0.13663572699E+03  0.13663572702E+03  0.25500000920E-02 0.  1.
    10030    2    1    2    0    0  0.00000000000E+00  0.00000000000E+00  0.80515888728E+03  0.10784303413E+04  0.71744767563E+03 0.  0.
        4    1    3    3  502    0 -0.70276025380E+01 -0.27873462713E+03  0.74183441259E+03  0.79250380956E+03  0.12699999809E+01 0. -1.
       -4    1    3    3    0  502  0.70276025380E+01  0.27873462713E+03  0.63324474693E+02  0.28592653174E+03  0.12699999809E+01 0.  1.
</event>
<event>
 5   0  0.1884172E-02  0.7009363E+03  0.7818609E-02  0.9715632E-01
        1   -1    0    0  501    0  0.00000000000E+00  0.00000000000E+00  0.10560695008E+04  0.10560695008E+04  0.50400001928E-02 0.  1.
       -1   -1    0    0    0  501  0.00000000000E+00  0.00000000000E+00 -0.11630667757E+03  0.11630667768E+03  0.50400001928E-02 0. -1.
    10030    2    1    2    0    0  0.00000000000E+00  0.00000000000E+00  0.93976282325E+03  0.11723761785E+04  0.70093633091E+03 0.  0.
        3    1    3    3  502    0  0.12924208367E+03  0.31766311449E+03  0.59066196406E+03  0.68300434587E+03  0.10100000352E+00 0.  1.
       -3    1    3    3    0  502 -0.12924208367E+03 -0.31766311449E+03  0.34910085920E+03  0.48937183265E+03  0.10100000352E+00 0. -1.
</event>
<event>
 5   0  0.1884172E-02  0.7051922E+03  0.7818609E-02  0.9708394E-01
       -1   -1    0    0    0  501  0.00000000000E+00  0.00000000000E+00  0.99824171002E+02  0.99824171129E+02  0.50400001928E-02 0. -1.
        1   -1    0    0  501    0  0.00000000000E+00  0.00000000000E+00 -0.12454300552E+04  0.12454300552E+04  0.50400001928E-02 0.  1.
    10030    2    1    2    0    0  0.00000000000E+00  0.00000000000E+00 -0.11456058842E+04  0.13452542263E+04  0.70519223731E+03 0.  0.
        3    1    3    3  502    0 -0.96609748011E+01 -0.90937412378E+02 -0.12224132990E+04  0.12258292014E+04  0.10100000352E+00 0.  1.
       -3    1    3    3    0  502  0.96609748011E+01  0.90937412378E+02  0.76807414779E+02  0.11942502489E+03  0.10100000352E+00 0. -1.
</event>
<event>
 5   0  0.3113940E-02  0.7013177E+03  0.7818609E-02  0.9714981E-01
        2   -1    0    0  501    0  0.00000000000E+00  0.00000000000E+00  0.59560851374E+03  0.59560851375E+03  0.25500000920E-02 0. -1.
       -2   -1    0    0    0  501  0.00000000000E+00  0.00000000000E+00 -0.20644707372E+03  0.20644707374E+03  0.25500000920E-02 0.  1.
    10030    2    1    2    0    0  0.00000000000E+00  0.00000000000E+00  0.38916144002E+03  0.80205558748E+03  0.70131771617E+03 0.  0.
        5    1    3    3  502    0 -0.21779716458E+03 -0.84321163080E+02  0.49366823474E+03  0.54614657321E+03  0.46999998093E+01 0. -1.
       -5    1    3    3    0  502  0.21779716458E+03  0.84321163080E+02 -0.10450679472E+03  0.25590901427E+03  0.46999998093E+01 0.  1.
</event>
<event>
 5   0  0.1951465E-02  0.7000244E+03  0.7818609E-02  0.9717190E-01
        1   -1    0    0  501    0  0.00000000000E+00  0.00000000000E+00  0.11708437483E+04  0.11708437483E+04  0.50400001928E-02 0.  1.
       -1   -1    0    0    0  501  0.00000000000E+00  0.00000000000E+00 -0.10463270367E+03  0.10463270379E+03  0.50400001928E-02 0. -1.
    10030    2    1    2    0    0  0.00000000000E+00  0.00000000000E+00  0.10662110446E+04  0.12754764521E+04  0.70002441971E+03 0.  0.
        4    1    3    3  502    0  0.33383924990E+02 -0.64335798446E+02 -0.90804396031E+02  0.11619222284E+03  0.12699999809E+01 0. -1.
       -4    1    3    3    0  502 -0.33383924990E+02  0.64335798446E+02  0.11570154406E+04  0.11592842293E+04  0.12699999809E+01 0.  1.
</event>
<event>
 5   0  0.1884172E-02  0.6978581E+03  0.7818609E-02  0.9720902E-01
        1   -1    0    0  501    0  0.00000000000E+00  0.00000000000E+00  0.23694902406E+04  0.23694902406E+04  0.50400001928E-02 0.  1.
       -1   -1    0    0    0  501  0.00000000000E+00  0.00000000000E+00 -0.51382984165E+02  0.51382984412E+02  0.50400001928E-02 0. -1.
    10030    2    1    2    0    0  0.00000000000E+00  0.00000000000E+00  0.23181072564E+04  0.24208732250E+04  0.69785809393E+03 0.  0.
        3    1    3    3  502    0  0.19582739764E+03 -0.10479562958E+03  0.22550463735E+03  0.31651673781E+03  0.10100000352E+00 0. -1.
       -3    1    3    3    0  502 -0.19582739764E+03  0.10479562958E+03  0.20926026190E+04  0.21043564872E+04  0.10100000352E+00 0.  1.
</event>
<event>
 5   0  0.2933851E-02  0.6864526E+03  0.7818609E-02  0.9740685E-01
        2   -1    0    0  501    0  0.00000000000E+00  0.00000000000E+00  0.17415141289E+04  0.17415141289E+04  0.25500000920E-02 0.  1.
       -2   -1    0    0    0  501  0.00000000000E+00  0.00000000000E+00 -0.67644755199E+02  0.67644755247E+02  0.25500000920E-02 0. -1.
    10030    2    1    2    0    0  0.00000000000E+00  0.00000000000E+00  0.16738693737E+04  0.18091588841E+04  0.68645261153E+03 0.  0.
        2    1    3    3  502    0 -0.24079316795E+03 -0.78574878435E+02  0.14473799147E+04  0.14693753703E+04  0.25500000920E-02 0.  1.
       -2    1    3    3    0  502  0.24079316795E+03  0.78574878435E+02  0.22648945895E+03  0.33978351384E+03  0.25500000920E-02 0. -1.
</event>
<event>
 5   0  0.1951465E-02  0.6198239E+03  0.7818609E-02  0.9865110E-01
        1   -1    0    0  501    0  0.00000000000E+00  0.00000000000E+00  0.39969340941E+03  0.39969340944E+03  0.50400001928E-02 0.  1.
       -1   -1    0    0    0  501  0.00000000000E+00  0.00000000000E+00 -0.24029774034E+03  0.24029774040E+03  0.50400001928E-02 0. -1.
    10030    2    1    2    0    0  0.00000000000E+00  0.00000000000E+00  0.15939566907E+03  0.63999114984E+03  0.61982392060E+03 0.  0.
        4    1    3    3  502    0  0.91456639546E+02  0.17667906083E+03 -0.16565521869E+03  0.25888814541E+03  0.12699999809E+01 0. -1.
       -4    1    3    3    0  502 -0.91456639546E+02 -0.17667906083E+03  0.32505088776E+03  0.38110300443E+03  0.12699999809E+01 0.  1.
</event>
<event>
 5   0  0.3290656E-02  0.6973754E+03  0.7818609E-02  0.9721731E-01
       -2   -1    0    0    0  501  0.00000000000E+00  0.00000000000E+00  0.76847697589E+02  0.76847697632E+02  0.25500000920E-02 0.  1.
        2   -1    0    0  501    0  0.00000000000E+00  0.00000000000E+00 -0.15821309252E+04  0.15821309252E+04  0.25500000920E-02 0. -1.
    10030    2    1    2    0    0  0.00000000000E+00  0.00000000000E+00 -0.15052832276E+04  0.16589786228E+04  0.69737541948E+03 0.  0.
        1    1    3    3  502    0  0.26263730801E+03  0.13026671966E+03 -0.12017122296E+04  0.12369559639E+04  0.50400001928E-02 0. -1.
       -1    1    3    3    0  502 -0.26263730801E+03 -0.13026671966E+03 -0.30357099804E+03  0.42202265897E+03  0.50400001928E-02 0.  1.
</event>
<event>
 5   0  0.1233912E-02  0.6990989E+03  0.7818609E-02  0.9718775E-01
       -4   -1    0    0    0  501  0.00000000000E+00  0.00000000000E+00  0.11874115308E+03  0.11874794455E+03  0.12699999809E+01 0. -1.
        4   -1    0    0  501    0  0.00000000000E+00  0.00000000000E+00 -0.10289647095E+04  0.10289654933E+04  0.12699999809E+01 0.  1.
    10030    2    1    2    0    0  0.00000000000E+00  0.00000000000E+00 -0.91022355644E+03  0.11477134378E+04  0.69909885756E+03 0.  0.
        5    1    3    3  502    0  0.16196738523E+03  0.83938240270E+02 -0.94455894298E+03  0.96202533689E+03  0.46999998093E+01 0.  1.
       -5    1    3    3    0  502 -0.16196738523E+03 -0.83938240270E+02  0.34335386541E+02  0.18568810093E+03  0.46999998093E+01 0. -1.
</event>
<event>
 5   0  0.1951465E-02  0.6868101E+03  0.7818609E-02  0.9740058E-01
       -1   -1    0    0    0  501  0.00000000000E+00  0.00000000000E+00  0.41132646833E+03  0.41132646836E+03  0.50400001928E-02 0.  1.
        1   -1    0    0  501    0  0.00000000000E+00  0.00000000000E+00 -0.28669937917E+03  0.28669937922E+03  0.50400001928E-02 0. -1.
    10030    2    1    2    0    0  0.00000000000E+00  0.00000000000E+00  0.12462708916E+03  0.69802584758E+03  0.68681014301E+03 0.  0.
        4    1    3    3  502    0 -0.92247406498E+02 -0.25476851340E+03  0.27672994206E+03  0.38729530485E+03  0.12699999809E+01 0.  1.
       -4    1    3    3    0  502  0.92247406498E+02  0.25476851340E+03 -0.15210285290E+03  0.31073054273E+03  0.12699999809E+01 0. -1.
</event>
<event>
 5   0  0.3184443E-02  0.7056041E+03  0.7818609E-02  0.9707696E-01
       -2   -1    0    0    0  501  0.00000000000E+00  0.00000000000E+00  0.95173679116E+02  0.95173679150E+02  0.25500000920E-02 0.  1.
        2   -1    0    0  501    0  0.00000000000E+00  0.00000000000E+00 -0.13078122444E+04  0.13078122444E+04  0.25500000920E-02 0. -1.
    10030    2    1    2    0    0  0.00000000000E+00  0.00000000000E+00 -0.12126385653E+04  0.14029859235E+04  0.70560414657E+03 0.  0.
        3    1    3    3  502    0 -0.14964061885E+03  0.13987160862E+03 -0.35165386243E+02  0.20782924794E+03  0.10100000352E+00 0. -1.
       -3    1    3    3    0  502  0.14964061885E+03 -0.13987160862E+03 -0.11774731790E+04  0.11951566756E+04  0.10100000352E+00 0.  1.
</event>
<event>
 5   0  0.1884172E-02  0.7180028E+03  0.7818609E-02  0.9686931E-01
        1   -1    0    0  501    0  0.00000000000E+00  0.00000000000E+00  0.19188901789E+03  0.19188901796E+03  0.50400001928E-02 0.  1.
       -1   -1    0    0    0  501  0.00000000000E+00  0.00000000000E+00 -0.67164867420E+03  0.67164867422E+03  0.50400001928E-02 0. -1.
    10030    2    1    2    0    0  0.00000000000E+00  0.00000000000E+00 -0.47975965631E+03  0.86353769218E+03  0.71800279804E+03 0.  0.
        3    1    3    3  502    0  0.23064699337E+03 -0.62935553148E+02  0.82215638303E+02  0.25282076810E+03  0.10100000352E+00 0.  1.
       -3    1    3    3    0  502 -0.23064699337E+03  0.62935553148E+02 -0.56197529461E+03  0.61071692408E+03  0.10100000352E+00 0. -1.
</event>
<event>
 5   0  0.2933851E-02  0.6596345E+03  0.7818609E-02  0.9788867E-01
       -2   -1    0    0    0  501  0.00000000000E+00  0.00000000000E+00  0.69048807855E+03  0.69048807855E+03  0.25500000920E-02 0.  1.
        2   -1    0    0  501    0  0.00000000000E+00  0.00000000000E+00 -0.15753987392E+03  0.15753987394E+03  0.25500000920E-02 0. -1.
    10030    2    1    2    0    0  0.00000000000E+00  0.00000000000E+00  0.53294820463E+03  0.84802795250E+03  0.65963445892E+03 0.  0.
        2    1    3    3  502    0  0.77958521531E+02 -0.14224695473E+03 -0.10271486565E+03  0.19199497609E+03  0.25500000920E-02 0. -1.
       -2    1    3    3    0  502 -0.77958521531E+02  0.14224695473E+03  0.63566307028E+03  0.65603297641E+03  0.25500000920E-02 0.  1.
</event>
<event>
 5   0  0.3184443E-02  0.6736893E+03  0.7818609E-02  0.9763316E-01
        2   -1    0    0  501    0  0.00000000000E+00  0.00000000000E+00  0.50593375373E+03  0.50593375374E+03  0.25500000920E-02 0.  1.
       -2   -1    0    0    0  501  0.00000000000E+00  0.00000000000E+00 -0.22426715953E+03  0.22426715955E+03  0.25500000920E-02 0. -1.
    10030    2    1    2    0    0  0.00000000000E+00  0.00000000000E+00  0.28166659420E+03  0.73020091329E+03  0.67368932267E+03 0.  0.
        3    1    3    3  502    0  0.19048799226E+03 -0.27143210282E+03  0.20498652643E+03  0.38984682614E+03  0.10100000352E+00 0.  1.
       -3    1    3    3    0  502 -0.19048799226E+03  0.27143210282E+03  0.76680067778E+02  0.34035408714E+03  0.10100000352E+00 0. -1.
</event>
<event>
 5   0  0.2933851E-02  0.7032184E+03  0.7818609E-02  0.9711744E-01
        2   -1    0    0  501    0  0.00000000000E+00  0.00000000000E+00  0.87530948060E+03  0.87530948060E+03  0.25500000920E-02 0. -1.
       -2   -1    0    0    0  501  0.00000000000E+00  0.00000000000E+00 -0.14124036968E+03  0.14124036970E+03  0.25500000920E-02 0.  1.
    10030    2    1    2    0    0  0.00000000000E+00  0.00000000000E+00  0.73406911092E+03  0.10165498503E+04  0.70321841454E+03 0.  0.
        2    1    3    3  502    0 -0.16392244095E+03 -0.22664148698E+03  0.59050236789E+02  0.28587385459E+03  0.25500000920E-02 0.  1.
       -2    1    3    3    0  502  0.16392244095E+03  0.22664148698E+03  0.67501887413E+03  0.73067599571E+03  0.25500000920E-02 0. -1.
</event>
<event>
 5   0  0.2933851E-02  0.6932488E+03  0.7818609E-02  0.9728848E-01
        2   -1    0    0  501    0  0.00000000000E+00  0.00000000000E+00  0.95444109178E+03  0.95444109178E+03  0.25500000920E-02 0.  1.
       -2   -1    0    0    0  501  0.00000000000E+00  0.00000000000E+00 -0.12588358259E+03  0.12588358262E+03  0.25500000920E-02 0. -1.
    10030    2    1    2    0    0  0.00000000000E+00  0.00000000000E+00  0.82855750919E+03  0.10803246744E+04  0.69324876927E+03 0.  0.
        2    1    3    3  502    0  0.16086418899E+03  0.23080366946E+03  0.72982395636E+03  0.78217045995E+03  0.25500000920E-02 0.  1.
       -2    1    3    3    0  502 -0.16086418899E+03 -0.23080366946E+03  0.98733552825E+02  0.29815421445E+03  0.25500000920E-02 0. -1.
</event>
<event>
 5   0  0.1839038E-02  0.7089125E+03  0.7818609E-02  0.9702111E-01
       -1   -1    0    0    0  501  0.00000000000E+00  0.00000000000E+00  0.31213794399E+03  0.31213794403E+03  0.50400001928E-02 0.  1.
        1   -1    0    0  501    0  0.00000000000E+00  0.00000000000E+00 -0.40251189739E+03  0.40251189742E+03  0.50400001928E-02 0. -1.
    10030    2    1    2    0    0  0.00000000000E+00  0.00000000000E+00 -0.90373953405E+02  0.71464984145E+03  0.70891250830E+03 0.  0.
        5    1    3    3  502    0  0.23802205327E+03  0.23880612694E+03  0.64941291623E+02  0.34339820247E+03  0.46999998093E+01 0.  1.
       -5    1    3    3    0  502 -0.23802205327E+03 -0.23880612694E+03 -0.15531524503E+03  0.37125163898E+03  0.46999998093E+01 0. -1.
</event>
<event>
 5   0  0.1951465E-02  0.6968952E+03  0.7818609E-02  0.9722557E-01
        1   -1    0    0  501    0  0.00000000000E+00  0.00000000000E+00  0.35537249689E+03  0.35537249692E+03  0.50400001928E-02 0. -1.
       -1   -1    0    0    0  501  0.00000000000E+00  0.00000000000E+00 -0.34165764040E+03  0.34165764043E+03  0.50400001928E-02 0.  1.
    10030    2    1    2    0    0  0.00000000000E+00  0.00000000000E+00  0.13714856491E+02  0.69703013736E+03  0.69689519664E+03 0.  0.
        4    1    3    3  502    0 -0.31763783152E+03 -0.13368641237E+03 -0.44613851967E+02  0.34750231301E+03  0.12699999809E+01 0. -1.
       -4    1    3    3    0  502  0.31763783152E+03  0.13368641237E+03  0.58328708459E+02  0.34952782435E+03  0.12699999809E+01 0.  1.
</event>
<event>
 5   0  0.2933851E-02  0.7009010E+03  0.7818609E-02  0.9715693E-01
        2   -1    0    0  501    0  0.00000000000E+00  0.00000000000E+00  0.48147175280E+03  0.48147175281E+03  0.25500000920E-02 0. -1.
       -2   -1    0    0    0  501  0.00000000000E+00  0.00000000000E+00 -0.25508359240E+03  0.25508359241E+03  0.25500000920E-02 0.  1.
    10030    2    1    2    0    0  0.00000000000E+00  0.00000000000E+00  0.22638816040E+03  0.73655534522E+03  0.70090097546E+03 0.  0.
        2    1    3    3  502    0 -0.17871451280E+02 -0.34578734142E+03  0.17005057980E+03  0.38575312565E+03  0.25500000920E-02 0. -1.
       -2    1    3    3    0  502  0.17871451280E+02  0.34578734142E+03  0.56337580607E+02  0.35080221956E+03  0.25500000920E-02 0.  1.
</event>
<event>
 5   0  0.2933851E-02  0.7048818E+03  0.7818609E-02  0.9708920E-01
       -2   -1    0    0    0  501  0.00000000000E+00  0.00000000000E+00  0.28044473385E+03  0.28044473386E+03  0.25500000920E-02 0. -1.
        2   -1    0    0  501    0  0.00000000000E+00  0.00000000000E+00 -0.44291997701E+03  0.44291997702E+03  0.25500000920E-02 0.  1.
    10030    2    1    2    0    0  0.00000000000E+00  0.00000000000E+00 -0.16247524316E+03  0.72336471088E+03  0.70488176335E+03 0.  0.
        2    1    3    3  502    0 -0.19202385860E+03 -0.20587285390E+03 -0.29882989824E+03  0.41055584557E+03  0.25500000920E-02 0.  1.
       -2    1    3    3    0  502  0.19202385860E+03  0.20587285390E+03  0.13635465508E+03  0.31280886531E+03  0.25500000920E-02 0. -1.
</event>
<event>
 5   0  0.1233912E-02  0.7004705E+03  0.7818609E-02  0.9716428E-01
        3   -1    0    0  501    0  0.00000000000E+00  0.00000000000E+00  0.14437856309E+03  0.14437859841E+03  0.10100000352E+00 0. -1.
       -3   -1    0    0    0  501  0.00000000000E+00  0.00000000000E+00 -0.84960468388E+03  0.84960468988E+03  0.10100000352E+00 0.  1.
    10030    2    1    2    0    0  0.00000000000E+00  0.00000000000E+00 -0.70522612079E+03  0.99398328829E+03  0.70047048186E+03 0.  0.
        4    1    3    3  502    0 -0.63737879014E+02  0.34397627900E+03 -0.32882957835E+03  0.48011738381E+03  0.12699999809E+01 0.  1.
       -4    1    3    3    0  502  0.63737879014E+02 -0.34397627900E+03 -0.37639654244E+03  0.51386590449E+03  0.12699999809E+01 0. -1.
</event>
<event>
 5   0  0.3184443E-02  0.7128490E+03  0.7818609E-02  0.9695508E-01
        2   -1    0    0  501    0  0.00000000000E+00  0.00000000000E+00  0.18166737561E+03  0.18166737563E+03  0.25500000920E-02 0. -1.
       -2   -1    0    0    0  501  0.00000000000E+00  0.00000000000E+00 -0.69929133248E+03  0.69929133248E+03  0.25500000920E-02 0.  1.
    10030    2    1    2    0    0  0.00000000000E+00  0.00000000000E+00 -0.51762395687E+03  0.88095870811E+03  0.71284899149E+03 0.  0.
        3    1    3    3  502    0  0.31396470965E+02  0.41157744666E+02  0.17699694868E+03  0.18441157333E+03  0.10100000352E+00 0. -1.
       -3    1    3    3    0  502 -0.31396470965E+02 -0.41157744666E+02 -0.69462090555E+03  0.69654713478E+03  0.10100000352E+00 0.  1.
</event>
<event>
 5   0  0.1233912E-02  0.6982511E+03  0.7818609E-02  0.9720228E-01
       -4   -1    0    0    0  501  0.00000000000E+00  0.00000000000E+00  0.99029647903E+03  0.99029729338E+03  0.12699999809E+01 0.  1.
        4   -1    0    0  501    0  0.00000000000E+00  0.00000000000E+00 -0.12307883632E+03  0.12308538845E+03  0.12699999809E+01 0. -1.
    10030    2    1    2    0    0  0.00000000000E+00  0.00000000000E+00  0.86721764270E+03  0.11133826818E+04  0.69825106974E+03 0.  0.
        3    1    3    3  502    0  0.42914125354E+02  0.24604566637E+03  0.44633106139E+02  0.25371680366E+03  0.10100000352E+00 0. -1.
       -3    1    3    3    0  502 -0.42914125354E+02 -0.24604566637E+03  0.82258453656E+03  0.85966587817E+03  0.10100000352E+00 0.  1.
</event>
<event>
 5   0  0.1969818E-02  0.7027351E+03  0.7818609E-02  0.9712566E-01
       -1   -1    0    0    0  501  0.00000000000E+00  0.00000000000E+00  0.13200051694E+03  0.13200051704E+03  0.50400001928E-02 0.  1.
        1   -1    0    0  501    0  0.00000000000E+00  0.00000000000E+00 -0.93529307711E+03  0.93529307712E+03  0.50400001928E-02 0. -1.
    10030    2    1    2    0    0  0.00000000000E+00  0.00000000000E+00 -0.80329256017E+03  0.10672935942E+04  0.70273514136E+03 0.  0.
        1    1    3    3  502    0  0.17914755311E+03  0.30086624903E+03 -0.35750190430E+03  0.50042177930E+03  0.50400001928E-02 0.  1.
       -1    1    3    3    0  502 -0.17914755311E+03 -0.30086624903E+03 -0.44579065587E+03  0.56687181486E+03  0.50400001928E-02 0. -1.
</event>
<event>
 5   0  0.2933851E-02  0.6995695E+03  0.7818609E-02  0.9717969E-01
        2   -1    0    0  501    0  0.00000000000E+00  0.00000000000E+00  0.53281826506E+03  0.53281826506E+03  0.25500000920E-02 0. -1.
       -2   -1    0    0    0  501  0.00000000000E+00  0.00000000000E+00 -0.22962686086E+03  0.22962686087E+03  0.25500000920E-02 0.  1.
    10030    2    1    2    0    0  0.00000000000E+00  0.00000000000E+00  0.30319140420E+03  0.76244512594E+03  0.69956954085E+03 0.  0.
        2    1    3    3  502    0  0.15137450752E+02  0.17701701675E+03 -0.17679078139E+03  0.25063748128E+03  0.25500000920E-02 0.  1.
       -2    1    3    3    0  502 -0.15137450752E+02 -0.17701701675E+03  0.47998218559E+03  0.51180764465E+03  0.25500000920E-02 0. -1.
</event>
<event>
 5   0  0.3113940E-02  0.6921644E+03  0.7818609E-02  0.9730727E-01
        2   -1    0    0  501    0  0.00000000000E+00  0.00000000000E+00  0.63682929221E+03  0.63682929222E+03  0.25500000920E-02 0. -1.
       -2   -1    0    0    0  501  0.00000000000E+00  0.00000000000E+00 -0.18807689536E+03  0.18807689538E+03  0.25500000920E-02 0.  1.
    10030    2    1    2    0    0  0.00000000000E+00  0.00000000000E+00  0.44875239685E+03  0.82490618760E+03  0.69216436246E+03 0.  0.
        5    1    3    3  502    0 -0.19814404177E+03 -0.91640883025E+02  0.54436728392E+03  0.58652957516E+03  0.46999998093E+01 0. -1.
       -5    1    3    3    0  502  0.19814404177E+03  0.91640883025E+02 -0.95614887068E+02  0.23837661244E+03  0.46999998093E+01 0.  1.
</event>
<event>
 5   0  0.1233912E-02  0.7024040E+03  0.7818609E-02  0.9713130E-01
       -4   -1    0    0    0  501  0.00000000000E+00  0.00000000000E+00  0.82935528395E+03  0.82935625634E+03  0.12699999809E+01 0. -1.
        4   -1    0    0  501    0  0.00000000000E+00  0.00000000000E+00 -0.14871760190E+03  0.14872302450E+03  0.12699999809E+01 0.  1.
    10030    2    1    2    0    0  0.00000000000E+00  0.00000000000E+00  0.68063768205E+03  0.97807928083E+03  0.70240403285E+03 0.  0.
        1    1    3    3  502    0  0.16757028059E+03  0.39300812659E+02  0.76660353106E+03  0.78568780484E+03  0.50400001928E-02 0. -1.
       -1    1    3    3    0  502 -0.16757028059E+03 -0.39300812659E+02 -0.85965849011E+02  0.19239147599E+03  0.50400001928E-02 0.  1.
</event>
<event>
 5   0  0.1839038E-02  0.7228549E+03  0.7818609E-02  0.9678926E-01
        1   -1    0    0  501    0  0.00000000000E+00  0.00000000000E+00  0.86418520403E+03  0.86418520404E+03  0.50400001928E-02 0.  1.
       -1   -1    0    0    0  501  0.00000000000E+00  0.00000000000E+00 -0.15115949161E+03  0.15115949169E+03  0.50400001928E-02 0. -1.
    10030    2    1    2    0    0  0.00000000000E+00  0.00000000000E+00  0.71302571242E+03  0.10153446957E+04  0.72285488487E+03 0.  0.
        5    1    3    3  502    0 -0.28196375820E+03  0.11558644234E+03  0.83623948422E+02  0.31603613929E+03  0.46999998093E+01 0. -1.
       -5    1    3    3    0  502  0.28196375820E+03 -0.11558644234E+03  0.62940176399E+03  0.69930855644E+03  0.46999998093E+01 0.  1.
</event>
<event>
 5   0  0.3183963E-02  0.7008383E+03  0.7818609E-02  0.9715800E-01
       -2   -1    0    0    0  501  0.00000000000E+00  0.00000000000E+00  0.19705972266E+03  0.19705972267E+03  0.25500000920E-02 0.  1.
        2   -1    0    0  501    0  0.00000000000E+00  0.00000000000E+00 -0.62312877906E+03  0.62312877907E+03  0.25500000920E-02 0. -1.
    10030    2    1    2    0    0  0.00000000000E+00  0.00000000000E+00 -0.42606905641E+03  0.82018850174E+03  0.70083831057E+03 0.  0.
        4    1    3    3  502    0  0.11779099519E+03  0.10822687488E+03 -0.57790469053E+03  0.59963590556E+03  0.12699999809E+01 0. -1.
       -4    1    3    3    0  502 -0.11779099519E+03 -0.10822687488E+03  0.15183563413E+03  0.22055259618E+03  0.12699999809E+01 0.  1.
</event>
<event>
 5   0  0.1884172E-02  0.6954769E+03  0.7818609E-02  0.9724999E-01
        1   -1    0    0  501    0  0.00000000000E+00  0.00000000000E+00  0.40713634028E+03  0.40713634031E+03  0.50400001928E-02 0. -1.
       -1   -1    0    0    0  501  0.00000000000E+00  0.00000000000E+00 -0.29700620447E+03  0.29700620451E+03  0.50400001928E-02 0.  1.
    10030    2    1    2    0    0  0.00000000000E+00  0.00000000000E+00  0.11013013581E+03  0.70414254483E+03  0.69547686994E+03 0.  0.
        3    1    3    3  502    0  0.71248950362E+02 -0.11381198656E+03 -0.26970021837E+03  0.30127694768E+03  0.10100000352E+00 0.  1.
       -3    1    3    3    0  502 -0.71248950362E+02  0.11381198656E+03  0.37983035418E+03  0.40286559715E+03  0.10100000352E+00 0. -1.
</event>
<event>
 5   0  0.1858013E-02  0.7045077E+03  0.7818609E-02  0.9709554E-01
       -1   -1    0    0    0  501  0.00000000000E+00  0.00000000000E+00  0.28306156697E+03  0.28306156701E+03  0.50400001928E-02 0. -1.
        1   -1    0    0  501    0  0.00000000000E+00  0.00000000000E+00 -0.43835967782E+03  0.43835967785E+03  0.50400001928E-02 0.  1.
    10030    2    1    2    0    0  0.00000000000E+00  0.00000000000E+00 -0.15529811086E+03  0.72142124487E+03  0.70450770706E+03 0.  0.
        2    1    3    3  502    0 -0.26544890205E+03  0.17927628010E+03  0.72428937482E+02  0.32840379900E+03  0.25500000920E-02 0. -1.
       -2    1    3    3    0  502  0.26544890205E+03 -0.17927628010E+03 -0.22772704834E+03  0.39301744587E+03  0.25500000920E-02 0.  1.
</event>
<event>
 5   0  0.2933851E-02  0.6981218E+03  0.7818609E-02  0.9720450E-01
       -2   -1    0    0    0  501  0.00000000000E+00  0.00000000000E+00  0.40659704151E+03  0.40659704151E+03  0.25500000920E-02 0.  1.
        2   -1    0    0  501    0  0.00000000000E+00  0.00000000000E+00 -0.29966651374E+03  0.29966651375E+03  0.25500000920E-02 0. -1.
    10030    2    1    2    0    0  0.00000000000E+00  0.00000000000E+00  0.10693052777E+03  0.70626355526E+03  0.69812181725E+03 0.  0.
        2    1    3    3  502    0 -0.37052187686E+02  0.30328615005E+03  0.22421805839E+03  0.37898428878E+03  0.25500000920E-02 0.  1.
       -2    1    3    3    0  502  0.37052187686E+02 -0.30328615005E+03 -0.11728753062E+03  0.32727926648E+03  0.25500000920E-02 0. -1.
</event>
<event>
 5   0  0.3113940E-02  0.7039206E+03  0.7818609E-02  0.9710551E-01
       -2   -1    0    0    0  501  0.00000000000E+00  0.00000000000E+00  0.43104341882E+03  0.43104341883E+03  0.25500000920E-02 0.  1.
        2   -1    0    0  501    0  0.00000000000E+00  0.00000000000E+00 -0.28738646756E+03  0.28738646757E+03  0.25500000920E-02 0. -1.
    10030    2    1    2    0    0  0.00000000000E+00  0.00000000000E+00  0.14365695126E+03  0.71842988640E+03  0.70392057934E+03 0.  0.
        5    1    3    3  502    0  0.65131151988E+02  0.54911577247E+00 -0.28114929411E+03  0.28863365026E+03  0.46999998093E+01 0. -1.
       -5    1    3    3    0  502 -0.65131151988E+02 -0.54911577247E+00  0.42480624537E+03  0.42979623613E+03  0.46999998093E+01 0.  1.
</event>
<event>
 5   0  0.1951465E-02  0.7002302E+03  0.7818609E-02  0.9716839E-01
       -1   -1    0    0    0  501  0.00000000000E+00  0.00000000000E+00  0.46424362602E+03  0.46424362605E+03  0.50400001928E-02 0.  1.
        1   -1    0    0  501    0  0.00000000000E+00  0.00000000000E+00 -0.26404363075E+03  0.26404363079E+03  0.50400001928E-02 0. -1.
    10030    2    1    2    0    0  0.00000000000E+00  0.00000000000E+00  0.20019999527E+03  0.72828725684E+03  0.70023016956E+03 0.  0.
        4    1    3    3  502    0 -0.14577749483E+03 -0.15005171853E+03 -0.19188401204E+03  0.28387969848E+03  0.12699999809E+01 0. -1.
       -4    1    3    3    0  502  0.14577749483E+03  0.15005171853E+03  0.39208400731E+03  0.44440755836E+03  0.12699999809E+01 0.  1.
</event>
<event>
 5   0  0.3113940E-02  0.6990278E+03  0.7818609E-02  0.9718896E-01
       -2   -1    0    0    0  501  0.00000000000E+00  0.00000000000E+00  0.84657374187E+02  0.84657374226E+02  0.25500000920E-02 0.  1.
        2   -1    0    0  501    0  0.00000000000E+00  0.00000000000E+00 -0.14429927563E+04  0.14429927563E+04  0.25500000920E-02 0. -1.
    10030    2    1    2    0    0  0.00000000000E+00  0.00000000000E+00 -0.13583353821E+04  0.15276501305E+04  0.69902783278E+03 0.  0.
        5    1    3    3  502    0  0.23999654454E+03 -0.20989788699E+03 -0.36640128260E+03  0.48572363978E+03  0.46999998093E+01 0.  1.
       -5    1    3    3    0  502 -0.23999654454E+03  0.20989788699E+03 -0.99193409951E+03  0.10419264907E+04  0.46999998093E+01 0. -1.
</event>
<event>
 5   0  0.1233912E-02  0.7019039E+03  0.7818609E-02  0.9713982E-01
       -3   -1    0    0    0  501  0.00000000000E+00  0.00000000000E+00  0.41843476041E+03  0.41843477260E+03  0.10100000352E+00 0. -1.
        3   -1    0    0  501    0  0.00000000000E+00  0.00000000000E+00 -0.29435233732E+03  0.29435235465E+03  0.10100000352E+00 0.  1.
    10030    2    1    2    0    0  0.00000000000E+00  0.00000000000E+00  0.12408242309E+03  0.71278712725E+03  0.70190386881E+03 0.  0.
        3    1    3    3  502    0 -0.82145424313E+02  0.30795535284E+02 -0.28303792451E+03  0.29632197462E+03  0.10100000352E+00 0.  1.
       -3    1    3    3    0  502  0.82145424313E+02 -0.30795535284E+02  0.40712034760E+03  0.41646515264E+03  0.10100000352E+00 0. -1.
</event>
<event>
 5   0  0.1884172E-02  0.6994998E+03  0.7818609E-02  0.9718088E-01
        1   -1    0    0  501    0  0.00000000000E+00  0.00000000000E+00  0.89732791758E+03  0.89732791759E+03  0.50400001928E-02 0. -1.
       -1   -1    0    0    0  501  0.00000000000E+00  0.00000000000E+00 -0.13632140810E+03  0.13632140819E+03  0.50400001928E-02 0.  1.
    10030    2    1    2    0    0  0.00000000000E+00  0.00000000000E+00  0.76100650948E+03  0.10336493258E+04  0.69949983648E+03 0.  0.
        3    1    3    3  502    0 -0.12207470760E+01 -0.10878121082E+03  0.87169085638E+03  0.87845307293E+03  0.10100000352E+00 0. -1.
       -3    1    3    3    0  502  0.12207470760E+01  0.10878121082E+03 -0.11068434690E+03  0.15519625285E+03  0.10100000352E+00 0.  1.
</event>
<event>
 5   0  0.2933851E-02  0.7097199E+03  0.7818609E-02  0.9700753E-01
        2   -1    0    0  501    0  0.00000000000E+00  0.00000000000E+00  0.54359008019E+03  0.54359008020E+03  0.25500000920E-02 0.  1.
       -2   -1    0    0    0  501  0.00000000000E+00  0.00000000000E+00 -0.23165544010E+03  0.23165544011E+03  0.25500000920E-02 0. -1.
    10030    2    1    2    0    0  0.00000000000E+00  0.00000000000E+00  0.31193464009E+03  0.77524552031E+03  0.70971994270E+03 0.  0.
        2    1    3    3  502    0 -0.85174639130E+02  0.38595684806E+02  0.52988958505E+03  0.53807742787E+03  0.25500000920E-02 0.  1.
       -2    1    3    3    0  502  0.85174639130E+02 -0.38595684806E+02 -0.21795494495E+03  0.23716809244E+03  0.25500000920E-02 0. -1.
</event>
<event>
 5   0  0.3184443E-02  0.7010954E+03  0.7818609E-02  0.9715361E-01
       -2   -1    0    0    0  501  0.00000000000E+00  0.00000000000E+00  0.26993667901E+03  0.26993667902E+03  0.25500000920E-02 0.  1.
        2   -1    0    0  501    0  0.00000000000E+00  0.00000000000E+00 -0.45523154594E+03  0.45523154594E+03  0.25500000920E-02 0. -1.
    10030    2    1    2    0    0  0.00000000000E+00  0.00000000000E+00 -0.18529486692E+03  0.72516822497E+03  0.70109540492E+03 0.  0.
        3    1    3    3  502    0 -0.31330480529E+02 -0.13082067435E+03  0.24217726849E+03  0.27702975909E+03  0.10100000352E+00 0.  1.
       -3    1    3    3    0  502  0.31330480529E+02  0.13082067435E+03 -0.42747213541E+03  0.44813846588E+03  0.10100000352E+00 0. -1.
</event>
<event>
 5   0  0.3290656E-02  0.6795893E+03  0.7818609E-02  0.9752788E-01
        2   -1    0    0  501    0  0.00000000000E+00  0.00000000000E+00  0.16188999806E+04  0.16188999806E+04  0.25500000920E-02 0. -1.
       -2   -1    0    0    0  501  0.00000000000E+00  0.00000000000E+00 -0.71320287024E+02  0.71320287070E+02  0.25500000920E-02 0.  1.
    10030    2    1    2    0    0  0.00000000000E+00  0.00000000000E+00  0.15475796936E+04  0.16902202677E+04  0.67958932106E+03 0.  0.
        1    1    3    3  502    0  0.77239982001E+02 -0.21601730162E+03  0.13972137864E+04  0.14159222628E+04  0.50400001928E-02 0. -1.
       -1    1    3    3    0  502 -0.77239982001E+02  0.21601730162E+03  0.15036590726E+03  0.27429800493E+03  0.50400001928E-02 0.  1.
</event>
<event>
 5   0  0.1969818E-02  0.7147792E+03  0.7818609E-02  0.9692286E-01
        1   -1    0    0  501    0  0.00000000000E+00  0.00000000000E+00  0.48126198865E+03  0.48126198867E+03  0.50400001928E-02 0.  1.
       -1   -1    0    0    0  501  0.00000000000E+00  0.00000000000E+00 -0.26540083437E+03  0.26540083442E+03  0.50400001928E-02 0. -1.
    10030    2    1    2    0    0  0.00000000000E+00  0.00000000000E+00  0.21586115428E+03  0.74666282309E+03  0.71477922008E+03 0.  0.
        1    1    3    3  502    0  0.31000173891E+03  0.13083680800E+03  0.23375245337E+03  0.40970667304E+03  0.50400001928E-02 0.  1.
       -1    1    3    3    0  502 -0.31000173891E+03 -0.13083680800E+03 -0.17891299089E+02  0.33695615006E+03  0.50400001928E-02 0. -1.
</event>
<event>
 5   0  0.3184443E-02  0.7020817E+03  0.7818609E-02  0.9713679E-01
       -2   -1    0    0    0  501  0.00000000000E+00  0.00000000000E+00  0.12647508673E+03  0.12647508675E+03  0.25500000920E-02 0.  1.
        2   -1    0    0  501    0  0.00000000000E+00  0.00000000000E+00 -0.97433953214E+03  0.97433953214E+03  0.25500000920E-02 0. -1.
    10030    2    1    2    0    0  0.00000000000E+00  0.00000000000E+00 -0.84786444541E+03  0.11008146189E+04  0.70208169566E+03 0.  0.
        3    1    3    3  502    0 -0.18234594576E+03 -0.56421905153E+02 -0.88586297128E+03  0.90619351653E+03  0.10100000352E+00 0. -1.
       -3    1    3    3    0  502  0.18234594576E+03  0.56421905153E+02  0.37998525865E+02  0.19462110237E+03  0.10100000352E+00 0.  1.
</event>
<event>
 5   0  0.1951465E-02  0.6952350E+03  0.7818609E-02  0.9725416E-01
        1   -1    0    0  501    0  0.00000000000E+00  0.00000000000E+00  0.12810518295E+04  0.12810518295E+04  0.50400001928E-02 0. -1.
       -1   -1    0    0    0  501  0.00000000000E+00  0.00000000000E+00 -0.94327116778E+02  0.94327116913E+02  0.50400001928E-02 0.  1.
    10030    2    1    2    0    0  0.00000000000E+00  0.00000000000E+00  0.11867247127E+04  0.13753789464E+04  0.69523499802E+03 0.  0.
        4    1    3    3  502    0  0.33582399670E+03  0.80253489692E+02  0.51378838024E+03  0.61903028354E+03  0.12699999809E+01 0. -1.
       -4    1    3    3    0  502 -0.33582399670E+03 -0.80253489692E+02  0.67293633246E+03  0.75634866286E+03  0.12699999809E+01 0.  1.
</event>
<event>
 5   0  0.3113940E-02  0.6988220E+03  0.7818609E-02  0.9719249E-01
        2   -1    0    0  501    0  0.00000000000E+00  0.00000000000E+00  0.62522458248E+03  0.62522458248E+03  0.25500000920E-02 0.  1.
       -2   -1    0    0    0  501  0.00000000000E+00  0.00000000000E+00 -0.19527072844E+03  0.19527072845E+03  0.25500000920E-02 0. -1.
    10030    2    1    2    0    0  0.00000000000E+00  0.00000000000E+00  0.42995385404E+03  0.82049531094E+03  0.69882203648E+03 0.  0.
        5    1    3    3  502    0 -0.17666174994E+03  0.14695140049E+03  0.52397562895E+03  0.57216836485E+03  0.46999998093E+01 0.  1.
       -5    1    3    3    0  502  0.17666174994E+03 -0.14695140049E+03 -0.94021774916E+02  0.24832694609E+03  0.46999998093E+01 0. -1.
</event>
<event>
 5   0  0.1951465E-02  0.7077087E+03  0.7818609E-02  0.9704139E-01
        1   -1    0    0  501    0  0.00000000000E+00  0.00000000000E+00  0.72178827386E+03  0.72178827388E+03  0.50400001928E-02 0.  1.
       -1   -1    0    0    0  501  0.00000000000E+00  0.00000000000E+00 -0.17347595822E+03  0.17347595829E+03  0.50400001928E-02 0. -1.
    10030    2    1    2    0    0  0.00000000000E+00  0.00000000000E+00  0.54831231564E+03  0.89526423217E+03  0.70770873240E+03 0.  0.
        4    1    3    3  502    0 -0.30892579323E+02  0.29408026643E+03  0.52001832283E+03  0.59821252372E+03  0.12699999809E+01 0.  1.
       -4    1    3    3    0  502  0.30892579323E+02 -0.29408026643E+03  0.28293992813E+02  0.29705170845E+03  0.12699999809E+01 0. -1.
</event>
<event>
 5   0  0.1884172E-02  0.7027404E+03  0.7818609E-02  0.9712557E-01
        1   -1    0    0  501    0  0.00000000000E+00  0.00000000000E+00  0.18255966609E+04  0.18255966609E+04  0.50400001928E-02 0. -1.
       -1   -1    0    0    0  501  0.00000000000E+00  0.00000000000E+00 -0.67627769280E+02  0.67627769468E+02  0.50400001928E-02 0.  1.
    10030    2    1    2    0    0  0.00000000000E+00  0.00000000000E+00  0.17579688916E+04  0.18932244304E+04  0.70274043563E+03 0.  0.
        3    1    3    3  502    0  0.21209268886E+02 -0.21302818064E+03  0.12836042937E+03  0.24961420004E+03  0.10100000352E+00 0.  1.
       -3    1    3    3    0  502 -0.21209268886E+02  0.21302818064E+03  0.16296084623E+04  0.16436102303E+04  0.10100000352E+00 0. -1.
</event>
<event>
 5   0  0.3290656E-02  0.6959908E+03  0.7818609E-02  0.9724113E-01
       -2   -1    0    0    0  501  0.00000000000E+00  0.00000000000E+00  0.60931500727E+02  0.60931500781E+02  0.25500000920E-02 0.  1.
        2   -1    0    0  501    0  0.00000000000E+00  0.00000000000E+00 -0.19874909154E+04  0.19874909154E+04  0.25500000920E-02 0. -1.
    10030    2    1    2    0    0  0.00000000000E+00  0.00000000000E+00 -0.19265594146E+04  0.20484224161E+04  0.69599081664E+03 0.  0.
        1    1    3    3  502    0  0.24345700557E+03  0.22673319884E+03 -0.66282285735E+03  0.74162888109E+03  0.50400001928E-02 0. -1.
       -1    1    3    3    0  502 -0.24345700557E+03 -0.22673319884E+03 -0.12637365573E+04  0.13067935351E+04  0.50400001928E-02 0.  1.
</event>
<event>
 5   0  0.3183963E-02  0.6898753E+03  0.7818609E-02  0.9734705E-01
       -2   -1    0    0    0  501  0.00000000000E+00  0.00000000000E+00  0.13881576178E+03  0.13881576180E+03  0.25500000920E-02 0. -1.
        2   -1    0    0  501    0  0.00000000000E+00  0.00000000000E+00 -0.85712166491E+03  0.85712166491E+03  0.25500000920E-02 0.  1.
    10030    2    1    2    0    0  0.00000000000E+00  0.00000000000E+00 -0.71830590313E+03  0.99593742671E+03  0.68987534197E+03 0.  0.
        4    1    3    3  502    0  0.17893207115E+03  0.20983835474E+03 -0.65827593214E+03  0.71370696854E+03  0.12699999809E+01 0.  1.
       -4    1    3    3    0  502 -0.17893207115E+03 -0.20983835474E+03 -0.60029970992E+02  0.28223045817E+03  0.12699999809E+01 0. -1.
</event>
<event>
 5   0  0.3184443E-02  0.7018198E+03  0.7818609E-02  0.9714125E-01
       -2   -1    0    0    0  501  0.00000000000E+00  0.00000000000E+00  0.45756214105E+02  0.45756214176E+02  0.25500000920E-02 0. -1.
        2   -1    0    0  501    0  0.00000000000E+00  0.00000000000E+00 -0.26911698147E+04  0.26911698147E+04  0.25500000920E-02 0.  1.
    10030    2    1    2    0    0  0.00000000000E+00  0.00000000000E+00 -0.26454136006E+04  0.27369260288E+04  0.70181975558E+03 0.  0.
        3    1    3    3  502    0  0.81306404795E+01  0.14878523024E+03 -0.83746298919E+02  0.17092865422E+03  0.10100000352E+00 0. -1.
       -3    1    3    3    0  502 -0.81306404795E+01 -0.14878523024E+03 -0.25616673016E+04  0.25659973746E+04  0.10100000352E+00 0.  1.
</event>
<event>
 5   0  0.1858013E-02  0.7034984E+03  0.7818609E-02  0.9711268E-01
        1   -1    0    0  501    0  0.00000000000E+00  0.00000000000E+00  0.26166039388E+03  0.26166039393E+03  0.50400001928E-02 0.  1.
       -1   -1    0    0    0  501  0.00000000000E+00  0.00000000000E+00 -0.47285532524E+03  0.47285532527E+03  0.50400001928E-02 0. -1.
    10030    2    1    2    0    0  0.00000000000E+00  0.00000000000E+00 -0.21119493136E+03  0.73451571919E+03  0.70349843121E+03 0.  0.
        2    1    3    3  502    0  0.12460014874E+00  0.72762344873E+02 -0.46491182748E+03  0.47057133539E+03  0.25500000920E-02 0. -1.
       -2    1    3    3    0  502 -0.12460014874E+00 -0.72762344873E+02  0.25371689612E+03  0.26394438380E+03  0.25500000920E-02 0.  1.
</event>
<event>
 5   0  0.1858013E-02  0.6998290E+03  0.7818609E-02  0.9717525E-01
        1   -1    0    0  501    0  0.00000000000E+00  0.00000000000E+00  0.48801469927E+03  0.48801469929E+03  0.50400001928E-02 0. -1.
       -1   -1    0    0    0  501  0.00000000000E+00  0.00000000000E+00 -0.25089441117E+03  0.25089441122E+03  0.50400001928E-02 0.  1.
    10030    2    1    2    0    0  0.00000000000E+00  0.00000000000E+00  0.23712028810E+03  0.73890911051E+03  0.69982900952E+03 0.  0.
        2    1    3    3  502    0  0.17061612084E+03 -0.29226288296E+03  0.24639377664E+02  0.33931482783E+03  0.25500000920E-02 0.  1.
       -2    1    3    3    0  502 -0.17061612084E+03  0.29226288296E+03  0.21248091044E+03  0.39959428268E+03  0.25500000920E-02 0. -1.
</event>
<event>
 5   0  0.3113940E-02  0.6928724E+03  0.7818609E-02  0.9729499E-01
       -2   -1    0    0    0  501  0.00000000000E+00  0.00000000000E+00  0.47487046463E+03  0.47487046463E+03  0.25500000920E-02 0.  1.
        2   -1    0    0  501    0  0.00000000000E+00  0.00000000000E+00 -0.25273850804E+03  0.25273850806E+03  0.25500000920E-02 0. -1.
    10030    2    1    2    0    0  0.00000000000E+00  0.00000000000E+00  0.22213195658E+03  0.72760897269E+03  0.69287243487E+03 0.  0.
        5    1    3    3  502    0 -0.13331633649E+03 -0.15752682962E+03 -0.18110543951E+03  0.27460738855E+03  0.46999998093E+01 0. -1.
       -5    1    3    3    0  502  0.13331633649E+03  0.15752682962E+03  0.40323739610E+03  0.45300158414E+03  0.46999998093E+01 0.  1.
</event>
<event>
 5   0  0.1969818E-02  0.6908686E+03  0.7818609E-02  0.9732977E-01
        1   -1    0    0  501    0  0.00000000000E+00  0.00000000000E+00  0.81883481236E+03  0.81883481238E+03  0.50400001928E-02 0. -1.
       -1   -1    0    0    0  501  0.00000000000E+00  0.00000000000E+00 -0.14572518039E+03  0.14572518047E+03  0.50400001928E-02 0.  1.
    10030    2    1    2    0    0  0.00000000000E+00  0.00000000000E+00  0.67310963198E+03  0.96455999285E+03  0.69086858602E+03 0.  0.
        1    1    3    3  502    0 -0.23923653969E+03 -0.18640288608E+03  0.56742631577E+03  0.64339162390E+03  0.50400001928E-02 0. -1.
       -1    1    3    3    0  502  0.23923653969E+03  0.18640288608E+03  0.10568331621E+03  0.32116836895E+03  0.50400001928E-02 0.  1.
</event>
<event>
 5   0  0.3184443E-02  0.7029487E+03  0.7818609E-02  0.9712203E-01
       -2   -1    0    0    0  501  0.00000000000E+00  0.00000000000E+00  0.99607602309E+02  0.99607602341E+02  0.25500000920E-02 0.  1.
        2   -1    0    0  501    0  0.00000000000E+00  0.00000000000E+00 -0.12402087422E+04  0.12402087422E+04  0.25500000920E-02 0. -1.
    10030    2    1    2    0    0  0.00000000000E+00  0.00000000000E+00 -0.11406011399E+04  0.13398163445E+04  0.70294870139E+03 0.  0.
        3    1    3    3  502    0 -0.31389014181E+03 -0.15591899424E+03 -0.62060059509E+03  0.71272916505E+03  0.10100000352E+00 0. -1.
       -3    1    3    3    0  502  0.31389014181E+03  0.15591899424E+03 -0.52000054480E+03  0.62708717949E+03  0.10100000352E+00 0.  1.
</event>
<event>
 5   0  0.1233912E-02  0.7030004E+03  0.7818609E-02  0.9712115E-01
        4   -1    0    0  501    0  0.00000000000E+00  0.00000000000E+00  0.60359495394E+03  0.60359629001E+03  0.12699999809E+01 0. -1.
       -4   -1    0    0    0  501  0.00000000000E+00  0.00000000000E+00 -0.20469067018E+03  0.20469460999E+03  0.12699999809E+01 0.  1.
    10030    2    1    2    0    0  0.00000000000E+00  0.00000000000E+00  0.39890428375E+03  0.80829090001E+03  0.70300039220E+03 0.  0.
        5    1    3    3  502    0 -0.84898274485E+02  0.13065115070E+03  0.56168148805E+03  0.58291133477E+03  0.46999998093E+01 0. -1.
       -5    1    3    3    0  502  0.84898274485E+02 -0.13065115070E+03 -0.16277720429E+03  0.22537956524E+03  0.46999998093E+01 0.  1.
</event>
<event>
 5   0  0.1951465E-02  0.6963760E+03  0.7818609E-02  0.9723450E-01
        1   -1    0    0  501    0  0.00000000000E+00  0.00000000000E+00  0.17194182551E+04  0.17194182551E+04  0.50400001928E-02 0. -1.
       -1   -1    0    0    0  501  0.00000000000E+00  0.00000000000E+00 -0.70509244098E+02  0.70509244278E+02  0.50400001928E-02 0.  1.
    10030    2    1    2    0    0  0.00000000000E+00  0.00000000000E+00  0.16489090110E+04  0.17899274994E+04  0.69637599506E+03 0.  0.
        4    1    3    3  502    0 -0.20572805012E+03 -0.35759801903E+02  0.15406107270E+04  0.15546979833E+04  0.12699999809E+01 0. -1.
       -4    1    3    3    0  502  0.20572805012E+03  0.35759801903E+02  0.10829828395E+03  0.23522951610E+03  0.12699999809E+01 0.  1.
</event>
<event>
 5   0  0.1839038E-02  0.6924498E+03  0.7818609E-02  0.9730232E-01
        1   -1    0    0  501    0  0.00000000000E+00  0.00000000000E+00  0.12252938986E+04  0.12252938986E+04  0.50400001928E-02 0. -1.
       -1   -1    0    0    0  501  0.00000000000E+00  0.00000000000E+00 -0.97830974101E+02  0.97830974231E+02  0.50400001928E-02 0.  1.
    10030    2    1    2    0    0  0.00000000000E+00  0.00000000000E+00  0.11274629245E+04  0.13231248729E+04  0.69244984152E+03 0.  0.
        5    1    3    3  502    0  0.19767260720E+02 -0.21633472898E+03  0.10787877223E+04  0.11004528610E+04  0.46999998093E+01 0. -1.
       -5    1    3    3    0  502 -0.19767260720E+02  0.21633472898E+03  0.48675202267E+02  0.22267201188E+03  0.46999998093E+01 0.  1.
</event>
<event>
 5   0  0.3183963E-02  0.6976500E+03  0.7818609E-02  0.9721259E-01
       -2   -1    0    0    0  501  0.00000000000E+00  0.00000000000E+00  0.33206685491E+03  0.33206685492E+03  0.25500000920E-02 0.  1.
        2   -1    0    0  501    0  0.00000000000E+00  0.00000000000E+00 -0.36642890189E+03  0.36642890190E+03  0.25500000920E-02 0. -1.
    10030    2    1    2    0    0  0.00000000000E+00  0.00000000000E+00 -0.34362046980E+02  0.69849575682E+03  0.69765003549E+03 0.  0.
        4    1    3    3  502    0  0.30216451999E+03 -0.16987585674E+03  0.21803001420E+02  0.34733008452E+03  0.12699999809E+01 0. -1.
       -4    1    3    3    0  502 -0.30216451999E+03  0.16987585674E+03 -0.56165048400E+02  0.35116567230E+03  0.12699999809E+01 0.  1.
</event>
<event>
 5   0  0.1839038E-02  0.6562118E+03  0.7818609E-02  0.9795193E-01
       -1   -1    0    0    0  501  0.00000000000E+00  0.00000000000E+00  0.59278288437E+02  0.59278288651E+02  0.50400001928E-02 0.  1.
        1   -1    0    0  501    0  0.00000000000E+00  0.00000000000E+00 -0.18160692163E+04  0.18160692163E+04  0.50400001928E-02 0. -1.
    10030    2    1    2    0    0  0.00000000000E+00  0.00000000000E+00 -0.17567909278E+04  0.18753475049E+04  0.65621177993E+03 0.  0.
        5    1    3    3  502    0 -0.26879787023E+03 -0.18279404055E+03 -0.75169844885E+03  0.81898632729E+03  0.46999998093E+01 0.  1.
       -5    1    3    3    0  502  0.26879787023E+03  0.18279404055E+03 -0.10050924790E+04  0.10563611776E+04  0.46999998093E+01 0. -1.
</event>
<event>
 5   0  0.2933851E-02  0.6983400E+03  0.7818609E-02  0.9720075E-01
       -2   -1    0    0    0  501  0.00000000000E+00  0.00000000000E+00  0.13479376314E+03  0.13479376317E+03  0.25500000920E-02 0.  1.
        2   -1    0    0  501    0  0.00000000000E+00  0.00000000000E+00 -0.90449051051E+03  0.90449051051E+03  0.25500000920E-02 0. -1.
    10030    2    1    2    0    0  0.00000000000E+00  0.00000000000E+00 -0.76969674736E+03  0.10392842737E+04  0.69833997351E+03 0.  0.
        2    1    3    3  502    0 -0.98692913608E+02 -0.31379260501E+03 -0.55912655772E+03  0.64871303186E+03  0.25500000920E-02 0. -1.
       -2    1    3    3    0  502  0.98692913608E+02  0.31379260501E+03 -0.21057018965E+03  0.39057124181E+03  0.25500000920E-02 0.  1.
</event>
<event>
 5   0  0.1858013E-02  0.7046695E+03  0.7818609E-02  0.9709280E-01
       -1   -1    0    0    0  501  0.00000000000E+00  0.00000000000E+00  0.30867325215E+03  0.30867325219E+03  0.50400001928E-02 0. -1.
        1   -1    0    0  501    0  0.00000000000E+00  0.00000000000E+00 -0.40217212218E+03  0.40217212221E+03  0.50400001928E-02 0.  1.
    10030    2    1    2    0    0  0.00000000000E+00  0.00000000000E+00 -0.93498870027E+02  0.71084537440E+03  0.70466950240E+03 0.  0.
        2    1    3    3  502    0  0.11298665478E+03  0.27352817461E+03  0.14612282743E+03  0.33005382465E+03  0.25500000920E-02 0. -1.
       -2    1    3    3    0  502 -0.11298665478E+03 -0.27352817461E+03 -0.23962169746E+03  0.38079154975E+03  0.25500000920E-02 0.  1.
</event>
<event>
 5   0  0.1969818E-02  0.7061007E+03  0.7818609E-02  0.9706856E-01
       -1   -1    0    0    0  501  0.00000000000E+00  0.00000000000E+00  0.25155338013E+03  0.25155338018E+03  0.50400001928E-02 0.  1.
        1   -1    0    0  501    0  0.00000000000E+00  0.00000000000E+00 -0.49549936704E+03  0.49549936707E+03  0.50400001928E-02 0. -1.
    10030    2    1    2    0    0  0.00000000000E+00  0.00000000000E+00 -0.24394598691E+03  0.74705274725E+03  0.70610067458E+03 0.  0.
        1    1    3    3  502    0  0.45643471635E+02  0.11548102770E+03  0.22768733089E+03  0.25934670797E+03  0.50400001928E-02 0.  1.
       -1    1    3    3    0  502 -0.45643471635E+02 -0.11548102770E+03 -0.47163331781E+03  0.48770603928E+03  0.50400001928E-02 0. -1.
</event>
<event>
 5   0  0.2933851E-02  0.6966926E+03  0.7818609E-02  0.9722905E-01
        2   -1    0    0  501    0  0.00000000000E+00  0.00000000000E+00  0.89867110423E+03  0.89867110423E+03  0.25500000920E-02 0.  1.
       -2   -1    0    0    0  501  0.00000000000E+00  0.00000000000E+00 -0.13502732756E+03  0.13502732758E+03  0.25500000920E-02 0. -1.
    10030    2    1    2    0    0  0.00000000000E+00  0.00000000000E+00  0.76364377667E+03  0.10336984318E+04  0.69669263688E+03 0.  0.
        2    1    3    3  502    0  0.13638511179E+03 -0.19335253342E+03  0.25020782323E+01  0.23662705107E+03  0.25500000920E-02 0. -1.
       -2    1    3    3    0  502 -0.13638511179E+03  0.19335253342E+03  0.76114169843E+03  0.79707138074E+03  0.25500000920E-02 0.  1.
</event>
<event>
 5   0  0.3183963E-02  0.7009363E+03  0.7818609E-02  0.9715632E-01
        2   -1    0    0  501    0  0.00000000000E+00  0.00000000000E+00  0.18161925901E+04  0.18161925901E+04  0.25500000920E-02 0.  1.
       -2   -1    0    0    0  501  0.00000000000E+00  0.00000000000E+00 -0.67629341497E+02  0.67629341545E+02  0.25500000920E-02 0. -1.
    10030    2    1    2    0    0  0.00000000000E+00  0.00000000000E+00  0.17485632486E+04  0.18838219317E+04  0.70093625658E+03 0.  0.
        4    1    3    3  502    0  0.26829798463E+03 -0.12013378356E+03  0.36145115614E+03  0.46590179833E+03  0.12699999809E+01 0. -1.
       -4    1    3    3    0  502 -0.26829798463E+03  0.12013378356E+03  0.13871120925E+04  0.14179201333E+04  0.12699999809E+01 0.  1.
</event>
<event>
 5   0  0.1858013E-02  0.7075945E+03  0.7818609E-02  0.9704332E-01
       -1   -1    0    0    0  501  0.00000000000E+00  0.00000000000E+00  0.26926217968E+03  0.26926217973E+03  0.50400001928E-02 0.  1.
        1   -1    0    0  501    0  0.00000000000E+00  0.00000000000E+00 -0.46487214487E+03  0.46487214490E+03  0.50400001928E-02 0. -1.
    10030    2    1    2    0    0  0.00000000000E+00  0.00000000000E+00 -0.19560996519E+03  0.73413432462E+03  0.70759447999E+03 0.  0.
        2    1    3    3  502    0 -0.27931677358E+03 -0.75122402757E+02 -0.30918990549E+03  0.42339063885E+03  0.25500000920E-02 0. -1.
       -2    1    3    3    0  502  0.27931677358E+03  0.75122402757E+02  0.11357994030E+03  0.31074368577E+03  0.25500000920E-02 0.  1.
</event>
<event>
 5   0  0.1969818E-02  0.6961234E+03  0.7818609E-02  0.9723885E-01
       -1   -1    0    0    0  501  0.00000000000E+00  0.00000000000E+00  0.30000703296E+03  0.30000703300E+03  0.50400001928E-02 0.  1.
        1   -1    0    0  501    0  0.00000000000E+00  0.00000000000E+00 -0.40381369658E+03  0.40381369661E+03  0.50400001928E-02 0. -1.
    10030    2    1    2    0    0  0.00000000000E+00  0.00000000000E+00 -0.10380666362E+03  0.70382072961E+03  0.69612340574E+03 0.  0.
        1    1    3    3  502    0  0.18442497245E+03 -0.28702693192E+03 -0.12158506008E+03  0.36218773719E+03  0.50400001928E-02 0. -1.
       -1    1    3    3    0  502 -0.18442497245E+03  0.28702693192E+03  0.17778396460E+02  0.34163299243E+03  0.50400001928E-02 0.  1.
</event>
<event>
 5   0  0.1951465E-02  0.6951232E+03  0.7818609E-02  0.9725609E-01
       -1   -1    0    0    0  501  0.00000000000E+00  0.00000000000E+00  0.66515391022E+03  0.66515391024E+03  0.50400001928E-02 0.  1.
        1   -1    0    0  501    0  0.00000000000E+00  0.00000000000E+00 -0.18161070048E+03  0.18161070055E+03  0.50400001928E-02 0. -1.
    10030    2    1    2    0    0  0.00000000000E+00  0.00000000000E+00  0.48354320974E+03  0.84676461079E+03  0.69512320519E+03 0.  0.
        4    1    3    3  502    0  0.92551994130E+02  0.33276922038E+03  0.19465218297E+03  0.39647485530E+03  0.12699999809E+01 0. -1.
       -4    1    3    3    0  502 -0.92551994130E+02 -0.33276922038E+03  0.28889102676E+03  0.45028975549E+03  0.12699999809E+01 0.  1.
</event>
<event>
 5   0  0.3183963E-02  0.6755378E+03  0.7818609E-02  0.9760005E-01
       -2   -1    0    0    0  501  0.00000000000E+00  0.00000000000E+00  0.88912603800E+03  0.88912603800E+03  0.25500000920E-02 0. -1.
        2   -1    0    0  501    0  0.00000000000E+00  0.00000000000E+00 -0.12831459173E+03  0.12831459176E+03  0.25500000920E-02 0.  1.
    10030    2    1    2    0    0  0.00000000000E+00  0.00000000000E+00  0.76081144627E+03  0.10174406298E+04  0.67553784374E+03 0.  0.
        4    1    3    3  502    0  0.15623615599E+03 -0.24983647768E+03  0.13174441368E+03  0.32277888013E+03  0.12699999809E+01 0.  1.
       -4    1    3    3    0  502 -0.15623615599E+03  0.24983647768E+03  0.62906703258E+03  0.69466174963E+03  0.12699999809E+01 0. -1.
</event>
<event>
 5   0  0.1884172E-02  0.7023930E+03  0.7818609E-02  0.9713149E-01
        1   -1    0    0  501    0  0.00000000000E+00  0.00000000000E+00  0.86197955822E+03  0.86197955823E+03  0.50400001928E-02 0. -1.
       -1   -1    0    0    0  501  0.00000000000E+00  0.00000000000E+00 -0.14308804497E+03  0.14308804506E+03  0.50400001928E-02 0.  1.
    10030    2    1    2    0    0  0.00000000000E+00  0.00000000000E+00  0.71889151325E+03  0.10050676033E+04  0.70239296648E+03 0.  0.
        3    1    3    3  502    0 -0.13786643353E+03 -0.10359863560E+03  0.79722082418E+03  0.81565978417E+03  0.10100000352E+00 0. -1.
       -3    1    3    3    0  502  0.13786643353E+03  0.10359863560E+03 -0.78329310936E+02  0.18940781912E+03  0.10100000352E+00 0.  1.
</event>
<event>
 5   0  0.1969818E-02  0.7020933E+03  0.7818609E-02  0.9713659E-01
        1   -1    0    0  501    0  0.00000000000E+00  0.00000000000E+00  0.47162825768E+03  0.47162825770E+03  0.50400001928E-02 0.  1.
       -1   -1    0    0    0  501  0.00000000000E+00  0.00000000000E+00 -0.26129422644E+03  0.26129422649E+03  0.50400001928E-02 0. -1.
    10030    2    1    2    0    0  0.00000000000E+00  0.00000000000E+00  0.21033403124E+03  0.73292248419E+03  0.70209327239E+03 0.  0.
        1    1    3    3  502    0  0.87996609301E+01  0.35093129189E+03  0.10320427008E+03  0.36589797355E+03  0.50400001928E-02 0.  1.
       -1    1    3    3    0  502 -0.87996609301E+01 -0.35093129189E+03  0.10712976116E+03  0.36702451064E+03  0.50400001928E-02 0. -1.
</event>
<event>
 5   0  0.1969818E-02  0.6971380E+03  0.7818609E-02  0.9722139E-01
       -1   -1    0    0    0  501  0.00000000000E+00  0.00000000000E+00  0.11307753782E+04  0.11307753782E+04  0.50400001928E-02 0. -1.
        1   -1    0    0  501    0  0.00000000000E+00  0.00000000000E+00 -0.10744871357E+03  0.10744871369E+03  0.50400001928E-02 0.  1.
    10030    2    1    2    0    0  0.00000000000E+00  0.00000000000E+00  0.10233266646E+04  0.12382240919E+04  0.69713803456E+03 0.  0.
        1    1    3    3  502    0 -0.31812856534E+03  0.61985621341E+02  0.73948475175E+03  0.80739438903E+03  0.50400001928E-02 0. -1.
       -1    1    3    3    0  502  0.31812856534E+03 -0.61985621341E+02  0.28384191286E+03  0.43082970285E+03  0.50400001928E-02 0.  1.
</event>
<event>
 5   0  0.3183963E-02  0.6904631E+03  0.7818609E-02  0.9733682E-01
       -2   -1    0    0    0  501  0.00000000000E+00  0.00000000000E+00  0.15325692555E+03  0.15325692557E+03  0.25500000920E-02 0. -1.
        2   -1    0    0  501    0  0.00000000000E+00  0.00000000000E+00 -0.77767983661E+03  0.77767983661E+03  0.25500000920E-02 0.  1.
    10030    2    1    2    0    0  0.00000000000E+00  0.00000000000E+00 -0.62442291106E+03  0.93093676218E+03  0.69046309338E+03 0.  0.
        4    1    3    3  502    0  0.11276613291E+03  0.17138016642E+02  0.12711500349E+03  0.17079153773E+03  0.12699999809E+01 0. -1.
       -4    1    3    3    0  502 -0.11276613291E+03 -0.17138016642E+02 -0.75153791456E+03  0.76014522445E+03  0.12699999809E+01 0.  1.
</event>
<event>
 5   0  0.3184443E-02  0.7136309E+03  0.7818609E-02  0.9694201E-01
       -2   -1    0    0    0  501  0.00000000000E+00  0.00000000000E+00  0.55575990631E+03  0.55575990632E+03  0.25500000920E-02 0. -1.
        2   -1    0    0  501    0  0.00000000000E+00  0.00000000000E+00 -0.22908681560E+03  0.22908681562E+03  0.25500000920E-02 0.  1.
    10030    2    1    2    0    0  0.00000000000E+00  0.00000000000E+00  0.32667309071E+03  0.78484672193E+03  0.71363090512E+03 0.  0.
        3    1    3    3  502    0 -0.84020400458E+02  0.33926656475E+03  0.84365333153E+02  0.35955354162E+03  0.10100000352E+00 0.  1.
       -3    1    3    3    0  502  0.84020400458E+02 -0.33926656475E+03  0.24230775755E+03  0.42529318032E+03  0.10100000352E+00 0. -1.
</event>
<event>
 5   0  0.1233912E-02  0.6937380E+03  0.7818609E-02  0.9728001E-01
       -3   -1    0    0    0  501  0.00000000000E+00  0.00000000000E+00  0.14799677300E+03  0.14799680746E+03  0.10100000352E+00 0.  1.
        3   -1    0    0  501    0  0.00000000000E+00  0.00000000000E+00 -0.81297778710E+03  0.81297779337E+03  0.10100000352E+00 0. -1.
    10030    2    1    2    0    0  0.00000000000E+00  0.00000000000E+00 -0.66498101410E+03  0.96097460083E+03  0.69373801563E+03 0.  0.
        5    1    3    3  502    0  0.45367395670E+02 -0.13566625158E+02 -0.80843503276E+03  0.80983427076E+03  0.46999998093E+01 0. -1.
       -5    1    3    3    0  502 -0.45367395670E+02  0.13566625158E+02  0.14345401866E+03  0.15114033008E+03  0.46999998093E+01 0.  1.
</event>
<event>
 5   0  0.3113940E-02  0.7090507E+03  0.7818609E-02  0.9701878E-01
       -2   -1    0    0    0  501  0.00000000000E+00  0.00000000000E+00  0.26797445959E+03  0.26797445960E+03  0.25500000920E-02 0.  1.
        2   -1    0    0  501    0  0.00000000000E+00  0.00000000000E+00 -0.46903060886E+03  0.46903060886E+03  0.25500000920E-02 0. -1.
    10030    2    1    2    0    0  0.00000000000E+00  0.00000000000E+00 -0.20105614927E+03  0.73700506847E+03  0.70905070043E+03 0.  0.
        5    1    3    3  502    0 -0.86735226194E+02  0.27247892631E+03 -0.31830776579E+03  0.42791317870E+03  0.46999998093E+01 0. -1.
       -5    1    3    3    0  502  0.86735226194E+02 -0.27247892631E+03  0.11725161652E+03  0.30909188977E+03  0.46999998093E+01 0.  1.
</event>
<event>
 5   0  0.3184443E-02  0.7046513E+03  0.7818609E-02  0.9709311E-01
       -2   -1    0    0    0  501  0.00000000000E+00  0.00000000000E+00  0.11346176462E+03  0.11346176465E+03  0.25500000920E-02 0.  1.
        2   -1    0    0  501    0  0.00000000000E+00  0.00000000000E+00 -0.10940545440E+04  0.10940545440E+04  0.25500000920E-02 0. -1.
    10030    2    1    2    0    0  0.00000000000E+00  0.00000000000E+00 -0.98059277939E+03  0.12075163087E+04  0.70465128731E+03 0.  0.
        3    1    3    3  502    0  0.79368687647E+02 -0.25928689434E+03 -0.87578568611E+03  0.91680404687E+03  0.10100000352E+00 0. -1.
       -3    1    3    3    0  502 -0.79368687647E+02  0.25928689434E+03 -0.10480709327E+03  0.29071226180E+03  0.10100000352E+00 0.  1.
</event>
<event>
 5   0  0.1839038E-02  0.6905066E+03  0.7818609E-02  0.9733606E-01
       -1   -1    0    0    0  501  0.00000000000E+00  0.00000000000E+00  0.11522060604E+03  0.11522060615E+03  0.50400001928E-02 0. -1.
        1   -1    0    0  501    0  0.00000000000E+00  0.00000000000E+00 -0.10345357471E+04  0.10345357471E+04  0.50400001928E-02 0.  1.
    10030    2    1    2    0    0  0.00000000000E+00  0.00000000000E+00 -0.91931514109E+03  0.11497563533E+04  0.69050658453E+03 0.  0.
        5    1    3    3  502    0 -0.23932326478E+03 -0.24571284186E+03 -0.52473089997E+03  0.62690911071E+03  0.46999998093E+01 0.  1.
       -5    1    3    3    0  502  0.23932326478E+03  0.24571284186E+03 -0.39458424112E+03  0.52284724257E+03  0.46999998093E+01 0. -1.
</event>
<event>
 5   0  0.3113940E-02  0.6980343E+03  0.7818609E-02  0.9720600E-01
       -2   -1    0    0    0  501  0.00000000000E+00  0.00000000000E+00  0.16338396860E+03  0.16338396862E+03  0.25500000920E-02 0.  1.
        2   -1    0    0  501    0  0.00000000000E+00  0.00000000000E+00 -0.74556263020E+03  0.74556263020E+03  0.25500000920E-02 0. -1.
    10030    2    1    2    0    0  0.00000000000E+00  0.00000000000E+00 -0.58217866160E+03  0.90894659882E+03  0.69803432973E+03 0.  0.
        5    1    3    3  502    0 -0.65441449904E+02  0.34040717186E+03 -0.23849682141E+03  0.42078789174E+03  0.46999998093E+01 0. -1.
       -5    1    3    3    0  502  0.65441449904E+02 -0.34040717186E+03 -0.34368184019E+03  0.48815870707E+03  0.46999998093E+01 0.  1.
</event>
<event>
 5   0  0.2933851E-02  0.7031968E+03  0.7818609E-02  0.9711781E-01
       -2   -1    0    0    0  501  0.00000000000E+00  0.00000000000E+00  0.20708109361E+03  0.20708109363E+03  0.25500000920E-02 0. -1.
        2   -1    0    0  501    0  0.00000000000E+00  0.00000000000E+00 -0.59697120004E+03  0.59697120004E+03  0.25500000920E-02 0.  1.
    10030    2    1    2    0    0  0.00000000000E+00  0.00000000000E+00 -0.38989010643E+03  0.80405229367E+03  0.70319684006E+03 0.  0.
        2    1    3    3  502    0 -0.14981389855E+03  0.77231637844E+02  0.15787593499E+03  0.23094099016E+03  0.25500000920E-02 0. -1.
       -2    1    3    3    0  502  0.14981389855E+03 -0.77231637844E+02 -0.54776604141E+03  0.57311130351E+03  0.25500000920E-02 0.  1.
</event>
<event>
 5   0  0.3113940E-02  0.7056485E+03  0.7818609E-02  0.9707621E-01
       -2   -1    0    0    0  501  0.00000000000E+00  0.00000000000E+00  0.87368747299E+03  0.87368747299E+03  0.25500000920E-02 0. -1.
        2   -1    0    0  501    0  0.00000000000E+00  0.00000000000E+00 -0.14248224083E+03  0.14248224085E+03  0.25500000920E-02 0.  1.
    10030    2    1    2    0    0  0.00000000000E+00  0.00000000000E+00  0.73120523216E+03  0.10161697138E+04  0.70564849308E+03 0.  0.
        5    1    3    3  502    0 -0.12055600336E+03  0.99393889364E+02 -0.89895197169E+02  0.18032229940E+03  0.46999998093E+01 0.  1.
       -5    1    3    3    0  502  0.12055600336E+03 -0.99393889364E+02  0.82110042933E+03  0.83584741445E+03  0.46999998093E+01 0. -1.
</event>
<event>
 5   0  0.1969818E-02  0.6986651E+03  0.7818609E-02  0.9719518E-01
        1   -1    0    0  501    0  0.00000000000E+00  0.00000000000E+00  0.30963615832E+03  0.30963615836E+03  0.50400001928E-02 0.  1.
       -1   -1    0    0    0  501  0.00000000000E+00  0.00000000000E+00 -0.39411811407E+03  0.39411811410E+03  0.50400001928E-02 0. -1.
    10030    2    1    2    0    0  0.00000000000E+00  0.00000000000E+00 -0.84481955746E+02  0.70375427246E+03  0.69866506651E+03 0.  0.
        1    1    3    3  502    0  0.18456929738E+02  0.14074391530E+03 -0.36375831240E+03  0.39047358145E+03  0.50400001928E-02 0. -1.
       -1    1    3    3    0  502 -0.18456929738E+02 -0.14074391530E+03  0.27927635665E+03  0.31328069101E+03  0.50400001928E-02 0.  1.
</event>
<event>
 5   0  0.2933851E-02  0.6965677E+03  0.7818609E-02  0.9723120E-01
        2   -1    0    0  501    0  0.00000000000E+00  0.00000000000E+00  0.60548878570E+03  0.60548878570E+03  0.25500000920E-02 0. -1.
       -2   -1    0    0    0  501  0.00000000000E+00  0.00000000000E+00 -0.20033675310E+03  0.20033675312E+03  0.25500000920E-02 0.  1.
    10030    2    1    2    0    0  0.00000000000E+00  0.00000000000E+00  0.40515203260E+03  0.80582553882E+03  0.69656774939E+03 0.  0.
        2    1    3    3  502    0  0.34367305683E+03 -0.52288066347E+02  0.22729167134E+03  0.41533927787E+03  0.25500000920E-02 0.  1.
       -2    1    3    3    0  502 -0.34367305683E+03  0.52288066347E+02  0.17786036126E+03  0.39048626095E+03  0.25500000920E-02 0. -1.
</event>
<event>
 5   0  0.1839038E-02  0.7009117E+03  0.7818609E-02  0.9715674E-01
        1   -1    0    0  501    0  0.00000000000E+00  0.00000000000E+00  0.12914423980E+03  0.12914423990E+03  0.50400001928E-02 0.  1.
       -1   -1    0    0    0  501  0.00000000000E+00  0.00000000000E+00 -0.95102422109E+03  0.95102422110E+03  0.50400001928E-02 0. -1.
    10030    2    1    2    0    0  0.00000000000E+00  0.00000000000E+00 -0.82187998129E+03  0.10801684610E+04  0.70091169237E+03 0.  0.
        5    1    3    3  502    0 -0.24917899061E+02 -0.10621096073E+03  0.10225833198E+03  0.14960122436E+03  0.46999998093E+01 0.  1.
       -5    1    3    3    0  502  0.24917899061E+02  0.10621096073E+03 -0.92413831326E+03  0.93056723664E+03  0.46999998093E+01 0. -1.
</event>
<event>
 5   0  0.1884172E-02  0.7030419E+03  0.7818609E-02  0.9712044E-01
       -1   -1    0    0    0  501  0.00000000000E+00  0.00000000000E+00  0.92082044101E+02  0.92082044239E+02  0.50400001928E-02 0.  1.
        1   -1    0    0  501    0  0.00000000000E+00  0.00000000000E+00 -0.13419225431E+04  0.13419225431E+04  0.50400001928E-02 0. -1.
    10030    2    1    2    0    0  0.00000000000E+00  0.00000000000E+00 -0.12498404990E+04  0.14340045873E+04  0.70304187897E+03 0.  0.
        3    1    3    3  502    0  0.84858183084E+02 -0.29942813738E+03 -0.29157301388E+03  0.42646565315E+03  0.10100000352E+00 0.  1.
       -3    1    3    3    0  502 -0.84858183084E+02  0.29942813738E+03 -0.95826748509E+03  0.10075389342E+04  0.10100000352E+00 0. -1.
</event>
<event>
 5   0  0.3183963E-02  0.6730241E+03  0.7818609E-02  0.9764510E-01
        2   -1    0    0  501    0  0.00000000000E+00  0.00000000000E+00  0.29750367860E+03  0.29750367862E+03  0.25500000920E-02 0. -1.
       -2   -1    0    0    0  501  0.00000000000E+00  0.00000000000E+00 -0.38063517274E+03  0.38063517275E+03  0.25500000920E-02 0.  1.
    10030    2    1    2    0    0  0.00000000000E+00  0.00000000000E+00 -0.83131494136E+02  0.67813885136E+03  0.67302411280E+03 0.  0.
        4    1    3    3  502    0 -0.12181921915E+03  0.24946462163E+03  0.15005372164E+03  0.31557923233E+03  0.12699999809E+01 0. -1.
       -4    1    3    3    0  502  0.12181921915E+03 -0.24946462163E+03 -0.23318521578E+03  0.36255961904E+03  0.12699999809E+01 0.  1.
</event>
<event>
 5   0  0.1884172E-02  0.7083390E+03  0.7818609E-02  0.9703077E-01
        1   -1    0    0  501    0  0.00000000000E+00  0.00000000000E+00  0.25916462068E+03  0.25916462073E+03  0.50400001928E-02 0. -1.
       -1   -1    0    0    0  501  0.00000000000E+00  0.00000000000E+00 -0.48400138613E+03  0.48400138616E+03  0.50400001928E-02 0.  1.
    10030    2    1    2    0    0  0.00000000000E+00  0.00000000000E+00 -0.22483676545E+03  0.74316600689E+03  0.70833900267E+03 0.  0.
        3    1    3    3  502    0  0.26947159213E+03 -0.44733258382E+02 -0.34893524322E+03  0.44313859855E+03  0.10100000352E+00 0.  1.
       -3    1    3    3    0  502 -0.26947159213E+03  0.44733258382E+02  0.12409847777E+03  0.30002740834E+03  0.10100000352E+00 0. -1.
</event>
<event>
 5   0  0.1951465E-02  0.6937686E+03  0.7818609E-02  0.9727948E-01
       -1   -1    0    0    0  501  0.00000000000E+00  0.00000000000E+00  0.72974310131E+02  0.72974310305E+02  0.50400001928E-02 0.  1.
        1   -1    0    0  501    0  0.00000000000E+00  0.00000000000E+00 -0.16489190636E+04  0.16489190636E+04  0.50400001928E-02 0. -1.
    10030    2    1    2    0    0  0.00000000000E+00  0.00000000000E+00 -0.15759447535E+04  0.17218933739E+04  0.69376863950E+03 0.  0.
        4    1    3    3  502    0  0.24570808872E+03  0.24481193603E+03 -0.79955257184E+03  0.87154533842E+03  0.12699999809E+01 0. -1.
       -4    1    3    3    0  502 -0.24570808872E+03 -0.24481193603E+03 -0.77639218166E+03  0.85034803553E+03  0.12699999809E+01 0.  1.
</event>
<event>
 5   0  0.1884172E-02  0.6982510E+03  0.7818609E-02  0.9720228E-01
        1   -1    0    0  501    0  0.00000000000E+00  0.00000000000E+00  0.68022353715E+03  0.68022353716E+03  0.50400001928E-02 0.  1.
       -1   -1    0    0    0  501  0.00000000000E+00  0.00000000000E+00 -0.17918904065E+03  0.17918904073E+03  0.50400001928E-02 0. -1.
    10030    2    1    2    0    0  0.00000000000E+00  0.00000000000E+00  0.50103449649E+03  0.85941257789E+03  0.69825096660E+03 0.  0.
        3    1    3    3  502    0  0.20302024592E+03 -0.16797116128E+03 -0.31380845998E+02  0.26536069598E+03  0.10100000352E+00 0. -1.
       -3    1    3    3    0  502 -0.20302024592E+03  0.16797116128E+03  0.53241534249E+03  0.59405188190E+03  0.10100000352E+00 0.  1.
</event>
<event>
 5   0  0.3113940E-02  0.6974954E+03  0.7818609E-02  0.9721525E-01
        2   -1    0    0  501    0  0.00000000000E+00  0.00000000000E+00  0.24904053926E+03  0.24904053927E+03  0.25500000920E-02 0. -1.
       -2   -1    0    0    0  501  0.00000000000E+00  0.00000000000E+00 -0.48837409955E+03  0.48837409956E+03  0.25500000920E-02 0.  1.
    10030    2    1    2    0    0  0.00000000000E+00  0.00000000000E+00 -0.23933356029E+03  0.73741463883E+03  0.69749537381E+03 0.  0.
        5    1    3    3  502    0 -0.33755879292E+03 -0.86699934393E+02 -0.10715557053E+03  0.36464671066E+03  0.46999998093E+01 0.  1.
       -5    1    3    3    0  502  0.33755879292E+03  0.86699934393E+02 -0.13217798976E+03  0.37276792817E+03  0.46999998093E+01 0. -1.
</event>
<event>
 5   0  0.1951465E-02  0.7116265E+03  0.7818609E-02  0.9697553E-01
       -1   -1    0    0    0  501  0.00000000000E+00  0.00000000000E+00  0.11409021395E+03  0.11409021406E+03  0.50400001928E-02 0. -1.
        1   -1    0    0  501    0  0.00000000000E+00  0.00000000000E+00 -0.11096751823E+04  0.11096751823E+04  0.50400001928E-02 0.  1.
    10030    2    1    2    0    0  0.00000000000E+00  0.00000000000E+00 -0.99558496835E+03  0.12237653964E+04  0.71162652857E+03 0.  0.
        4    1    3    3  502    0  0.21902388809E+03 -0.79836978439E+02 -0.96004914281E+03  0.98794806351E+03  0.12699999809E+01 0.  1.
       -4    1    3    3    0  502 -0.21902388809E+03  0.79836978439E+02 -0.35535825534E+02  0.23581733286E+03  0.12699999809E+01 0. -1.
</event>
<event>
 5   0  0.1839038E-02  0.7011323E+03  0.7818609E-02  0.9715298E-01
       -1   -1    0    0    0  501  0.00000000000E+00  0.00000000000E+00  0.16588913355E+03  0.16588913362E+03  0.50400001928E-02 0.  1.
        1   -1    0    0  501    0  0.00000000000E+00  0.00000000000E+00 -0.74083593671E+03  0.74083593672E+03  0.50400001928E-02 0. -1.
    10030    2    1    2    0    0  0.00000000000E+00  0.00000000000E+00 -0.57494680316E+03  0.90672507034E+03  0.70113231756E+03 0.  0.
        5    1    3    3  502    0  0.23310947752E+03  0.11485664048E+03 -0.59170539911E+03  0.64627350689E+03  0.46999998093E+01 0. -1.
       -5    1    3    3    0  502 -0.23310947752E+03 -0.11485664048E+03  0.16758595949E+02  0.26045156346E+03  0.46999998093E+01 0.  1.
</event>
<event>
 5   0  0.3113940E-02  0.7013102E+03  0.7818609E-02  0.9714994E-01
        2   -1    0    0  501    0  0.00000000000E+00  0.00000000000E+00  0.86007229492E+03  0.86007229492E+03  0.25500000920E-02 0.  1.
       -2   -1    0    0    0  501  0.00000000000E+00  0.00000000000E+00 -0.14296355951E+03  0.14296355953E+03  0.25500000920E-02 0. -1.
    10030    2    1    2    0    0  0.00000000000E+00  0.00000000000E+00  0.71710873541E+03  0.10030358545E+04  0.70131019308E+03 0.  0.
        5    1    3    3  502    0  0.12265824092E+02 -0.32150708014E+03  0.15924530487E+03  0.35902424729E+03  0.46999998093E+01 0. -1.
       -5    1    3    3    0  502 -0.12265824092E+02  0.32150708014E+03  0.55786343054E+03  0.64401160716E+03  0.46999998093E+01 0.  1.
</event>
<event>
 5   0  0.1839038E-02  0.7007763E+03  0.7818609E-02  0.9715906E-01
       -1   -1    0    0    0  501  0.00000000000E+00  0.00000000000E+00  0.19882725222E+03  0.19882725228E+03  0.50400001928E-02 0. -1.
        1   -1    0    0  501    0  0.00000000000E+00  0.00000000000E+00 -0.61747998225E+03  0.61747998227E+03  0.50400001928E-02 0.  1.
    10030    2    1    2    0    0  0.00000000000E+00  0.00000000000E+00 -0.41865273003E+03  0.81630723455E+03  0.70077627872E+03 0.  0.
        5    1    3    3  502    0 -0.10620765190E+03 -0.33256421065E+03 -0.17495330694E+03  0.39052499169E+03  0.46999998093E+01 0. -1.
       -5    1    3    3    0  502  0.10620765190E+03  0.33256421065E+03 -0.24369942309E+03  0.42578224286E+03  0.46999998093E+01 0.  1.
</event>
<event>
 5   0  0.3183963E-02  0.6967458E+03  0.7818609E-02  0.9722813E-01
        2   -1    0    0  501    0  0.00000000000E+00  0.00000000000E+00  0.11824468249E+04  0.11824468249E+04  0.25500000920E-02 0. -1.
       -2   -1    0    0    0  501  0.00000000000E+00  0.00000000000E+00 -0.10263775644E+03  0.10263775647E+03  0.25500000920E-02 0.  1.
    10030    2    1    2    0    0  0.00000000000E+00  0.00000000000E+00  0.10798090685E+04  0.12850845814E+04  0.69674583385E+03 0.  0.
        4    1    3    3  502    0  0.16373448736E+03 -0.29784356058E+03  0.39892712184E+03  0.52408418252E+03  0.12699999809E+01 0.  1.
       -4    1    3    3    0  502 -0.16373448736E+03  0.29784356058E+03  0.68088194666E+03  0.76100039890E+03  0.12699999809E+01 0. -1.
</event>
<event>
 5   0  0.1858013E-02  0.6932129E+03  0.7818609E-02  0.9728910E-01
       -1   -1    0    0    0  501  0.00000000000E+00  0.00000000000E+00  0.30801761080E+03  0.30801761084E+03  0.50400001928E-02 0. -1.
        1   -1    0    0  501    0  0.00000000000E+00  0.00000000000E+00 -0.39002969840E+03  0.39002969843E+03  0.50400001928E-02 0.  1.
    10030    2    1    2    0    0  0.00000000000E+00  0.00000000000E+00 -0.82012087597E+02  0.69804730927E+03  0.69321285582E+03 0.  0.
        2    1    3    3  502    0 -0.26353717372E+03 -0.13808184816E+03 -0.22005943160E+03  0.37006025478E+03  0.25500000920E-02 0.  1.
       -2    1    3    3    0  502  0.26353717372E+03  0.13808184816E+03  0.13804734400E+03  0.32798705450E+03  0.25500000920E-02 0. -1.
</event>
<event>
 5   0  0.1858013E-02  0.7392259E+03  0.7818609E-02  0.9652406E-01
       -1   -1    0    0    0  501  0.00000000000E+00  0.00000000000E+00  0.31640533358E+03  0.31640533362E+03  0.50400001928E-02 0. -1.
        1   -1    0    0  501    0  0.00000000000E+00  0.00000000000E+00 -0.43176812366E+03  0.43176812369E+03  0.50400001928E-02 0.  1.
    10030    2    1    2    0    0  0.00000000000E+00  0.00000000000E+00 -0.11536279008E+03  0.74817345730E+03  0.73922591194E+03 0.  0.
        2    1    3    3  502    0  0.31258254350E+03 -0.19723323142E+03 -0.55431167759E+02  0.37373976032E+03  0.25500000920E-02 0. -1.
       -2    1    3    3    0  502 -0.31258254350E+03  0.19723323142E+03 -0.59931622323E+02  0.37443369699E+03  0.25500000920E-02 0.  1.
</event>
<event>
 5   0  0.1884172E-02  0.6989591E+03  0.7818609E-02  0.9719014E-01
       -1   -1    0    0    0  501  0.00000000000E+00  0.00000000000E+00  0.11102747827E+03  0.11102747838E+03  0.50400001928E-02 0. -1.
        1   -1    0    0  501    0  0.00000000000E+00  0.00000000000E+00 -0.11000516992E+04  0.11000516992E+04  0.50400001928E-02 0.  1.
    10030    2    1    2    0    0  0.00000000000E+00  0.00000000000E+00 -0.98902422095E+03  0.12110791776E+04  0.69895912957E+03 0.  0.
        3    1    3    3  502    0 -0.24952445718E+03  0.23101948422E+02 -0.72433057838E+02  0.26084998144E+03  0.10100000352E+00 0. -1.
       -3    1    3    3    0  502  0.24952445718E+03 -0.23101948422E+02 -0.91659116311E+03  0.95022919616E+03  0.10100000352E+00 0.  1.
</event>
<event>
 5   0  0.3184443E-02  0.6995340E+03  0.7818609E-02  0.9718029E-01
       -2   -1    0    0    0  501  0.00000000000E+00  0.00000000000E+00  0.46541361079E+03  0.46541361080E+03  0.25500000920E-02 0. -1.
        2   -1    0    0  501    0  0.00000000000E+00  0.00000000000E+00 -0.26285641289E+03  0.26285641291E+03  0.25500000920E-02 0.  1.
    10030    2    1    2    0    0  0.00000000000E+00  0.00000000000E+00  0.20255719790E+03  0.72827002371E+03  0.69953399418E+03 0.  0.
        3    1    3    3  502    0 -0.33786086862E+02  0.19113467566E+03 -0.20164309793E+03  0.27988196270E+03  0.10100000352E+00 0.  1.
       -3    1    3    3    0  502  0.33786086862E+02 -0.19113467566E+03  0.40420029583E+03  0.44838806100E+03  0.10100000352E+00 0. -1.
</event>
<event>
 5   0  0.1858013E-02  0.6849510E+03  0.7818609E-02  0.9743320E-01
       -1   -1    0    0    0  501  0.00000000000E+00  0.00000000000E+00  0.57048565914E+03  0.57048565916E+03  0.50400001928E-02 0. -1.
        1   -1    0    0  501    0  0.00000000000E+00  0.00000000000E+00 -0.20559580916E+03  0.20559580922E+03  0.50400001928E-02 0.  1.
    10030    2    1    2    0    0  0.00000000000E+00  0.00000000000E+00  0.36488984998E+03  0.77608146838E+03  0.68495097850E+03 0.  0.
        2    1    3    3  502    0 -0.26183416841E+02  0.33153969956E+03  0.27508711784E+03  0.43159826936E+03  0.25500000920E-02 0.  1.
       -2    1    3    3    0  502  0.26183416841E+02 -0.33153969956E+03  0.89802732140E+02  0.34448319902E+03  0.25500000920E-02 0. -1.
</event>
<event>
 5   0  0.1233912E-02  0.6955101E+03  0.7818609E-02  0.9724941E-01
        3   -1    0    0  501    0  0.00000000000E+00  0.00000000000E+00  0.58985601139E+03  0.58985602004E+03  0.10100000352E+00 0.  1.
       -3   -1    0    0    0  501  0.00000000000E+00  0.00000000000E+00 -0.20502218006E+03  0.20502220494E+03  0.10100000352E+00 0. -1.
    10030    2    1    2    0    0  0.00000000000E+00  0.00000000000E+00  0.38483383133E+03  0.79487822498E+03  0.69551011122E+03 0.  0.
        1    1    3    3  502    0 -0.30299842755E+03  0.83972378954E+01 -0.23915052989E+01  0.30312419901E+03  0.50400001928E-02 0.  1.
       -1    1    3    3    0  502  0.30299842755E+03 -0.83972378954E+01  0.38722533663E+03  0.49175402597E+03  0.50400001928E-02 0. -1.
</event>
<event>
 5   0  0.1858013E-02  0.6970247E+03  0.7818609E-02  0.9722334E-01
       -1   -1    0    0    0  501  0.00000000000E+00  0.00000000000E+00  0.27899146325E+03  0.27899146330E+03  0.50400001928E-02 0. -1.
        1   -1    0    0  501    0  0.00000000000E+00  0.00000000000E+00 -0.43535686853E+03  0.43535686856E+03  0.50400001928E-02 0.  1.
    10030    2    1    2    0    0  0.00000000000E+00  0.00000000000E+00 -0.15636540528E+03  0.71434833186E+03  0.69702467622E+03 0.  0.
        2    1    3    3  502    0 -0.11485676499E+03  0.30862586573E+03  0.38753278951E+02  0.33157777081E+03  0.25500000920E-02 0. -1.
       -2    1    3    3    0  502  0.11485676499E+03 -0.30862586573E+03 -0.19511868423E+03  0.38277056105E+03  0.25500000920E-02 0.  1.
</event>
<event>
 5   0  0.3113940E-02  0.6986798E+03  0.7818609E-02  0.9719493E-01
        2   -1    0    0  501    0  0.00000000000E+00  0.00000000000E+00  0.46761611001E+03  0.46761611002E+03  0.25500000920E-02 0.  1.
       -2   -1    0    0    0  501  0.00000000000E+00  0.00000000000E+00 -0.26097980826E+03  0.26097980827E+03  0.25500000920E-02 0. -1.
    10030    2    1    2    0    0  0.00000000000E+00  0.00000000000E+00  0.20663630175E+03  0.72859591829E+03  0.69867979143E+03 0.  0.
        5    1    3    3  502    0 -0.33194064972E+02 -0.34417155920E+03  0.15504407865E+03  0.37896789368E+03  0.46999998093E+01 0. -1.
       -5    1    3    3    0  502  0.33194064972E+02  0.34417155920E+03  0.51592223102E+02  0.34962802462E+03  0.46999998093E+01 0.  1.
</event>
<event>
 5   0  0.3183963E-02  0.6832617E+03  0.7818609E-02  0.9746293E-01
        2   -1    0    0  501    0  0.00000000000E+00  0.00000000000E+00  0.63837453252E+03  0.63837453253E+03  0.25500000920E-02 0. -1.
       -2   -1    0    0    0  501  0.00000000000E+00  0.00000000000E+00 -0.18282625401E+03  0.18282625403E+03  0.25500000920E-02 0.  1.
    10030    2    1    2    0    0  0.00000000000E+00  0.00000000000E+00  0.45554827851E+03  0.82120078656E+03  0.68326166130E+03 0.  0.
        4    1    3    3  502    0 -0.14513957216E+03  0.15901744344E+03  0.54657460759E+03  0.58744996152E+03  0.12699999809E+01 0. -1.
       -4    1    3    3    0  502  0.14513957216E+03 -0.15901744344E+03 -0.91026329080E+02  0.23375082505E+03  0.12699999809E+01 0.  1.
</event>
<event>
 5   0  0.1858013E-02  0.6837404E+03  0.7818609E-02  0.9745449E-01
       -1   -1    0    0    0  501  0.00000000000E+00  0.00000000000E+00  0.38156032258E+03  0.38156032262E+03  0.50400001928E-02 0. -1.
        1   -1    0    0  501    0  0.00000000000E+00  0.00000000000E+00 -0.30630870432E+03  0.30630870436E+03  0.50400001928E-02 0.  1.
    10030    2    1    2    0    0  0.00000000000E+00  0.00000000000E+00  0.75251618261E+02  0.68786902698E+03  0.68374044215E+03 0.  0.
        2    1    3    3  502    0  0.84317988933E+02  0.32954246493E+03  0.72000659095E+02  0.34769505945E+03  0.25500000920E-02 0. -1.
       -2    1    3    3    0  502 -0.84317988933E+02 -0.32954246493E+03  0.32509591658E+01  0.34017396754E+03  0.25500000920E-02 0.  1.
</event>
<event>
 5   0  0.1969818E-02  0.7087918E+03  0.7818609E-02  0.9702314E-01
       -1   -1    0    0    0  501  0.00000000000E+00  0.00000000000E+00  0.97491285063E+02  0.97491285193E+02  0.50400001928E-02 0.  1.
        1   -1    0    0  501    0  0.00000000000E+00  0.00000000000E+00 -0.12882838888E+04  0.12882838888E+04  0.50400001928E-02 0. -1.
    10030    2    1    2    0    0  0.00000000000E+00  0.00000000000E+00 -0.11907926037E+04  0.13857751740E+04  0.70879179437E+03 0.  0.
        1    1    3    3  502    0 -0.45166952882E+02  0.31495852848E+03 -0.90053034375E+03  0.95508838771E+03  0.50400001928E-02 0. -1.
       -1    1    3    3    0  502  0.45166952882E+02 -0.31495852848E+03 -0.29026225999E+03  0.43068678630E+03  0.50400001928E-02 0.  1.
</event>
<event>
 5   0  0.1884172E-02  0.6970439E+03  0.7818609E-02  0.9722301E-01
        1   -1    0    0  501    0  0.00000000000E+00  0.00000000000E+00  0.50131907687E+03  0.50131907689E+03  0.50400001928E-02 0. -1.
       -1   -1    0    0    0  501  0.00000000000E+00  0.00000000000E+00 -0.24229586232E+03  0.24229586238E+03  0.50400001928E-02 0.  1.
    10030    2    1    2    0    0  0.00000000000E+00  0.00000000000E+00  0.25902321454E+03  0.74361493927E+03  0.69704386679E+03 0.  0.
        3    1    3    3  502    0 -0.22204162513E+03  0.13892459512E+03 -0.11577403075E+03  0.28636718181E+03  0.10100000352E+00 0.  1.
       -3    1    3    3    0  502  0.22204162513E+03 -0.13892459512E+03  0.37479724529E+03  0.45724775746E+03  0.10100000352E+00 0. -1.
</event>
<event>
 5   0  0.2933851E-02  0.6995446E+03  0.7818609E-02  0.9718011E-01
        2   -1    0    0  501    0  0.00000000000E+00  0.00000000000E+00  0.14953070165E+04  0.14953070165E+04  0.25500000920E-02 0. -1.
       -2   -1    0    0    0  501  0.00000000000E+00  0.00000000000E+00 -0.81816414416E+02  0.81816414456E+02  0.25500000920E-02 0.  1.
    10030    2    1    2    0    0  0.00000000000E+00  0.00000000000E+00  0.14134906021E+04  0.15771234310E+04  0.69954459065E+03 0.  0.
        2    1    3    3  502    0 -0.21526921361E+03  0.20606740807E+03  0.11196085443E+04  0.11585887551E+04  0.25500000920E-02 0. -1.
       -2    1    3    3    0  502  0.21526921361E+03 -0.20606740807E+03  0.29388205781E+03  0.41853467587E+03  0.25500000920E-02 0.  1.
</event>
<event>
 5   0  0.1969818E-02  0.6951318E+03  0.7818609E-02  0.9725594E-01
       -1   -1    0    0    0  501  0.00000000000E+00  0.00000000000E+00  0.85520619194E+02  0.85520619342E+02  0.50400001928E-02 0.  1.
        1   -1    0    0  501    0  0.00000000000E+00  0.00000000000E+00 -0.14125490787E+04  0.14125490787E+04  0.50400001928E-02 0. -1.
    10030    2    1    2    0    0  0.00000000000E+00  0.00000000000E+00 -0.13270284595E+04  0.14980696980E+04  0.69513184927E+03 0.  0.
        1    1    3    3  502    0 -0.27403816051E+03  0.14798984791E+02 -0.20388841260E+03  0.34188654286E+03  0.50400001928E-02 0.  1.
       -1    1    3    3    0  502  0.27403816051E+03 -0.14798984791E+02 -0.11231400469E+04  0.11561831552E+04  0.50400001928E-02 0. -1.
</event>
<event>
 5   0  0.3113940E-02  0.6920698E+03  0.7818609E-02  0.9730891E-01
        2   -1    0    0  501    0  0.00000000000E+00  0.00000000000E+00  0.80096743775E+03  0.80096743775E+03  0.25500000920E-02 0.  1.
       -2   -1    0    0    0  501  0.00000000000E+00  0.00000000000E+00 -0.14949440673E+03  0.14949440675E+03  0.25500000920E-02 0. -1.
    10030    2    1    2    0    0  0.00000000000E+00  0.00000000000E+00  0.65147303102E+03  0.95046184450E+03  0.69206979973E+03 0.  0.
        5    1    3    3  502    0  0.32234949842E+03  0.95022304498E+02  0.21265604483E+03  0.39772241688E+03  0.46999998093E+01 0.  1.
       -5    1    3    3    0  502 -0.32234949842E+03 -0.95022304498E+02  0.43881698619E+03  0.55273942762E+03  0.46999998093E+01 0. -1.
</event>
<event>
 5   0  0.1884172E-02  0.7074469E+03  0.7818609E-02  0.9704581E-01
        1   -1    0    0  501    0  0.00000000000E+00  0.00000000000E+00  0.10333329125E+04  0.10333329125E+04  0.50400001928E-02 0.  1.
       -1   -1    0    0    0  501  0.00000000000E+00  0.00000000000E+00 -0.12108419310E+03  0.12108419321E+03  0.50400001928E-02 0. -1.
    10030    2    1    2    0    0  0.00000000000E+00  0.00000000000E+00  0.91224871943E+03  0.11544171058E+04  0.70744690822E+03 0.  0.
        3    1    3    3  502    0  0.30384856546E+03 -0.45774571815E+02  0.74204481676E+03  0.80314991280E+03  0.10100000352E+00 0.  1.
       -3    1    3    3    0  502 -0.30384856546E+03  0.45774571815E+02  0.17020390268E+03  0.35126719295E+03  0.10100000352E+00 0. -1.
</event>
<event>
 5   0  0.2933851E-02  0.6973437E+03  0.7818609E-02  0.9721786E-01
       -2   -1    0    0    0  501  0.00000000000E+00  0.00000000000E+00  0.52478512485E+03  0.52478512485E+03  0.25500000920E-02 0. -1.
        2   -1    0    0  501    0  0.00000000000E+00  0.00000000000E+00 -0.23166067039E+03  0.23166067040E+03  0.25500000920E-02 0.  1.
    10030    2    1    2    0    0  0.00000000000E+00  0.00000000000E+00  0.29312445446E+03  0.75644579525E+03  0.69734374261E+03 0.  0.
        2    1    3    3  502    0  0.30614119186E+03 -0.87014438037E+02 -0.79080330470E+01  0.31836532282E+03  0.25500000920E-02 0.  1.
       -2    1    3    3    0  502 -0.30614119186E+03  0.87014438037E+02  0.30103248751E+03  0.43808047243E+03  0.25500000920E-02 0. -1.
</event>
<event>
 5   0  0.1233912E-02  0.7045545E+03  0.7818609E-02  0.9709475E-01
       -3   -1    0    0    0  501  0.00000000000E+00  0.00000000000E+00  0.11069475742E+03  0.11069480350E+03  0.10100000352E+00 0.  1.
        3   -1    0    0  501    0  0.00000000000E+00  0.00000000000E+00 -0.11210941091E+04  0.11210941136E+04  0.10100000352E+00 0. -1.
    10030    2    1    2    0    0  0.00000000000E+00  0.00000000000E+00 -0.10103993517E+04  0.12317889171E+04  0.70455453057E+03 0.  0.
        2    1    3    3  502    0  0.28016787392E+02 -0.18785377558E+03 -0.10239106224E+04  0.10413774264E+04  0.25500000920E-02 0. -1.
       -2    1    3    3    0  502 -0.28016787392E+02  0.18785377558E+03  0.13511270782E+02  0.19041149078E+03  0.25500000920E-02 0.  1.
</event>
<event>
 5   0  0.3113940E-02  0.6936880E+03  0.7818609E-02  0.9728088E-01
       -2   -1    0    0    0  501  0.00000000000E+00  0.00000000000E+00  0.67120832576E+02  0.67120832625E+02  0.25500000920E-02 0. -1.
        2   -1    0    0  501    0  0.00000000000E+00  0.00000000000E+00 -0.17923012459E+04  0.17923012459E+04  0.25500000920E-02 0.  1.
    10030    2    1    2    0    0  0.00000000000E+00  0.00000000000E+00 -0.17251804133E+04  0.18594220785E+04  0.69368797568E+03 0.  0.
        5    1    3    3  502    0 -0.12801674902E+03  0.26101001865E+03 -0.13695082321E+04  0.14000319302E+04  0.46999998093E+01 0.  1.
       -5    1    3    3    0  502  0.12801674902E+03 -0.26101001865E+03 -0.35567218124E+03  0.45939014832E+03  0.46999998093E+01 0. -1.
</event>
<event>
 5   0  0.1969818E-02  0.6976831E+03  0.7818609E-02  0.9721203E-01
       -1   -1    0    0    0  501  0.00000000000E+00  0.00000000000E+00  0.74355239145E+02  0.74355239316E+02  0.50400001928E-02 0. -1.
        1   -1    0    0  501    0  0.00000000000E+00  0.00000000000E+00 -0.16366088657E+04  0.16366088657E+04  0.50400001928E-02 0.  1.
    10030    2    1    2    0    0  0.00000000000E+00  0.00000000000E+00 -0.15622536266E+04  0.17109641051E+04  0.69768314800E+03 0.  0.
        1    1    3    3  502    0 -0.13708440586E+03 -0.27967121374E+03 -0.39584751995E+03  0.50368976682E+03  0.50400001928E-02 0. -1.
       -1    1    3    3    0  502  0.13708440586E+03  0.27967121374E+03 -0.11664061066E+04  0.12072743382E+04  0.50400001928E-02 0.  1.
</event>
<event>
 5   0  0.1858013E-02  0.7041158E+03  0.7818609E-02  0.9710219E-01
        1   -1    0    0  501    0  0.00000000000E+00  0.00000000000E+00  0.81673105775E+03  0.81673105777E+03  0.50400001928E-02 0.  1.
       -1   -1    0    0    0  501  0.00000000000E+00  0.00000000000E+00 -0.15175715450E+03  0.15175715458E+03  0.50400001928E-02 0. -1.
    10030    2    1    2    0    0  0.00000000000E+00  0.00000000000E+00  0.66497390325E+03  0.96848821235E+03  0.70411584662E+03 0.  0.
        2    1    3    3  502    0 -0.31408847709E+03 -0.26039070066E+02  0.11668682263E+03  0.33607353242E+03  0.25500000920E-02 0. -1.
       -2    1    3    3    0  502  0.31408847709E+03  0.26039070066E+02  0.54828708063E+03  0.63241467994E+03  0.25500000920E-02 0.  1.
</event>
<event>
 5   0  0.3184443E-02  0.6941560E+03  0.7818609E-02  0.9727279E-01
       -2   -1    0    0    0  501  0.00000000000E+00  0.00000000000E+00  0.24583280944E+03  0.24583280945E+03  0.25500000920E-02 0.  1.
        2   -1    0    0  501    0  0.00000000000E+00  0.00000000000E+00 -0.49002062965E+03  0.49002062966E+03  0.25500000920E-02 0. -1.
    10030    2    1    2    0    0  0.00000000000E+00  0.00000000000E+00 -0.24418782022E+03  0.73585343911E+03  0.69415602879E+03 0.  0.
        3    1    3    3  502    0 -0.60292595207E+02  0.34091796128E+03 -0.96065281299E+02  0.35928930102E+03  0.10100000352E+00 0. -1.
       -3    1    3    3    0  502  0.60292595207E+02 -0.34091796128E+03 -0.14812253892E+03  0.37656413809E+03  0.10100000352E+00 0.  1.
</event>
<event>
 5   0  0.1839038E-02  0.6933401E+03  0.7818609E-02  0.9728690E-01
       -1   -1    0    0    0  501  0.00000000000E+00  0.00000000000E+00  0.48286522423E+03  0.48286522426E+03  0.50400001928E-02 0.  1.
        1   -1    0    0  501    0  0.00000000000E+00  0.00000000000E+00 -0.24888961411E+03  0.24888961417E+03  0.50400001928E-02 0. -1.
    10030    2    1    2    0    0  0.00000000000E+00  0.00000000000E+00  0.23397561012E+03  0.73175483843E+03  0.69334014555E+03 0.  0.
        5    1    3    3  502    0  0.30670962507E+03 -0.10684193919E+03 -0.10851597600E+02  0.32500129423E+03  0.46999998093E+01 0. -1.
       -5    1    3    3    0  502 -0.30670962507E+03  0.10684193919E+03  0.24482720772E+03  0.40675354420E+03  0.46999998093E+01 0.  1.
</event>
<event>
 5   0  0.3290656E-02  0.6828861E+03  0.7818609E-02  0.9746955E-01
       -2   -1    0    0    0  501  0.00000000000E+00  0.00000000000E+00  0.73441086514E+02  0.73441086558E+02  0.25500000920E-02 0. -1.
        2   -1    0    0  501    0  0.00000000000E+00  0.00000000000E+00 -0.15874404886E+04  0.15874404886E+04  0.25500000920E-02 0.  1.
    10030    2    1    2    0    0  0.00000000000E+00  0.00000000000E+00 -0.15139994021E+04  0.16608815752E+04  0.68288609387E+03 0.  0.
        1    1    3    3  502    0  0.19458542518E+03 -0.76798988646E+02 -0.10067152437E+03  0.23215582740E+03  0.50400001928E-02 0. -1.
       -1    1    3    3    0  502 -0.19458542518E+03  0.76798988646E+02 -0.14133278777E+04  0.14287257478E+04  0.50400001928E-02 0.  1.
</event>
<event>
 5   0  0.1969818E-02  0.7017497E+03  0.7818609E-02  0.9714245E-01
       -1   -1    0    0    0  501  0.00000000000E+00  0.00000000000E+00  0.46239059517E+03  0.46239059520E+03  0.50400001928E-02 0.  1.
        1   -1    0    0  501    0  0.00000000000E+00  0.00000000000E+00 -0.26625357698E+03  0.26625357703E+03  0.50400001928E-02 0. -1.
    10030    2    1    2    0    0  0.00000000000E+00  0.00000000000E+00  0.19613701819E+03  0.72864417223E+03  0.70174967034E+03 0.  0.
        1    1    3    3  502    0  0.15485085304E+03  0.26295116750E+03  0.27788482285E+03  0.41272518456E+03  0.50400001928E-02 0.  1.
       -1    1    3    3    0  502 -0.15485085304E+03 -0.26295116750E+03 -0.81747804656E+02  0.31591898767E+03  0.50400001928E-02 0. -1.
</event>
<event>
 5   0  0.2933851E-02  0.7028517E+03  0.7818609E-02  0.9712368E-01
       -2   -1    0    0    0  501  0.00000000000E+00  0.00000000000E+00  0.40306831650E+03  0.40306831650E+03  0.25500000920E-02 0.  1.
        2   -1    0    0  501    0  0.00000000000E+00  0.00000000000E+00 -0.30639999583E+03  0.30639999584E+03  0.25500000920E-02 0. -1.
    10030    2    1    2    0    0  0.00000000000E+00  0.00000000000E+00  0.96668320669E+02  0.70946831234E+03  0.70285170698E+03 0.  0.
        2    1    3    3  502    0 -0.23392008650E+03 -0.20690520587E+02  0.31224026869E+03  0.39069257724E+03  0.25500000920E-02 0.  1.
       -2    1    3    3    0  502  0.23392008650E+03  0.20690520587E+02 -0.21557194802E+03  0.31877573510E+03  0.25500000920E-02 0. -1.
</event>
<event>
 5   0  0.1884172E-02  0.7043287E+03  0.7818609E-02  0.9709858E-01
       -1   -1    0    0    0  501  0.00000000000E+00  0.00000000000E+00  0.13696550731E+03  0.13696550740E+03  0.50400001928E-02 0. -1.
        1   -1    0    0  501    0  0.00000000000E+00  0.00000000000E+00 -0.90548136421E+03  0.90548136422E+03  0.50400001928E-02 0.  1.
    10030    2    1    2    0    0  0.00000000000E+00  0.00000000000E+00 -0.76851585690E+03  0.10424468716E+04  0.70432865755E+03 0.  0.
        3    1    3    3  502    0  0.21539550102E+03 -0.20293910891E+03 -0.10172507875E+03  0.31293370805E+03  0.10100000352E+00 0. -1.
       -3    1    3    3    0  502 -0.21539550102E+03  0.20293910891E+03 -0.66679077815E+03  0.72951316357E+03  0.10100000352E+00 0.  1.
</event>
<event>
 5   0  0.3183963E-02  0.6947364E+03  0.7818609E-02  0.9726276E-01
       -2   -1    0    0    0  501  0.00000000000E+00  0.00000000000E+00  0.14290852045E+03  0.14290852047E+03  0.25500000920E-02 0.  1.
        2   -1    0    0  501    0  0.00000000000E+00  0.00000000000E+00 -0.84434892438E+03  0.84434892438E+03  0.25500000920E-02 0. -1.
    10030    2    1    2    0    0  0.00000000000E+00  0.00000000000E+00 -0.70144040393E+03  0.98725744485E+03  0.69473636881E+03 0.  0.
        4    1    3    3  502    0  0.10546254925E+02 -0.20217528081E+03 -0.75184249718E+03  0.77862367106E+03  0.12699999809E+01 0. -1.
       -4    1    3    3    0  502 -0.10546254925E+02  0.20217528081E+03  0.50402093250E+02  0.20863377379E+03  0.12699999809E+01 0.  1.
</event>
<event>
 5   0  0.3290656E-02  0.6884571E+03  0.7818609E-02  0.9737178E-01
       -2   -1    0    0    0  501  0.00000000000E+00  0.00000000000E+00  0.40520371143E+03  0.40520371144E+03  0.25500000920E-02 0. -1.
        2   -1    0    0  501    0  0.00000000000E+00  0.00000000000E+00 -0.29242898180E+03  0.29242898181E+03  0.25500000920E-02 0.  1.
    10030    2    1    2    0    0  0.00000000000E+00  0.00000000000E+00  0.11277472963E+03  0.69763269325E+03  0.68845714104E+03 0.  0.
        1    1    3    3  502    0  0.17881138333E+03  0.92308693484E+02 -0.22661767084E+03  0.30306760708E+03  0.50400001928E-02 0.  1.
       -1    1    3    3    0  502 -0.17881138333E+03 -0.92308693484E+02  0.33939240047E+03  0.39456508617E+03  0.50400001928E-02 0. -1.
</event>
<event>
 5   0  0.1884172E-02  0.6917464E+03  0.7818609E-02  0.9731452E-01
        1   -1    0    0  501    0  0.00000000000E+00  0.00000000000E+00  0.34924850249E+03  0.34924850253E+03  0.50400001928E-02 0.  1.
       -1   -1    0    0    0  501  0.00000000000E+00  0.00000000000E+00 -0.34253049627E+03  0.34253049631E+03  0.50400001928E-02 0. -1.
    10030    2    1    2    0    0  0.00000000000E+00  0.00000000000E+00  0.67180062179E+01  0.69177899884E+03  0.69174637811E+03 0.  0.
        3    1    3    3  502    0 -0.22084790800E+03 -0.19694495042E+03  0.18244045161E+03  0.34762859570E+03  0.10100000352E+00 0.  1.
       -3    1    3    3    0  502  0.22084790800E+03  0.19694495042E+03 -0.17572244539E+03  0.34415040314E+03  0.10100000352E+00 0. -1.
</event>
<event>
 5   0  0.1839038E-02  0.7021526E+03  0.7818609E-02  0.9713558E-01
        1   -1    0    0  501    0  0.00000000000E+00  0.00000000000E+00  0.10793125911E+04  0.10793125911E+04  0.50400001928E-02 0.  1.
       -1   -1    0    0    0  501  0.00000000000E+00  0.00000000000E+00 -0.11419726977E+03  0.11419726988E+03  0.50400001928E-02 0. -1.
    10030    2    1    2    0    0  0.00000000000E+00  0.00000000000E+00  0.96511532129E+03  0.11935098609E+04  0.70215255095E+03 0.  0.
        5    1    3    3  502    0  0.13810494510E+03 -0.31119655923E+03  0.33716685993E+03  0.47918666067E+03  0.46999998093E+01 0.  1.
       -5    1    3    3    0  502 -0.13810494510E+03  0.31119655923E+03  0.62794846135E+03  0.71432320027E+03  0.46999998093E+01 0. -1.
</event>
<event>
 5   0  0.1884172E-02  0.6991596E+03  0.7818609E-02  0.9718670E-01
        1   -1    0    0  501    0  0.00000000000E+00  0.00000000000E+00  0.28228475434E+03  0.28228475439E+03  0.50400001928E-02 0. -1.
       -1   -1    0    0    0  501  0.00000000000E+00  0.00000000000E+00 -0.43291764898E+03  0.43291764900E+03  0.50400001928E-02 0.  1.
    10030    2    1    2    0    0  0.00000000000E+00  0.00000000000E+00 -0.15063289463E+03  0.71520240339E+03  0.69915964477E+03 0.  0.
        3    1    3    3  502    0 -0.11243317733E+03  0.14157338642E+03  0.23075090913E+03  0.29313859414E+03  0.10100000352E+00 0. -1.
       -3    1    3    3    0  502  0.11243317733E+03 -0.14157338642E+03 -0.38138380377E+03  0.42206380925E+03  0.10100000352E+00 0.  1.
</event>
<event>
 5   0  0.1839038E-02  0.6945012E+03  0.7818609E-02  0.9726682E-01
        1   -1    0    0  501    0  0.00000000000E+00  0.00000000000E+00  0.39655541630E+03  0.39655541633E+03  0.50400001928E-02 0. -1.
       -1   -1    0    0    0  501  0.00000000000E+00  0.00000000000E+00 -0.30407597996E+03  0.30407598000E+03  0.50400001928E-02 0.  1.
    10030    2    1    2    0    0  0.00000000000E+00  0.00000000000E+00  0.92479436343E+02  0.70063139633E+03  0.69450119322E+03 0.  0.
        5    1    3    3  502    0 -0.19040756827E+03  0.13371152555E+03  0.30624918209E+03  0.38463549713E+03  0.46999998093E+01 0. -1.
       -5    1    3    3    0  502  0.19040756827E+03 -0.13371152555E+03 -0.21376974575E+03  0.31599589921E+03  0.46999998093E+01 0.  1.
</event>
<event>
 5   0  0.2933851E-02  0.6977169E+03  0.7818609E-02  0.9721145E-01
       -2   -1    0    0    0  501  0.00000000000E+00  0.00000000000E+00  0.11457304369E+03  0.11457304372E+03  0.25500000920E-02 0. -1.
        2   -1    0    0  501    0  0.00000000000E+00  0.00000000000E+00 -0.10622237139E+04  0.10622237139E+04  0.25500000920E-02 0.  1.
    10030    2    1    2    0    0  0.00000000000E+00  0.00000000000E+00 -0.94765067023E+03  0.11767967576E+04  0.69771685949E+03 0.  0.
        2    1    3    3  502    0  0.34711965017E+03  0.11665099448E+01 -0.53246587818E+03  0.63562042424E+03  0.25500000920E-02 0. -1.
       -2    1    3    3    0  502 -0.34711965017E+03 -0.11665099448E+01 -0.41518479205E+03  0.54117633340E+03  0.25500000920E-02 0.  1.
</event>
<event>
 5   0  0.1884172E-02  0.6981240E+03  0.7818609E-02  0.9720446E-01
        1   -1    0    0  501    0  0.00000000000E+00  0.00000000000E+00  0.61087445481E+03  0.61087445483E+03  0.50400001928E-02 0. -1.
       -1   -1    0    0    0  501  0.00000000000E+00  0.00000000000E+00 -0.19945881536E+03  0.19945881543E+03  0.50400001928E-02 0.  1.
    10030    2    1    2    0    0  0.00000000000E+00  0.00000000000E+00  0.41141563945E+03  0.81033327026E+03  0.69812404378E+03 0.  0.
        3    1    3    3  502    0  0.19513362317E+03  0.14287065622E+03  0.49786863424E+03  0.55350008352E+03  0.10100000352E+00 0. -1.
       -3    1    3    3    0  502 -0.19513362317E+03 -0.14287065622E+03 -0.86452994793E+02  0.25683318674E+03  0.10100000352E+00 0.  1.
</event>
<event>
 5   0  0.3290656E-02  0.6829179E+03  0.7818609E-02  0.9746899E-01
       -2   -1    0    0    0  501  0.00000000000E+00  0.00000000000E+00  0.99628276424E+02  0.99628276457E+02  0.25500000920E-02 0. -1.
        2   -1    0    0  501    0  0.00000000000E+00  0.00000000000E+00 -0.11702922407E+04  0.11702922407E+04  0.25500000920E-02 0.  1.
    10030    2    1    2    0    0  0.00000000000E+00  0.00000000000E+00 -0.10706639643E+04  0.12699205172E+04  0.68291785415E+03 0.  0.
        1    1    3    3  502    0 -0.66344503847E+02  0.26955994053E+02 -0.11561713417E+04  0.11583869777E+04  0.50400001928E-02 0.  1.
       -1    1    3    3    0  502  0.66344503847E+02 -0.26955994053E+02  0.85507377398E+02  0.11153353944E+03  0.50400001928E-02 0. -1.
</event>
<event>
 5   0  0.3183963E-02  0.6936803E+03  0.7818609E-02  0.9728101E-01
       -2   -1    0    0    0  501  0.00000000000E+00  0.00000000000E+00  0.47101750852E+03  0.47101750853E+03  0.25500000920E-02 0.  1.
        2   -1    0    0  501    0  0.00000000000E+00  0.00000000000E+00 -0.25540047433E+03  0.25540047434E+03  0.25500000920E-02 0. -1.
    10030    2    1    2    0    0  0.00000000000E+00  0.00000000000E+00  0.21561703419E+03  0.72641798287E+03  0.69368031571E+03 0.  0.
        4    1    3    3  502    0  0.14726674348E+03 -0.27716436951E+02 -0.21974870998E+03  0.26598271194E+03  0.12699999809E+01 0. -1.
       -4    1    3    3    0  502 -0.14726674348E+03  0.27716436951E+02  0.43536574417E+03  0.46043527093E+03  0.12699999809E+01 0.  1.
</event>
<event>
 5   0  0.1884172E-02  0.6853614E+03  0.7818609E-02  0.9742599E-01
       -1   -1    0    0    0  501  0.00000000000E+00  0.00000000000E+00  0.69197338761E+02  0.69197338944E+02  0.50400001928E-02 0. -1.
        1   -1    0    0  501    0  0.00000000000E+00  0.00000000000E+00 -0.16970315100E+04  0.16970315100E+04  0.50400001928E-02 0.  1.
    10030    2    1    2    0    0  0.00000000000E+00  0.00000000000E+00 -0.16278341713E+04  0.17662288490E+04  0.68536140672E+03 0.  0.
        3    1    3    3  502    0  0.16279775819E+03  0.14884164998E+03 -0.14897458198E+04  0.15059879032E+04  0.10100000352E+00 0.  1.
       -3    1    3    3    0  502 -0.16279775819E+03 -0.14884164998E+03 -0.13808835148E+03  0.26024094577E+03  0.10100000352E+00 0. -1.
</event>
<event>
 5   0  0.3184443E-02  0.6874321E+03  0.7818609E-02  0.9738970E-01
        2   -1    0    0  501    0  0.00000000000E+00  0.00000000000E+00  0.15965815540E+04  0.15965815540E+04  0.25500000920E-02 0. -1.
       -2   -1    0    0    0  501  0.00000000000E+00  0.00000000000E+00 -0.73996040114E+02  0.73996040158E+02  0.25500000920E-02 0.  1.
    10030    2    1    2    0    0  0.00000000000E+00  0.00000000000E+00  0.15225855139E+04  0.16705775941E+04  0.68743207010E+03 0.  0.
        3    1    3    3  502    0 -0.27990669989E+03 -0.67728813296E+02  0.12172705184E+04  0.12508726866E+04  0.10100000352E+00 0. -1.
       -3    1    3    3    0  502  0.27990669989E+03  0.67728813296E+02  0.30531499546E+03  0.41970490759E+03  0.10100000352E+00 0.  1.
</event>
<event>
 5   0  0.3184443E-02  0.7006203E+03  0.7818609E-02  0.9716172E-01
       -2   -1    0    0    0  501  0.00000000000E+00  0.00000000000E+00  0.18968812366E+03  0.18968812368E+03  0.25500000920E-02 0.  1.
        2   -1    0    0  501    0  0.00000000000E+00  0.00000000000E+00 -0.64694200490E+03  0.64694200491E+03  0.25500000920E-02 0. -1.
    10030    2    1    2    0    0  0.00000000000E+00  0.00000000000E+00 -0.45725388124E+03  0.83663012859E+03  0.70062033952E+03 0.  0.
        3    1    3    3  502    0 -0.11606246904E+01  0.15965821460E+03 -0.60096719056E+03  0.62181481718E+03  0.10100000352E+00 0. -1.
       -3    1    3    3    0  502  0.11606246904E+01 -0.15965821460E+03  0.14371330931E+03  0.21481531141E+03  0.10100000352E+00 0.  1.
</event>
<event>
 5   0  0.1858013E-02  0.6983624E+03  0.7818609E-02  0.9720037E-01
       -1   -1    0    0    0  501  0.00000000000E+00  0.00000000000E+00  0.39472345108E+03  0.39472345111E+03  0.50400001928E-02 0.  1.
        1   -1    0    0  501    0  0.00000000000E+00  0.00000000000E+00 -0.30889348305E+03  0.30889348309E+03  0.50400001928E-02 0. -1.
    10030    2    1    2    0    0  0.00000000000E+00  0.00000000000E+00  0.85829968033E+02  0.70361693420E+03  0.69836237490E+03 0.  0.
        2    1    3    3  502    0 -0.19591321176E+03  0.47648980545E+02  0.33014788133E+03  0.38684626849E+03  0.25500000920E-02 0.  1.
       -2    1    3    3    0  502  0.19591321176E+03 -0.47648980545E+02 -0.24431791330E+03  0.31677066571E+03  0.25500000920E-02 0. -1.
</event>
<event>
 5   0  0.1839038E-02  0.6995786E+03  0.7818609E-02  0.9717953E-01
       -1   -1    0    0    0  501  0.00000000000E+00  0.00000000000E+00  0.70089701780E+03  0.70089701782E+03  0.50400001928E-02 0. -1.
        1   -1    0    0  501    0  0.00000000000E+00  0.00000000000E+00 -0.17456564624E+03  0.17456564631E+03  0.50400001928E-02 0.  1.
    10030    2    1    2    0    0  0.00000000000E+00  0.00000000000E+00  0.52633137156E+03  0.87546266413E+03  0.69957856142E+03 0.  0.
        5    1    3    3  502    0  0.29668139311E+03 -0.26789785989E+02  0.33801848510E+02  0.29983695004E+03  0.46999998093E+01 0.  1.
       -5    1    3    3    0  502 -0.29668139311E+03  0.26789785989E+02  0.49252952305E+03  0.57562571409E+03  0.46999998093E+01 0. -1.
</event>
<event>
 5   0  0.1969818E-02  0.6979177E+03  0.7818609E-02  0.9720800E-01
       -1   -1    0    0    0  501  0.00000000000E+00  0.00000000000E+00  0.12103237284E+03  0.12103237294E+03  0.50400001928E-02 0.  1.
        1   -1    0    0  501    0  0.00000000000E+00  0.00000000000E+00 -0.10061133694E+04  0.10061133694E+04  0.50400001928E-02 0. -1.
    10030    2    1    2    0    0  0.00000000000E+00  0.00000000000E+00 -0.88508099654E+03  0.11271457423E+04  0.69791772726E+03 0.  0.
        1    1    3    3  502    0 -0.25049138459E+03  0.69619748041E+02 -0.66622497059E+02  0.26838666176E+03  0.50400001928E-02 0.  1.
       -1    1    3    3    0  502  0.25049138459E+03 -0.69619748041E+02 -0.81845849948E+03  0.85875908058E+03  0.50400001928E-02 0. -1.
</event>
<event>
 5   0  0.3113940E-02  0.6992360E+03  0.7818609E-02  0.9718540E-01
       -2   -1    0    0    0  501  0.00000000000E+00  0.00000000000E+00  0.10103681996E+03  0.10103681999E+03  0.25500000920E-02 0. -1.
        2   -1    0    0  501    0  0.00000000000E+00  0.00000000000E+00 -0.12097841821E+04  0.12097841821E+04  0.25500000920E-02 0.  1.
    10030    2    1    2    0    0  0.00000000000E+00  0.00000000000E+00 -0.11087473621E+04  0.13108210021E+04  0.69923600199E+03 0.  0.
        5    1    3    3  502    0  0.26416654918E+03  0.78951948200E+01 -0.98335412750E+03  0.10182601484E+04  0.46999998093E+01 0.  1.
       -5    1    3    3    0  502 -0.26416654918E+03 -0.78951948200E+01 -0.12539323465E+03  0.29256085367E+03  0.46999998093E+01 0. -1.
</event>
<event>
 5   0  0.3184443E-02  0.7108871E+03  0.7818609E-02  0.9698793E-01
       -2   -1    0    0    0  501  0.00000000000E+00  0.00000000000E+00  0.74525193724E+02  0.74525193767E+02  0.25500000920E-02 0.  1.
        2   -1    0    0  501    0  0.00000000000E+00  0.00000000000E+00 -0.16952670106E+04  0.16952670106E+04  0.25500000920E-02 0. -1.
    10030    2    1    2    0    0  0.00000000000E+00  0.00000000000E+00 -0.16207418168E+04  0.17697922043E+04  0.71088705830E+03 0.  0.
        3    1    3    3  502    0 -0.18584930482E+02  0.11240864787E+03 -0.16485747574E+04  0.16525071390E+04  0.10100000352E+00 0. -1.
       -3    1    3    3    0  502  0.18584930482E+02 -0.11240864787E+03  0.27832940538E+02  0.11728506528E+03  0.10100000352E+00 0.  1.
</event>
<event>
 5   0  0.3183963E-02  0.7056863E+03  0.7818609E-02  0.9707557E-01
        2   -1    0    0  501    0  0.00000000000E+00  0.00000000000E+00  0.14518430241E+04  0.14518430241E+04  0.25500000920E-02 0. -1.
       -2   -1    0    0    0  501  0.00000000000E+00  0.00000000000E+00 -0.85751895264E+02  0.85751895301E+02  0.25500000920E-02 0.  1.
    10030    2    1    2    0    0  0.00000000000E+00  0.00000000000E+00  0.13660911288E+04  0.15375949194E+04  0.70568630700E+03 0.  0.
        4    1    3    3  502    0  0.23980624578E+03 -0.24833084435E+03  0.52410139648E+03  0.62758197111E+03  0.12699999809E+01 0. -1.
       -4    1    3    3    0  502 -0.23980624578E+03  0.24833084435E+03  0.84198973235E+03  0.91001294829E+03  0.12699999809E+01 0.  1.
</event>
<event>
 5   0  0.3184443E-02  0.6961116E+03  0.7818609E-02  0.9723905E-01
       -2   -1    0    0    0  501  0.00000000000E+00  0.00000000000E+00  0.25684002968E+03  0.25684002969E+03  0.25500000920E-02 0.  1.
        2   -1    0    0  501    0  0.00000000000E+00  0.00000000000E+00 -0.47166648685E+03  0.47166648686E+03  0.25500000920E-02 0. -1.
    10030    2    1    2    0    0  0.00000000000E+00  0.00000000000E+00 -0.21482645717E+03  0.72850651655E+03  0.69611158441E+03 0.  0.
        3    1    3    3  502    0  0.14021692468E+03 -0.81634862617E+02 -0.42966809795E+03  0.45928174507E+03  0.10100000352E+00 0. -1.
       -3    1    3    3    0  502 -0.14021692468E+03  0.81634862617E+02  0.21484164078E+03  0.26922477147E+03  0.10100000352E+00 0.  1.
</event>
<event>
 5   0  0.1839038E-02  0.6913630E+03  0.7818609E-02  0.9732118E-01
        1   -1    0    0  501    0  0.00000000000E+00  0.00000000000E+00  0.23292246180E+03  0.23292246186E+03  0.50400001928E-02 0.  1.
       -1   -1    0    0    0  501  0.00000000000E+00  0.00000000000E+00 -0.51302777585E+03  0.51302777588E+03  0.50400001928E-02 0. -1.
    10030    2    1    2    0    0  0.00000000000E+00  0.00000000000E+00 -0.28010531405E+03  0.74595023773E+03  0.69136298008E+03 0.  0.
        5    1    3    3  502    0 -0.10617803232E+03  0.91897713721E+02 -0.48082966437E+03  0.50093734186E+03  0.46999998093E+01 0. -1.
       -5    1    3    3    0  502  0.10617803232E+03 -0.91897713721E+02  0.20072435032E+03  0.24501289587E+03  0.46999998093E+01 0.  1.
</event>
<event>
 5   0  0.1951465E-02  0.7113991E+03  0.7818609E-02  0.9697934E-01
        1   -1    0    0  501    0  0.00000000000E+00  0.00000000000E+00  0.75826047924E+03  0.75826047926E+03  0.50400001928E-02 0. -1.
       -1   -1    0    0    0  501  0.00000000000E+00  0.00000000000E+00 -0.16685846369E+03  0.16685846376E+03  0.50400001928E-02 0.  1.
    10030    2    1    2    0    0  0.00000000000E+00  0.00000000000E+00  0.59140201556E+03  0.92511894302E+03  0.71139912478E+03 0.  0.
        4    1    3    3  502    0 -0.30522918763E+03  0.72849690229E+00  0.58199769017E+02  0.31073173913E+03  0.12699999809E+01 0.  1.
       -4    1    3    3    0  502  0.30522918763E+03 -0.72849690229E+00  0.53320224654E+03  0.61438720389E+03  0.12699999809E+01 0. -1.
</event>
<event>
 5   0  0.1839038E-02  0.7092041E+03  0.7818609E-02  0.9701620E-01
        1   -1    0    0  501    0  0.00000000000E+00  0.00000000000E+00  0.86405315052E+03  0.86405315053E+03  0.50400001928E-02 0. -1.
       -1   -1    0    0    0  501  0.00000000000E+00  0.00000000000E+00 -0.14552647421E+03  0.14552647430E+03  0.50400001928E-02 0.  1.
    10030    2    1    2    0    0  0.00000000000E+00  0.00000000000E+00  0.71852667631E+03  0.10095796248E+04  0.70920408509E+03 0.  0.
        5    1    3    3  502    0  0.27616646753E+03 -0.98909242022E+02  0.64279270938E+03  0.70658015340E+03  0.46999998093E+01 0. -1.
       -5    1    3    3    0  502 -0.27616646753E+03  0.98909242022E+02  0.75733966926E+02  0.30299947144E+03  0.46999998093E+01 0.  1.
</event>
<event>
 5   0  0.1951465E-02  0.6984640E+03  0.7818609E-02  0.9719863E-01
       -1   -1    0    0    0  501  0.00000000000E+00  0.00000000000E+00  0.12800100378E+03  0.12800100388E+03  0.50400001928E-02 0. -1.
        1   -1    0    0  501    0  0.00000000000E+00  0.00000000000E+00 -0.95282836648E+03  0.95282836650E+03  0.50400001928E-02 0.  1.
    10030    2    1    2    0    0  0.00000000000E+00  0.00000000000E+00 -0.82482736270E+03  0.10808293704E+04  0.69846399306E+03 0.  0.
        4    1    3    3  502    0  0.12438211641E+03 -0.14948308817E+03  0.36463955451E+02  0.19785686109E+03  0.12699999809E+01 0. -1.
       -4    1    3    3    0  502 -0.12438211641E+03  0.14948308817E+03 -0.86129131815E+03  0.88297250929E+03  0.12699999809E+01 0.  1.
</event>
<event>
 5   0  0.3184443E-02  0.6898841E+03  0.7818609E-02  0.9734690E-01
        2   -1    0    0  501    0  0.00000000000E+00  0.00000000000E+00  0.77813253406E+03  0.77813253407E+03  0.25500000920E-02 0. -1.
       -2   -1    0    0    0  501  0.00000000000E+00  0.00000000000E+00 -0.15291098315E+03  0.15291098317E+03  0.25500000920E-02 0.  1.
    10030    2    1    2    0    0  0.00000000000E+00  0.00000000000E+00  0.62522155092E+03  0.93104351724E+03  0.68988407958E+03 0.  0.
        3    1    3    3  502    0  0.20924096143E+03  0.26051942099E+03  0.19704471304E+03  0.38791594166E+03  0.10100000352E+00 0. -1.
       -3    1    3    3    0  502 -0.20924096143E+03 -0.26051942099E+03  0.42817683788E+03  0.54312757558E+03  0.10100000352E+00 0.  1.
</event>
<event>
 5   0  0.1884172E-02  0.7013377E+03  0.7818609E-02  0.9714947E-01
        1   -1    0    0  501    0  0.00000000000E+00  0.00000000000E+00  0.89311158881E+03  0.89311158883E+03  0.50400001928E-02 0. -1.
       -1   -1    0    0    0  501  0.00000000000E+00  0.00000000000E+00 -0.13768563185E+03  0.13768563194E+03  0.50400001928E-02 0.  1.
    10030    2    1    2    0    0  0.00000000000E+00  0.00000000000E+00  0.75542595696E+03  0.10307972208E+04  0.70133767465E+03 0.  0.
        3    1    3    3  502    0 -0.29057360077E+02 -0.19920102964E+03 -0.44297858007E+02  0.20612542495E+03  0.10100000352E+00 0.  1.
       -3    1    3    3    0  502  0.29057360077E+02  0.19920102964E+03  0.79972381497E+03  0.82467179582E+03  0.10100000352E+00 0. -1.
</event>
<event>
 5   0  0.1233912E-02  0.6950555E+03  0.7818609E-02  0.9725726E-01
        4   -1    0    0  501    0  0.00000000000E+00  0.00000000000E+00  0.10309035022E+03  0.10309817268E+03  0.12699999809E+01 0. -1.
       -4   -1    0    0    0  501  0.00000000000E+00  0.00000000000E+00 -0.11714976274E+04  0.11714983158E+04  0.12699999809E+01 0.  1.
    10030    2    1    2    0    0  0.00000000000E+00  0.00000000000E+00 -0.10684072772E+04  0.12745964885E+04  0.69505546434E+03 0.  0.
        2    1    3    3  502    0  0.30570454859E+03 -0.27263765426E+01 -0.83726915967E+03  0.89133739397E+03  0.25500000920E-02 0.  1.
       -2    1    3    3    0  502 -0.30570454859E+03  0.27263765426E+01 -0.23113811756E+03  0.38325909455E+03  0.25500000920E-02 0. -1.
</event>
<event>
 5   0  0.3184443E-02  0.6966046E+03  0.7818609E-02  0.9723056E-01
       -2   -1    0    0    0  501  0.00000000000E+00  0.00000000000E+00  0.91838861171E+02  0.91838861206E+02  0.25500000920E-02 0.  1.
        2   -1    0    0  501    0  0.00000000000E+00  0.00000000000E+00 -0.13209494787E+04  0.13209494787E+04  0.25500000920E-02 0. -1.
    10030    2    1    2    0    0  0.00000000000E+00  0.00000000000E+00 -0.12291106175E+04  0.14127883399E+04  0.69660461041E+03 0.  0.
        3    1    3    3  502    0  0.30636368443E+03  0.45795992723E+02 -0.29159244671E+03  0.42541996341E+03  0.10100000352E+00 0.  1.
       -3    1    3    3    0  502 -0.30636368443E+03 -0.45795992723E+02 -0.93751817078E+03  0.98736837646E+03  0.10100000352E+00 0. -1.
</event>
<event>
 5   0  0.1884172E-02  0.7512004E+03  0.7818609E-02  0.9633469E-01
       -1   -1    0    0    0  501  0.00000000000E+00  0.00000000000E+00  0.22741828283E+03  0.22741828289E+03  0.50400001928E-02 0. -1.
        1   -1    0    0  501    0  0.00000000000E+00  0.00000000000E+00 -0.62033502122E+03  0.62033502124E+03  0.50400001928E-02 0.  1.
    10030    2    1    2    0    0  0.00000000000E+00  0.00000000000E+00 -0.39291673839E+03  0.84775330413E+03  0.75120044020E+03 0.  0.
        3    1    3    3  502    0 -0.75575323795E+02  0.33046897418E+03 -0.37896720787E+03  0.50846585658E+03  0.10100000352E+00 0.  1.
       -3    1    3    3    0  502  0.75575323795E+02 -0.33046897418E+03 -0.13949530513E+02  0.33928744755E+03  0.10100000352E+00 0. -1.
</event>
<event>
 5   0  0.3183963E-02  0.6890059E+03  0.7818609E-02  0.9736221E-01
       -2   -1    0    0    0  501  0.00000000000E+00  0.00000000000E+00  0.10842001226E+03  0.10842001229E+03  0.25500000920E-02 0.  1.
        2   -1    0    0  501    0  0.00000000000E+00  0.00000000000E+00 -0.10946527734E+04  0.10946527734E+04  0.25500000920E-02 0. -1.
    10030    2    1    2    0    0  0.00000000000E+00  0.00000000000E+00 -0.98623276115E+03  0.12030727857E+04  0.68900585521E+03 0.  0.
        4    1    3    3  502    0  0.28828941982E+03 -0.12639950208E+03 -0.24870591528E+03  0.40117810123E+03  0.12699999809E+01 0.  1.
       -4    1    3    3    0  502 -0.28828941982E+03  0.12639950208E+03 -0.73752684587E+03  0.80189468447E+03  0.12699999809E+01 0. -1.
</event>
<event>
 5   0  0.1233912E-02  0.7002234E+03  0.7818609E-02  0.9716850E-01
       -4   -1    0    0    0  501  0.00000000000E+00  0.00000000000E+00  0.85122672802E+03  0.85122767542E+03  0.12699999809E+01 0. -1.
        4   -1    0    0  501    0  0.00000000000E+00  0.00000000000E+00 -0.14399797909E+03  0.14400357941E+03  0.12699999809E+01 0.  1.
    10030    2    1    2    0    0  0.00000000000E+00  0.00000000000E+00  0.70722874893E+03  0.99523125483E+03  0.70022335528E+03 0.  0.
        4    1    3    3  502    0 -0.22700014079E+03 -0.23362314083E+03  0.17122296075E+03  0.36800509648E+03  0.12699999809E+01 0. -1.
       -4    1    3    3    0  502  0.22700014079E+03  0.23362314083E+03  0.53600578818E+03  0.62722615835E+03  0.12699999809E+01 0.  1.
</event>
<event>
 5   0  0.1858013E-02  0.6925033E+03  0.7818609E-02  0.9730139E-01
        1   -1    0    0  501    0  0.00000000000E+00  0.00000000000E+00  0.80073628342E+03  0.80073628343E+03  0.50400001928E-02 0. -1.
       -1   -1    0    0    0  501  0.00000000000E+00  0.00000000000E+00 -0.14972494045E+03  0.14972494053E+03  0.50400001928E-02 0.  1.
    10030    2    1    2    0    0  0.00000000000E+00  0.00000000000E+00  0.65101134297E+03  0.95046122397E+03  0.69250326323E+03 0.  0.
        2    1    3    3  502    0  0.19644704283E+03 -0.26172777839E+03  0.48077015548E+03  0.58157786497E+03  0.25500000920E-02 0. -1.
       -2    1    3    3    0  502 -0.19644704283E+03  0.26172777839E+03  0.17024118749E+03  0.36888335899E+03  0.25500000920E-02 0.  1.
</event>
<event>
 5   0  0.1951465E-02  0.7048933E+03  0.7818609E-02  0.9708900E-01
       -1   -1    0    0    0  501  0.00000000000E+00  0.00000000000E+00  0.95038964119E+02  0.95038964253E+02  0.50400001928E-02 0. -1.
        1   -1    0    0  501    0  0.00000000000E+00  0.00000000000E+00 -0.13070287374E+04  0.13070287374E+04  0.50400001928E-02 0.  1.
    10030    2    1    2    0    0  0.00000000000E+00  0.00000000000E+00 -0.12119897733E+04  0.14020677017E+04  0.70489334619E+03 0.  0.
        4    1    3    3  502    0  0.25970152052E+03 -0.23826890139E+03 -0.60660907124E+03  0.70156477059E+03  0.12699999809E+01 0.  1.
       -4    1    3    3    0  502 -0.25970152052E+03  0.23826890139E+03 -0.60538070203E+03  0.70050293106E+03  0.12699999809E+01 0. -1.
</event>
<event>
 5   0  0.1884172E-02  0.7064336E+03  0.7818609E-02  0.9706293E-01
       -1   -1    0    0    0  501  0.00000000000E+00  0.00000000000E+00  0.18434816329E+03  0.18434816335E+03  0.50400001928E-02 0.  1.
        1   -1    0    0  501    0  0.00000000000E+00  0.00000000000E+00 -0.67677433739E+03  0.67677433741E+03  0.50400001928E-02 0. -1.
    10030    2    1    2    0    0  0.00000000000E+00  0.00000000000E+00 -0.49242617411E+03  0.86112250077E+03  0.70643359517E+03 0.  0.
        3    1    3    3  502    0 -0.18935928267E+03  0.21115745887E+02  0.11633473537E+03  0.22324111072E+03  0.10100000352E+00 0.  1.
       -3    1    3    3    0  502  0.18935928267E+03 -0.21115745887E+02 -0.60876090948E+03  0.63788139005E+03  0.10100000352E+00 0. -1.
</event>
<event>
 5   0  0.1839038E-02  0.7069415E+03  0.7818609E-02  0.9705434E-01
       -1   -1    0    0    0  501  0.00000000000E+00  0.00000000000E+00  0.32603736629E+03  0.32603736633E+03  0.50400001928E-02 0. -1.
        1   -1    0    0  501    0  0.00000000000E+00  0.00000000000E+00 -0.38321243881E+03  0.38321243884E+03  0.50400001928E-02 0.  1.
    10030    2    1    2    0    0  0.00000000000E+00  0.00000000000E+00 -0.57175072524E+02  0.70924980517E+03  0.70694150905E+03 0.  0.
        5    1    3    3  502    0  0.70342362599E+02  0.34490199540E+03 -0.60535663515E+02  0.35720035129E+03  0.46999998093E+01 0.  1.
       -5    1    3    3    0  502 -0.70342362599E+02 -0.34490199540E+03  0.33605909908E+01  0.35204945388E+03  0.46999998093E+01 0. -1.
</event>
<event>
 5   0  0.3184443E-02  0.7008341E+03  0.7818609E-02  0.9715807E-01
        2   -1    0    0  501    0  0.00000000000E+00  0.00000000000E+00  0.12211573712E+04  0.12211573712E+04  0.25500000920E-02 0.  1.
       -2   -1    0    0    0  501  0.00000000000E+00  0.00000000000E+00 -0.10055387209E+03  0.10055387212E+03  0.25500000920E-02 0. -1.
    10030    2    1    2    0    0  0.00000000000E+00  0.00000000000E+00  0.11206034991E+04  0.13217112433E+04  0.70083408059E+03 0.  0.
        3    1    3    3  502    0 -0.11622959151E+03  0.20719377475E+03  0.74506420946E+02  0.24897749939E+03  0.10100000352E+00 0. -1.
       -3    1    3    3    0  502  0.11622959151E+03 -0.20719377475E+03  0.10460970782E+04  0.10727337440E+04  0.10100000352E+00 0.  1.
</event>
<event>
 5   0  0.1969818E-02  0.7029735E+03  0.7818609E-02  0.9712161E-01
        1   -1    0    0  501    0  0.00000000000E+00  0.00000000000E+00  0.11824983285E+04  0.11824983285E+04  0.50400001928E-02 0.  1.
       -1   -1    0    0    0  501  0.00000000000E+00  0.00000000000E+00 -0.10447620808E+03  0.10447620820E+03  0.50400001928E-02 0. -1.
    10030    2    1    2    0    0  0.00000000000E+00  0.00000000000E+00  0.10780221204E+04  0.12869745367E+04  0.70297351729E+03 0.  0.
        1    1    3    3  502    0  0.94616098442E+02  0.25629489266E+03  0.13415402853E+03  0.30436258227E+03  0.50400001928E-02 0. -1.
       -1    1    3    3    0  502 -0.94616098442E+02 -0.25629489266E+03  0.94386809188E+03  0.98261195443E+03  0.50400001928E-02 0.  1.
</event>
<event>
 5   0  0.3290656E-02  0.6994465E+03  0.7818609E-02  0.9718179E-01
       -2   -1    0    0    0  501  0.00000000000E+00  0.00000000000E+00  0.17087649459E+03  0.17087649461E+03  0.25500000920E-02 0.  1.
        2   -1    0    0  501    0  0.00000000000E+00  0.00000000000E+00 -0.71575867991E+03  0.71575867991E+03  0.25500000920E-02 0. -1.
    10030    2    1    2    0    0  0.00000000000E+00  0.00000000000E+00 -0.54488218531E+03  0.88663517452E+03  0.69944645030E+03 0.  0.
        1    1    3    3  502    0 -0.24328649545E+03  0.20784595798E+03 -0.45134266054E+03  0.55326165453E+03  0.50400001928E-02 0.  1.
       -1    1    3    3    0  502  0.24328649545E+03 -0.20784595798E+03 -0.93539524767E+02  0.33337352000E+03  0.50400001928E-02 0. -1.
</event>
<event>
 5   0  0.1884172E-02  0.7015166E+03  0.7818609E-02  0.9714642E-01
        1   -1    0    0  501    0  0.00000000000E+00  0.00000000000E+00  0.57582874779E+03  0.57582874782E+03  0.50400001928E-02 0. -1.
       -1   -1    0    0    0  501  0.00000000000E+00  0.00000000000E+00 -0.21365969455E+03  0.21365969461E+03  0.50400001928E-02 0.  1.
    10030    2    1    2    0    0  0.00000000000E+00  0.00000000000E+00  0.36216905324E+03  0.78948844243E+03  0.70151662675E+03 0.  0.
        3    1    3    3  502    0 -0.28385867571E+03  0.47480229067E+02 -0.44561485971E+02  0.29123161944E+03  0.10100000352E+00 0.  1.
       -3    1    3    3    0  502  0.28385867571E+03 -0.47480229067E+02  0.40673053921E+03  0.49825682299E+03  0.10100000352E+00 0. -1.
</event>
<event>
 5   0  0.1858013E-02  0.6949075E+03  0.7818609E-02  0.9725981E-01
       -1   -1    0    0    0  501  0.00000000000E+00  0.00000000000E+00  0.69988341196E+03  0.69988341198E+03  0.50400001928E-02 0.  1.
        1   -1    0    0  501    0  0.00000000000E+00  0.00000000000E+00 -0.17249172233E+03  0.17249172240E+03  0.50400001928E-02 0. -1.
    10030    2    1    2    0    0  0.00000000000E+00  0.00000000000E+00  0.52739168963E+03  0.87237513438E+03  0.69490746204E+03 0.  0.
        2    1    3    3  502    0  0.30179395433E+02 -0.18800221886E+03 -0.10116192904E+03  0.21561392835E+03  0.25500000920E-02 0. -1.
       -2    1    3    3    0  502 -0.30179395433E+02  0.18800221886E+03  0.62855361867E+03  0.65676120603E+03  0.25500000920E-02 0.  1.
</event>
<event>
 5   0  0.1839038E-02  0.7035861E+03  0.7818609E-02  0.9711119E-01
        1   -1    0    0  501    0  0.00000000000E+00  0.00000000000E+00  0.78140234378E+03  0.78140234380E+03  0.50400001928E-02 0.  1.
       -1   -1    0    0    0  501  0.00000000000E+00  0.00000000000E+00 -0.15837981115E+03  0.15837981123E+03  0.50400001928E-02 0. -1.
    10030    2    1    2    0    0  0.00000000000E+00  0.00000000000E+00  0.62302253264E+03  0.93978215502E+03  0.70358611607E+03 0.  0.
        5    1    3    3  502    0  0.67752785616E+02 -0.13379573784E+03 -0.11349536819E+03  0.18813566387E+03  0.46999998093E+01 0. -1.
       -5    1    3    3    0  502 -0.67752785616E+02  0.13379573784E+03  0.73651790083E+03  0.75164649115E+03  0.46999998093E+01 0.  1.
</event>
<event>
 5   0  0.3113940E-02  0.6944741E+03  0.7818609E-02  0.9726729E-01
        2   -1    0    0  501    0  0.00000000000E+00  0.00000000000E+00  0.66286724182E+03  0.66286724182E+03  0.25500000920E-02 0. -1.
       -2   -1    0    0    0  501  0.00000000000E+00  0.00000000000E+00 -0.18189698572E+03  0.18189698574E+03  0.25500000920E-02 0.  1.
    10030    2    1    2    0    0  0.00000000000E+00  0.00000000000E+00  0.48097025609E+03  0.84476422756E+03  0.69447405489E+03 0.  0.
        5    1    3    3  502    0  0.15281425555E+02 -0.34198793672E+03  0.31101787054E+03  0.46254024325E+03  0.46999998093E+01 0.  1.
       -5    1    3    3    0  502 -0.15281425555E+02  0.34198793672E+03  0.16995238555E+03  0.38222398431E+03  0.46999998093E+01 0. -1.
</event>
<event>
 5   0  0.3113940E-02  0.7003413E+03  0.7818609E-02  0.9716649E-01
       -2   -1    0    0    0  501  0.00000000000E+00  0.00000000000E+00  0.33615652936E+03  0.33615652937E+03  0.25500000920E-02 0. -1.
        2   -1    0    0  501    0  0.00000000000E+00  0.00000000000E+00 -0.36476902335E+03  0.36476902336E+03  0.25500000920E-02 0.  1.
    10030    2    1    2    0    0  0.00000000000E+00  0.00000000000E+00 -0.28612493987E+02  0.70092555273E+03  0.70034131369E+03 0.  0.
        5    1    3    3  502    0 -0.77818516963E+02 -0.29328983309E+03  0.16054711383E+03  0.34332508433E+03  0.46999998093E+01 0. -1.
       -5    1    3    3    0  502  0.77818516963E+02  0.29328983309E+03 -0.18915960781E+03  0.35760046840E+03  0.46999998093E+01 0.  1.
</event>
<event>
 5   0  0.3113940E-02  0.7620035E+03  0.7818609E-02  0.9616705E-01
       -2   -1    0    0    0  501  0.00000000000E+00  0.00000000000E+00  0.59814853075E+03  0.59814853076E+03  0.25500000920E-02 0. -1.
        2   -1    0    0  501    0  0.00000000000E+00  0.00000000000E+00 -0.24268610724E+03  0.24268610726E+03  0.25500000920E-02 0.  1.
    10030    2    1    2    0    0  0.00000000000E+00  0.00000000000E+00  0.35546242351E+03  0.84083463801E+03  0.76200351309E+03 0.  0.
        5    1    3    3  502    0 -0.18563087624E+03 -0.12208759677E+03 -0.16376199601E+03  0.27605123589E+03  0.46999998093E+01 0.  1.
       -5    1    3    3    0  502  0.18563087624E+03  0.12208759677E+03  0.51922441952E+03  0.56478340213E+03  0.46999998093E+01 0. -1.
</event>
<event>
 5   0  0.1951465E-02  0.6984541E+03  0.7818609E-02  0.9719880E-01
       -1   -1    0    0    0  501  0.00000000000E+00  0.00000000000E+00  0.64470623594E+03  0.64470623596E+03  0.50400001928E-02 0. -1.
        1   -1    0    0  501    0  0.00000000000E+00  0.00000000000E+00 -0.18917071168E+03  0.18917071174E+03  0.50400001928E-02 0.  1.
    10030    2    1    2    0    0  0.00000000000E+00  0.00000000000E+00  0.45553552426E+03  0.83387694771E+03  0.69845411449E+03 0.  0.
        4    1    3    3  502    0  0.33544361668E+03  0.48197418421E+02  0.12708024312E+03  0.36193426504E+03  0.12699999809E+01 0.  1.
       -4    1    3    3    0  502 -0.33544361668E+03 -0.48197418421E+02  0.32845528114E+03  0.47194268267E+03  0.12699999809E+01 0. -1.
</event>
<event>
 5   0  0.2933851E-02  0.6973339E+03  0.7818609E-02  0.9721803E-01
        2   -1    0    0  501    0  0.00000000000E+00  0.00000000000E+00  0.84766638477E+03  0.84766638477E+03  0.25500000920E-02 0.  1.
       -2   -1    0    0    0  501  0.00000000000E+00  0.00000000000E+00 -0.14341565616E+03  0.14341565618E+03  0.25500000920E-02 0. -1.
    10030    2    1    2    0    0  0.00000000000E+00  0.00000000000E+00  0.70425072861E+03  0.99108204095E+03  0.69733386777E+03 0.  0.
        2    1    3    3  502    0  0.17164817702E+03  0.22401133698E+03  0.64313177818E+03  0.70232660485E+03  0.25500000920E-02 0.  1.
       -2    1    3    3    0  502 -0.17164817702E+03 -0.22401133698E+03  0.61118950431E+02  0.28875543610E+03  0.25500000920E-02 0. -1.
</event>
<event>
 5   0  0.3184443E-02  0.6990914E+03  0.7818609E-02  0.9718787E-01
       -2   -1    0    0    0  501  0.00000000000E+00  0.00000000000E+00  0.11704130392E+03  0.11704130394E+03  0.25500000920E-02 0.  1.
        2   -1    0    0  501    0  0.00000000000E+00  0.00000000000E+00 -0.10439236196E+04  0.10439236196E+04  0.25500000920E-02 0. -1.
    10030    2    1    2    0    0  0.00000000000E+00  0.00000000000E+00 -0.92688231567E+03  0.11609649235E+04  0.69909135782E+03 0.  0.
        3    1    3    3  502    0  0.33533943746E+03  0.49336960783E+02 -0.60528569659E+03  0.69372722212E+03  0.10100000352E+00 0. -1.
       -3    1    3    3    0  502 -0.33533943746E+03 -0.49336960783E+02 -0.32159661908E+03  0.46723770141E+03  0.10100000352E+00 0.  1.
</event>
<event>
 5   0  0.1969818E-02  0.6996835E+03  0.7818609E-02  0.9717774E-01
       -1   -1    0    0    0  501  0.00000000000E+00  0.00000000000E+00  0.16362194114E+03  0.16362194122E+03  0.50400001928E-02 0.  1.
        1   -1    0    0  501    0  0.00000000000E+00  0.00000000000E+00 -0.74800018148E+03  0.74800018150E+03  0.50400001928E-02 0. -1.
    10030    2    1    2    0    0  0.00000000000E+00  0.00000000000E+00 -0.58437824034E+03  0.91162212272E+03  0.69968347619E+03 0.  0.
        1    1    3    3  502    0 -0.15036321712E+03 -0.20441733624E+03 -0.60595349861E+03  0.65694382326E+03  0.50400001928E-02 0. -1.
       -1    1    3    3    0  502  0.15036321712E+03  0.20441733624E+03  0.21575258275E+02  0.25467829945E+03  0.50400001928E-02 0.  1.
</event>
<event>
 5   0  0.3184443E-02  0.6959977E+03  0.7818609E-02  0.9724101E-01
        2   -1    0    0  501    0  0.00000000000E+00  0.00000000000E+00  0.45142311469E+03  0.45142311470E+03  0.25500000920E-02 0.  1.
       -2   -1    0    0    0  501  0.00000000000E+00  0.00000000000E+00 -0.26826984475E+03  0.26826984476E+03  0.25500000920E-02 0. -1.
    10030    2    1    2    0    0  0.00000000000E+00  0.00000000000E+00  0.18315326995E+03  0.71969295946E+03  0.69599772672E+03 0.  0.
        3    1    3    3  502    0 -0.19037309438E+03 -0.28845131220E+03  0.13367032059E+03  0.37055882041E+03  0.10100000352E+00 0. -1.
       -3    1    3    3    0  502  0.19037309438E+03  0.28845131220E+03  0.49482949362E+02  0.34913413905E+03  0.10100000352E+00 0.  1.
</event>
<event>
 5   0  0.1951465E-02  0.7005466E+03  0.7818609E-02  0.9716298E-01
       -1   -1    0    0    0  501  0.00000000000E+00  0.00000000000E+00  0.16938032047E+03  0.16938032054E+03  0.50400001928E-02 0.  1.
        1   -1    0    0  501    0  0.00000000000E+00  0.00000000000E+00 -0.72435449329E+03  0.72435449331E+03  0.50400001928E-02 0. -1.
    10030    2    1    2    0    0  0.00000000000E+00  0.00000000000E+00 -0.55497417283E+03  0.89373481385E+03  0.70054663299E+03 0.  0.
        4    1    3    3  502    0  0.17681439491E+03 -0.27521624406E+03 -0.11772310046E+03  0.34766025445E+03  0.12699999809E+01 0.  1.
       -4    1    3    3    0  502 -0.17681439491E+03  0.27521624406E+03 -0.43725107237E+03  0.54607455940E+03  0.12699999809E+01 0. -1.
</event>
<event>
 5   0  0.3113940E-02  0.7044136E+03  0.7818609E-02  0.9709714E-01
       -2   -1    0    0    0  501  0.00000000000E+00  0.00000000000E+00  0.92929696786E+02  0.92929696821E+02  0.25500000920E-02 0.  1.
        2   -1    0    0  501    0  0.00000000000E+00  0.00000000000E+00 -0.13348759512E+04  0.13348759512E+04  0.25500000920E-02 0. -1.
    10030    2    1    2    0    0  0.00000000000E+00  0.00000000000E+00 -0.12419462544E+04  0.14278056480E+04  0.70441356436E+03 0.  0.
        5    1    3    3  502    0  0.33689448537E+03  0.42721840745E+02 -0.43186389207E+03  0.54941019395E+03  0.46999998093E+01 0.  1.
       -5    1    3    3    0  502 -0.33689448537E+03 -0.42721840745E+02 -0.81008236229E+03  0.87839545402E+03  0.46999998093E+01 0. -1.
</event>
<event>
 5   0  0.1884172E-02  0.6995497E+03  0.7818609E-02  0.9718003E-01
        1   -1    0    0  501    0  0.00000000000E+00  0.00000000000E+00  0.27222916995E+04  0.27222916995E+04  0.50400001928E-02 0. -1.
       -1   -1    0    0    0  501  0.00000000000E+00  0.00000000000E+00 -0.44940980129E+02  0.44940980411E+02  0.50400001928E-02 0.  1.
    10030    2    1    2    0    0  0.00000000000E+00  0.00000000000E+00  0.26773507194E+04  0.27672326799E+04  0.69954973396E+03 0.  0.
        3    1    3    3  502    0  0.12215727231E+03 -0.26481962526E+03  0.21025583698E+04  0.21226878107E+04  0.10100000352E+00 0. -1.
       -3    1    3    3    0  502 -0.12215727231E+03  0.26481962526E+03  0.57479234959E+03  0.64454486923E+03  0.10100000352E+00 0.  1.
</event>
<event>
 5   0  0.2933851E-02  0.7100203E+03  0.7818609E-02  0.9700248E-01
       -2   -1    0    0    0  501  0.00000000000E+00  0.00000000000E+00  0.58554282292E+03  0.58554282293E+03  0.25500000920E-02 0. -1.
        2   -1    0    0  501    0  0.00000000000E+00  0.00000000000E+00 -0.21523991811E+03  0.21523991813E+03  0.25500000920E-02 0.  1.
    10030    2    1    2    0    0  0.00000000000E+00  0.00000000000E+00  0.37030290481E+03  0.80078274105E+03  0.71002025116E+03 0.  0.
        2    1    3    3  502    0  0.34046395346E+03  0.68402782392E+02  0.26831737337E+03  0.43884946975E+03  0.25500000920E-02 0.  1.
       -2    1    3    3    0  502 -0.34046395346E+03 -0.68402782392E+02  0.10198553144E+03  0.36193327130E+03  0.25500000920E-02 0. -1.
</event>
<event>
 5   0  0.1839038E-02  0.7053857E+03  0.7818609E-02  0.9708066E-01
       -1   -1    0    0    0  501  0.00000000000E+00  0.00000000000E+00  0.13379903012E+03  0.13379903022E+03  0.50400001928E-02 0.  1.
        1   -1    0    0  501    0  0.00000000000E+00  0.00000000000E+00 -0.92969464715E+03  0.92969464716E+03  0.50400001928E-02 0. -1.
    10030    2    1    2    0    0  0.00000000000E+00  0.00000000000E+00 -0.79589561702E+03  0.10634936774E+04  0.70538568785E+03 0.  0.
        5    1    3    3  502    0 -0.15379833675E+03  0.14653822833E+03 -0.82236024027E+03  0.84936790352E+03  0.46999998093E+01 0. -1.
       -5    1    3    3    0  502  0.15379833675E+03 -0.14653822833E+03  0.26464623249E+02  0.21412577386E+03  0.46999998093E+01 0.  1.
</event>
<event>
 5   0  0.1858013E-02  0.7017553E+03  0.7818609E-02  0.9714235E-01
       -1   -1    0    0    0  501  0.00000000000E+00  0.00000000000E+00  0.96657481525E+02  0.96657481656E+02  0.50400001928E-02 0.  1.
        1   -1    0    0  501    0  0.00000000000E+00  0.00000000000E+00 -0.12737257233E+04  0.12737257233E+04  0.50400001928E-02 0. -1.
    10030    2    1    2    0    0  0.00000000000E+00  0.00000000000E+00 -0.11770682417E+04  0.13703832049E+04  0.70175528687E+03 0.  0.
        2    1    3    3  502    0  0.18204520902E+03  0.21243090051E+03 -0.10020829401E+04  0.10404025973E+04  0.25500000920E-02 0. -1.
       -2    1    3    3    0  502 -0.18204520902E+03 -0.21243090051E+03 -0.17498530164E+03  0.32998060763E+03  0.25500000920E-02 0.  1.
</event>
<event>
 5   0  0.1839038E-02  0.7034914E+03  0.7818609E-02  0.9711280E-01
       -1   -1    0    0    0  501  0.00000000000E+00  0.00000000000E+00  0.14427425995E+03  0.14427426004E+03  0.50400001928E-02 0. -1.
        1   -1    0    0  501    0  0.00000000000E+00  0.00000000000E+00 -0.85756839509E+03  0.85756839510E+03  0.50400001928E-02 0.  1.
    10030    2    1    2    0    0  0.00000000000E+00  0.00000000000E+00 -0.71329413513E+03  0.10018426551E+04  0.70349142316E+03 0.  0.
        5    1    3    3  502    0 -0.73300241832E+01 -0.29375632728E+03 -0.63189463576E+03  0.69689269602E+03  0.46999998093E+01 0.  1.
       -5    1    3    3    0  502  0.73300241832E+01  0.29375632728E+03 -0.81399499375E+02  0.30494995912E+03  0.46999998093E+01 0. -1.
</event>
<event>
 5   0  0.3113940E-02  0.6962458E+03  0.7818609E-02  0.9723674E-01
       -2   -1    0    0    0  501  0.00000000000E+00  0.00000000000E+00  0.81957582206E+02  0.81957582246E+02  0.25500000920E-02 0.  1.
        2   -1    0    0  501    0  0.00000000000E+00  0.00000000000E+00 -0.14786864857E+04  0.14786864857E+04  0.25500000920E-02 0. -1.
    10030    2    1    2    0    0  0.00000000000E+00  0.00000000000E+00 -0.13967289035E+04  0.15606440679E+04  0.69624584520E+03 0.  0.
        5    1    3    3  502    0  0.21716226567E+03 -0.14596989115E+03 -0.18378796474E+03  0.31979175214E+03  0.46999998093E+01 0.  1.
       -5    1    3    3    0  502 -0.21716226567E+03  0.14596989115E+03 -0.12129409387E+04  0.12408523158E+04  0.46999998093E+01 0. -1.
</event>
<event>
 5   0  0.1839038E-02  0.6975109E+03  0.7818609E-02  0.9721498E-01
        1   -1    0    0  501    0  0.00000000000E+00  0.00000000000E+00  0.39870438172E+03  0.39870438175E+03  0.50400001928E-02 0.  1.
       -1   -1    0    0    0  501  0.00000000000E+00  0.00000000000E+00 -0.30506406952E+03  0.30506406956E+03  0.50400001928E-02 0. -1.
    10030    2    1    2    0    0  0.00000000000E+00  0.00000000000E+00  0.93640312196E+02  0.70376845131E+03  0.69751094973E+03 0.  0.
        5    1    3    3  502    0  0.13208605339E+03 -0.32267941937E+03  0.40474211294E+02  0.35103986236E+03  0.46999998093E+01 0.  1.
       -5    1    3    3    0  502 -0.13208605339E+03  0.32267941937E+03  0.53166100901E+02  0.35272858896E+03  0.46999998093E+01 0. -1.
</event>
<event>
 5   0  0.3290656E-02  0.6989939E+03  0.7818609E-02  0.9718954E-01
       -2   -1    0    0    0  501  0.00000000000E+00  0.00000000000E+00  0.33374239792E+03  0.33374239793E+03  0.25500000920E-02 0.  1.
        2   -1    0    0  501    0  0.00000000000E+00  0.00000000000E+00 -0.36599522758E+03  0.36599522759E+03  0.25500000920E-02 0. -1.
    10030    2    1    2    0    0  0.00000000000E+00  0.00000000000E+00 -0.32252829660E+02  0.69973762551E+03  0.69899391953E+03 0.  0.
        1    1    3    3  502    0 -0.29493336939E+02  0.50688406032E+02  0.32878182292E+03  0.33397104446E+03  0.50400001928E-02 0.  1.
       -1    1    3    3    0  502  0.29493336939E+02 -0.50688406032E+02 -0.36103465258E+03  0.36576658105E+03  0.50400001928E-02 0. -1.
</event>
<event>
 5   0  0.3113940E-02  0.7028010E+03  0.7818609E-02  0.9712454E-01
        2   -1    0    0  501    0  0.00000000000E+00  0.00000000000E+00  0.38072584499E+03  0.38072584500E+03  0.25500000920E-02 0.  1.
       -2   -1    0    0    0  501  0.00000000000E+00  0.00000000000E+00 -0.32433393965E+03  0.32433393966E+03  0.25500000920E-02 0. -1.
    10030    2    1    2    0    0  0.00000000000E+00  0.00000000000E+00  0.56391905341E+02  0.70505978467E+03  0.70280100524E+03 0.  0.
        5    1    3    3  502    0  0.31538754541E+03  0.15164650889E+03 -0.34372113527E+01  0.34999981697E+03  0.46999998093E+01 0.  1.
       -5    1    3    3    0  502 -0.31538754541E+03 -0.15164650889E+03  0.59829116694E+02  0.35505996770E+03  0.46999998093E+01 0. -1.
</event>
<event>
 5   0  0.3113940E-02  0.6987618E+03  0.7818609E-02  0.9719352E-01
       -2   -1    0    0    0  501  0.00000000000E+00  0.00000000000E+00  0.74916236019E+02  0.74916236062E+02  0.25500000920E-02 0.  1.
        2   -1    0    0  501    0  0.00000000000E+00  0.00000000000E+00 -0.16293799863E+04  0.16293799863E+04  0.25500000920E-02 0. -1.
    10030    2    1    2    0    0  0.00000000000E+00  0.00000000000E+00 -0.15544637503E+04  0.17042962224E+04  0.69876180679E+03 0.  0.
        5    1    3    3  502    0 -0.14155485423E+03 -0.69799203345E+02 -0.15373906035E+04  0.15454778107E+04  0.46999998093E+01 0. -1.
       -5    1    3    3    0  502  0.14155485423E+03  0.69799203345E+02 -0.17073146745E+02  0.15881841166E+03  0.46999998093E+01 0.  1.
</event>
<event>
 5   0  0.1839038E-02  0.7049962E+03  0.7818609E-02  0.9708726E-01
        1   -1    0    0  501    0  0.00000000000E+00  0.00000000000E+00  0.57327569695E+03  0.57327569698E+03  0.50400001928E-02 0.  1.
       -1   -1    0    0    0  501  0.00000000000E+00  0.00000000000E+00 -0.21674544420E+03  0.21674544426E+03  0.50400001928E-02 0. -1.
    10030    2    1    2    0    0  0.00000000000E+00  0.00000000000E+00  0.35653025275E+03  0.79002114124E+03  0.70499615778E+03 0.  0.
        5    1    3    3  502    0 -0.10336045099E+03 -0.24461603817E+03  0.43797550755E+03  0.51221579844E+03  0.46999998093E+01 0.  1.
       -5    1    3    3    0  502  0.10336045099E+03  0.24461603817E+03 -0.81445254801E+02  0.27780534280E+03  0.46999998093E+01 0. -1.
</event>
<event>
 5   0  0.1839038E-02  0.7056998E+03  0.7818609E-02  0.9707534E-01
       -1   -1    0    0    0  501  0.00000000000E+00  0.00000000000E+00  0.26656332731E+03  0.26656332735E+03  0.50400001928E-02 0.  1.
        1   -1    0    0  501    0  0.00000000000E+00  0.00000000000E+00 -0.46706740578E+03  0.46706740581E+03  0.50400001928E-02 0. -1.
    10030    2    1    2    0    0  0.00000000000E+00  0.00000000000E+00 -0.20050407847E+03  0.73363073316E+03  0.70569977126E+03 0.  0.
        5    1    3    3  502    0  0.78505031318E+02 -0.31684279312E+03  0.38945064611E+02  0.32877226700E+03  0.46999998093E+01 0. -1.
       -5    1    3    3    0  502 -0.78505031318E+02  0.31684279312E+03 -0.23944914309E+03  0.40485846616E+03  0.46999998093E+01 0.  1.
</event>
<event>
 5   0  0.3113940E-02  0.6193551E+03  0.7818609E-02  0.9866045E-01
       -2   -1    0    0    0  501  0.00000000000E+00  0.00000000000E+00  0.41054695845E+02  0.41054695924E+02  0.25500000920E-02 0. -1.
        2   -1    0    0  501    0  0.00000000000E+00  0.00000000000E+00 -0.23359125068E+04  0.23359125068E+04  0.25500000920E-02 0.  1.
    10030    2    1    2    0    0  0.00000000000E+00  0.00000000000E+00 -0.22948578109E+04  0.23769672027E+04  0.61935507613E+03 0.  0.
        5    1    3    3  502    0 -0.65427490232E+02 -0.11384778549E+03 -0.71225825744E+02  0.14945662578E+03  0.46999998093E+01 0. -1.
       -5    1    3    3    0  502  0.65427490232E+02  0.11384778549E+03 -0.22236319852E+04  0.22275105769E+04  0.46999998093E+01 0.  1.
</event>
<event>
 5   0  0.1858013E-02  0.7048184E+03  0.7818609E-02  0.9709027E-01
       -1   -1    0    0    0  501  0.00000000000E+00  0.00000000000E+00  0.22626372926E+03  0.22626372932E+03  0.50400001928E-02 0.  1.
        1   -1    0    0  501    0  0.00000000000E+00  0.00000000000E+00 -0.54888268692E+03  0.54888268694E+03  0.50400001928E-02 0. -1.
    10030    2    1    2    0    0  0.00000000000E+00  0.00000000000E+00 -0.32261895765E+03  0.77514641626E+03  0.70481839846E+03 0.  0.
        2    1    3    3  502    0  0.28185028895E+03 -0.20795898298E+03 -0.20398497497E+03  0.40533491585E+03  0.25500000920E-02 0.  1.
       -2    1    3    3    0  502 -0.28185028895E+03  0.20795898298E+03 -0.11863398268E+03  0.36981150041E+03  0.25500000920E-02 0. -1.
</event>
<event>
 5   0  0.3290656E-02  0.7050503E+03  0.7818609E-02  0.9708634E-01
        2   -1    0    0  501    0  0.00000000000E+00  0.00000000000E+00  0.84207278682E+03  0.84207278682E+03  0.25500000920E-02 0.  1.
       -2   -1    0    0    0  501  0.00000000000E+00  0.00000000000E+00 -0.14758104419E+03  0.14758104421E+03  0.25500000920E-02 0. -1.
    10030    2    1    2    0    0  0.00000000000E+00  0.00000000000E+00  0.69449174263E+03  0.98965383103E+03  0.70505029941E+03 0.  0.
        1    1    3    3  502    0 -0.11438595422E+03 -0.14179488810E+03  0.77087358302E+03  0.79210858968E+03  0.50400001928E-02 0.  1.
       -1    1    3    3    0  502  0.11438595422E+03  0.14179488810E+03 -0.76381840395E+02  0.19754524135E+03  0.50400001928E-02 0. -1.
</event>
<event>
 5   0  0.1839038E-02  0.7059841E+03  0.7818609E-02  0.9707053E-01
       -1   -1    0    0    0  501  0.00000000000E+00  0.00000000000E+00  0.18292904957E+03  0.18292904964E+03  0.50400001928E-02 0. -1.
        1   -1    0    0  501    0  0.00000000000E+00  0.00000000000E+00 -0.68115689762E+03  0.68115689764E+03  0.50400001928E-02 0.  1.
    10030    2    1    2    0    0  0.00000000000E+00  0.00000000000E+00 -0.49822784805E+03  0.86408594728E+03  0.70598409026E+03 0.  0.
        5    1    3    3  502    0 -0.33579840921E+03 -0.41415725819E+02 -0.37215215288E+03  0.50298623129E+03  0.46999998093E+01 0.  1.
       -5    1    3    3    0  502  0.33579840921E+03  0.41415725819E+02 -0.12607569518E+03  0.36109971599E+03  0.46999998093E+01 0. -1.
</event>
<event>
 5   0  0.1969818E-02  0.6056295E+03  0.7818609E-02  0.9893795E-01
        1   -1    0    0  501    0  0.00000000000E+00  0.00000000000E+00  0.35670514723E+03  0.35670514727E+03  0.50400001928E-02 0. -1.
       -1   -1    0    0    0  501  0.00000000000E+00  0.00000000000E+00 -0.25706606204E+03  0.25706606209E+03  0.50400001928E-02 0.  1.
    10030    2    1    2    0    0  0.00000000000E+00  0.00000000000E+00  0.99639085195E+02  0.61377120936E+03  0.60562954860E+03 0.  0.
        1    1    3    3  502    0  0.18454227068E+03 -0.29719158756E+02  0.29126102382E+03  0.34608100510E+03  0.50400001928E-02 0. -1.
       -1    1    3    3    0  502 -0.18454227068E+03  0.29719158756E+02 -0.19162193863E+03  0.26769020426E+03  0.50400001928E-02 0.  1.
</event>
<event>
 5   0  0.1969818E-02  0.6953845E+03  0.7818609E-02  0.9725158E-01
        1   -1    0    0  501    0  0.00000000000E+00  0.00000000000E+00  0.52051072889E+03  0.52051072891E+03  0.50400001928E-02 0.  1.
       -1   -1    0    0    0  501  0.00000000000E+00  0.00000000000E+00 -0.23225247386E+03  0.23225247391E+03  0.50400001928E-02 0. -1.
    10030    2    1    2    0    0  0.00000000000E+00  0.00000000000E+00  0.28825825503E+03  0.75276320282E+03  0.69538451085E+03 0.  0.
        1    1    3    3  502    0  0.26339472453E+03  0.15694822272E+03  0.32160979845E+03  0.44434489759E+03  0.50400001928E-02 0.  1.
       -1    1    3    3    0  502 -0.26339472453E+03 -0.15694822272E+03 -0.33351543424E+02  0.30841830523E+03  0.50400001928E-02 0. -1.
</event>
<event>
 5   0  0.1951465E-02  0.7032012E+03  0.7818609E-02  0.9711773E-01
        1   -1    0    0  501    0  0.00000000000E+00  0.00000000000E+00  0.15270193478E+04  0.15270193478E+04  0.50400001928E-02 0.  1.
       -1   -1    0    0    0  501  0.00000000000E+00  0.00000000000E+00 -0.80957058105E+02  0.80957058262E+02  0.50400001928E-02 0. -1.
    10030    2    1    2    0    0  0.00000000000E+00  0.00000000000E+00  0.14460622897E+04  0.16079764061E+04  0.70320123493E+03 0.  0.
        4    1    3    3  502    0 -0.78209903676E+02 -0.31952103136E+03  0.43916468103E+03  0.54870548428E+03  0.12699999809E+01 0. -1.
       -4    1    3    3    0  502  0.78209903676E+02  0.31952103136E+03  0.10068976087E+04  0.10592709218E+04  0.12699999809E+01 0.  1.
</event>
<event>
 5   0  0.3183963E-02  0.7026198E+03  0.7818609E-02  0.9712763E-01
        2   -1    0    0  501    0  0.00000000000E+00  0.00000000000E+00  0.73247964042E+03  0.73247964042E+03  0.25500000920E-02 0. -1.
       -2   -1    0    0    0  501  0.00000000000E+00  0.00000000000E+00 -0.16849428418E+03  0.16849428420E+03  0.25500000920E-02 0.  1.
    10030    2    1    2    0    0  0.00000000000E+00  0.00000000000E+00  0.56398535624E+03  0.90097392462E+03  0.70261976260E+03 0.  0.
        4    1    3    3  502    0 -0.13846941883E+03 -0.13764215855E+03  0.65650056634E+03  0.68491879100E+03  0.12699999809E+01 0. -1.
       -4    1    3    3    0  502  0.13846941883E+03  0.13764215855E+03 -0.92515210104E+02  0.21605513362E+03  0.12699999809E+01 0.  1.
</event>
<event>
 5   0  0.3184443E-02  0.7358183E+03  0.7818609E-02  0.9657866E-01
       -2   -1    0    0    0  501  0.00000000000E+00  0.00000000000E+00  0.14412875754E+03  0.14412875756E+03  0.25500000920E-02 0.  1.
        2   -1    0    0  501    0  0.00000000000E+00  0.00000000000E+00 -0.93914032815E+03  0.93914032815E+03  0.25500000920E-02 0. -1.
    10030    2    1    2    0    0  0.00000000000E+00  0.00000000000E+00 -0.79501157061E+03  0.10832690857E+04  0.73581826198E+03 0.  0.
        3    1    3    3  502    0 -0.59846541574E+02  0.15664344088E+03 -0.87960989468E+03  0.89545092167E+03  0.10100000352E+00 0. -1.
       -3    1    3    3    0  502  0.59846541574E+02 -0.15664344088E+03  0.84598324064E+02  0.18781816404E+03  0.10100000352E+00 0.  1.
</event>
<event>
 5   0  0.1951465E-02  0.7057971E+03  0.7818609E-02  0.9707369E-01
       -1   -1    0    0    0  501  0.00000000000E+00  0.00000000000E+00  0.10771148740E+04  0.10771148740E+04  0.50400001928E-02 0. -1.
        1   -1    0    0  501    0  0.00000000000E+00  0.00000000000E+00 -0.11562127767E+03  0.11562127778E+03  0.50400001928E-02 0.  1.
    10030    2    1    2    0    0  0.00000000000E+00  0.00000000000E+00  0.96149359632E+03  0.11927361518E+04  0.70579713233E+03 0.  0.
        4    1    3    3  502    0 -0.23604540202E+03  0.20427880071E+03  0.75888277683E+03  0.82058024720E+03  0.12699999809E+01 0. -1.
       -4    1    3    3    0  502  0.23604540202E+03 -0.20427880071E+03  0.20261081949E+03  0.37215590458E+03  0.12699999809E+01 0.  1.
</event>
<event>
 5   0  0.3113940E-02  0.7017208E+03  0.7818609E-02  0.9714294E-01
       -2   -1    0    0    0  501  0.00000000000E+00  0.00000000000E+00  0.10301159165E+03  0.10301159168E+03  0.25500000920E-02 0.  1.
        2   -1    0    0  501    0  0.00000000000E+00  0.00000000000E+00 -0.11950405790E+04  0.11950405791E+04  0.25500000920E-02 0. -1.
    10030    2    1    2    0    0  0.00000000000E+00  0.00000000000E+00 -0.10920289874E+04  0.12980521707E+04  0.70172083383E+03 0.  0.
        5    1    3    3  502    0 -0.12423277461E+02 -0.15377128548E+03  0.36840927095E+02  0.15867983479E+03  0.46999998093E+01 0.  1.
       -5    1    3    3    0  502  0.12423277461E+02  0.15377128548E+03 -0.11288699145E+04  0.11393723359E+04  0.46999998093E+01 0. -1.
</event>
<event>
 5   0  0.3184443E-02  0.6916134E+03  0.7818609E-02  0.9731683E-01
        2   -1    0    0  501    0  0.00000000000E+00  0.00000000000E+00  0.21868279376E+03  0.21868279377E+03  0.25500000920E-02 0.  1.
       -2   -1    0    0    0  501  0.00000000000E+00  0.00000000000E+00 -0.54682981787E+03  0.54682981787E+03  0.25500000920E-02 0. -1.
    10030    2    1    2    0    0  0.00000000000E+00  0.00000000000E+00 -0.32814702411E+03  0.76551261164E+03  0.69161339573E+03 0.  0.
        3    1    3    3  502    0  0.15535384667E+03  0.48805155400E+02  0.17358936291E+03  0.23801268451E+03  0.10100000352E+00 0.  1.
       -3    1    3    3    0  502 -0.15535384667E+03 -0.48805155400E+02 -0.50173638702E+03  0.52749992714E+03  0.10100000352E+00 0. -1.
</event>
<event>
 5   0  0.2933851E-02  0.7021936E+03  0.7818609E-02  0.9713488E-01
       -2   -1    0    0    0  501  0.00000000000E+00  0.00000000000E+00  0.17813960240E+03  0.17813960242E+03  0.25500000920E-02 0. -1.
        2   -1    0    0  501    0  0.00000000000E+00  0.00000000000E+00 -0.69197954376E+03  0.69197954377E+03  0.25500000920E-02 0.  1.
    10030    2    1    2    0    0  0.00000000000E+00  0.00000000000E+00 -0.51383994136E+03  0.87011914619E+03  0.70219359384E+03 0.  0.
        2    1    3    3  502    0  0.24819946708E+03 -0.23441197065E+02 -0.56325811980E+03  0.61596442649E+03  0.25500000920E-02 0.  1.
       -2    1    3    3    0  502 -0.24819946708E+03  0.23441197065E+02  0.49418178442E+02  0.25415471970E+03  0.25500000920E-02 0. -1.
</event>
<event>
 5   0  0.2933851E-02  0.7067597E+03  0.7818609E-02  0.9705741E-01
        2   -1    0    0  501    0  0.00000000000E+00  0.00000000000E+00  0.81827553234E+03  0.81827553234E+03  0.25500000920E-02 0.  1.
       -2   -1    0    0    0  501  0.00000000000E+00  0.00000000000E+00 -0.15261037381E+03  0.15261037383E+03  0.25500000920E-02 0. -1.
    10030    2    1    2    0    0  0.00000000000E+00  0.00000000000E+00  0.66566515853E+03  0.97088590617E+03  0.70675974668E+03 0.  0.
        2    1    3    3  502    0  0.13599797990E+03  0.13830436842E+03  0.73861061034E+03  0.76365514637E+03  0.25500000920E-02 0.  1.
       -2    1    3    3    0  502 -0.13599797990E+03 -0.13830436842E+03 -0.72945451810E+02  0.20723075980E+03  0.25500000920E-02 0. -1.
</event>
<event>
 5   0  0.2933851E-02  0.6952451E+03  0.7818609E-02  0.9725398E-01
       -2   -1    0    0    0  501  0.00000000000E+00  0.00000000000E+00  0.61754712163E+02  0.61754712215E+02  0.25500000920E-02 0. -1.
        2   -1    0    0  501    0  0.00000000000E+00  0.00000000000E+00 -0.19567972689E+04  0.19567972689E+04  0.25500000920E-02 0.  1.
    10030    2    1    2    0    0  0.00000000000E+00  0.00000000000E+00 -0.18950425567E+04  0.20185519811E+04  0.69524514283E+03 0.  0.
        2    1    3    3  502    0 -0.32219293359E+03  0.10544566026E+03 -0.72423783101E+03  0.79965461894E+03  0.25500000920E-02 0. -1.
       -2    1    3    3    0  502  0.32219293359E+03 -0.10544566026E+03 -0.11708047257E+04  0.12188973622E+04  0.25500000920E-02 0.  1.
</event>
<event>
 5   0  0.2933851E-02  0.6987078E+03  0.7818609E-02  0.9719445E-01
        2   -1    0    0  501    0  0.00000000000E+00  0.00000000000E+00  0.82616541683E+03  0.82616541684E+03  0.25500000920E-02 0. -1.
       -2   -1    0    0    0  501  0.00000000000E+00  0.00000000000E+00 -0.14772845479E+03  0.14772845481E+03  0.25500000920E-02 0.  1.
    10030    2    1    2    0    0  0.00000000000E+00  0.00000000000E+00  0.67843696205E+03  0.97389387164E+03  0.69870777994E+03 0.  0.
        2    1    3    3  502    0 -0.26804465774E+03 -0.20117991500E+03  0.20175035184E+03  0.39118346235E+03  0.25500000920E-02 0. -1.
       -2    1    3    3    0  502  0.26804465774E+03  0.20117991500E+03  0.47668661021E+03  0.58271040929E+03  0.25500000920E-02 0.  1.
</event>
<event>
 5   0  0.3184443E-02  0.7049548E+03  0.7818609E-02  0.9708796E-01
        2   -1    0    0  501    0  0.00000000000E+00  0.00000000000E+00  0.95056389458E+03  0.95056389458E+03  0.25500000920E-02 0. -1.
       -2   -1    0    0    0  501  0.00000000000E+00  0.00000000000E+00 -0.13070168589E+03  0.13070168591E+03  0.25500000920E-02 0.  1.
    10030    2    1    2    0    0  0.00000000000E+00  0.00000000000E+00  0.81986220869E+03  0.10812655805E+04  0.70495476048E+03 0.  0.
        3    1    3    3  502    0  0.27868611645E+03 -0.27169241706E+02  0.81552153155E+02  0.29164170326E+03  0.10100000352E+00 0. -1.
       -3    1    3    3    0  502 -0.27868611645E+03  0.27169241706E+02  0.73831005553E+03  0.78962387723E+03  0.10100000352E+00 0.  1.
</event>
<event>
 5   0  0.3183963E-02  0.6991732E+03  0.7818609E-02  0.9718647E-01
       -2   -1    0    0    0  501  0.00000000000E+00  0.00000000000E+00  0.47083050526E+02  0.47083050595E+02  0.25500000920E-02 0.  1.
        2   -1    0    0  501    0  0.00000000000E+00  0.00000000000E+00 -0.25956432321E+04  0.25956432321E+04  0.25500000920E-02 0. -1.
    10030    2    1    2    0    0  0.00000000000E+00  0.00000000000E+00 -0.25485601816E+04  0.26427262827E+04  0.69917323043E+03 0.  0.
        4    1    3    3  502    0 -0.25072305670E+03 -0.14936387999E+03 -0.20017057693E+04  0.20228690565E+04  0.12699999809E+01 0. -1.
       -4    1    3    3    0  502  0.25072305670E+03  0.14936387999E+03 -0.54685441228E+03  0.61985722625E+03  0.12699999809E+01 0.  1.
</event>
<event>
 5   0  0.3290656E-02  0.7162835E+03  0.7818609E-02  0.9689783E-01
       -2   -1    0    0    0  501  0.00000000000E+00  0.00000000000E+00  0.10586444660E+03  0.10586444663E+03  0.25500000920E-02 0. -1.
        2   -1    0    0  501    0  0.00000000000E+00  0.00000000000E+00 -0.12116015095E+04  0.12116015095E+04  0.25500000920E-02 0.  1.
    10030    2    1    2    0    0  0.00000000000E+00  0.00000000000E+00 -0.11057370629E+04  0.13174659561E+04  0.71628352857E+03 0.  0.
        1    1    3    3  502    0  0.40847016397E+02 -0.31952074110E+03 -0.26495050436E+03  0.41708602534E+03  0.50400001928E-02 0. -1.
       -1    1    3    3    0  502 -0.40847016397E+02  0.31952074110E+03 -0.84078655853E+03  0.90037993079E+03  0.50400001928E-02 0.  1.
</event>
<event>
 5   0  0.1969818E-02  0.7013150E+03  0.7818609E-02  0.9714986E-01
        1   -1    0    0  501    0  0.00000000000E+00  0.00000000000E+00  0.53955749833E+03  0.53955749836E+03  0.50400001928E-02 0.  1.
       -1   -1    0    0    0  501  0.00000000000E+00  0.00000000000E+00 -0.22789174281E+03  0.22789174287E+03  0.50400001928E-02 0. -1.
    10030    2    1    2    0    0  0.00000000000E+00  0.00000000000E+00  0.31166575552E+03  0.76744924122E+03  0.70131504667E+03 0.  0.
        1    1    3    3  502    0 -0.19804827766E+03 -0.19048136774E+03  0.39421565258E+03  0.48053330010E+03  0.50400001928E-02 0.  1.
       -1    1    3    3    0  502  0.19804827766E+03  0.19048136774E+03 -0.82549897059E+02  0.28691594112E+03  0.50400001928E-02 0. -1.
</event>
<event>
 5   0  0.1884172E-02  0.7037369E+03  0.7818609E-02  0.9710863E-01
       -1   -1    0    0    0  501  0.00000000000E+00  0.00000000000E+00  0.63012735201E+03  0.63012735203E+03  0.50400001928E-02 0.  1.
        1   -1    0    0  501    0  0.00000000000E+00  0.00000000000E+00 -0.19648630351E+03  0.19648630357E+03  0.50400001928E-02 0. -1.
    10030    2    1    2    0    0  0.00000000000E+00  0.00000000000E+00  0.43364104850E+03  0.82661365560E+03  0.70373686608E+03 0.  0.
        3    1    3    3  502    0  0.93576132380E+02 -0.33892990889E+03  0.23264104690E+03  0.42160626489E+03  0.10100000352E+00 0.  1.
       -3    1    3    3    0  502 -0.93576132380E+02  0.33892990889E+03  0.20100000161E+03  0.40500739072E+03  0.10100000352E+00 0. -1.
</event>
<event>
 5   0  0.1969818E-02  0.6876105E+03  0.7818609E-02  0.9738658E-01
        1   -1    0    0  501    0  0.00000000000E+00  0.00000000000E+00  0.29915046471E+03  0.29915046475E+03  0.50400001928E-02 0.  1.
       -1   -1    0    0    0  501  0.00000000000E+00  0.00000000000E+00 -0.39512569287E+03  0.39512569291E+03  0.50400001928E-02 0. -1.
    10030    2    1    2    0    0  0.00000000000E+00  0.00000000000E+00 -0.95975228162E+02  0.69427615766E+03  0.68761045562E+03 0.  0.
        1    1    3    3  502    0 -0.95935956799E+02  0.33008944923E+03 -0.41659293658E+02  0.34626326556E+03  0.50400001928E-02 0.  1.
       -1    1    3    3    0  502  0.95935956799E+02 -0.33008944923E+03 -0.54315934504E+02  0.34801289210E+03  0.50400001928E-02 0. -1.
</event>
<event>
 5   0  0.3183963E-02  0.7155929E+03  0.7818609E-02  0.9690932E-01
       -2   -1    0    0    0  501  0.00000000000E+00  0.00000000000E+00  0.27593114064E+03  0.27593114065E+03  0.25500000920E-02 0. -1.
        2   -1    0    0  501    0  0.00000000000E+00  0.00000000000E+00 -0.46395019506E+03  0.46395019507E+03  0.25500000920E-02 0.  1.
    10030    2    1    2    0    0  0.00000000000E+00  0.00000000000E+00 -0.18801905442E+03  0.73988133572E+03  0.71559291928E+03 0.  0.
        4    1    3    3  502    0 -0.98155734915E+02 -0.40599360308E+02  0.25925043510E+03  0.28017005078E+03  0.12699999809E+01 0. -1.
       -4    1    3    3    0  502  0.98155734915E+02  0.40599360308E+02 -0.44726948951E+03  0.45971128494E+03  0.12699999809E+01 0.  1.
</event>
<event>
 5   0  0.2933851E-02  0.6970444E+03  0.7818609E-02  0.9722300E-01
        2   -1    0    0  501    0  0.00000000000E+00  0.00000000000E+00  0.12902359850E+04  0.12902359850E+04  0.25500000920E-02 0. -1.
       -2   -1    0    0    0  501  0.00000000000E+00  0.00000000000E+00 -0.94143810676E+02  0.94143810711E+02  0.25500000920E-02 0.  1.
    10030    2    1    2    0    0  0.00000000000E+00  0.00000000000E+00  0.11960921743E+04  0.13843797957E+04  0.69704442420E+03 0.  0.
        2    1    3    3  502    0 -0.17664319253E+03 -0.18751017179E+03  0.10642648079E+04  0.10949988417E+04  0.25500000920E-02 0. -1.
       -2    1    3    3    0  502  0.17664319253E+03  0.18751017179E+03  0.13182736641E+03  0.28938095399E+03  0.25500000920E-02 0.  1.
</event>
<event>
 5   0  0.2933851E-02  0.7066751E+03  0.7818609E-02  0.9705884E-01
       -2   -1    0    0    0  501  0.00000000000E+00  0.00000000000E+00  0.16305855445E+03  0.16305855447E+03  0.25500000920E-02 0.  1.
        2   -1    0    0  501    0  0.00000000000E+00  0.00000000000E+00 -0.76566010720E+03  0.76566010720E+03  0.25500000920E-02 0. -1.
    10030    2    1    2    0    0  0.00000000000E+00  0.00000000000E+00 -0.60260155274E+03  0.92871866167E+03  0.70667511713E+03 0.  0.
        2    1    3    3  502    0  0.25503978809E+03 -0.13477507079E+03 -0.33131914254E+02  0.29035725747E+03  0.25500000920E-02 0.  1.
       -2    1    3    3    0  502 -0.25503978809E+03  0.13477507079E+03 -0.56946963849E+03  0.63836140421E+03  0.25500000920E-02 0. -1.
</event>
<event>
 5   0  0.3290656E-02  0.6969744E+03  0.7818609E-02  0.9722420E-01
        2   -1    0    0  501    0  0.00000000000E+00  0.00000000000E+00  0.72330943480E+03  0.72330943480E+03  0.25500000920E-02 0.  1.
       -2   -1    0    0    0  501  0.00000000000E+00  0.00000000000E+00 -0.16789953452E+03  0.16789953454E+03  0.25500000920E-02 0. -1.
    10030    2    1    2    0    0  0.00000000000E+00  0.00000000000E+00  0.55540990028E+03  0.89120896934E+03  0.69697436805E+03 0.  0.
        1    1    3    3  502    0  0.66670751747E+01 -0.24871641902E+03 -0.34301482512E+02  0.25115911035E+03  0.50400001928E-02 0. -1.
       -1    1    3    3    0  502 -0.66670751747E+01  0.24871641902E+03  0.58971138279E+03  0.64004985900E+03  0.50400001928E-02 0.  1.
</event>
<event>
 5   0  0.3113940E-02  0.7127791E+03  0.7818609E-02  0.9695624E-01
       -2   -1    0    0    0  501  0.00000000000E+00  0.00000000000E+00  0.46070610631E+03  0.46070610632E+03  0.25500000920E-02 0. -1.
        2   -1    0    0  501    0  0.00000000000E+00  0.00000000000E+00 -0.27569317417E+03  0.27569317419E+03  0.25500000920E-02 0.  1.
    10030    2    1    2    0    0  0.00000000000E+00  0.00000000000E+00  0.18501293214E+03  0.73639928051E+03  0.71277914902E+03 0.  0.
        5    1    3    3  502    0 -0.20256889937E+03  0.28086713913E+03  0.56311020616E+01  0.34637307652E+03  0.46999998093E+01 0.  1.
       -5    1    3    3    0  502  0.20256889937E+03 -0.28086713913E+03  0.17938183008E+03  0.39002620398E+03  0.46999998093E+01 0. -1.
</event>
<event>
 5   0  0.1858013E-02  0.7035780E+03  0.7818609E-02  0.9711133E-01
       -1   -1    0    0    0  501  0.00000000000E+00  0.00000000000E+00  0.28427705414E+03  0.28427705419E+03  0.50400001928E-02 0.  1.
        1   -1    0    0  501    0  0.00000000000E+00  0.00000000000E+00 -0.43533415386E+03  0.43533415389E+03  0.50400001928E-02 0. -1.
    10030    2    1    2    0    0  0.00000000000E+00  0.00000000000E+00 -0.15105709972E+03  0.71961120808E+03  0.70357802938E+03 0.  0.
        2    1    3    3  502    0  0.35089115830E+03 -0.19659771124E+02 -0.59539023334E+02  0.35644916451E+03  0.25500000920E-02 0.  1.
       -2    1    3    3    0  502 -0.35089115830E+03  0.19659771124E+02 -0.91518076385E+02  0.36316204357E+03  0.25500000920E-02 0. -1.
</event>
<event>
 5   0  0.1884172E-02  0.6851444E+03  0.7818609E-02  0.9742980E-01
        1   -1    0    0  501    0  0.00000000000E+00  0.00000000000E+00  0.17464449331E+03  0.17464449338E+03  0.50400001928E-02 0.  1.
       -1   -1    0    0    0  501  0.00000000000E+00  0.00000000000E+00 -0.67196913863E+03  0.67196913865E+03  0.50400001928E-02 0. -1.
    10030    2    1    2    0    0  0.00000000000E+00  0.00000000000E+00 -0.49732464532E+03  0.84661363203E+03  0.68514439289E+03 0.  0.
        3    1    3    3  502    0 -0.22802762492E+03 -0.75154243564E+02 -0.55060889843E+03  0.60067872219E+03  0.10100000352E+00 0. -1.
       -3    1    3    3    0  502  0.22802762492E+03  0.75154243564E+02  0.53284253113E+02  0.24593490985E+03  0.10100000352E+00 0.  1.
</event>
<event>
 5   0  0.1969818E-02  0.7008348E+03  0.7818609E-02  0.9715806E-01
        1   -1    0    0  501    0  0.00000000000E+00  0.00000000000E+00  0.14999065994E+03  0.14999066003E+03  0.50400001928E-02 0. -1.
       -1   -1    0    0    0  501  0.00000000000E+00  0.00000000000E+00 -0.81866665839E+03  0.81866665841E+03  0.50400001928E-02 0.  1.
    10030    2    1    2    0    0  0.00000000000E+00  0.00000000000E+00 -0.66867599845E+03  0.96865731843E+03  0.70083479484E+03 0.  0.
        1    1    3    3  502    0 -0.20646816542E+03 -0.27508148138E+03 -0.42698756445E+03  0.54828578766E+03  0.50400001928E-02 0.  1.
       -1    1    3    3    0  502  0.20646816542E+03  0.27508148138E+03 -0.24168843401E+03  0.42037153078E+03  0.50400001928E-02 0. -1.
</event>
<event>
 5   0  0.1858013E-02  0.7134153E+03  0.7818609E-02  0.9694561E-01
        1   -1    0    0  501    0  0.00000000000E+00  0.00000000000E+00  0.29316089872E+03  0.29316089876E+03  0.50400001928E-02 0.  1.
       -1   -1    0    0    0  501  0.00000000000E+00  0.00000000000E+00 -0.43402909961E+03  0.43402909964E+03  0.50400001928E-02 0. -1.
    10030    2    1    2    0    0  0.00000000000E+00  0.00000000000E+00 -0.14086820089E+03  0.72718999840E+03  0.71341533748E+03 0.  0.
        2    1    3    3  502    0  0.23238354323E+03  0.11266190693E+03  0.18037688228E+03  0.31500894607E+03  0.25500000920E-02 0.  1.
       -2    1    3    3    0  502 -0.23238354323E+03 -0.11266190693E+03 -0.32124508317E+03  0.41218105233E+03  0.25500000920E-02 0. -1.
</event>
<event>
 5   0  0.3184443E-02  0.7218189E+03  0.7818609E-02  0.9680630E-01
       -2   -1    0    0    0  501  0.00000000000E+00  0.00000000000E+00  0.91756036822E+02  0.91756036857E+02  0.25500000920E-02 0.  1.
        2   -1    0    0  501    0  0.00000000000E+00  0.00000000000E+00 -0.14195866210E+04  0.14195866210E+04  0.25500000920E-02 0. -1.
    10030    2    1    2    0    0  0.00000000000E+00  0.00000000000E+00 -0.13278305842E+04  0.15113426578E+04  0.72181893102E+03 0.  0.
        3    1    3    3  502    0  0.15058646707E+02  0.12949449299E+03  0.40734030012E+02  0.13658278793E+03  0.10100000352E+00 0.  1.
       -3    1    3    3    0  502 -0.15058646707E+02 -0.12949449299E+03 -0.13685646142E+04  0.13747598699E+04  0.10100000352E+00 0. -1.
</event>
<event>
 5   0  0.1858013E-02  0.6874858E+03  0.7818609E-02  0.9738876E-01
       -1   -1    0    0    0  501  0.00000000000E+00  0.00000000000E+00  0.24963390973E+03  0.24963390978E+03  0.50400001928E-02 0. -1.
        1   -1    0    0  501    0  0.00000000000E+00  0.00000000000E+00 -0.47332978342E+03  0.47332978345E+03  0.50400001928E-02 0.  1.
    10030    2    1    2    0    0  0.00000000000E+00  0.00000000000E+00 -0.22369587369E+03  0.72296369322E+03  0.68748575099E+03 0.  0.
        2    1    3    3  502    0 -0.76641514840E+02  0.29448519570E+03 -0.27998549891E+03  0.41350614492E+03  0.25500000920E-02 0.  1.
       -2    1    3    3    0  502  0.76641514840E+02 -0.29448519570E+03  0.56289625214E+02  0.30945754830E+03  0.25500000920E-02 0. -1.
</event>
<event>
 5   0  0.3113940E-02  0.7012638E+03  0.7818609E-02  0.9715073E-01
       -2   -1    0    0    0  501  0.00000000000E+00  0.00000000000E+00  0.43261698659E+02  0.43261698734E+02  0.25500000920E-02 0.  1.
        2   -1    0    0  501    0  0.00000000000E+00  0.00000000000E+00 -0.28418377082E+04  0.28418377082E+04  0.25500000920E-02 0. -1.
    10030    2    1    2    0    0  0.00000000000E+00  0.00000000000E+00 -0.27985760095E+04  0.28850994069E+04  0.70126379254E+03 0.  0.
        5    1    3    3  502    0  0.19232872098E+03  0.27061339425E+03 -0.18629044542E+04  0.18922624135E+04  0.46999998093E+01 0. -1.
       -5    1    3    3    0  502 -0.19232872098E+03 -0.27061339425E+03 -0.93567155530E+03  0.99283699339E+03  0.46999998093E+01 0.  1.
</event>
<event>
 5   0  0.3183963E-02  0.7039165E+03  0.7818609E-02  0.9710558E-01
        2   -1    0    0  501    0  0.00000000000E+00  0.00000000000E+00  0.13402166006E+04  0.13402166007E+04  0.25500000920E-02 0.  1.
       -2   -1    0    0    0  501  0.00000000000E+00  0.00000000000E+00 -0.92428792339E+02  0.92428792374E+02  0.25500000920E-02 0. -1.
    10030    2    1    2    0    0  0.00000000000E+00  0.00000000000E+00  0.12477878083E+04  0.14326453930E+04  0.70391647771E+03 0.  0.
        4    1    3    3  502    0 -0.27843884775E+03 -0.46619960913E+02  0.10516419574E+04  0.10888774183E+04  0.12699999809E+01 0. -1.
       -4    1    3    3    0  502  0.27843884775E+03  0.46619960913E+02  0.19614585090E+03  0.34376797468E+03  0.12699999809E+01 0.  1.
</event>
<event>
 5   0  0.1839038E-02  0.6903995E+03  0.7818609E-02  0.9733793E-01
       -1   -1    0    0    0  501  0.00000000000E+00  0.00000000000E+00  0.94931065039E+02  0.94931065173E+02  0.50400001928E-02 0. -1.
        1   -1    0    0  501    0  0.00000000000E+00  0.00000000000E+00 -0.12552566478E+04  0.12552566479E+04  0.50400001928E-02 0.  1.
    10030    2    1    2    0    0  0.00000000000E+00  0.00000000000E+00 -0.11603255828E+04  0.13501877130E+04  0.69039945126E+03 0.  0.
        5    1    3    3  502    0  0.34290787008E+03 -0.39274014792E+02 -0.57324710720E+03  0.66915064934E+03  0.46999998093E+01 0.  1.
       -5    1    3    3    0  502 -0.34290787008E+03  0.39274014792E+02 -0.58707847561E+03  0.68103706369E+03  0.46999998093E+01 0. -1.
</event>
<event>
 5   0  0.1884172E-02  0.7005943E+03  0.7818609E-02  0.9716216E-01
        1   -1    0    0  501    0  0.00000000000E+00  0.00000000000E+00  0.15312996997E+04  0.15312996997E+04  0.50400001928E-02 0.  1.
       -1   -1    0    0    0  501  0.00000000000E+00  0.00000000000E+00 -0.80133299018E+02  0.80133299176E+02  0.50400001928E-02 0. -1.
    10030    2    1    2    0    0  0.00000000000E+00  0.00000000000E+00  0.14511664007E+04  0.16114329989E+04  0.70059431016E+03 0.  0.
        3    1    3    3  502    0 -0.31265442320E+03 -0.13624116019E+03  0.54166703970E+03  0.64009189511E+03  0.10100000352E+00 0. -1.
       -3    1    3    3    0  502  0.31265442320E+03  0.13624116019E+03  0.90949936100E+03  0.97134110380E+03  0.10100000352E+00 0.  1.
</event>
<event>
 5   0  0.1951465E-02  0.6975866E+03  0.7818609E-02  0.9721368E-01
       -1   -1    0    0    0  501  0.00000000000E+00  0.00000000000E+00  0.13363253654E+03  0.13363253664E+03  0.50400001928E-02 0. -1.
        1   -1    0    0  501    0  0.00000000000E+00  0.00000000000E+00 -0.91038295009E+03  0.91038295010E+03  0.50400001928E-02 0.  1.
    10030    2    1    2    0    0  0.00000000000E+00  0.00000000000E+00 -0.77675041354E+03  0.10440154867E+04  0.69758664810E+03 0.  0.
        4    1    3    3  502    0  0.19016024734E+02  0.10272227246E+02 -0.90937633776E+03  0.90963402774E+03  0.12699999809E+01 0.  1.
       -4    1    3    3    0  502 -0.19016024734E+02 -0.10272227246E+02  0.13262592421E+03  0.13438145900E+03  0.12699999809E+01 0. -1.
</event>
<event>
 5   0  0.1839038E-02  0.6975189E+03  0.7818609E-02  0.9721485E-01
       -1   -1    0    0    0  501  0.00000000000E+00  0.00000000000E+00  0.28249964177E+03  0.28249964182E+03  0.50400001928E-02 0.  1.
        1   -1    0    0  501    0  0.00000000000E+00  0.00000000000E+00 -0.43056038761E+03  0.43056038764E+03  0.50400001928E-02 0. -1.
    10030    2    1    2    0    0  0.00000000000E+00  0.00000000000E+00 -0.14806074584E+03  0.71306002946E+03  0.69751890380E+03 0.  0.
        5    1    3    3  502    0  0.16688494508E+03  0.26589567541E+03 -0.22926888856E+03  0.38876394941E+03  0.46999998093E+01 0. -1.
       -5    1    3    3    0  502 -0.16688494508E+03 -0.26589567541E+03  0.81208142719E+02  0.32429608006E+03  0.46999998093E+01 0.  1.
</event>
<event>
 5   0  0.2933851E-02  0.6894449E+03  0.7818609E-02  0.9735455E-01
        2   -1    0    0  501    0  0.00000000000E+00  0.00000000000E+00  0.10788626394E+04  0.10788626394E+04  0.25500000920E-02 0. -1.
       -2   -1    0    0    0  501  0.00000000000E+00  0.00000000000E+00 -0.11014707563E+03  0.11014707566E+03  0.25500000920E-02 0.  1.
    10030    2    1    2    0    0  0.00000000000E+00  0.00000000000E+00  0.96871556381E+03  0.11890097151E+04  0.68944489197E+03 0.  0.
        2    1    3    3  502    0  0.25736919092E+02 -0.15273053306E+03  0.10154770510E+04  0.10272208359E+04  0.25500000920E-02 0. -1.
       -2    1    3    3    0  502 -0.25736919092E+02  0.15273053306E+03 -0.46761487170E+02  0.16178887916E+03  0.25500000920E-02 0.  1.
</event>
<event>
 5   0  0.1858013E-02  0.7039755E+03  0.7818609E-02  0.9710458E-01
       -1   -1    0    0    0  501  0.00000000000E+00  0.00000000000E+00  0.18378095405E+03  0.18378095412E+03  0.50400001928E-02 0. -1.
        1   -1    0    0  501    0  0.00000000000E+00  0.00000000000E+00 -0.67414697737E+03  0.67414697739E+03  0.50400001928E-02 0.  1.
    10030    2    1    2    0    0  0.00000000000E+00  0.00000000000E+00 -0.49036602332E+03  0.85792793151E+03  0.70397549591E+03 0.  0.
        2    1    3    3  502    0 -0.23607888262E+03  0.24731657138E+03 -0.14324449231E+03  0.37069894777E+03  0.25500000920E-02 0. -1.
       -2    1    3    3    0  502  0.23607888262E+03 -0.24731657138E+03 -0.34712153101E+03  0.48722898374E+03  0.25500000920E-02 0.  1.
</event>
<event>
 5   0  0.3113940E-02  0.7013410E+03  0.7818609E-02  0.9714942E-01
       -2   -1    0    0    0  501  0.00000000000E+00  0.00000000000E+00  0.29157278862E+03  0.29157278863E+03  0.25500000920E-02 0. -1.
        2   -1    0    0  501    0  0.00000000000E+00  0.00000000000E+00 -0.42174653865E+03  0.42174653866E+03  0.25500000920E-02 0.  1.
    10030    2    1    2    0    0  0.00000000000E+00  0.00000000000E+00 -0.13017375003E+03  0.71331932729E+03  0.70134104221E+03 0.  0.
        5    1    3    3  502    0  0.60979466972E+02  0.28342320272E+03 -0.26568756587E+03  0.39326731353E+03  0.46999998093E+01 0.  1.
       -5    1    3    3    0  502 -0.60979466972E+02 -0.28342320272E+03  0.13551381584E+03  0.32005201376E+03  0.46999998093E+01 0. -1.
</event>
<event>
 5   0  0.1969818E-02  0.6904357E+03  0.7818609E-02  0.9733730E-01
        1   -1    0    0  501    0  0.00000000000E+00  0.00000000000E+00  0.24089003015E+03  0.24089003020E+03  0.50400001928E-02 0.  1.
       -1   -1    0    0    0  501  0.00000000000E+00  0.00000000000E+00 -0.49472927244E+03  0.49472927247E+03  0.50400001928E-02 0. -1.
    10030    2    1    2    0    0  0.00000000000E+00  0.00000000000E+00 -0.25383924230E+03  0.73561930267E+03  0.69043565778E+03 0.  0.
        1    1    3    3  502    0 -0.18371438720E+03 -0.10716378526E+03 -0.41663429848E+03  0.46778113646E+03  0.50400001928E-02 0. -1.
       -1    1    3    3    0  502  0.18371438720E+03  0.10716378526E+03  0.16279505618E+03  0.26783816621E+03  0.50400001928E-02 0.  1.
</event>
<event>
 5   0  0.3184443E-02  0.7171412E+03  0.7818609E-02  0.9688359E-01
        2   -1    0    0  501    0  0.00000000000E+00  0.00000000000E+00  0.53553930185E+03  0.53553930186E+03  0.25500000920E-02 0. -1.
       -2   -1    0    0    0  501  0.00000000000E+00  0.00000000000E+00 -0.24008109977E+03  0.24008109978E+03  0.25500000920E-02 0.  1.
    10030    2    1    2    0    0  0.00000000000E+00  0.00000000000E+00  0.29545820209E+03  0.77562040164E+03  0.71714117038E+03 0.  0.
        3    1    3    3  502    0 -0.53853891498E+01 -0.19076527034E+03  0.47604963353E+03  0.51287781641E+03  0.10100000352E+00 0. -1.
       -3    1    3    3    0  502  0.53853891498E+01  0.19076527034E+03 -0.18059143144E+03  0.26274258523E+03  0.10100000352E+00 0.  1.
</event>
<event>
 5   0  0.3113940E-02  0.7016958E+03  0.7818609E-02  0.9714337E-01
        2   -1    0    0  501    0  0.00000000000E+00  0.00000000000E+00  0.19165277555E+04  0.19165277555E+04  0.25500000920E-02 0. -1.
       -2   -1    0    0    0  501  0.00000000000E+00  0.00000000000E+00 -0.64227734507E+02  0.64227734557E+02  0.25500000920E-02 0.  1.
    10030    2    1    2    0    0  0.00000000000E+00  0.00000000000E+00  0.18523000210E+04  0.19807554900E+04  0.70169576286E+03 0.  0.
        5    1    3    3  502    0 -0.80620886077E+02 -0.71642069102E+01 -0.37422249482E+02  0.89294836844E+02  0.46999998093E+01 0.  1.
       -5    1    3    3    0  502  0.80620886077E+02  0.71642069102E+01  0.18897222704E+04  0.18914606532E+04  0.46999998093E+01 0. -1.
</event>
<event>
 5   0  0.3113940E-02  0.7366668E+03  0.7818609E-02  0.9656503E-01
       -2   -1    0    0    0  501  0.00000000000E+00  0.00000000000E+00  0.19849237733E+03  0.19849237735E+03  0.25500000920E-02 0.  1.
        2   -1    0    0  501    0  0.00000000000E+00  0.00000000000E+00 -0.68349968782E+03  0.68349968782E+03  0.25500000920E-02 0. -1.
    10030    2    1    2    0    0  0.00000000000E+00  0.00000000000E+00 -0.48500731049E+03  0.88199206517E+03  0.73666675763E+03 0.  0.
        5    1    3    3  502    0 -0.48756051785E+02 -0.29800960002E+03 -0.49495683395E+03  0.57981999944E+03  0.46999998093E+01 0. -1.
       -5    1    3    3    0  502  0.48756051785E+02  0.29800960002E+03  0.99495234593E+01  0.30217206572E+03  0.46999998093E+01 0.  1.
</event>
<event>
 5   0  0.3184443E-02  0.7009819E+03  0.7818609E-02  0.9715554E-01
       -2   -1    0    0    0  501  0.00000000000E+00  0.00000000000E+00  0.13988064728E+03  0.13988064730E+03  0.25500000920E-02 0. -1.
        2   -1    0    0  501    0  0.00000000000E+00  0.00000000000E+00 -0.87820521058E+03  0.87820521059E+03  0.25500000920E-02 0.  1.
    10030    2    1    2    0    0  0.00000000000E+00  0.00000000000E+00 -0.73832456331E+03  0.10180858579E+04  0.70098192077E+03 0.  0.
        3    1    3    3  502    0 -0.13076084906E+03 -0.15206996917E+03 -0.78662796576E+03  0.81179261015E+03  0.10100000352E+00 0.  1.
       -3    1    3    3    0  502  0.13076084906E+03  0.15206996917E+03  0.48303402455E+02  0.20629324774E+03  0.10100000352E+00 0. -1.
</event>
<event>
 5   0  0.1969818E-02  0.7001040E+03  0.7818609E-02  0.9717054E-01
        1   -1    0    0  501    0  0.00000000000E+00  0.00000000000E+00  0.27675569675E+03  0.27675569680E+03  0.50400001928E-02 0. -1.
       -1   -1    0    0    0  501  0.00000000000E+00  0.00000000000E+00 -0.44276020387E+03  0.44276020390E+03  0.50400001928E-02 0.  1.
    10030    2    1    2    0    0  0.00000000000E+00  0.00000000000E+00 -0.16600450712E+03  0.71951590070E+03  0.70010401725E+03 0.  0.
        1    1    3    3  502    0 -0.14428198652E+03 -0.31224244077E+03 -0.16209672299E+02  0.34434777036E+03  0.50400001928E-02 0.  1.
       -1    1    3    3    0  502  0.14428198652E+03  0.31224244077E+03 -0.14979483482E+03  0.37516813033E+03  0.50400001928E-02 0. -1.
</event>
<event>
 5   0  0.1858013E-02  0.7028749E+03  0.7818609E-02  0.9712328E-01
        1   -1    0    0  501    0  0.00000000000E+00  0.00000000000E+00  0.11839204214E+04  0.11839204214E+04  0.50400001928E-02 0. -1.
       -1   -1    0    0    0  501  0.00000000000E+00  0.00000000000E+00 -0.10432144980E+03  0.10432144992E+03  0.50400001928E-02 0.  1.
    10030    2    1    2    0    0  0.00000000000E+00  0.00000000000E+00  0.10795989716E+04  0.12882418713E+04  0.70287493878E+03 0.  0.
        2    1    3    3  502    0  0.77091602138E+02  0.24333579129E+03  0.98254123004E+03  0.10151564861E+04  0.25500000920E-02 0. -1.
       -2    1    3    3    0  502 -0.77091602138E+02 -0.24333579129E+03  0.97057741550E+02  0.27308538527E+03  0.25500000920E-02 0.  1.
</event>
<event>
 5   0  0.1839038E-02  0.6996094E+03  0.7818609E-02  0.9717900E-01
       -1   -1    0    0    0  501  0.00000000000E+00  0.00000000000E+00  0.32805617950E+03  0.32805617954E+03  0.50400001928E-02 0.  1.
        1   -1    0    0  501    0  0.00000000000E+00  0.00000000000E+00 -0.37299502311E+03  0.37299502315E+03  0.50400001928E-02 0. -1.
    10030    2    1    2    0    0  0.00000000000E+00  0.00000000000E+00 -0.44938843610E+02  0.70105120269E+03  0.69960938325E+03 0.  0.
        5    1    3    3  502    0 -0.15213379807E+03  0.25475160829E+03 -0.20804871247E+03  0.36242162076E+03  0.46999998093E+01 0.  1.
       -5    1    3    3    0  502  0.15213379807E+03 -0.25475160829E+03  0.16310986886E+03  0.33862958193E+03  0.46999998093E+01 0. -1.
</event>
<event>
 5   0  0.2933851E-02  0.6967486E+03  0.7818609E-02  0.9722809E-01
       -2   -1    0    0    0  501  0.00000000000E+00  0.00000000000E+00  0.15230872901E+03  0.15230872903E+03  0.25500000920E-02 0. -1.
        2   -1    0    0  501    0  0.00000000000E+00  0.00000000000E+00 -0.79683326286E+03  0.79683326287E+03  0.25500000920E-02 0.  1.
    10030    2    1    2    0    0  0.00000000000E+00  0.00000000000E+00 -0.64452453385E+03  0.94914199190E+03  0.69674862472E+03 0.  0.
        2    1    3    3  502    0 -0.19616681399E+03 -0.12424442623E+03  0.31519125015E+02  0.23433213952E+03  0.25500000920E-02 0. -1.
       -2    1    3    3    0  502  0.19616681399E+03  0.12424442623E+03 -0.67604365887E+03  0.71480985238E+03  0.25500000920E-02 0.  1.
</event>
<event>
 5   0  0.1884172E-02  0.6977837E+03  0.7818609E-02  0.9721030E-01
        1   -1    0    0  501    0  0.00000000000E+00  0.00000000000E+00  0.21525717748E+03  0.21525717754E+03  0.50400001928E-02 0.  1.
       -1   -1    0    0    0  501  0.00000000000E+00  0.00000000000E+00 -0.56548875692E+03  0.56548875694E+03  0.50400001928E-02 0. -1.
    10030    2    1    2    0    0  0.00000000000E+00  0.00000000000E+00 -0.35023157944E+03  0.78074593448E+03  0.69778367348E+03 0.  0.
        3    1    3    3  502    0  0.32116397172E+03 -0.62178009516E+02 -0.31083491433E+03  0.45125464625E+03  0.10100000352E+00 0. -1.
       -3    1    3    3    0  502 -0.32116397172E+03  0.62178009516E+02 -0.39396665106E+02  0.32949128823E+03  0.10100000352E+00 0.  1.
</event>
<event>
 5   0  0.1951465E-02  0.7018038E+03  0.7818609E-02  0.9714152E-01
        1   -1    0    0  501    0  0.00000000000E+00  0.00000000000E+00  0.10662307286E+04  0.10662307287E+04  0.50400001928E-02 0.  1.
       -1   -1    0    0    0  501  0.00000000000E+00  0.00000000000E+00 -0.11548357796E+03  0.11548357807E+03  0.50400001928E-02 0. -1.
    10030    2    1    2    0    0  0.00000000000E+00  0.00000000000E+00  0.95074715069E+03  0.11817143067E+04  0.70180378895E+03 0.  0.
        4    1    3    3  502    0  0.22989048566E+03 -0.23382056600E+03  0.68574270887E+03  0.76010944485E+03  0.12699999809E+01 0. -1.
       -4    1    3    3    0  502 -0.22989048566E+03  0.23382056600E+03  0.26500444181E+03  0.42160486188E+03  0.12699999809E+01 0.  1.
</event>
<event>
 5   0  0.3183963E-02  0.6971752E+03  0.7818609E-02  0.9722075E-01
        2   -1    0    0  501    0  0.00000000000E+00  0.00000000000E+00  0.56228194961E+03  0.56228194962E+03  0.25500000920E-02 0.  1.
       -2   -1    0    0    0  501  0.00000000000E+00  0.00000000000E+00 -0.21610743713E+03  0.21610743714E+03  0.25500000920E-02 0. -1.
    10030    2    1    2    0    0  0.00000000000E+00  0.00000000000E+00  0.34617451249E+03  0.77838938676E+03  0.69717518913E+03 0.  0.
        4    1    3    3  502    0  0.10595481389E+03 -0.18353081525E+03 -0.13592395072E+03  0.25176758332E+03  0.12699999809E+01 0. -1.
       -4    1    3    3    0  502 -0.10595481389E+03  0.18353081525E+03  0.48209846321E+03  0.52662180344E+03  0.12699999809E+01 0.  1.
</event>
<event>
 5   0  0.1233912E-02  0.7011215E+03  0.7818609E-02  0.9715316E-01
       -3   -1    0    0    0  501  0.00000000000E+00  0.00000000000E+00  0.23260756415E+03  0.23260758608E+03  0.10100000352E+00 0. -1.
        3   -1    0    0  501    0  0.00000000000E+00  0.00000000000E+00 -0.52832688599E+03  0.52832689564E+03  0.10100000352E+00 0.  1.
    10030    2    1    2    0    0  0.00000000000E+00  0.00000000000E+00 -0.29571932184E+03  0.76093448172E+03  0.70112150742E+03 0.  0.
        3    1    3    3  502    0  0.64031298206E+02 -0.20789695441E+03 -0.44621479558E+03  0.49641595945E+03  0.10100000352E+00 0.  1.
       -3    1    3    3    0  502 -0.64031298206E+02  0.20789695441E+03  0.15049547375E+03  0.26451852226E+03  0.10100000352E+00 0. -1.
</event>
<event>
 5   0  0.1951465E-02  0.7012510E+03  0.7818609E-02  0.9715095E-01
        1   -1    0    0  501    0  0.00000000000E+00  0.00000000000E+00  0.24992050771E+03  0.24992050776E+03  0.50400001928E-02 0.  1.
       -1   -1    0    0    0  501  0.00000000000E+00  0.00000000000E+00 -0.49190936556E+03  0.49190936559E+03  0.50400001928E-02 0. -1.
    10030    2    1    2    0    0  0.00000000000E+00  0.00000000000E+00 -0.24198885786E+03  0.74182987334E+03  0.70125099191E+03 0.  0.
        4    1    3    3  502    0  0.31038953410E+03  0.16019244414E+03 -0.88675900434E+02  0.36037246045E+03  0.12699999809E+01 0. -1.
       -4    1    3    3    0  502 -0.31038953410E+03 -0.16019244414E+03 -0.15331295742E+03  0.38145741289E+03  0.12699999809E+01 0.  1.
</event>
<event>
 5   0  0.1951465E-02  0.6998641E+03  0.7818609E-02  0.9717465E-01
       -1   -1    0    0    0  501  0.00000000000E+00  0.00000000000E+00  0.34664187711E+03  0.34664187715E+03  0.50400001928E-02 0. -1.
        1   -1    0    0  501    0  0.00000000000E+00  0.00000000000E+00 -0.35325349213E+03  0.35325349217E+03  0.50400001928E-02 0.  1.
    10030    2    1    2    0    0  0.00000000000E+00  0.00000000000E+00 -0.66116150222E+01  0.69989536932E+03  0.69986414006E+03 0.  0.
        4    1    3    3  502    0 -0.29436915606E+03  0.79814551469E+02  0.16824565511E+03  0.34832711067E+03  0.12699999809E+01 0. -1.
       -4    1    3    3    0  502  0.29436915606E+03 -0.79814551469E+02 -0.17485727013E+03  0.35156825864E+03  0.12699999809E+01 0.  1.
</event>
<event>
 5   0  0.1969818E-02  0.7068247E+03  0.7818609E-02  0.9705632E-01
       -1   -1    0    0    0  501  0.00000000000E+00  0.00000000000E+00  0.50458617176E+03  0.50458617178E+03  0.50400001928E-02 0.  1.
        1   -1    0    0  501    0  0.00000000000E+00  0.00000000000E+00 -0.24753013358E+03  0.24753013363E+03  0.50400001928E-02 0. -1.
    10030    2    1    2    0    0  0.00000000000E+00  0.00000000000E+00  0.25705603818E+03  0.75211630541E+03  0.70682468131E+03 0.  0.
        1    1    3    3  502    0  0.15984720688E+03  0.80465715196E+02  0.45280891119E+03  0.48688989612E+03  0.50400001928E-02 0.  1.
       -1    1    3    3    0  502 -0.15984720688E+03 -0.80465715196E+02 -0.19575287301E+03  0.26522640929E+03  0.50400001928E-02 0. -1.
</event>
<event>
 5   0  0.3290656E-02  0.7089358E+03  0.7818609E-02  0.9702072E-01
        2   -1    0    0  501    0  0.00000000000E+00  0.00000000000E+00  0.38908295010E+03  0.38908295011E+03  0.25500000920E-02 0.  1.
       -2   -1    0    0    0  501  0.00000000000E+00  0.00000000000E+00 -0.32293238927E+03  0.32293238928E+03  0.25500000920E-02 0. -1.
    10030    2    1    2    0    0  0.00000000000E+00  0.00000000000E+00  0.66150560831E+02  0.71201533939E+03  0.70893578470E+03 0.  0.
        1    1    3    3  502    0 -0.16356167625E+03  0.19543311664E+02 -0.28215613823E+03  0.32672075131E+03  0.50400001928E-02 0. -1.
       -1    1    3    3    0  502  0.16356167625E+03 -0.19543311664E+02  0.34830669906E+03  0.38529458808E+03  0.50400001928E-02 0.  1.
</event>
<event>
 5   0  0.1884172E-02  0.6969604E+03  0.7818609E-02  0.9722444E-01
       -1   -1    0    0    0  501  0.00000000000E+00  0.00000000000E+00  0.20888365083E+03  0.20888365090E+03  0.50400001928E-02 0.  1.
        1   -1    0    0  501    0  0.00000000000E+00  0.00000000000E+00 -0.58136884817E+03  0.58136884819E+03  0.50400001928E-02 0. -1.
    10030    2    1    2    0    0  0.00000000000E+00  0.00000000000E+00 -0.37248519733E+03  0.79025249908E+03  0.69696039348E+03 0.  0.
        3    1    3    3  502    0 -0.19411988761E+03 -0.14060350075E+03 -0.47305780138E+03  0.53031647989E+03  0.10100000352E+00 0. -1.
       -3    1    3    3    0  502  0.19411988761E+03  0.14060350075E+03  0.10057260405E+03  0.25993601920E+03  0.10100000352E+00 0.  1.
</event>
<event>
 5   0  0.2933851E-02  0.6997215E+03  0.7818609E-02  0.9717709E-01
        2   -1    0    0  501    0  0.00000000000E+00  0.00000000000E+00  0.49432058752E+03  0.49432058752E+03  0.25500000920E-02 0. -1.
       -2   -1    0    0    0  501  0.00000000000E+00  0.00000000000E+00 -0.24761773298E+03  0.24761773300E+03  0.25500000920E-02 0.  1.
    10030    2    1    2    0    0  0.00000000000E+00  0.00000000000E+00  0.24670285453E+03  0.74193832052E+03  0.69972149676E+03 0.  0.
        2    1    3    3  502    0 -0.53145047650E+02 -0.79088143314E+02  0.48029702110E+03  0.48965759362E+03  0.25500000920E-02 0. -1.
       -2    1    3    3    0  502  0.53145047650E+02  0.79088143314E+02 -0.23359416657E+03  0.25228072690E+03  0.25500000920E-02 0.  1.
</event>
<event>
 5   0  0.3184443E-02  0.6894895E+03  0.7818609E-02  0.9735377E-01
       -2   -1    0    0    0  501  0.00000000000E+00  0.00000000000E+00  0.30125565095E+03  0.30125565096E+03  0.25500000920E-02 0. -1.
        2   -1    0    0  501    0  0.00000000000E+00  0.00000000000E+00 -0.39451186665E+03  0.39451186666E+03  0.25500000920E-02 0.  1.
    10030    2    1    2    0    0  0.00000000000E+00  0.00000000000E+00 -0.93256215706E+02  0.69576751762E+03  0.68948946098E+03 0.  0.
        3    1    3    3  502    0 -0.94786268940E+02  0.69672871930E+02 -0.37363145990E+03  0.39171319086E+03  0.10100000352E+00 0.  1.
       -3    1    3    3    0  502  0.94786268940E+02 -0.69672871930E+02  0.28037524420E+03  0.30405432676E+03  0.10100000352E+00 0. -1.
</event>
<event>
 5   0  0.1233912E-02  0.7090678E+03  0.7818609E-02  0.9701849E-01
        3   -1    0    0  501    0  0.00000000000E+00  0.00000000000E+00  0.57316463039E+03  0.57316463929E+03  0.10100000352E+00 0.  1.
       -3   -1    0    0    0  501  0.00000000000E+00  0.00000000000E+00 -0.21929874005E+03  0.21929876331E+03  0.10100000352E+00 0. -1.
    10030    2    1    2    0    0  0.00000000000E+00  0.00000000000E+00  0.35386589034E+03  0.79246340260E+03  0.70906782194E+03 0.  0.
        4    1    3    3  502    0  0.88218841017E+02 -0.20209211659E+03 -0.13333077811E+03  0.25768681920E+03  0.12699999809E+01 0. -1.
       -4    1    3    3    0  502 -0.88218841017E+02  0.20209211659E+03  0.48719666846E+03  0.53477658340E+03  0.12699999809E+01 0.  1.
</event>
<event>
 5   0  0.1839038E-02  0.6861362E+03  0.7818609E-02  0.9741239E-01
        1   -1    0    0  501    0  0.00000000000E+00  0.00000000000E+00  0.19359847466E+04  0.19359847466E+04  0.50400001928E-02 0. -1.
       -1   -1    0    0    0  501  0.00000000000E+00  0.00000000000E+00 -0.60793729266E+02  0.60793729475E+02  0.50400001928E-02 0.  1.
    10030    2    1    2    0    0  0.00000000000E+00  0.00000000000E+00  0.18751910173E+04  0.19967784761E+04  0.68613623360E+03 0.  0.
        5    1    3    3  502    0  0.21299966908E+03 -0.19816643434E+03  0.40865638776E+03  0.50165817843E+03  0.46999998093E+01 0.  1.
       -5    1    3    3    0  502 -0.21299966908E+03  0.19816643434E+03  0.14665346296E+04  0.14951202977E+04  0.46999998093E+01 0. -1.
</event>
<event>
 5   0  0.3183963E-02  0.7071976E+03  0.7818609E-02  0.9705002E-01
       -2   -1    0    0    0  501  0.00000000000E+00  0.00000000000E+00  0.99440591136E+02  0.99440591169E+02  0.25500000920E-02 0.  1.
        2   -1    0    0  501    0  0.00000000000E+00  0.00000000000E+00 -0.12573547043E+04  0.12573547043E+04  0.25500000920E-02 0. -1.
    10030    2    1    2    0    0  0.00000000000E+00  0.00000000000E+00 -0.11579141132E+04  0.13567952955E+04  0.70719755398E+03 0.  0.
        4    1    3    3  502    0  0.43520744492E+02  0.31096066806E+03 -0.26699383227E+03  0.41216248211E+03  0.12699999809E+01 0.  1.
       -4    1    3    3    0  502 -0.43520744492E+02 -0.31096066806E+03 -0.89092028090E+03  0.94463281338E+03  0.12699999809E+01 0. -1.
</event>
<event>
 5   0  0.3183963E-02  0.7063381E+03  0.7818609E-02  0.9706454E-01
       -2   -1    0    0    0  501  0.00000000000E+00  0.00000000000E+00  0.40786719589E+03  0.40786719590E+03  0.25500000920E-02 0.  1.
        2   -1    0    0  501    0  0.00000000000E+00  0.00000000000E+00 -0.30580632210E+03  0.30580632212E+03  0.25500000920E-02 0. -1.
    10030    2    1    2    0    0  0.00000000000E+00  0.00000000000E+00  0.10206087379E+03  0.71367351802E+03  0.70633806945E+03 0.  0.
        4    1    3    3  502    0  0.15480269856E+03 -0.24818943497E+03  0.25098687182E+03  0.38543208720E+03  0.12699999809E+01 0.  1.
       -4    1    3    3    0  502 -0.15480269856E+03  0.24818943497E+03 -0.14892599804E+03  0.32824143082E+03  0.12699999809E+01 0. -1.
</event>
<event>
 5   0  0.2933851E-02  0.7011437E+03  0.7818609E-02  0.9715278E-01
       -2   -1    0    0    0  501  0.00000000000E+00  0.00000000000E+00  0.94816611342E+03  0.94816611343E+03  0.25500000920E-02 0.  1.
        2   -1    0    0  501    0  0.00000000000E+00  0.00000000000E+00 -0.12961929497E+03  0.12961929499E+03  0.25500000920E-02 0. -1.
    10030    2    1    2    0    0  0.00000000000E+00  0.00000000000E+00  0.81854681845E+03  0.10777854084E+04  0.70114370324E+03 0.  0.
        2    1    3    3  502    0 -0.37607717205E+02  0.30548197549E+03  0.15128754621E+03  0.34295990930E+03  0.25500000920E-02 0. -1.
       -2    1    3    3    0  502  0.37607717205E+02 -0.30548197549E+03  0.66725927225E+03  0.73482549912E+03  0.25500000920E-02 0.  1.
</event>
<event>
 5   0  0.1839038E-02  0.7054776E+03  0.7818609E-02  0.9707910E-01
       -1   -1    0    0    0  501  0.00000000000E+00  0.00000000000E+00  0.59387734401E+02  0.59387734615E+02  0.50400001928E-02 0. -1.
        1   -1    0    0  501    0  0.00000000000E+00  0.00000000000E+00 -0.20951238082E+04  0.20951238082E+04  0.50400001928E-02 0.  1.
    10030    2    1    2    0    0  0.00000000000E+00  0.00000000000E+00 -0.20357360738E+04  0.21545115428E+04  0.70547758715E+03 0.  0.
        5    1    3    3  502    0 -0.27226123882E+02 -0.34623846086E+03 -0.83009860911E+03  0.89983783230E+03  0.46999998093E+01 0.  1.
       -5    1    3    3    0  502  0.27226123882E+02  0.34623846086E+03 -0.12056374647E+04  0.12546737105E+04  0.46999998093E+01 0. -1.
</event>
<event>
 5   0  0.3184443E-02  0.7408587E+03  0.7818609E-02  0.9649802E-01
       -2   -1    0    0    0  501  0.00000000000E+00  0.00000000000E+00  0.20160327850E+03  0.20160327851E+03  0.25500000920E-02 0.  1.
        2   -1    0    0  501    0  0.00000000000E+00  0.00000000000E+00 -0.68063332827E+03  0.68063332828E+03  0.25500000920E-02 0. -1.
    10030    2    1    2    0    0  0.00000000000E+00  0.00000000000E+00 -0.47903004978E+03  0.88223660679E+03  0.74085871917E+03 0.  0.
        3    1    3    3  502    0 -0.25921946755E+03  0.24821144031E+03 -0.13028114694E+03  0.38180733218E+03  0.10100000352E+00 0.  1.
       -3    1    3    3    0  502  0.25921946755E+03 -0.24821144031E+03 -0.34874890283E+03  0.50042927461E+03  0.10100000352E+00 0. -1.
</event>
<event>
 5   0  0.1839038E-02  0.6971528E+03  0.7818609E-02  0.9722114E-01
       -1   -1    0    0    0  501  0.00000000000E+00  0.00000000000E+00  0.55001380314E+03  0.55001380317E+03  0.50400001928E-02 0.  1.
        1   -1    0    0  501    0  0.00000000000E+00  0.00000000000E+00 -0.22091358894E+03  0.22091358900E+03  0.50400001928E-02 0. -1.
    10030    2    1    2    0    0  0.00000000000E+00  0.00000000000E+00  0.32910021420E+03  0.77092739217E+03  0.69715284766E+03 0.  0.
        5    1    3    3  502    0  0.28985456704E+03  0.13152798337E+03  0.32159308900E+03  0.45250357494E+03  0.46999998093E+01 0.  1.
       -5    1    3    3    0  502 -0.28985456704E+03 -0.13152798337E+03  0.75071252042E+01  0.31842381722E+03  0.46999998093E+01 0. -1.
</event>
<event>
 5   0  0.1884172E-02  0.7064131E+03  0.7818609E-02  0.9706327E-01
        1   -1    0    0  501    0  0.00000000000E+00  0.00000000000E+00  0.17470715494E+04  0.17470715494E+04  0.50400001928E-02 0. -1.
       -1   -1    0    0    0  501  0.00000000000E+00  0.00000000000E+00 -0.71407996236E+02  0.71407996414E+02  0.50400001928E-02 0.  1.
    10030    2    1    2    0    0  0.00000000000E+00  0.00000000000E+00  0.16756635531E+04  0.18184795458E+04  0.70641313348E+03 0.  0.
        3    1    3    3  502    0 -0.12045117640E+03  0.31791249651E+03  0.10844495242E+04  0.11364891650E+04  0.10100000352E+00 0. -1.
       -3    1    3    3    0  502  0.12045117640E+03 -0.31791249651E+03  0.59121402889E+03  0.68199038079E+03  0.10100000352E+00 0.  1.
</event>
<event>
 5   0  0.1233912E-02  0.7239988E+03  0.7818609E-02  0.9677049E-01
       -3   -1    0    0    0  501  0.00000000000E+00  0.00000000000E+00  0.14001115369E+03  0.14001119012E+03  0.10100000352E+00 0.  1.
        3   -1    0    0  501    0  0.00000000000E+00  0.00000000000E+00 -0.93595084972E+03  0.93595085517E+03  0.10100000352E+00 0. -1.
    10030    2    1    2    0    0  0.00000000000E+00  0.00000000000E+00 -0.79593969603E+03  0.10759620453E+04  0.72399884198E+03 0.  0.
        2    1    3    3  502    0  0.16240071209E+03  0.26432658111E+02 -0.87716784103E+03  0.89246630079E+03  0.25500000920E-02 0. -1.
       -2    1    3    3    0  502 -0.16240071209E+03 -0.26432658111E+02  0.81228145004E+02  0.18349574450E+03  0.25500000920E-02 0.  1.
</event>
<event>
 5   0  0.3183963E-02  0.7021742E+03  0.7818609E-02  0.9713521E-01
        2   -1    0    0  501    0  0.00000000000E+00  0.00000000000E+00  0.18271261243E+04  0.18271261243E+04  0.25500000920E-02 0.  1.
       -2   -1    0    0    0  501  0.00000000000E+00  0.00000000000E+00 -0.67462314641E+02  0.67462314689E+02  0.25500000920E-02 0. -1.
    10030    2    1    2    0    0  0.00000000000E+00  0.00000000000E+00  0.17596638096E+04  0.18945884390E+04  0.70217421636E+03 0.  0.
        4    1    3    3  502    0  0.19077826370E+03 -0.12286025621E+03  0.16026685055E+04  0.16186534342E+04  0.12699999809E+01 0.  1.
       -4    1    3    3    0  502 -0.19077826370E+03  0.12286025621E+03  0.15699530409E+03  0.27593500478E+03  0.12699999809E+01 0. -1.
</event>
<event>
 5   0  0.1951465E-02  0.6985657E+03  0.7818609E-02  0.9719688E-01
       -1   -1    0    0    0  501  0.00000000000E+00  0.00000000000E+00  0.10482479194E+04  0.10482479194E+04  0.50400001928E-02 0. -1.
        1   -1    0    0  501    0  0.00000000000E+00  0.00000000000E+00 -0.11638324516E+03  0.11638324527E+03  0.50400001928E-02 0.  1.
    10030    2    1    2    0    0  0.00000000000E+00  0.00000000000E+00  0.93186467424E+03  0.11646311647E+04  0.69856565808E+03 0.  0.
        4    1    3    3  502    0  0.76170208449E+02 -0.26117655585E+03  0.83112276743E+03  0.87451801663E+03  0.12699999809E+01 0. -1.
       -4    1    3    3    0  502 -0.76170208449E+02  0.26117655585E+03  0.10074190681E+03  0.29011314804E+03  0.12699999809E+01 0.  1.
</event>
<event>
 5   0  0.1884172E-02  0.6977341E+03  0.7818609E-02  0.9721115E-01
        1   -1    0    0  501    0  0.00000000000E+00  0.00000000000E+00  0.79984177010E+03  0.79984177011E+03  0.50400001928E-02 0. -1.
       -1   -1    0    0    0  501  0.00000000000E+00  0.00000000000E+00 -0.15216538449E+03  0.15216538458E+03  0.50400001928E-02 0.  1.
    10030    2    1    2    0    0  0.00000000000E+00  0.00000000000E+00  0.64767638561E+03  0.95200715469E+03  0.69773413426E+03 0.  0.
        3    1    3    3  502    0  0.36424588239E+02  0.93247383272E+02 -0.13214662128E+03  0.16578469420E+03  0.10100000352E+00 0.  1.
       -3    1    3    3    0  502 -0.36424588239E+02 -0.93247383272E+02  0.77982300688E+03  0.78622246049E+03  0.10100000352E+00 0. -1.
</event>
<event>
 5   0  0.2933851E-02  0.6917546E+03  0.7818609E-02  0.9731438E-01
       -2   -1    0    0    0  501  0.00000000000E+00  0.00000000000E+00  0.78914373225E+03  0.78914373225E+03  0.25500000920E-02 0. -1.
        2   -1    0    0  501    0  0.00000000000E+00  0.00000000000E+00 -0.15159610569E+03  0.15159610571E+03  0.25500000920E-02 0.  1.
    10030    2    1    2    0    0  0.00000000000E+00  0.00000000000E+00  0.63754762656E+03  0.94073983796E+03  0.69175462889E+03 0.  0.
        2    1    3    3  502    0  0.16263590159E+03  0.45307076316E+02  0.72930226342E+03  0.74858864478E+03  0.25500000920E-02 0. -1.
       -2    1    3    3    0  502 -0.16263590159E+03 -0.45307076316E+02 -0.91754636858E+02  0.19215119319E+03  0.25500000920E-02 0.  1.
</event>
<event>
 5   0  0.1884172E-02  0.7020176E+03  0.7818609E-02  0.9713788E-01
        1   -1    0    0  501    0  0.00000000000E+00  0.00000000000E+00  0.22983206371E+03  0.22983206376E+03  0.50400001928E-02 0.  1.
       -1   -1    0    0    0  501  0.00000000000E+00  0.00000000000E+00 -0.53607475305E+03  0.53607475308E+03  0.50400001928E-02 0. -1.
    10030    2    1    2    0    0  0.00000000000E+00  0.00000000000E+00 -0.30624268934E+03  0.76590681684E+03  0.70201756909E+03 0.  0.
        3    1    3    3  502    0  0.12883728332E+03  0.29459618798E+03 -0.30672193810E+03  0.44436957261E+03  0.10100000352E+00 0. -1.
       -3    1    3    3    0  502 -0.12883728332E+03 -0.29459618798E+03  0.47924875514E+00  0.32153724423E+03  0.10100000352E+00 0.  1.
</event>
<event>
 5   0  0.3183963E-02  0.7012058E+03  0.7818609E-02  0.9715172E-01
        2   -1    0    0  501    0  0.00000000000E+00  0.00000000000E+00  0.23834659652E+03  0.23834659653E+03  0.25500000920E-02 0. -1.
       -2   -1    0    0    0  501  0.00000000000E+00  0.00000000000E+00 -0.51572952946E+03  0.51572952947E+03  0.25500000920E-02 0.  1.
    10030    2    1    2    0    0  0.00000000000E+00  0.00000000000E+00 -0.27738293295E+03  0.75407612600E+03  0.70120575605E+03 0.  0.
        4    1    3    3  502    0 -0.21506657345E+03  0.12812975266E+03  0.12527446967E+03  0.27993958310E+03  0.12699999809E+01 0. -1.
       -4    1    3    3    0  502  0.21506657345E+03 -0.12812975266E+03 -0.40265740262E+03  0.47413654290E+03  0.12699999809E+01 0.  1.
</event>
<event>
 5   0  0.3290656E-02  0.6994480E+03  0.7818609E-02  0.9718177E-01
        2   -1    0    0  501    0  0.00000000000E+00  0.00000000000E+00  0.44221497735E+03  0.44221497736E+03  0.25500000920E-02 0.  1.
       -2   -1    0    0    0  501  0.00000000000E+00  0.00000000000E+00 -0.27657787951E+03  0.27657787953E+03  0.25500000920E-02 0. -1.
    10030    2    1    2    0    0  0.00000000000E+00  0.00000000000E+00  0.16563709783E+03  0.71879285688E+03  0.69944801303E+03 0.  0.
        1    1    3    3  502    0  0.71180433391E+02  0.40785781988E+02 -0.26654978952E+03  0.27888873127E+03  0.50400001928E-02 0. -1.
       -1    1    3    3    0  502 -0.71180433391E+02 -0.40785781988E+02  0.43218688735E+03  0.43990412562E+03  0.50400001928E-02 0.  1.
</event>
<event>
 5   0  0.3184443E-02  0.6952566E+03  0.7818609E-02  0.9725379E-01
       -2   -1    0    0    0  501  0.00000000000E+00  0.00000000000E+00  0.13078600726E+03  0.13078600728E+03  0.25500000920E-02 0.  1.
        2   -1    0    0  501    0  0.00000000000E+00  0.00000000000E+00 -0.92399358742E+03  0.92399358743E+03  0.25500000920E-02 0. -1.
    10030    2    1    2    0    0  0.00000000000E+00  0.00000000000E+00 -0.79320758016E+03  0.10547795947E+04  0.69525659162E+03 0.  0.
        3    1    3    3  502    0 -0.96918727743E+01  0.25899128945E+03 -0.45122155964E+02  0.26307116826E+03  0.10100000352E+00 0.  1.
       -3    1    3    3    0  502  0.96918727743E+01 -0.25899128945E+03 -0.74808542420E+03  0.79170842645E+03  0.10100000352E+00 0. -1.
</event>
<event>
 5   0  0.3184443E-02  0.6971991E+03  0.7818609E-02  0.9722034E-01
        2   -1    0    0  501    0  0.00000000000E+00  0.00000000000E+00  0.30583931357E+03  0.30583931358E+03  0.25500000920E-02 0. -1.
       -2   -1    0    0    0  501  0.00000000000E+00  0.00000000000E+00 -0.39733819980E+03  0.39733819981E+03  0.25500000920E-02 0.  1.
    10030    2    1    2    0    0  0.00000000000E+00  0.00000000000E+00 -0.91498886230E+02  0.70317751339E+03  0.69719908861E+03 0.  0.
        3    1    3    3  502    0  0.10621737567E+02 -0.19109633629E+03 -0.33960843940E+03  0.38982628613E+03  0.10100000352E+00 0.  1.
       -3    1    3    3    0  502 -0.10621737567E+02  0.19109633629E+03  0.24810955317E+03  0.31335122726E+03  0.10100000352E+00 0. -1.
</event>
<event>
 5   0  0.3113940E-02  0.7010765E+03  0.7818609E-02  0.9715393E-01
       -2   -1    0    0    0  501  0.00000000000E+00  0.00000000000E+00  0.69387254282E+02  0.69387254328E+02  0.25500000920E-02 0.  1.
        2   -1    0    0  501    0  0.00000000000E+00  0.00000000000E+00 -0.17708883268E+04  0.17708883268E+04  0.25500000920E-02 0. -1.
    10030    2    1    2    0    0  0.00000000000E+00  0.00000000000E+00 -0.17015010725E+04  0.18402755811E+04  0.70107653984E+03 0.  0.
        5    1    3    3  502    0 -0.25793663424E+03 -0.29401013578E+02 -0.23258545208E+03  0.34858830933E+03  0.46999998093E+01 0. -1.
       -5    1    3    3    0  502  0.25793663424E+03  0.29401013578E+02 -0.14689156204E+04  0.14916872718E+04  0.46999998093E+01 0.  1.
</event>
<event>
 5   0  0.1884172E-02  0.6969353E+03  0.7818609E-02  0.9722488E-01
        1   -1    0    0  501    0  0.00000000000E+00  0.00000000000E+00  0.17160662611E+03  0.17160662618E+03  0.50400001928E-02 0.  1.
       -1   -1    0    0    0  501  0.00000000000E+00  0.00000000000E+00 -0.70760491845E+03  0.70760491847E+03  0.50400001928E-02 0. -1.
    10030    2    1    2    0    0  0.00000000000E+00  0.00000000000E+00 -0.53599829235E+03  0.87921154466E+03  0.69693527021E+03 0.  0.
        3    1    3    3  502    0  0.18328801212E+03  0.24958246092E+03 -0.46962375636E+03  0.56252322878E+03  0.10100000352E+00 0. -1.
       -3    1    3    3    0  502 -0.18328801212E+03 -0.24958246092E+03 -0.66374535985E+02  0.31668831587E+03  0.10100000352E+00 0.  1.
</event>
<event>
 5   0  0.1951465E-02  0.7023515E+03  0.7818609E-02  0.9713219E-01
        1   -1    0    0  501    0  0.00000000000E+00  0.00000000000E+00  0.63226343372E+03  0.63226343374E+03  0.50400001928E-02 0. -1.
       -1   -1    0    0    0  501  0.00000000000E+00  0.00000000000E+00 -0.19505224718E+03  0.19505224725E+03  0.50400001928E-02 0.  1.
    10030    2    1    2    0    0  0.00000000000E+00  0.00000000000E+00  0.43721118654E+03  0.82731568099E+03  0.70235148920E+03 0.  0.
        4    1    3    3  502    0 -0.24224123421E+03  0.25047665494E+03  0.16721494261E+03  0.38649944393E+03  0.12699999809E+01 0. -1.
       -4    1    3    3    0  502  0.24224123421E+03 -0.25047665494E+03  0.26999624393E+03  0.44081623707E+03  0.12699999809E+01 0.  1.
</event>
<event>
 5   0  0.3183963E-02  0.7059211E+03  0.7818609E-02  0.9707160E-01
        2   -1    0    0  501    0  0.00000000000E+00  0.00000000000E+00  0.13746684695E+04  0.13746684695E+04  0.25500000920E-02 0. -1.
       -2   -1    0    0    0  501  0.00000000000E+00  0.00000000000E+00 -0.90626321782E+02  0.90626321817E+02  0.25500000920E-02 0.  1.
    10030    2    1    2    0    0  0.00000000000E+00  0.00000000000E+00  0.12840421477E+04  0.14652947913E+04  0.70592109216E+03 0.  0.
        4    1    3    3  502    0 -0.67877706618E+02  0.16970337654E+03  0.12687817898E+04  0.12818796598E+04  0.12699999809E+01 0. -1.
       -4    1    3    3    0  502  0.67877706618E+02 -0.16970337654E+03  0.15260357917E+02  0.18341513156E+03  0.12699999809E+01 0.  1.
</event>
<event>
 5   0  0.1884172E-02  0.6964662E+03  0.7818609E-02  0.9723295E-01
        1   -1    0    0  501    0  0.00000000000E+00  0.00000000000E+00  0.45487480309E+03  0.45487480311E+03  0.50400001928E-02 0. -1.
       -1   -1    0    0    0  501  0.00000000000E+00  0.00000000000E+00 -0.26659267169E+03  0.26659267174E+03  0.50400001928E-02 0.  1.
    10030    2    1    2    0    0  0.00000000000E+00  0.00000000000E+00  0.18828213139E+03  0.72146747486E+03  0.69646619177E+03 0.  0.
        3    1    3    3  502    0  0.31645369797E+03 -0.82773514121E+02 -0.29612388442E+02  0.32843766737E+03  0.10100000352E+00 0. -1.
       -3    1    3    3    0  502 -0.31645369797E+03  0.82773514121E+02  0.21789451984E+03  0.39302980749E+03  0.10100000352E+00 0.  1.
</event>
<event>
 5   0  0.1858013E-02  0.7090640E+03  0.7818609E-02  0.9701856E-01
        1   -1    0    0  501    0  0.00000000000E+00  0.00000000000E+00  0.44127731017E+03  0.44127731020E+03  0.50400001928E-02 0.  1.
       -1   -1    0    0    0  501  0.00000000000E+00  0.00000000000E+00 -0.28483887352E+03  0.28483887357E+03  0.50400001928E-02 0. -1.
    10030    2    1    2    0    0  0.00000000000E+00  0.00000000000E+00  0.15643843665E+03  0.72611618377E+03  0.70906398009E+03 0.  0.
        2    1    3    3  502    0  0.58541933686E+02 -0.20099119548E+03 -0.21478819859E+03  0.29993097359E+03  0.25500000920E-02 0. -1.
       -2    1    3    3    0  502 -0.58541933686E+02  0.20099119548E+03  0.37122663523E+03  0.42618521018E+03  0.25500000920E-02 0.  1.
</event>
<event>
 5   0  0.1884172E-02  0.6990171E+03  0.7818609E-02  0.9718915E-01
        1   -1    0    0  501    0  0.00000000000E+00  0.00000000000E+00  0.16339479699E+04  0.16339479700E+04  0.50400001928E-02 0.  1.
       -1   -1    0    0    0  501  0.00000000000E+00  0.00000000000E+00 -0.74761386443E+02  0.74761386613E+02  0.50400001928E-02 0. -1.
    10030    2    1    2    0    0  0.00000000000E+00  0.00000000000E+00  0.15591865835E+04  0.17087093566E+04  0.69901706921E+03 0.  0.
        3    1    3    3  502    0 -0.27827801949E+02  0.98502339842E+01  0.16308951676E+04  0.16311623069E+04  0.10100000352E+00 0.  1.
       -3    1    3    3    0  502  0.27827801949E+02 -0.98502339842E+01 -0.71708584101E+02  0.77547049626E+02  0.10100000352E+00 0. -1.
</event>
<event>
 5   0  0.1884172E-02  0.7069558E+03  0.7818609E-02  0.9705410E-01
        1   -1    0    0  501    0  0.00000000000E+00  0.00000000000E+00  0.47163871005E+03  0.47163871008E+03  0.50400001928E-02 0.  1.
       -1   -1    0    0    0  501  0.00000000000E+00  0.00000000000E+00 -0.26492020253E+03  0.26492020257E+03  0.50400001928E-02 0. -1.
    10030    2    1    2    0    0  0.00000000000E+00  0.00000000000E+00  0.20671850753E+03  0.73655891265E+03  0.70695579102E+03 0.  0.
        3    1    3    3  502    0 -0.27390869542E+03  0.20081427513E+03  0.13073507208E+01  0.33963813962E+03  0.10100000352E+00 0. -1.
       -3    1    3    3    0  502  0.27390869542E+03 -0.20081427513E+03  0.20541115680E+03  0.39692077303E+03  0.10100000352E+00 0.  1.
</event>
<event>
 5   0  0.1839038E-02  0.6966913E+03  0.7818609E-02  0.9722907E-01
       -1   -1    0    0    0  501  0.00000000000E+00  0.00000000000E+00  0.16546297499E+03  0.16546297507E+03  0.50400001928E-02 0.  1.
        1   -1    0    0  501    0  0.00000000000E+00  0.00000000000E+00 -0.73336462360E+03  0.73336462362E+03  0.50400001928E-02 0. -1.
    10030    2    1    2    0    0  0.00000000000E+00  0.00000000000E+00 -0.56790164861E+03  0.89882759869E+03  0.69669130156E+03 0.  0.
        5    1    3    3  502    0 -0.28971574620E+02 -0.72870440150E+02 -0.72178699001E+03  0.72604958655E+03  0.46999998093E+01 0. -1.
       -5    1    3    3    0  502  0.28971574620E+02  0.72870440150E+02  0.15388534140E+03  0.17277801214E+03  0.46999998093E+01 0.  1.
</event>
<event>
 5   0  0.1858013E-02  0.7030846E+03  0.7818609E-02  0.9711972E-01
        1   -1    0    0  501    0  0.00000000000E+00  0.00000000000E+00  0.43265341002E+03  0.43265341005E+03  0.50400001928E-02 0.  1.
       -1   -1    0    0    0  501  0.00000000000E+00  0.00000000000E+00 -0.28563741146E+03  0.28563741150E+03  0.50400001928E-02 0. -1.
    10030    2    1    2    0    0  0.00000000000E+00  0.00000000000E+00  0.14701599856E+03  0.71829082155E+03  0.70308463253E+03 0.  0.
        2    1    3    3  502    0 -0.14202647845E+03  0.47090779133E+02  0.39849636517E+03  0.42566232523E+03  0.25500000920E-02 0.  1.
       -2    1    3    3    0  502  0.14202647845E+03 -0.47090779133E+02 -0.25148036661E+03  0.29262849632E+03  0.25500000920E-02 0. -1.
</event>
<event>
 5   0  0.1233912E-02  0.6617581E+03  0.7818609E-02  0.9784963E-01
        3   -1    0    0  501    0  0.00000000000E+00  0.00000000000E+00  0.77020137729E+02  0.77020203952E+02  0.10100000352E+00 0. -1.
       -3   -1    0    0    0  501  0.00000000000E+00  0.00000000000E+00 -0.14214579924E+04  0.14214579960E+04  0.10100000352E+00 0.  1.
    10030    2    1    2    0    0  0.00000000000E+00  0.00000000000E+00 -0.13444378547E+04  0.14984782000E+04  0.66175809072E+03 0.  0.
        4    1    3    3  502    0 -0.15084055559E+03 -0.57523084489E+02 -0.13262221494E+04  0.13360121934E+04  0.12699999809E+01 0.  1.
       -4    1    3    3    0  502  0.15084055559E+03  0.57523084489E+02 -0.18215705262E+02  0.16246600653E+03  0.12699999809E+01 0. -1.
</event>
<event>
 5   0  0.1233912E-02  0.6981507E+03  0.7818609E-02  0.9720400E-01
        4   -1    0    0  501    0  0.00000000000E+00  0.00000000000E+00  0.32115415457E+03  0.32115666566E+03  0.12699999809E+01 0.  1.
       -4   -1    0    0    0  501  0.00000000000E+00  0.00000000000E+00 -0.37941899773E+03  0.37942112321E+03  0.12699999809E+01 0. -1.
    10030    2    1    2    0    0  0.00000000000E+00  0.00000000000E+00 -0.58264843159E+02  0.70057778887E+03  0.69815073323E+03 0.  0.
        5    1    3    3  502    0 -0.18341094517E+03  0.28280978780E+03 -0.12005962588E+03  0.35785102298E+03  0.46999998093E+01 0. -1.
       -5    1    3    3    0  502  0.18341094517E+03 -0.28280978780E+03  0.61794782719E+02  0.34272676589E+03  0.46999998093E+01 0.  1.
</event>
<event>
 5   0  0.3113940E-02  0.7039581E+03  0.7818609E-02  0.9710487E-01
        2   -1    0    0  501    0  0.00000000000E+00  0.00000000000E+00  0.26527921786E+03  0.26527921788E+03  0.25500000920E-02 0.  1.
       -2   -1    0    0    0  501  0.00000000000E+00  0.00000000000E+00 -0.46701449884E+03  0.46701449885E+03  0.25500000920E-02 0. -1.
    10030    2    1    2    0    0  0.00000000000E+00  0.00000000000E+00 -0.20173528098E+03  0.73229371673E+03  0.70395806975E+03 0.  0.
        5    1    3    3  502    0  0.33255362418E+03  0.99511633236E+02 -0.40455304790E+02  0.34950421998E+03  0.46999998093E+01 0. -1.
       -5    1    3    3    0  502 -0.33255362418E+03 -0.99511633236E+02 -0.16127997619E+03  0.38278949675E+03  0.46999998093E+01 0.  1.
</event>
<event>
 5   0  0.1884172E-02  0.7450454E+03  0.7818609E-02  0.9643155E-01
        1   -1    0    0  501    0  0.00000000000E+00  0.00000000000E+00  0.61924910547E+03  0.61924910549E+03  0.50400001928E-02 0. -1.
       -1   -1    0    0    0  501  0.00000000000E+00  0.00000000000E+00 -0.22409911047E+03  0.22409911053E+03  0.50400001928E-02 0.  1.
    10030    2    1    2    0    0  0.00000000000E+00  0.00000000000E+00  0.39514999500E+03  0.84334821601E+03  0.74504543144E+03 0.  0.
        3    1    3    3  502    0 -0.32131628870E+03  0.18596122095E+03  0.23241657757E+03  0.43799909682E+03  0.10100000352E+00 0.  1.
       -3    1    3    3    0  502  0.32131628870E+03 -0.18596122095E+03  0.16273341743E+03  0.40534911919E+03  0.10100000352E+00 0. -1.
</event>
<event>
 5   0  0.3113940E-02  0.7066749E+03  0.7818609E-02  0.9705885E-01
       -2   -1    0    0    0  501  0.00000000000E+00  0.00000000000E+00  0.28881196024E+03  0.28881196025E+03  0.25500000920E-02 0. -1.
        2   -1    0    0  501    0  0.00000000000E+00  0.00000000000E+00 -0.43227898050E+03  0.43227898050E+03  0.25500000920E-02 0.  1.
    10030    2    1    2    0    0  0.00000000000E+00  0.00000000000E+00 -0.14346702026E+03  0.72109094075E+03  0.70667486083E+03 0.  0.
        5    1    3    3  502    0 -0.66102135328E+02  0.82631168064E+02  0.27223032870E+03  0.29211101330E+03  0.46999998093E+01 0. -1.
       -5    1    3    3    0  502  0.66102135328E+02 -0.82631168064E+02 -0.41569734896E+03  0.42897992745E+03  0.46999998093E+01 0.  1.
</event>
<event>
 5   0  0.1884172E-02  0.7029192E+03  0.7818609E-02  0.9712253E-01
        1   -1    0    0  501    0  0.00000000000E+00  0.00000000000E+00  0.11997914464E+04  0.11997914464E+04  0.50400001928E-02 0. -1.
       -1   -1    0    0    0  501  0.00000000000E+00  0.00000000000E+00 -0.10295444450E+03  0.10295444463E+03  0.50400001928E-02 0.  1.
    10030    2    1    2    0    0  0.00000000000E+00  0.00000000000E+00  0.10968370019E+04  0.13027458911E+04  0.70291923284E+03 0.  0.
        3    1    3    3  502    0  0.98552422569E+02  0.12281659072E+03 -0.33916696755E+02  0.16108025164E+03  0.10100000352E+00 0.  1.
       -3    1    3    3    0  502 -0.98552422569E+02 -0.12281659072E+03  0.11307536987E+04  0.11416656394E+04  0.10100000352E+00 0. -1.
</event>
<event>
 5   0  0.3183963E-02  0.6877808E+03  0.7818609E-02  0.9738360E-01
        2   -1    0    0  501    0  0.00000000000E+00  0.00000000000E+00  0.24420392543E+04  0.24420392543E+04  0.25500000920E-02 0.  1.
       -2   -1    0    0    0  501  0.00000000000E+00  0.00000000000E+00 -0.48426983785E+02  0.48426983852E+02  0.25500000920E-02 0. -1.
    10030    2    1    2    0    0  0.00000000000E+00  0.00000000000E+00  0.23936122705E+04  0.24904662381E+04  0.68778076581E+03 0.  0.
        4    1    3    3  502    0  0.51509470323E+02  0.16097660615E+03  0.11235949704E+03  0.20296049550E+03  0.12699999809E+01 0. -1.
       -4    1    3    3    0  502 -0.51509470323E+02 -0.16097660615E+03  0.22812527734E+04  0.22875057426E+04  0.12699999809E+01 0.  1.
</event>
<event>
 5   0  0.1951465E-02  0.7019998E+03  0.7818609E-02  0.9713818E-01
       -1   -1    0    0    0  501  0.00000000000E+00  0.00000000000E+00  0.70663904828E+03  0.70663904830E+03  0.50400001928E-02 0.  1.
        1   -1    0    0  501    0  0.00000000000E+00  0.00000000000E+00 -0.17434776789E+03  0.17434776796E+03  0.50400001928E-02 0. -1.
    10030    2    1    2    0    0  0.00000000000E+00  0.00000000000E+00  0.53229128040E+03  0.88098681626E+03  0.70199983137E+03 0.  0.
        4    1    3    3  502    0 -0.19899036267E+03  0.28914038559E+03  0.26618315449E+03  0.44051607423E+03  0.12699999809E+01 0. -1.
       -4    1    3    3    0  502  0.19899036267E+03 -0.28914038559E+03  0.26610812590E+03  0.44047074203E+03  0.12699999809E+01 0.  1.
</event>
<event>
 5   0  0.3183963E-02  0.7058278E+03  0.7818609E-02  0.9707317E-01
        2   -1    0    0  501    0  0.00000000000E+00  0.00000000000E+00  0.13270226522E+04  0.13270226522E+04  0.25500000920E-02 0.  1.
       -2   -1    0    0    0  501  0.00000000000E+00  0.00000000000E+00 -0.93855388184E+02  0.93855388219E+02  0.25500000920E-02 0. -1.
    10030    2    1    2    0    0  0.00000000000E+00  0.00000000000E+00  0.12331672640E+04  0.14208780404E+04  0.70582781519E+03 0.  0.
        4    1    3    3  502    0  0.72312640482E+02 -0.13051644114E+03  0.12603965170E+04  0.12691984290E+04  0.12699999809E+01 0.  1.
       -4    1    3    3    0  502 -0.72312640482E+02  0.13051644114E+03 -0.27229252986E+02  0.15167961135E+03  0.12699999809E+01 0. -1.
</event>
<event>
 5   0  0.2933851E-02  0.6636849E+03  0.7818609E-02  0.9781434E-01
        2   -1    0    0  501    0  0.00000000000E+00  0.00000000000E+00  0.11762519737E+04  0.11762519737E+04  0.25500000920E-02 0. -1.
       -2   -1    0    0    0  501  0.00000000000E+00  0.00000000000E+00 -0.93618889870E+02  0.93618889904E+02  0.25500000920E-02 0.  1.
    10030    2    1    2    0    0  0.00000000000E+00  0.00000000000E+00  0.10826330839E+04  0.12698708637E+04  0.66368487707E+03 0.  0.
        2    1    3    3  502    0 -0.92825762741E+02  0.10702288251E+03  0.11154816611E+04  0.11244420198E+04  0.25500000920E-02 0. -1.
       -2    1    3    3    0  502  0.92825762741E+02 -0.10702288251E+03 -0.32848577186E+02  0.14542884390E+03  0.25500000920E-02 0.  1.
</event>
<event>
 5   0  0.1969818E-02  0.7017549E+03  0.7818609E-02  0.9714236E-01
        1   -1    0    0  501    0  0.00000000000E+00  0.00000000000E+00  0.26970851006E+03  0.26970851011E+03  0.50400001928E-02 0.  1.
       -1   -1    0    0    0  501  0.00000000000E+00  0.00000000000E+00 -0.45647425032E+03  0.45647425035E+03  0.50400001928E-02 0. -1.
    10030    2    1    2    0    0  0.00000000000E+00  0.00000000000E+00 -0.18676574026E+03  0.72618276046E+03  0.70175491438E+03 0.  0.
        1    1    3    3  502    0  0.11157672506E+03  0.27861004862E+03  0.94719411569E+02  0.31471366625E+03  0.50400001928E-02 0.  1.
       -1    1    3    3    0  502 -0.11157672506E+03 -0.27861004862E+03 -0.28148515182E+03  0.41146909421E+03  0.50400001928E-02 0. -1.
</event>
<event>
 5   0  0.1233912E-02  0.7108147E+03  0.7818609E-02  0.9698914E-01
        3   -1    0    0  501    0  0.00000000000E+00  0.00000000000E+00  0.23068025190E+03  0.23068027402E+03  0.10100000352E+00 0.  1.
       -3   -1    0    0    0  501  0.00000000000E+00  0.00000000000E+00 -0.54757334091E+03  0.54757335023E+03  0.10100000352E+00 0. -1.
    10030    2    1    2    0    0  0.00000000000E+00  0.00000000000E+00 -0.31689308901E+03  0.77825362424E+03  0.71081465502E+03 0.  0.
        2    1    3    3  502    0 -0.23208625554E+03  0.28806957504E+02 -0.45145722143E+03  0.50843632207E+03  0.25500000920E-02 0. -1.
       -2    1    3    3    0  502  0.23208625554E+03 -0.28806957504E+02  0.13456413242E+03  0.26981730218E+03  0.25500000920E-02 0.  1.
</event>
<event>
 5   0  0.1969818E-02  0.7015517E+03  0.7818609E-02  0.9714582E-01
        1   -1    0    0  501    0  0.00000000000E+00  0.00000000000E+00  0.26196870360E+03  0.26196870365E+03  0.50400001928E-02 0. -1.
       -1   -1    0    0    0  501  0.00000000000E+00  0.00000000000E+00 -0.46968852033E+03  0.46968852036E+03  0.50400001928E-02 0.  1.
    10030    2    1    2    0    0  0.00000000000E+00  0.00000000000E+00 -0.20771981673E+03  0.73165722401E+03  0.70155168818E+03 0.  0.
        1    1    3    3  502    0  0.33004296344E+03  0.73179174247E+02 -0.62478206625E+01  0.33811622935E+03  0.50400001928E-02 0.  1.
       -1    1    3    3    0  502 -0.33004296344E+03 -0.73179174247E+02 -0.20147199607E+03  0.39354099467E+03  0.50400001928E-02 0. -1.
</event>
<event>
 5   0  0.3113940E-02  0.6998888E+03  0.7818609E-02  0.9717422E-01
       -2   -1    0    0    0  501  0.00000000000E+00  0.00000000000E+00  0.69179678694E+02  0.69179678741E+02  0.25500000920E-02 0. -1.
        2   -1    0    0  501    0  0.00000000000E+00  0.00000000000E+00 -0.17701884872E+04  0.17701884872E+04  0.25500000920E-02 0.  1.
    10030    2    1    2    0    0  0.00000000000E+00  0.00000000000E+00 -0.17010088085E+04  0.18393681660E+04  0.69988876493E+03 0.  0.
        5    1    3    3  502    0 -0.28005281180E+02 -0.11547160435E+03 -0.17154642797E+04  0.17195806966E+04  0.46999998093E+01 0.  1.
       -5    1    3    3    0  502  0.28005281180E+02  0.11547160435E+03  0.14455471120E+02  0.11978746942E+03  0.46999998093E+01 0. -1.
</event>
<event>
 5   0  0.3184443E-02  0.7013784E+03  0.7818609E-02  0.9714878E-01
        2   -1    0    0  501    0  0.00000000000E+00  0.00000000000E+00  0.64243016660E+03  0.64243016660E+03  0.25500000920E-02 0.  1.
       -2   -1    0    0    0  501  0.00000000000E+00  0.00000000000E+00 -0.19143390841E+03  0.19143390843E+03  0.25500000920E-02 0. -1.
    10030    2    1    2    0    0  0.00000000000E+00  0.00000000000E+00  0.45099625818E+03  0.83386407503E+03  0.70137840766E+03 0.  0.
        3    1    3    3  502    0 -0.26096299331E+03  0.17992301555E+03  0.47128743088E+02  0.32046076831E+03  0.10100000352E+00 0. -1.
       -3    1    3    3    0  502  0.26096299331E+03 -0.17992301555E+03  0.40386751509E+03  0.51340330672E+03  0.10100000352E+00 0.  1.
</event>
<event>
 5   0  0.3113940E-02  0.7011510E+03  0.7818609E-02  0.9715266E-01
        2   -1    0    0  501    0  0.00000000000E+00  0.00000000000E+00  0.21642212569E+03  0.21642212570E+03  0.25500000920E-02 0.  1.
       -2   -1    0    0    0  501  0.00000000000E+00  0.00000000000E+00 -0.56788640774E+03  0.56788640775E+03  0.25500000920E-02 0. -1.
    10030    2    1    2    0    0  0.00000000000E+00  0.00000000000E+00 -0.35146428206E+03  0.78430853345E+03  0.70115100662E+03 0.  0.
        5    1    3    3  502    0  0.19746379797E+03  0.23692312797E+03  0.10630262991E+02  0.30864156001E+03  0.46999998093E+01 0.  1.
       -5    1    3    3    0  502 -0.19746379797E+03 -0.23692312797E+03 -0.36209454505E+03  0.47566697344E+03  0.46999998093E+01 0. -1.
</event>
<event>
 5   0  0.1858013E-02  0.7014942E+03  0.7818609E-02  0.9714680E-01
        1   -1    0    0  501    0  0.00000000000E+00  0.00000000000E+00  0.38311782780E+03  0.38311782783E+03  0.50400001928E-02 0. -1.
       -1   -1    0    0    0  501  0.00000000000E+00  0.00000000000E+00 -0.32111145793E+03  0.32111145797E+03  0.50400001928E-02 0.  1.
    10030    2    1    2    0    0  0.00000000000E+00  0.00000000000E+00  0.62006369870E+02  0.70422928579E+03  0.70149418890E+03 0.  0.
        2    1    3    3  502    0 -0.13788355160E+03  0.12220260662E+03  0.33062653481E+03  0.37849604542E+03  0.25500000920E-02 0. -1.
       -2    1    3    3    0  502  0.13788355160E+03 -0.12220260662E+03 -0.26862016494E+03  0.32573324038E+03  0.25500000920E-02 0.  1.
</event>
<event>
 5   0  0.3183963E-02  0.6988651E+03  0.7818609E-02  0.9719175E-01
       -2   -1    0    0    0  501  0.00000000000E+00  0.00000000000E+00  0.13718720075E+03  0.13718720077E+03  0.25500000920E-02 0. -1.
        2   -1    0    0  501    0  0.00000000000E+00  0.00000000000E+00 -0.89004743713E+03  0.89004743714E+03  0.25500000920E-02 0.  1.
    10030    2    1    2    0    0  0.00000000000E+00  0.00000000000E+00 -0.75286023639E+03  0.10272346379E+04  0.69886512703E+03 0.  0.
        4    1    3    3  502    0 -0.13169555966E+03  0.17721792771E+03 -0.77451991720E+03  0.80537732112E+03  0.12699999809E+01 0.  1.
       -4    1    3    3    0  502  0.13169555966E+03 -0.17721792771E+03  0.21659680818E+02  0.22185731678E+03  0.12699999809E+01 0. -1.
</event>
<event>
 5   0  0.1969818E-02  0.6991822E+03  0.7818609E-02  0.9718632E-01
        1   -1    0    0  501    0  0.00000000000E+00  0.00000000000E+00  0.13946877927E+04  0.13946877927E+04  0.50400001928E-02 0. -1.
       -1   -1    0    0    0  501  0.00000000000E+00  0.00000000000E+00 -0.87628173602E+02  0.87628173747E+02  0.50400001928E-02 0.  1.
    10030    2    1    2    0    0  0.00000000000E+00  0.00000000000E+00  0.13070596191E+04  0.14823159664E+04  0.69918221983E+03 0.  0.
        1    1    3    3  502    0  0.10680043428E+03 -0.47855530140E+02 -0.44863740773E+02  0.12533650621E+03  0.50400001928E-02 0.  1.
       -1    1    3    3    0  502 -0.10680043428E+03  0.47855530140E+02  0.13519233598E+04  0.13569794602E+04  0.50400001928E-02 0. -1.
</event>
<event>
 5   0  0.3184443E-02  0.7103058E+03  0.7818609E-02  0.9699768E-01
       -2   -1    0    0    0  501  0.00000000000E+00  0.00000000000E+00  0.16046181853E+03  0.16046181855E+03  0.25500000920E-02 0. -1.
        2   -1    0    0  501    0  0.00000000000E+00  0.00000000000E+00 -0.78606612618E+03  0.78606612618E+03  0.25500000920E-02 0.  1.
    10030    2    1    2    0    0  0.00000000000E+00  0.00000000000E+00 -0.62560430765E+03  0.94652794473E+03  0.71030584991E+03 0.  0.
        3    1    3    3  502    0  0.22707514757E+02 -0.44661291683E+02 -0.78133308139E+03  0.78293783692E+03  0.10100000352E+00 0.  1.
       -3    1    3    3    0  502 -0.22707514757E+02  0.44661291683E+02  0.15572877375E+03  0.16359010781E+03  0.10100000352E+00 0. -1.
</event>
<event>
 5   0  0.1969818E-02  0.6965300E+03  0.7818609E-02  0.9723185E-01
        1   -1    0    0  501    0  0.00000000000E+00  0.00000000000E+00  0.27408547419E+03  0.27408547424E+03  0.50400001928E-02 0.  1.
       -1   -1    0    0    0  501  0.00000000000E+00  0.00000000000E+00 -0.44252071114E+03  0.44252071117E+03  0.50400001928E-02 0. -1.
    10030    2    1    2    0    0  0.00000000000E+00  0.00000000000E+00 -0.16843523695E+03  0.71660618541E+03  0.69652996771E+03 0.  0.
        1    1    3    3  502    0  0.33030691443E+03  0.10191924007E+03 -0.40588845988E+02  0.34804833524E+03  0.50400001928E-02 0.  1.
       -1    1    3    3    0  502 -0.33030691443E+03 -0.10191924007E+03 -0.12784639096E+03  0.36855785017E+03  0.50400001928E-02 0. -1.
</event>
<event>
 5   0  0.3113940E-02  0.7062120E+03  0.7818609E-02  0.9706667E-01
        2   -1    0    0  501    0  0.00000000000E+00  0.00000000000E+00  0.12853726219E+04  0.12853726219E+04  0.25500000920E-02 0.  1.
       -2   -1    0    0    0  501  0.00000000000E+00  0.00000000000E+00 -0.97002095217E+02  0.97002095251E+02  0.25500000920E-02 0. -1.
    10030    2    1    2    0    0  0.00000000000E+00  0.00000000000E+00  0.11883705267E+04  0.13823747172E+04  0.70621197239E+03 0.  0.
        5    1    3    3  502    0 -0.15332524300E+03  0.30618123233E+03  0.76264167832E+03  0.83600239035E+03  0.46999998093E+01 0.  1.
       -5    1    3    3    0  502  0.15332524300E+03 -0.30618123233E+03  0.42572884837E+03  0.54637232681E+03  0.46999998093E+01 0. -1.
</event>
<event>
 5   0  0.1233912E-02  0.7080962E+03  0.7818609E-02  0.9703486E-01
       -3   -1    0    0    0  501  0.00000000000E+00  0.00000000000E+00  0.17575074753E+03  0.17575077656E+03  0.10100000352E+00 0.  1.
        3   -1    0    0  501    0  0.00000000000E+00  0.00000000000E+00 -0.71322627535E+03  0.71322628250E+03  0.10100000352E+00 0. -1.
    10030    2    1    2    0    0  0.00000000000E+00  0.00000000000E+00 -0.53747552781E+03  0.88897705905E+03  0.70809622830E+03 0.  0.
        4    1    3    3  502    0  0.26761987024E+03  0.99692565576E+02 -0.60238793839E+01  0.28565171556E+03  0.12699999809E+01 0.  1.
       -4    1    3    3    0  502 -0.26761987024E+03 -0.99692565576E+02 -0.53145164843E+03  0.60332534349E+03  0.12699999809E+01 0. -1.
</event>
<event>
 5   0  0.1951465E-02  0.6869071E+03  0.7818609E-02  0.9739889E-01
       -1   -1    0    0    0  501  0.00000000000E+00  0.00000000000E+00  0.49138546816E+03  0.49138546819E+03  0.50400001928E-02 0. -1.
        1   -1    0    0  501    0  0.00000000000E+00  0.00000000000E+00 -0.24005662446E+03  0.24005662452E+03  0.50400001928E-02 0.  1.
    10030    2    1    2    0    0  0.00000000000E+00  0.00000000000E+00  0.25132884370E+03  0.73144209270E+03  0.68690708782E+03 0.  0.
        4    1    3    3  502    0  0.24140185798E+03  0.24429276628E+03  0.12330461180E+03  0.36491019839E+03  0.12699999809E+01 0. -1.
       -4    1    3    3    0  502 -0.24140185798E+03 -0.24429276628E+03  0.12802423189E+03  0.36653189431E+03  0.12699999809E+01 0.  1.
</event>
<event>
 5   0  0.2933851E-02  0.6807099E+03  0.7818609E-02  0.9750802E-01
       -2   -1    0    0    0  501  0.00000000000E+00  0.00000000000E+00  0.38324329051E+03  0.38324329052E+03  0.25500000920E-02 0.  1.
        2   -1    0    0  501    0  0.00000000000E+00  0.00000000000E+00 -0.30226621651E+03  0.30226621652E+03  0.25500000920E-02 0. -1.
    10030    2    1    2    0    0  0.00000000000E+00  0.00000000000E+00  0.80977074003E+02  0.68550950703E+03  0.68070992186E+03 0.  0.
        2    1    3    3  502    0  0.16461206769E+03 -0.28037327638E+03  0.14187206547E+03  0.35473086968E+03  0.25500000920E-02 0.  1.
       -2    1    3    3    0  502 -0.16461206769E+03  0.28037327638E+03 -0.60894991472E+02  0.33077863735E+03  0.25500000920E-02 0. -1.
</event>
<event>
 5   0  0.3184443E-02  0.6975364E+03  0.7818609E-02  0.9721455E-01
       -2   -1    0    0    0  501  0.00000000000E+00  0.00000000000E+00  0.12092315815E+03  0.12092315818E+03  0.25500000920E-02 0.  1.
        2   -1    0    0  501    0  0.00000000000E+00  0.00000000000E+00 -0.10059219418E+04  0.10059219418E+04  0.25500000920E-02 0. -1.
    10030    2    1    2    0    0  0.00000000000E+00  0.00000000000E+00 -0.88499878365E+03  0.11268451000E+04  0.69753640213E+03 0.  0.
        3    1    3    3  502    0  0.24524291823E+03 -0.24190665681E+03 -0.35436655245E+03  0.49420500124E+03  0.10100000352E+00 0. -1.
       -3    1    3    3    0  502 -0.24524291823E+03  0.24190665681E+03 -0.53063223120E+03  0.63264009874E+03  0.10100000352E+00 0.  1.
</event>
<event>
 5   0  0.1839038E-02  0.6979933E+03  0.7818609E-02  0.9720670E-01
       -1   -1    0    0    0  501  0.00000000000E+00  0.00000000000E+00  0.10980266340E+04  0.10980266341E+04  0.50400001928E-02 0.  1.
        1   -1    0    0  501    0  0.00000000000E+00  0.00000000000E+00 -0.11092505634E+03  0.11092505645E+03  0.50400001928E-02 0. -1.
    10030    2    1    2    0    0  0.00000000000E+00  0.00000000000E+00  0.98710157770E+03  0.12089516905E+04  0.69799331320E+03 0.  0.
        5    1    3    3  502    0 -0.20416199911E+03  0.53903633636E+02  0.97476115888E+03  0.99738113600E+03  0.46999998093E+01 0.  1.
       -5    1    3    3    0  502  0.20416199911E+03 -0.53903633636E+02  0.12340418826E+02  0.21157055451E+03  0.46999998093E+01 0. -1.
</event>
<event>
 5   0  0.1233912E-02  0.6284034E+03  0.7818609E-02  0.9848169E-01
        4   -1    0    0  501    0  0.00000000000E+00  0.00000000000E+00  0.20549727362E+03  0.20550119796E+03  0.12699999809E+01 0.  1.
       -4   -1    0    0    0  501  0.00000000000E+00  0.00000000000E+00 -0.48039943230E+03  0.48040111101E+03  0.12699999809E+01 0. -1.
    10030    2    1    2    0    0  0.00000000000E+00  0.00000000000E+00 -0.27490215868E+03  0.68590230897E+03  0.62840335820E+03 0.  0.
        4    1    3    3  502    0 -0.10531388651E+03  0.21500981802E+02 -0.45970762591E+03  0.47210806086E+03  0.12699999809E+01 0. -1.
       -4    1    3    3    0  502  0.10531388651E+03 -0.21500981802E+02  0.18480546723E+03  0.21379424811E+03  0.12699999809E+01 0.  1.
</event>
<event>
 5   0  0.3183963E-02  0.7045256E+03  0.7818609E-02  0.9709524E-01
       -2   -1    0    0    0  501  0.00000000000E+00  0.00000000000E+00  0.11747645474E+03  0.11747645477E+03  0.25500000920E-02 0. -1.
        2   -1    0    0  501    0  0.00000000000E+00  0.00000000000E+00 -0.10562889066E+04  0.10562889066E+04  0.25500000920E-02 0.  1.
    10030    2    1    2    0    0  0.00000000000E+00  0.00000000000E+00 -0.93881245188E+03  0.11737653614E+04  0.70452558776E+03 0.  0.
        4    1    3    3  502    0  0.40617344581E+02  0.88957803414E+02 -0.10332167242E+04  0.10378350888E+04  0.12699999809E+01 0.  1.
       -4    1    3    3    0  502 -0.40617344581E+02 -0.88957803414E+02  0.94404272338E+02  0.13593027258E+03  0.12699999809E+01 0. -1.
</event>
<event>
 5   0  0.2933851E-02  0.6881506E+03  0.7818609E-02  0.9737713E-01
       -2   -1    0    0    0  501  0.00000000000E+00  0.00000000000E+00  0.45080177603E+02  0.45080177675E+02  0.25500000920E-02 0.  1.
        2   -1    0    0  501    0  0.00000000000E+00  0.00000000000E+00 -0.26261615097E+04  0.26261615097E+04  0.25500000920E-02 0. -1.
    10030    2    1    2    0    0  0.00000000000E+00  0.00000000000E+00 -0.25810813321E+04  0.26712416874E+04  0.68815064447E+03 0.  0.
        2    1    3    3  502    0 -0.20063372520E+03  0.44764414736E+02 -0.21949542967E+03  0.30072576904E+03  0.25500000920E-02 0.  1.
       -2    1    3    3    0  502  0.20063372520E+03 -0.44764414736E+02 -0.23615859025E+04  0.23705159184E+04  0.25500000920E-02 0. -1.
</event>
<event>
 5   0  0.1858013E-02  0.7016320E+03  0.7818609E-02  0.9714445E-01
       -1   -1    0    0    0  501  0.00000000000E+00  0.00000000000E+00  0.10261141595E+03  0.10261141607E+03  0.50400001928E-02 0.  1.
        1   -1    0    0  501    0  0.00000000000E+00  0.00000000000E+00 -0.11993975625E+04  0.11993975625E+04  0.50400001928E-02 0. -1.
    10030    2    1    2    0    0  0.00000000000E+00  0.00000000000E+00 -0.10967861465E+04  0.13020089786E+04  0.70163204675E+03 0.  0.
        2    1    3    3  502    0  0.11661197937E+03 -0.28978002394E+03 -0.25205753905E+03  0.40137740221E+03  0.25500000920E-02 0.  1.
       -2    1    3    3    0  502 -0.11661197937E+03  0.28978002394E+03 -0.84472860747E+03  0.90063157634E+03  0.25500000920E-02 0. -1.
</event>
<event>
 5   0  0.2933851E-02  0.7069338E+03  0.7818609E-02  0.9705447E-01
       -2   -1    0    0    0  501  0.00000000000E+00  0.00000000000E+00  0.53977942745E+02  0.53977942805E+02  0.25500000920E-02 0. -1.
        2   -1    0    0  501    0  0.00000000000E+00  0.00000000000E+00 -0.23146279334E+04  0.23146279334E+04  0.25500000920E-02 0.  1.
    10030    2    1    2    0    0  0.00000000000E+00  0.00000000000E+00 -0.22606499907E+04  0.23686058762E+04  0.70693381342E+03 0.  0.
        2    1    3    3  502    0  0.29384826131E+03  0.19993899680E+02 -0.17851148463E+04  0.18092488970E+04  0.25500000920E-02 0. -1.
       -2    1    3    3    0  502 -0.29384826131E+03 -0.19993899680E+02 -0.47553514436E+03  0.55935697925E+03  0.25500000920E-02 0.  1.
</event>
<event>
 5   0  0.3113940E-02  0.7137599E+03  0.7818609E-02  0.9693986E-01
       -2   -1    0    0    0  501  0.00000000000E+00  0.00000000000E+00  0.11519172496E+03  0.11519172499E+03  0.25500000920E-02 0.  1.
        2   -1    0    0  501    0  0.00000000000E+00  0.00000000000E+00 -0.11056636142E+04  0.11056636142E+04  0.25500000920E-02 0. -1.
    10030    2    1    2    0    0  0.00000000000E+00  0.00000000000E+00 -0.99047188922E+03  0.12208553392E+04  0.71375990071E+03 0.  0.
        5    1    3    3  502    0 -0.13125288517E+03 -0.64143421761E+02 -0.10521189843E+04  0.10622232089E+04  0.46999998093E+01 0. -1.
       -5    1    3    3    0  502  0.13125288517E+03  0.64143421761E+02  0.61647095090E+02  0.15863213026E+03  0.46999998093E+01 0.  1.
</event>
<event>
 5   0  0.3183963E-02  0.6952315E+03  0.7818609E-02  0.9725422E-01
        2   -1    0    0  501    0  0.00000000000E+00  0.00000000000E+00  0.41916673900E+03  0.41916673901E+03  0.25500000920E-02 0. -1.
       -2   -1    0    0    0  501  0.00000000000E+00  0.00000000000E+00 -0.28827840266E+03  0.28827840267E+03  0.25500000920E-02 0.  1.
    10030    2    1    2    0    0  0.00000000000E+00  0.00000000000E+00  0.13088833634E+03  0.70744514168E+03  0.69523152395E+03 0.  0.
        4    1    3    3  502    0 -0.31292223005E+03 -0.42781094277E+02 -0.82311991113E+02  0.32638538703E+03  0.12699999809E+01 0.  1.
       -4    1    3    3    0  502  0.31292223005E+03  0.42781094277E+02  0.21320032745E+03  0.38105975465E+03  0.12699999809E+01 0. -1.
</event>
<event>
 5   0  0.2933851E-02  0.6937163E+03  0.7818609E-02  0.9728039E-01
        2   -1    0    0  501    0  0.00000000000E+00  0.00000000000E+00  0.59878329983E+03  0.59878329984E+03  0.25500000920E-02 0. -1.
       -2   -1    0    0    0  501  0.00000000000E+00  0.00000000000E+00 -0.20092507787E+03  0.20092507789E+03  0.25500000920E-02 0.  1.
    10030    2    1    2    0    0  0.00000000000E+00  0.00000000000E+00  0.39785822196E+03  0.79970837773E+03  0.69371631423E+03 0.  0.
        2    1    3    3  502    0 -0.29778513601E+03  0.58961763329E+02  0.54868119856E+01  0.30361584589E+03  0.25500000920E-02 0. -1.
       -2    1    3    3    0  502  0.29778513601E+03 -0.58961763329E+02  0.39237140998E+03  0.49609253183E+03  0.25500000920E-02 0.  1.
</event>
<event>
 5   0  0.1233912E-02  0.6999804E+03  0.7818609E-02  0.9717266E-01
       -4   -1    0    0    0  501  0.00000000000E+00  0.00000000000E+00  0.33272740422E+03  0.33272982797E+03  0.12699999809E+01 0. -1.
        4   -1    0    0  501    0  0.00000000000E+00  0.00000000000E+00 -0.36814381940E+03  0.36814600997E+03  0.12699999809E+01 0.  1.
    10030    2    1    2    0    0  0.00000000000E+00  0.00000000000E+00 -0.35416415173E+02  0.70087583794E+03  0.69998044098E+03 0.  0.
        2    1    3    3  502    0  0.30585183632E+03 -0.80482630068E+02  0.13238469257E+03  0.34285347651E+03  0.25500000920E-02 0.  1.
       -2    1    3    3    0  502 -0.30585183632E+03  0.80482630068E+02 -0.16780110774E+03  0.35802236143E+03  0.25500000920E-02 0. -1.
</event>
<event>
 5   0  0.1969818E-02  0.7028127E+03  0.7818609E-02  0.9712434E-01
       -1   -1    0    0    0  501  0.00000000000E+00  0.00000000000E+00  0.41411665973E+03  0.41411665976E+03  0.50400001928E-02 0. -1.
        1   -1    0    0  501    0  0.00000000000E+00  0.00000000000E+00 -0.29819235986E+03  0.29819235990E+03  0.50400001928E-02 0.  1.
    10030    2    1    2    0    0  0.00000000000E+00  0.00000000000E+00  0.11592429987E+03  0.71230901966E+03  0.70281270349E+03 0.  0.
        1    1    3    3  502    0  0.34956879875E+03  0.18821586530E+02  0.26990665729E+02  0.35111407440E+03  0.50400001928E-02 0.  1.
       -1    1    3    3    0  502 -0.34956879875E+03 -0.18821586530E+02  0.88933634143E+02  0.36119494526E+03  0.50400001928E-02 0. -1.
</event>
<event>
 5   0  0.3184443E-02  0.7037203E+03  0.7818609E-02  0.9710891E-01
        2   -1    0    0  501    0  0.00000000000E+00  0.00000000000E+00  0.59843324974E+03  0.59843324974E+03  0.25500000920E-02 0. -1.
       -2   -1    0    0    0  501  0.00000000000E+00  0.00000000000E+00 -0.20688283961E+03  0.20688283962E+03  0.25500000920E-02 0.  1.
    10030    2    1    2    0    0  0.00000000000E+00  0.00000000000E+00  0.39155041013E+03  0.80531608937E+03  0.70372031384E+03 0.  0.
        3    1    3    3  502    0 -0.16607037488E+02  0.16950146709E+03 -0.15656987312E+03  0.23134536176E+03  0.10100000352E+00 0.  1.
       -3    1    3    3    0  502  0.16607037488E+02 -0.16950146709E+03  0.54812028325E+03  0.57397072761E+03  0.10100000352E+00 0. -1.
</event>
<event>
 5   0  0.1969818E-02  0.7011949E+03  0.7818609E-02  0.9715191E-01
       -1   -1    0    0    0  501  0.00000000000E+00  0.00000000000E+00  0.95119714268E+02  0.95119714402E+02  0.50400001928E-02 0. -1.
        1   -1    0    0  501    0  0.00000000000E+00  0.00000000000E+00 -0.12922514336E+04  0.12922514336E+04  0.50400001928E-02 0.  1.
    10030    2    1    2    0    0  0.00000000000E+00  0.00000000000E+00 -0.11971317193E+04  0.13873711480E+04  0.70119494358E+03 0.  0.
        1    1    3    3  502    0 -0.29155781486E+02  0.34847322383E+03 -0.64842217586E+03  0.73670548084E+03  0.50400001928E-02 0.  1.
       -1    1    3    3    0  502  0.29155781486E+02 -0.34847322383E+03 -0.54870954348E+03  0.65066566719E+03  0.50400001928E-02 0. -1.
</event>
<event>
 5   0  0.2933851E-02  0.7012714E+03  0.7818609E-02  0.9715060E-01
       -2   -1    0    0    0  501  0.00000000000E+00  0.00000000000E+00  0.31514295494E+03  0.31514295495E+03  0.25500000920E-02 0. -1.
        2   -1    0    0  501    0  0.00000000000E+00  0.00000000000E+00 -0.39012573837E+03  0.39012573838E+03  0.25500000920E-02 0.  1.
    10030    2    1    2    0    0  0.00000000000E+00  0.00000000000E+00 -0.74982783425E+02  0.70526869333E+03  0.70127135403E+03 0.  0.
        2    1    3    3  502    0  0.84216794933E+01  0.27521394666E+03 -0.25582733125E+03  0.37584739528E+03  0.25500000920E-02 0.  1.
       -2    1    3    3    0  502 -0.84216794933E+01 -0.27521394666E+03  0.18084454782E+03  0.32942129804E+03  0.25500000920E-02 0. -1.
</event>
<event>
 5   0  0.3113940E-02  0.6990025E+03  0.7818609E-02  0.9718939E-01
        2   -1    0    0  501    0  0.00000000000E+00  0.00000000000E+00  0.17962413420E+03  0.17962413422E+03  0.25500000920E-02 0.  1.
       -2   -1    0    0    0  501  0.00000000000E+00  0.00000000000E+00 -0.68003745211E+03  0.68003745211E+03  0.25500000920E-02 0. -1.
    10030    2    1    2    0    0  0.00000000000E+00  0.00000000000E+00 -0.50041331791E+03  0.85966158633E+03  0.69900254239E+03 0.  0.
        5    1    3    3  502    0  0.36647244161E+02  0.24092657936E+03 -0.55825753391E+03  0.60914875139E+03  0.46999998093E+01 0. -1.
       -5    1    3    3    0  502 -0.36647244161E+02 -0.24092657936E+03  0.57844216004E+02  0.25051283494E+03  0.46999998093E+01 0.  1.
</event>
<event>
 5   0  0.1969818E-02  0.7014218E+03  0.7818609E-02  0.9714804E-01
       -1   -1    0    0    0  501  0.00000000000E+00  0.00000000000E+00  0.83535956510E+02  0.83535956662E+02  0.50400001928E-02 0. -1.
        1   -1    0    0  501    0  0.00000000000E+00  0.00000000000E+00 -0.14723975650E+04  0.14723975650E+04  0.50400001928E-02 0.  1.
    10030    2    1    2    0    0  0.00000000000E+00  0.00000000000E+00 -0.13888616085E+04  0.15559335216E+04  0.70142181055E+03 0.  0.
        1    1    3    3  502    0  0.28195924559E+03 -0.56708336066E+02 -0.11396392999E+04  0.11753699781E+04  0.50400001928E-02 0.  1.
       -1    1    3    3    0  502 -0.28195924559E+03  0.56708336066E+02 -0.24922230856E+03  0.38056354353E+03  0.50400001928E-02 0. -1.
</event>
<event>
 5   0  0.1951465E-02  0.7007409E+03  0.7818609E-02  0.9715966E-01
       -1   -1    0    0    0  501  0.00000000000E+00  0.00000000000E+00  0.10148071504E+03  0.10148071517E+03  0.50400001928E-02 0.  1.
        1   -1    0    0  501    0  0.00000000000E+00  0.00000000000E+00 -0.12096825618E+04  0.12096825618E+04  0.50400001928E-02 0. -1.
    10030    2    1    2    0    0  0.00000000000E+00  0.00000000000E+00 -0.11082018467E+04  0.13111632770E+04  0.70074089772E+03 0.  0.
        4    1    3    3  502    0 -0.24463793958E+03 -0.32395579823E+02 -0.10194796515E+04  0.10489220981E+04  0.12699999809E+01 0. -1.
       -4    1    3    3    0  502  0.24463793958E+03  0.32395579823E+02 -0.88722195206E+02  0.26224117887E+03  0.12699999809E+01 0.  1.
</event>
<event>
 5   0  0.1884172E-02  0.7065056E+03  0.7818609E-02  0.9706171E-01
        1   -1    0    0  501    0  0.00000000000E+00  0.00000000000E+00  0.11456236754E+04  0.11456236754E+04  0.50400001928E-02 0. -1.
       -1   -1    0    0    0  501  0.00000000000E+00  0.00000000000E+00 -0.10892541422E+03  0.10892541434E+03  0.50400001928E-02 0.  1.
    10030    2    1    2    0    0  0.00000000000E+00  0.00000000000E+00  0.10366982612E+04  0.12545490898E+04  0.70650557951E+03 0.  0.
        3    1    3    3  502    0 -0.29962820518E+03 -0.31035807694E+02  0.19069697961E+03  0.35651876659E+03  0.10100000352E+00 0.  1.
       -3    1    3    3    0  502  0.29962820518E+03  0.31035807694E+02  0.84600128159E+03  0.89803032319E+03  0.10100000352E+00 0. -1.
</event>
<event>
 5   0  0.1233912E-02  0.6958949E+03  0.7818609E-02  0.9724278E-01
       -3   -1    0    0    0  501  0.00000000000E+00  0.00000000000E+00  0.67457456166E+03  0.67457456922E+03  0.10100000352E+00 0.  1.
        3   -1    0    0  501    0  0.00000000000E+00  0.00000000000E+00 -0.17947226535E+03  0.17947229377E+03  0.10100000352E+00 0. -1.
    10030    2    1    2    0    0  0.00000000000E+00  0.00000000000E+00  0.49510229631E+03  0.85404686299E+03  0.69589493486E+03 0.  0.
        4    1    3    3  502    0  0.72874054517E+01 -0.28689416697E+03  0.48899631747E+03  0.56699239917E+03  0.12699999809E+01 0.  1.
       -4    1    3    3    0  502 -0.72874054517E+01  0.28689416697E+03  0.61059788464E+01  0.28705446382E+03  0.12699999809E+01 0. -1.
</event>
<event>
 5   0  0.1839038E-02  0.7005665E+03  0.7818609E-02  0.9716264E-01
       -1   -1    0    0    0  501  0.00000000000E+00  0.00000000000E+00  0.28068016678E+03  0.28068016682E+03  0.50400001928E-02 0. -1.
        1   -1    0    0  501    0  0.00000000000E+00  0.00000000000E+00 -0.43714649202E+03  0.43714649205E+03  0.50400001928E-02 0.  1.
    10030    2    1    2    0    0  0.00000000000E+00  0.00000000000E+00 -0.15646632525E+03  0.71782665888E+03  0.70056648597E+03 0.  0.
        5    1    3    3  502    0 -0.42657689370E+02  0.32743113976E+03  0.41458485665E+02  0.33282386600E+03  0.46999998093E+01 0. -1.
       -5    1    3    3    0  502  0.42657689370E+02 -0.32743113976E+03 -0.19792481091E+03  0.38500279288E+03  0.46999998093E+01 0.  1.
</event>
<event>
 5   0  0.1884172E-02  0.6980423E+03  0.7818609E-02  0.9720586E-01
        1   -1    0    0  501    0  0.00000000000E+00  0.00000000000E+00  0.14278682405E+04  0.14278682405E+04  0.50400001928E-02 0.  1.
       -1   -1    0    0    0  501  0.00000000000E+00  0.00000000000E+00 -0.85313017990E+02  0.85313018139E+02  0.50400001928E-02 0. -1.
    10030    2    1    2    0    0  0.00000000000E+00  0.00000000000E+00  0.13425552225E+04  0.15131812586E+04  0.69804225949E+03 0.  0.
        3    1    3    3  502    0 -0.28204816060E+03  0.16527501014E+02  0.22706641971E+03  0.36246860878E+03  0.10100000352E+00 0. -1.
       -3    1    3    3    0  502  0.28204816060E+03 -0.16527501014E+02  0.11154888028E+04  0.11507126499E+04  0.10100000352E+00 0.  1.
</event>
<event>
 5   0  0.3113940E-02  0.6961351E+03  0.7818609E-02  0.9723865E-01
        2   -1    0    0  501    0  0.00000000000E+00  0.00000000000E+00  0.59545105725E+03  0.59545105726E+03  0.25500000920E-02 0.  1.
       -2   -1    0    0    0  501  0.00000000000E+00  0.00000000000E+00 -0.20346090623E+03  0.20346090624E+03  0.25500000920E-02 0. -1.
    10030    2    1    2    0    0  0.00000000000E+00  0.00000000000E+00  0.39199015103E+03  0.79891196350E+03  0.69613507807E+03 0.  0.
        5    1    3    3  502    0  0.22093015636E+03 -0.13931914254E+03  0.45997447486E+03  0.52897879446E+03  0.46999998093E+01 0. -1.
       -5    1    3    3    0  502 -0.22093015636E+03  0.13931914254E+03 -0.67984323831E+02  0.26993316905E+03  0.46999998093E+01 0.  1.
</event>
<event>
 5   0  0.1233912E-02  0.7176219E+03  0.7818609E-02  0.9687562E-01
        3   -1    0    0  501    0  0.00000000000E+00  0.00000000000E+00  0.90530239935E+02  0.90530296275E+02  0.10100000352E+00 0.  1.
       -3   -1    0    0    0  501  0.00000000000E+00  0.00000000000E+00 -0.14221243068E+04  0.14221243104E+04  0.10100000352E+00 0. -1.
    10030    2    1    2    0    0  0.00000000000E+00  0.00000000000E+00 -0.13315940669E+04  0.15126546067E+04  0.71762190613E+03 0.  0.
        5    1    3    3  502    0 -0.24482753930E+03  0.17429657575E+03 -0.10788719907E+04  0.11199583397E+04  0.46999998093E+01 0. -1.
       -5    1    3    3    0  502  0.24482753930E+03 -0.17429657575E+03 -0.25272207618E+03  0.39269626699E+03  0.46999998093E+01 0.  1.
</event>
<event>
 5   0  0.1839038E-02  0.6985845E+03  0.7818609E-02  0.9719656E-01
       -1   -1    0    0    0  501  0.00000000000E+00  0.00000000000E+00  0.34248004268E+03  0.34248004272E+03  0.50400001928E-02 0.  1.
        1   -1    0    0  501    0  0.00000000000E+00  0.00000000000E+00 -0.35623996604E+03  0.35623996608E+03  0.50400001928E-02 0. -1.
    10030    2    1    2    0    0  0.00000000000E+00  0.00000000000E+00 -0.13759923359E+02  0.69872000879E+03  0.69858450827E+03 0.  0.
        5    1    3    3  502    0 -0.28174107710E+03  0.83315872779E+01  0.19940149966E+03  0.34529769466E+03  0.46999998093E+01 0.  1.
       -5    1    3    3    0  502  0.28174107710E+03 -0.83315872779E+01 -0.21316142302E+03  0.35342231414E+03  0.46999998093E+01 0. -1.
</event>
<event>
 5   0  0.3113940E-02  0.7062476E+03  0.7818609E-02  0.9706607E-01
        2   -1    0    0  501    0  0.00000000000E+00  0.00000000000E+00  0.17444014633E+04  0.17444014633E+04  0.25500000920E-02 0.  1.
       -2   -1    0    0    0  501  0.00000000000E+00  0.00000000000E+00 -0.71483788600E+02  0.71483788646E+02  0.25500000920E-02 0. -1.
    10030    2    1    2    0    0  0.00000000000E+00  0.00000000000E+00  0.16729176747E+04  0.18158852520E+04  0.70624762083E+03 0.  0.
        5    1    3    3  502    0 -0.13188167305E+03 -0.31515828024E+03  0.10658100925E+04  0.11192366865E+04  0.46999998093E+01 0. -1.
       -5    1    3    3    0  502  0.13188167305E+03  0.31515828024E+03  0.60710758225E+03  0.69664856543E+03  0.46999998093E+01 0.  1.
</event>
<event>
 5   0  0.1951465E-02  0.6717060E+03  0.7818609E-02  0.9766881E-01
       -1   -1    0    0    0  501  0.00000000000E+00  0.00000000000E+00  0.11779753301E+03  0.11779753312E+03  0.50400001928E-02 0.  1.
        1   -1    0    0  501    0  0.00000000000E+00  0.00000000000E+00 -0.95755174966E+03  0.95755174968E+03  0.50400001928E-02 0. -1.
    10030    2    1    2    0    0  0.00000000000E+00  0.00000000000E+00 -0.83975421665E+03  0.10753492828E+04  0.67170598897E+03 0.  0.
        4    1    3    3  502    0 -0.25868571746E+03 -0.90897734618E+02 -0.10938510852E+03  0.29520740750E+03  0.12699999809E+01 0.  1.
       -4    1    3    3    0  502  0.25868571746E+03  0.90897734618E+02 -0.73036910814E+03  0.78014187530E+03  0.12699999809E+01 0. -1.
</event>
<event>
 5   0  0.1839038E-02  0.6949061E+03  0.7818609E-02  0.9725983E-01
       -1   -1    0    0    0  501  0.00000000000E+00  0.00000000000E+00  0.83943887604E+03  0.83943887605E+03  0.50400001928E-02 0. -1.
        1   -1    0    0  501    0  0.00000000000E+00  0.00000000000E+00 -0.14381465150E+03  0.14381465159E+03  0.50400001928E-02 0.  1.
    10030    2    1    2    0    0  0.00000000000E+00  0.00000000000E+00  0.69562422453E+03  0.98325352764E+03  0.69490606406E+03 0.  0.
        5    1    3    3  502    0 -0.95242271221E+02 -0.26272453416E+03  0.55749436896E+02  0.28500063296E+03  0.46999998093E+01 0.  1.
       -5    1    3    3    0  502  0.95242271221E+02  0.26272453416E+03  0.63987478764E+03  0.69825289468E+03  0.46999998093E+01 0. -1.
</event>
<event>
 5   0  0.3184443E-02  0.6974584E+03  0.7818609E-02  0.9721589E-01
       -2   -1    0    0    0  501  0.00000000000E+00  0.00000000000E+00  0.22894215903E+03  0.22894215904E+03  0.25500000920E-02 0. -1.
        2   -1    0    0  501    0  0.00000000000E+00  0.00000000000E+00 -0.53119113850E+03  0.53119113850E+03  0.25500000920E-02 0.  1.
    10030    2    1    2    0    0  0.00000000000E+00  0.00000000000E+00 -0.30224897947E+03  0.76013329755E+03  0.69745837471E+03 0.  0.
        3    1    3    3  502    0 -0.21133174275E+03 -0.24866481187E+03 -0.28512318223E+03  0.43334805111E+03  0.10100000352E+00 0.  1.
       -3    1    3    3    0  502  0.21133174275E+03  0.24866481187E+03 -0.17125797235E+02  0.32678524643E+03  0.10100000352E+00 0. -1.
</event>
<event>
 5   0  0.3113940E-02  0.6994476E+03  0.7818609E-02  0.9718177E-01
       -2   -1    0    0    0  501  0.00000000000E+00  0.00000000000E+00  0.10713881380E+03  0.10713881383E+03  0.25500000920E-02 0. -1.
        2   -1    0    0  501    0  0.00000000000E+00  0.00000000000E+00 -0.11415727693E+04  0.11415727693E+04  0.25500000920E-02 0.  1.
    10030    2    1    2    0    0  0.00000000000E+00  0.00000000000E+00 -0.10344339555E+04  0.12487115832E+04  0.69944764605E+03 0.  0.
        5    1    3    3  502    0 -0.69787758857E+02 -0.33876776962E+03 -0.42530129391E+03  0.54821274485E+03  0.46999998093E+01 0. -1.
       -5    1    3    3    0  502  0.69787758857E+02  0.33876776962E+03 -0.60913266161E+03  0.70049883830E+03  0.46999998093E+01 0.  1.
</event>
<event>
 5   0  0.1233912E-02  0.7162131E+03  0.7818609E-02  0.9689900E-01
       -3   -1    0    0    0  501  0.00000000000E+00  0.00000000000E+00  0.41832623127E+03  0.41832624347E+03  0.10100000352E+00 0. -1.
        3   -1    0    0  501    0  0.00000000000E+00  0.00000000000E+00 -0.30655571383E+03  0.30655573047E+03  0.10100000352E+00 0.  1.
    10030    2    1    2    0    0  0.00000000000E+00  0.00000000000E+00  0.11177051744E+03  0.72488197394E+03  0.71621311603E+03 0.  0.
        2    1    3    3  502    0 -0.32551434945E+03 -0.13078086762E+03 -0.16937556124E+02  0.35121234011E+03  0.25500000920E-02 0.  1.
       -2    1    3    3    0  502  0.32551434945E+03  0.13078086762E+03  0.12870807357E+03  0.37366963382E+03  0.25500000920E-02 0. -1.
</event>
<event>
 5   0  0.3183963E-02  0.6173523E+03  0.7818609E-02  0.9870046E-01
       -2   -1    0    0    0  501  0.00000000000E+00  0.00000000000E+00  0.11065842622E+03  0.11065842625E+03  0.25500000920E-02 0. -1.
        2   -1    0    0  501    0  0.00000000000E+00  0.00000000000E+00 -0.86103661765E+03  0.86103661765E+03  0.25500000920E-02 0.  1.
    10030    2    1    2    0    0  0.00000000000E+00  0.00000000000E+00 -0.75037819143E+03  0.97169504390E+03  0.61735227234E+03 0.  0.
        4    1    3    3  502    0  0.12807234280E+03 -0.56711330882E+01  0.66771013067E+02  0.14454988006E+03  0.12699999809E+01 0. -1.
       -4    1    3    3    0  502 -0.12807234280E+03  0.56711330882E+01 -0.81714920450E+03  0.82714516383E+03  0.12699999809E+01 0.  1.
</event>
<event>
 5   0  0.1969818E-02  0.7030560E+03  0.7818609E-02  0.9712020E-01
       -1   -1    0    0    0  501  0.00000000000E+00  0.00000000000E+00  0.61413983734E+03  0.61413983736E+03  0.50400001928E-02 0. -1.
        1   -1    0    0  501    0  0.00000000000E+00  0.00000000000E+00 -0.20121139515E+03  0.20121139522E+03  0.50400001928E-02 0.  1.
    10030    2    1    2    0    0  0.00000000000E+00  0.00000000000E+00  0.41292844219E+03  0.81535123258E+03  0.70305599642E+03 0.  0.
        1    1    3    3  502    0  0.31809004488E+03 -0.27495766097E+02  0.37704482545E+03  0.49406486844E+03  0.50400001928E-02 0. -1.
       -1    1    3    3    0  502 -0.31809004488E+03  0.27495766097E+02  0.35883616736E+02  0.32128636414E+03  0.50400001928E-02 0.  1.
</event>
<event>
 5   0  0.1858013E-02  0.6995176E+03  0.7818609E-02  0.9718057E-01
       -1   -1    0    0    0  501  0.00000000000E+00  0.00000000000E+00  0.29781631175E+03  0.29781631179E+03  0.50400001928E-02 0. -1.
        1   -1    0    0  501    0  0.00000000000E+00  0.00000000000E+00 -0.41076068231E+03  0.41076068234E+03  0.50400001928E-02 0.  1.
    10030    2    1    2    0    0  0.00000000000E+00  0.00000000000E+00 -0.11294437057E+03  0.70857699413E+03  0.69951763793E+03 0.  0.
        2    1    3    3  502    0  0.16343405833E+03  0.30818963515E+03 -0.82091809262E+02  0.35837216381E+03  0.25500000920E-02 0.  1.
       -2    1    3    3    0  502 -0.16343405833E+03 -0.30818963515E+03 -0.30852561304E+02  0.35020483033E+03  0.25500000920E-02 0. -1.
</event>
<event>
 5   0  0.1951465E-02  0.7016066E+03  0.7818609E-02  0.9714489E-01
        1   -1    0    0  501    0  0.00000000000E+00  0.00000000000E+00  0.19257225973E+04  0.19257225973E+04  0.50400001928E-02 0. -1.
       -1   -1    0    0    0  501  0.00000000000E+00  0.00000000000E+00 -0.63904819641E+02  0.63904819840E+02  0.50400001928E-02 0.  1.
    10030    2    1    2    0    0  0.00000000000E+00  0.00000000000E+00  0.18618177777E+04  0.19896274172E+04  0.70160660050E+03 0.  0.
        4    1    3    3  502    0 -0.13231358792E+03  0.13092550851E+03  0.87698252004E+02  0.20576921691E+03  0.12699999809E+01 0.  1.
       -4    1    3    3    0  502  0.13231358792E+03 -0.13092550851E+03  0.17741195257E+04  0.17838582003E+04  0.12699999809E+01 0. -1.
</event>
<event>
 5   0  0.1951465E-02  0.7000580E+03  0.7818609E-02  0.9717133E-01
        1   -1    0    0  501    0  0.00000000000E+00  0.00000000000E+00  0.42421898557E+03  0.42421898560E+03  0.50400001928E-02 0.  1.
       -1   -1    0    0    0  501  0.00000000000E+00  0.00000000000E+00 -0.28881379030E+03  0.28881379034E+03  0.50400001928E-02 0. -1.
    10030    2    1    2    0    0  0.00000000000E+00  0.00000000000E+00  0.13540519527E+03  0.71303277594E+03  0.70005797807E+03 0.  0.
        4    1    3    3  502    0 -0.20840535078E+01 -0.12103575457E+03 -0.26681203524E+03  0.29299193199E+03  0.12699999809E+01 0. -1.
       -4    1    3    3    0  502  0.20840535078E+01  0.12103575457E+03  0.40221723051E+03  0.42004084395E+03  0.12699999809E+01 0.  1.
</event>
<event>
 5   0  0.1969818E-02  0.6455270E+03  0.7818609E-02  0.9815209E-01
       -1   -1    0    0    0  501  0.00000000000E+00  0.00000000000E+00  0.24027135931E+03  0.24027135936E+03  0.50400001928E-02 0. -1.
        1   -1    0    0  501    0  0.00000000000E+00  0.00000000000E+00 -0.43357755386E+03  0.43357755388E+03  0.50400001928E-02 0.  1.
    10030    2    1    2    0    0  0.00000000000E+00  0.00000000000E+00 -0.19330619455E+03  0.67384891325E+03  0.64552697312E+03 0.  0.
        1    1    3    3  502    0 -0.12713613615E+03 -0.53753733191E+02  0.20790638659E+03  0.24955585859E+03  0.50400001928E-02 0. -1.
       -1    1    3    3    0  502  0.12713613615E+03  0.53753733191E+02 -0.40121258113E+03  0.42429305466E+03  0.50400001928E-02 0.  1.
</event>
<event>
 5   0  0.1839038E-02  0.7114764E+03  0.7818609E-02  0.9697805E-01
        1   -1    0    0  501    0  0.00000000000E+00  0.00000000000E+00  0.18567160638E+03  0.18567160645E+03  0.50400001928E-02 0.  1.
       -1   -1    0    0    0  501  0.00000000000E+00  0.00000000000E+00 -0.68157789158E+03  0.68157789160E+03  0.50400001928E-02 0. -1.
    10030    2    1    2    0    0  0.00000000000E+00  0.00000000000E+00 -0.49590628520E+03  0.86724949804E+03  0.71147638622E+03 0.  0.
        5    1    3    3  502    0  0.32219649770E+03 -0.86768405061E+01 -0.43136951318E+03  0.53850498381E+03  0.46999998093E+01 0. -1.
       -5    1    3    3    0  502 -0.32219649770E+03  0.86768405061E+01 -0.64536772023E+02  0.32874451423E+03  0.46999998093E+01 0.  1.
</event>
<event>
 5   0  0.3183963E-02  0.6957876E+03  0.7818609E-02  0.9724463E-01
        2   -1    0    0  501    0  0.00000000000E+00  0.00000000000E+00  0.29251688530E+03  0.29251688531E+03  0.25500000920E-02 0.  1.
       -2   -1    0    0    0  501  0.00000000000E+00  0.00000000000E+00 -0.41375421972E+03  0.41375421973E+03  0.25500000920E-02 0. -1.
    10030    2    1    2    0    0  0.00000000000E+00  0.00000000000E+00 -0.12123733442E+03  0.70627110504E+03  0.69578759874E+03 0.  0.
        4    1    3    3  502    0  0.21999171170E+03 -0.77423020355E+02 -0.32265112954E+03  0.39811561335E+03  0.12699999809E+01 0. -1.
       -4    1    3    3    0  502 -0.21999171170E+03  0.77423020355E+02  0.20141379511E+03  0.30815549169E+03  0.12699999809E+01 0.  1.
</event>
<event>
 5   0  0.1839038E-02  0.6984783E+03  0.7818609E-02  0.9719838E-01
        1   -1    0    0  501    0  0.00000000000E+00  0.00000000000E+00  0.20710995713E+03  0.20710995719E+03  0.50400001928E-02 0.  1.
       -1   -1    0    0    0  501  0.00000000000E+00  0.00000000000E+00 -0.58890457400E+03  0.58890457403E+03  0.50400001928E-02 0. -1.
    10030    2    1    2    0    0  0.00000000000E+00  0.00000000000E+00 -0.38179461688E+03  0.79601453121E+03  0.69847834929E+03 0.  0.
        5    1    3    3  502    0  0.34192763698E+03 -0.65251883792E+02 -0.15919984213E+03  0.38280412354E+03  0.46999998093E+01 0. -1.
       -5    1    3    3    0  502 -0.34192763698E+03  0.65251883792E+02 -0.22259477475E+03  0.41321040767E+03  0.46999998093E+01 0.  1.
</event>
<event>
 5   0  0.3183963E-02  0.6948957E+03  0.7818609E-02  0.9726001E-01
        2   -1    0    0  501    0  0.00000000000E+00  0.00000000000E+00  0.12740114505E+04  0.12740114505E+04  0.25500000920E-02 0.  1.
       -2   -1    0    0    0  501  0.00000000000E+00  0.00000000000E+00 -0.94755830120E+02  0.94755830154E+02  0.25500000920E-02 0. -1.
    10030    2    1    2    0    0  0.00000000000E+00  0.00000000000E+00  0.11792556203E+04  0.13687672806E+04  0.69489571188E+03 0.  0.
        4    1    3    3  502    0 -0.15374322383E+03  0.23925585151E+03  0.19647709944E+03  0.34566632011E+03  0.12699999809E+01 0. -1.
       -4    1    3    3    0  502  0.15374322383E+03 -0.23925585151E+03  0.98277852090E+03  0.10231009605E+04  0.12699999809E+01 0.  1.
</event>
<event>
 5   0  0.1969818E-02  0.7394460E+03  0.7818609E-02  0.9652055E-01
       -1   -1    0    0    0  501  0.00000000000E+00  0.00000000000E+00  0.17113154168E+03  0.17113154175E+03  0.50400001928E-02 0. -1.
        1   -1    0    0  501    0  0.00000000000E+00  0.00000000000E+00 -0.79877208741E+03  0.79877208743E+03  0.50400001928E-02 0.  1.
    10030    2    1    2    0    0  0.00000000000E+00  0.00000000000E+00 -0.62764054574E+03  0.96990362918E+03  0.73944600563E+03 0.  0.
        1    1    3    3  502    0  0.22777912532E+03 -0.21421032615E+03 -0.55034521419E+02  0.31748731051E+03  0.50400001928E-02 0.  1.
       -1    1    3    3    0  502 -0.22777912532E+03  0.21421032615E+03 -0.57260602432E+03  0.65241631867E+03  0.50400001928E-02 0. -1.
</event>
<event>
 5   0  0.1233912E-02  0.7021857E+03  0.7818609E-02  0.9713502E-01
        3   -1    0    0  501    0  0.00000000000E+00  0.00000000000E+00  0.77843897106E+03  0.77843897762E+03  0.10100000352E+00 0. -1.
       -3   -1    0    0    0  501  0.00000000000E+00  0.00000000000E+00 -0.15835044233E+03  0.15835047454E+03  0.10100000352E+00 0.  1.
    10030    2    1    2    0    0  0.00000000000E+00  0.00000000000E+00  0.62008852873E+03  0.93678945215E+03  0.70218565508E+03 0.  0.
        3    1    3    3  502    0  0.16235882673E+03 -0.30929708882E+03  0.35704351181E+03  0.49950491218E+03  0.10100000352E+00 0. -1.
       -3    1    3    3    0  502 -0.16235882673E+03  0.30929708882E+03  0.26304501693E+03  0.43728453997E+03  0.10100000352E+00 0.  1.
</event>
<event>
 5   0  0.3290656E-02  0.6972815E+03  0.7818609E-02  0.9721892E-01
        2   -1    0    0  501    0  0.00000000000E+00  0.00000000000E+00  0.18329287502E+04  0.18329287502E+04  0.25500000920E-02 0. -1.
       -2   -1    0    0    0  501  0.00000000000E+00  0.00000000000E+00 -0.66314845189E+02  0.66314845238E+02  0.25500000920E-02 0.  1.
    10030    2    1    2    0    0  0.00000000000E+00  0.00000000000E+00  0.17666139050E+04  0.18992435954E+04  0.69728153957E+03 0.  0.
        1    1    3    3  502    0  0.21212401743E+03 -0.16324624270E+03  0.14917811236E+04  0.15156044521E+04  0.50400001928E-02 0. -1.
       -1    1    3    3    0  502 -0.21212401743E+03  0.16324624270E+03  0.27483278142E+03  0.38363914333E+03  0.50400001928E-02 0.  1.
</event>
<event>
 5   0  0.1884172E-02  0.7020363E+03  0.7818609E-02  0.9713756E-01
        1   -1    0    0  501    0  0.00000000000E+00  0.00000000000E+00  0.35018334269E+03  0.35018334273E+03  0.50400001928E-02 0.  1.
       -1   -1    0    0    0  501  0.00000000000E+00  0.00000000000E+00 -0.35185494778E+03  0.35185494782E+03  0.50400001928E-02 0. -1.
    10030    2    1    2    0    0  0.00000000000E+00  0.00000000000E+00 -0.16716050923E+01  0.70203829055E+03  0.70203630044E+03 0.  0.
        3    1    3    3  502    0 -0.17842837536E+03  0.19835849762E+03 -0.22893939275E+03  0.35156227679E+03  0.10100000352E+00 0. -1.
       -3    1    3    3    0  502  0.17842837536E+03 -0.19835849762E+03  0.22726778765E+03  0.35047601375E+03  0.10100000352E+00 0.  1.
</event>
<event>
 5   0  0.2933851E-02  0.7045251E+03  0.7818609E-02  0.9709525E-01
       -2   -1    0    0    0  501  0.00000000000E+00  0.00000000000E+00  0.59243716984E+02  0.59243717039E+02  0.25500000920E-02 0. -1.
        2   -1    0    0  501    0  0.00000000000E+00  0.00000000000E+00 -0.20945493245E+04  0.20945493245E+04  0.25500000920E-02 0.  1.
    10030    2    1    2    0    0  0.00000000000E+00  0.00000000000E+00 -0.20353056076E+04  0.21537930416E+04  0.70452505265E+03 0.  0.
        2    1    3    3  502    0  0.27053012716E+03  0.17238823127E+03 -0.14626097861E+04  0.14973749157E+04  0.25500000920E-02 0. -1.
       -2    1    3    3    0  502 -0.27053012716E+03 -0.17238823127E+03 -0.57269582151E+03  0.65641812586E+03  0.25500000920E-02 0.  1.
</event>
<event>
 5   0  0.1969818E-02  0.6977587E+03  0.7818609E-02  0.9721073E-01
        1   -1    0    0  501    0  0.00000000000E+00  0.00000000000E+00  0.12134879091E+03  0.12134879101E+03  0.50400001928E-02 0.  1.
       -1   -1    0    0    0  501  0.00000000000E+00  0.00000000000E+00 -0.10030325943E+04  0.10030325943E+04  0.50400001928E-02 0. -1.
    10030    2    1    2    0    0  0.00000000000E+00  0.00000000000E+00 -0.88168380339E+03  0.11243813853E+04  0.69775867641E+03 0.  0.
        1    1    3    3  502    0  0.19328888008E+03 -0.16032143939E+03 -0.83110222146E+03  0.86821337103E+03  0.50400001928E-02 0. -1.
       -1    1    3    3    0  502 -0.19328888008E+03  0.16032143939E+03 -0.50581581929E+02  0.25616801430E+03  0.50400001928E-02 0.  1.
</event>
<event>
 5   0  0.1884172E-02  0.7121294E+03  0.7818609E-02  0.9696711E-01
        1   -1    0    0  501    0  0.00000000000E+00  0.00000000000E+00  0.54266628767E+03  0.54266628769E+03  0.50400001928E-02 0. -1.
       -1   -1    0    0    0  501  0.00000000000E+00  0.00000000000E+00 -0.23362806992E+03  0.23362806997E+03  0.50400001928E-02 0.  1.
    10030    2    1    2    0    0  0.00000000000E+00  0.00000000000E+00  0.30903821775E+03  0.77629435767E+03  0.71212941922E+03 0.  0.
        3    1    3    3  502    0  0.25993733848E+03  0.30395903592E+02 -0.10866961163E+03  0.28337329723E+03  0.10100000352E+00 0.  1.
       -3    1    3    3    0  502 -0.25993733848E+03 -0.30395903592E+02  0.41770782938E+03  0.49292106043E+03  0.10100000352E+00 0. -1.
</event>
<event>
 5   0  0.1969818E-02  0.6957063E+03  0.7818609E-02  0.9724603E-01
        1   -1    0    0  501    0  0.00000000000E+00  0.00000000000E+00  0.56511464491E+03  0.56511464493E+03  0.50400001928E-02 0. -1.
       -1   -1    0    0    0  501  0.00000000000E+00  0.00000000000E+00 -0.21411907589E+03  0.21411907595E+03  0.50400001928E-02 0.  1.
    10030    2    1    2    0    0  0.00000000000E+00  0.00000000000E+00  0.35099556902E+03  0.77923372088E+03  0.69570633337E+03 0.  0.
        1    1    3    3  502    0  0.14636961189E+03  0.19525450520E+03  0.45315878362E+03  0.51468560139E+03  0.50400001928E-02 0. -1.
       -1    1    3    3    0  502 -0.14636961189E+03 -0.19525450520E+03 -0.10216321460E+03  0.26454811949E+03  0.50400001928E-02 0.  1.
</event>
<event>
 5   0  0.3113940E-02  0.6983385E+03  0.7818609E-02  0.9720078E-01
       -2   -1    0    0    0  501  0.00000000000E+00  0.00000000000E+00  0.11201731789E+03  0.11201731792E+03  0.25500000920E-02 0. -1.
        2   -1    0    0  501    0  0.00000000000E+00  0.00000000000E+00 -0.10883956974E+04  0.10883956974E+04  0.25500000920E-02 0.  1.
    10030    2    1    2    0    0  0.00000000000E+00  0.00000000000E+00 -0.97637837955E+03  0.12004130154E+04  0.69833850488E+03 0.  0.
        5    1    3    3  502    0  0.18832847711E+03  0.12533060459E+02 -0.99308365086E+03  0.10108718616E+04  0.46999998093E+01 0.  1.
       -5    1    3    3    0  502 -0.18832847711E+03 -0.12533060459E+02  0.16705271310E+02  0.18954115380E+03  0.46999998093E+01 0. -1.
</event>
<event>
 5   0  0.3184443E-02  0.6955046E+03  0.7818609E-02  0.9724951E-01
       -2   -1    0    0    0  501  0.00000000000E+00  0.00000000000E+00  0.11590672087E+03  0.11590672090E+03  0.25500000920E-02 0.  1.
        2   -1    0    0  501    0  0.00000000000E+00  0.00000000000E+00 -0.10433534288E+04  0.10433534288E+04  0.25500000920E-02 0. -1.
    10030    2    1    2    0    0  0.00000000000E+00  0.00000000000E+00 -0.92744670791E+03  0.11592601497E+04  0.69550463596E+03 0.  0.
        3    1    3    3  502    0  0.17918533331E+03 -0.78963239209E+02 -0.94273074219E+03  0.96285193010E+03  0.10100000352E+00 0. -1.
       -3    1    3    3    0  502 -0.17918533331E+03  0.78963239209E+02  0.15284034277E+02  0.19640821959E+03  0.10100000352E+00 0.  1.
</event>
<event>
 5   0  0.3290656E-02  0.7040138E+03  0.7818609E-02  0.9710393E-01
        2   -1    0    0  501    0  0.00000000000E+00  0.00000000000E+00  0.62773188099E+03  0.62773188099E+03  0.25500000920E-02 0. -1.
       -2   -1    0    0    0  501  0.00000000000E+00  0.00000000000E+00 -0.19739139999E+03  0.19739140000E+03  0.25500000920E-02 0.  1.
    10030    2    1    2    0    0  0.00000000000E+00  0.00000000000E+00  0.43034048100E+03  0.82512328099E+03  0.70401384876E+03 0.  0.
        1    1    3    3  502    0  0.33885685645E+03  0.76485575318E+02  0.28183027652E+03  0.44732797496E+03  0.50400001928E-02 0. -1.
       -1    1    3    3    0  502 -0.33885685645E+03 -0.76485575318E+02  0.14851020448E+03  0.37779530603E+03  0.50400001928E-02 0.  1.
</event>
<event>
 5   0  0.1858013E-02  0.6953461E+03  0.7818609E-02  0.9725224E-01
       -1   -1    0    0    0  501  0.00000000000E+00  0.00000000000E+00  0.20468095721E+03  0.20468095727E+03  0.50400001928E-02 0. -1.
        1   -1    0    0  501    0  0.00000000000E+00  0.00000000000E+00 -0.59056087380E+03  0.59056087382E+03  0.50400001928E-02 0.  1.
    10030    2    1    2    0    0  0.00000000000E+00  0.00000000000E+00 -0.38587991659E+03  0.79524183109E+03  0.69534614394E+03 0.  0.
        2    1    3    3  502    0  0.30085203322E+03 -0.15966903047E+03 -0.27275437856E+03  0.43634974070E+03  0.25500000920E-02 0. -1.
       -2    1    3    3    0  502 -0.30085203322E+03  0.15966903047E+03 -0.11312553803E+03  0.35889209039E+03  0.25500000920E-02 0.  1.
</event>
<event>
 5   0  0.1969818E-02  0.7010008E+03  0.7818609E-02  0.9715522E-01
        1   -1    0    0  501    0  0.00000000000E+00  0.00000000000E+00  0.43802550723E+03  0.43802550726E+03  0.50400001928E-02 0.  1.
       -1   -1    0    0    0  501  0.00000000000E+00  0.00000000000E+00 -0.28046432325E+03  0.28046432329E+03  0.50400001928E-02 0. -1.
    10030    2    1    2    0    0  0.00000000000E+00  0.00000000000E+00  0.15756118398E+03  0.71848983055E+03  0.70100079166E+03 0.  0.
        1    1    3    3  502    0  0.28563483228E+03 -0.94156905784E+02  0.26326493877E+03  0.39970139896E+03  0.50400001928E-02 0.  1.
       -1    1    3    3    0  502 -0.28563483228E+03  0.94156905784E+02 -0.10570375479E+03  0.31878843159E+03  0.50400001928E-02 0. -1.
</event>
<event>
 5   0  0.3113940E-02  0.7025925E+03  0.7818609E-02  0.9712809E-01
        2   -1    0    0  501    0  0.00000000000E+00  0.00000000000E+00  0.22499955228E+03  0.22499955229E+03  0.25500000920E-02 0. -1.
       -2   -1    0    0    0  501  0.00000000000E+00  0.00000000000E+00 -0.54848581114E+03  0.54848581114E+03  0.25500000920E-02 0.  1.
    10030    2    1    2    0    0  0.00000000000E+00  0.00000000000E+00 -0.32348625886E+03  0.77348536344E+03  0.70259251902E+03 0.  0.
        5    1    3    3  502    0  0.19520895458E+03  0.66007886141E+02 -0.47491707650E+03  0.51771797007E+03  0.46999998093E+01 0.  1.
       -5    1    3    3    0  502 -0.19520895458E+03 -0.66007886141E+02  0.15143081764E+03  0.25576739337E+03  0.46999998093E+01 0. -1.
</event>
<event>
 5   0  0.1884172E-02  0.6981391E+03  0.7818609E-02  0.9720420E-01
       -1   -1    0    0    0  501  0.00000000000E+00  0.00000000000E+00  0.17045003688E+04  0.17045003688E+04  0.50400001928E-02 0. -1.
        1   -1    0    0  501    0  0.00000000000E+00  0.00000000000E+00 -0.71486956260E+02  0.71486956438E+02  0.50400001928E-02 0.  1.
    10030    2    1    2    0    0  0.00000000000E+00  0.00000000000E+00  0.16330134125E+04  0.17759873252E+04  0.69813907919E+03 0.  0.
        3    1    3    3  502    0  0.20929349861E+03 -0.27819554074E+03  0.75150025770E+03  0.82822048693E+03  0.10100000352E+00 0.  1.
       -3    1    3    3    0  502 -0.20929349861E+03  0.27819554074E+03  0.88151315482E+03  0.94776683829E+03  0.10100000352E+00 0. -1.
</event>
<event>
 5   0  0.1951465E-02  0.6814402E+03  0.7818609E-02  0.9749509E-01
        1   -1    0    0  501    0  0.00000000000E+00  0.00000000000E+00  0.97029455550E+03  0.97029455551E+03  0.50400001928E-02 0. -1.
       -1   -1    0    0    0  501  0.00000000000E+00  0.00000000000E+00 -0.11964428844E+03  0.11964428854E+03  0.50400001928E-02 0.  1.
    10030    2    1    2    0    0  0.00000000000E+00  0.00000000000E+00  0.85065026706E+03  0.10899388441E+04  0.68144024458E+03 0.  0.
        4    1    3    3  502    0  0.21557305407E+03 -0.11035287266E+03  0.41990437069E+02  0.24579322173E+03  0.12699999809E+01 0.  1.
       -4    1    3    3    0  502 -0.21557305407E+03  0.11035287266E+03  0.80865982999E+03  0.84414562232E+03  0.12699999809E+01 0. -1.
</event>
<event>
 5   0  0.3113940E-02  0.7006726E+03  0.7818609E-02  0.9716083E-01
       -2   -1    0    0    0  501  0.00000000000E+00  0.00000000000E+00  0.28374813463E+03  0.28374813464E+03  0.25500000920E-02 0. -1.
        2   -1    0    0  501    0  0.00000000000E+00  0.00000000000E+00 -0.43255090906E+03  0.43255090907E+03  0.25500000920E-02 0.  1.
    10030    2    1    2    0    0  0.00000000000E+00  0.00000000000E+00 -0.14880277443E+03  0.71629904371E+03  0.70067257285E+03 0.  0.
        5    1    3    3  502    0  0.57800220138E+02 -0.28005552679E+03 -0.28125395517E+03  0.40112073099E+03  0.46999998093E+01 0.  1.
       -5    1    3    3    0  502 -0.57800220138E+02  0.28005552679E+03  0.13245118074E+03  0.31517831272E+03  0.46999998093E+01 0. -1.
</event>
<event>
 5   0  0.1839038E-02  0.7032173E+03  0.7818609E-02  0.9711746E-01
        1   -1    0    0  501    0  0.00000000000E+00  0.00000000000E+00  0.33375139488E+03  0.33375139492E+03  0.50400001928E-02 0. -1.
       -1   -1    0    0    0  501  0.00000000000E+00  0.00000000000E+00 -0.37042133740E+03  0.37042133743E+03  0.50400001928E-02 0.  1.
    10030    2    1    2    0    0  0.00000000000E+00  0.00000000000E+00 -0.36669942519E+02  0.70417273235E+03  0.70321728669E+03 0.  0.
        5    1    3    3  502    0  0.28969344437E+03  0.16692811770E+03  0.90529158902E+02  0.34641724380E+03  0.46999998093E+01 0. -1.
       -5    1    3    3    0  502 -0.28969344437E+03 -0.16692811770E+03 -0.12719910142E+03  0.35775548855E+03  0.46999998093E+01 0.  1.
</event>
<event>
 5   0  0.3113940E-02  0.6992627E+03  0.7818609E-02  0.9718494E-01
        2   -1    0    0  501    0  0.00000000000E+00  0.00000000000E+00  0.16407584066E+04  0.16407584066E+04  0.25500000920E-02 0. -1.
       -2   -1    0    0    0  501  0.00000000000E+00  0.00000000000E+00 -0.74503396576E+02  0.74503396620E+02  0.25500000920E-02 0.  1.
    10030    2    1    2    0    0  0.00000000000E+00  0.00000000000E+00  0.15662550100E+04  0.17152618032E+04  0.69926268108E+03 0.  0.
        5    1    3    3  502    0 -0.42529052982E+02 -0.65593614235E+02  0.16189662999E+04  0.16208594057E+04  0.46999998093E+01 0. -1.
       -5    1    3    3    0  502  0.42529052982E+02  0.65593614235E+02 -0.52711289939E+02  0.94402397539E+02  0.46999998093E+01 0.  1.
</event>
<event>
 5   0  0.3183963E-02  0.6965133E+03  0.7818609E-02  0.9723214E-01
       -2   -1    0    0    0  501  0.00000000000E+00  0.00000000000E+00  0.10295665484E+03  0.10295665488E+03  0.25500000920E-02 0.  1.
        2   -1    0    0  501    0  0.00000000000E+00  0.00000000000E+00 -0.11779974715E+04  0.11779974715E+04  0.25500000920E-02 0. -1.
    10030    2    1    2    0    0  0.00000000000E+00  0.00000000000E+00 -0.10750408167E+04  0.12809541264E+04  0.69651325645E+03 0.  0.
        4    1    3    3  502    0  0.33111112765E+03 -0.85848242536E+02 -0.65778888510E+03  0.74141238853E+03  0.12699999809E+01 0. -1.
       -4    1    3    3    0  502 -0.33111112765E+03  0.85848242536E+02 -0.41725193156E+03  0.53954173786E+03  0.12699999809E+01 0.  1.
</event>
<event>
 5   0  0.3290656E-02  0.7021907E+03  0.7818609E-02  0.9713493E-01
        2   -1    0    0  501    0  0.00000000000E+00  0.00000000000E+00  0.12948495333E+04  0.12948495333E+04  0.25500000920E-02 0. -1.
       -2   -1    0    0    0  501  0.00000000000E+00  0.00000000000E+00 -0.95198671210E+02  0.95198671244E+02  0.25500000920E-02 0.  1.
    10030    2    1    2    0    0  0.00000000000E+00  0.00000000000E+00  0.11996508620E+04  0.13900482045E+04  0.70219072910E+03 0.  0.
        1    1    3    3  502    0  0.29931001341E+03 -0.10171506960E+03  0.29742425959E+03  0.43404335006E+03  0.50400001928E-02 0.  1.
       -1    1    3    3    0  502 -0.29931001341E+03  0.10171506960E+03  0.90222660245E+03  0.95600485444E+03  0.50400001928E-02 0. -1.
</event>
<event>
 5   0  0.3290656E-02  0.6990141E+03  0.7818609E-02  0.9718920E-01
        2   -1    0    0  501    0  0.00000000000E+00  0.00000000000E+00  0.11640047310E+04  0.11640047310E+04  0.25500000920E-02 0.  1.
       -2   -1    0    0    0  501  0.00000000000E+00  0.00000000000E+00 -0.10494388502E+03  0.10494388505E+03  0.25500000920E-02 0. -1.
    10030    2    1    2    0    0  0.00000000000E+00  0.00000000000E+00  0.10590608460E+04  0.12689486161E+04  0.69901410194E+03 0.  0.
        1    1    3    3  502    0 -0.18501409830E+03  0.89626949791E+02  0.16421378985E+02  0.20623498348E+03  0.50400001928E-02 0. -1.
       -1    1    3    3    0  502  0.18501409830E+03 -0.89626949791E+02  0.10426394670E+04  0.10627136326E+04  0.50400001928E-02 0.  1.
</event>
<event>
 5   0  0.1858013E-02  0.7326336E+03  0.7818609E-02  0.9662996E-01
       -1   -1    0    0    0  501  0.00000000000E+00  0.00000000000E+00  0.44276908876E+03  0.44276908879E+03  0.50400001928E-02 0.  1.
        1   -1    0    0  501    0  0.00000000000E+00  0.00000000000E+00 -0.30306539941E+03  0.30306539945E+03  0.50400001928E-02 0. -1.
    10030    2    1    2    0    0  0.00000000000E+00  0.00000000000E+00  0.13970368935E+03  0.74583448824E+03  0.73263358033E+03 0.  0.
        2    1    3    3  502    0  0.33384791658E+03 -0.55192384146E+00 -0.83640404563E+02  0.34416631634E+03  0.25500000920E-02 0.  1.
       -2    1    3    3    0  502 -0.33384791658E+03  0.55192384146E+00  0.22334409391E+03  0.40166817190E+03  0.25500000920E-02 0. -1.
</event>
<event>
 5   0  0.3290656E-02  0.7095855E+03  0.7818609E-02  0.9700979E-01
       -2   -1    0    0    0  501  0.00000000000E+00  0.00000000000E+00  0.19883018949E+03  0.19883018951E+03  0.25500000920E-02 0.  1.
        2   -1    0    0  501    0  0.00000000000E+00  0.00000000000E+00 -0.63309254549E+03  0.63309254550E+03  0.25500000920E-02 0. -1.
    10030    2    1    2    0    0  0.00000000000E+00  0.00000000000E+00 -0.43426235600E+03  0.83192273501E+03  0.70958554324E+03 0.  0.
        1    1    3    3  502    0  0.31729317697E+03 -0.30594071043E+02 -0.39976695751E+03  0.51129695645E+03  0.50400001928E-02 0. -1.
       -1    1    3    3    0  502 -0.31729317697E+03  0.30594071043E+02 -0.34495398490E+02  0.32062577856E+03  0.50400001928E-02 0.  1.
</event>
<event>
 5   0  0.1839038E-02  0.6964270E+03  0.7818609E-02  0.9723362E-01
        1   -1    0    0  501    0  0.00000000000E+00  0.00000000000E+00  0.10326774448E+04  0.10326774448E+04  0.50400001928E-02 0. -1.
       -1   -1    0    0    0  501  0.00000000000E+00  0.00000000000E+00 -0.11741578821E+03  0.11741578831E+03  0.50400001928E-02 0.  1.
    10030    2    1    2    0    0  0.00000000000E+00  0.00000000000E+00  0.91526165654E+03  0.11500932331E+04  0.69642698457E+03 0.  0.
        5    1    3    3  502    0  0.18599664337E+03 -0.29431382849E+03  0.46406187768E+03  0.58016454330E+03  0.46999998093E+01 0. -1.
       -5    1    3    3    0  502 -0.18599664337E+03  0.29431382849E+03  0.45119977887E+03  0.56992868978E+03  0.46999998093E+01 0.  1.
</event>
<event>
 5   0  0.1884172E-02  0.5881208E+03  0.7818609E-02  0.9930363E-01
       -1   -1    0    0    0  501  0.00000000000E+00  0.00000000000E+00  0.13185546744E+03  0.13185546754E+03  0.50400001928E-02 0. -1.
        1   -1    0    0  501    0  0.00000000000E+00  0.00000000000E+00 -0.65580524952E+03  0.65580524954E+03  0.50400001928E-02 0.  1.
    10030    2    1    2    0    0  0.00000000000E+00  0.00000000000E+00 -0.52394978208E+03  0.78766071708E+03  0.58812076234E+03 0.  0.
        3    1    3    3  502    0 -0.76201312888E+02 -0.15946327970E+03  0.52789099870E+02  0.18445020175E+03  0.10100000352E+00 0. -1.
       -3    1    3    3    0  502  0.76201312888E+02  0.15946327970E+03 -0.57673888195E+03  0.60321051533E+03  0.10100000352E+00 0.  1.
</event>
<event>
 5   0  0.3183963E-02  0.6324655E+03  0.7818609E-02  0.9840249E-01
        2   -1    0    0  501    0  0.00000000000E+00  0.00000000000E+00  0.76136498151E+03  0.76136498152E+03  0.25500000920E-02 0.  1.
       -2   -1    0    0    0  501  0.00000000000E+00  0.00000000000E+00 -0.13134717095E+03  0.13134717098E+03  0.25500000920E-02 0. -1.
    10030    2    1    2    0    0  0.00000000000E+00  0.00000000000E+00  0.63001781056E+03  0.89271215249E+03  0.63246545011E+03 0.  0.
        4    1    3    3  502    0  0.69261120264E+02  0.85441254121E+02 -0.10347569901E+03  0.15101703173E+03  0.12699999809E+01 0. -1.
       -4    1    3    3    0  502 -0.69261120264E+02 -0.85441254121E+02  0.73349350957E+03  0.74169512077E+03  0.12699999809E+01 0.  1.
</event>
<event>
 5   0  0.1951465E-02  0.6913279E+03  0.7818609E-02  0.9732179E-01
        1   -1    0    0  501    0  0.00000000000E+00  0.00000000000E+00  0.90303379317E+03  0.90303379319E+03  0.50400001928E-02 0.  1.
       -1   -1    0    0    0  501  0.00000000000E+00  0.00000000000E+00 -0.13231351927E+03  0.13231351936E+03  0.50400001928E-02 0. -1.
    10030    2    1    2    0    0  0.00000000000E+00  0.00000000000E+00  0.77072027390E+03  0.10353473125E+04  0.69132793737E+03 0.  0.
        4    1    3    3  502    0 -0.34098160542E+02  0.34386337694E+03  0.39852385957E+03  0.52747282973E+03  0.12699999809E+01 0. -1.
       -4    1    3    3    0  502  0.34098160542E+02 -0.34386337694E+03  0.37219641433E+03  0.50787448282E+03  0.12699999809E+01 0.  1.
</event>
<event>
 5   0  0.3184443E-02  0.7012014E+03  0.7818609E-02  0.9715180E-01
       -2   -1    0    0    0  501  0.00000000000E+00  0.00000000000E+00  0.12050624368E+03  0.12050624371E+03  0.25500000920E-02 0. -1.
        2   -1    0    0  501    0  0.00000000000E+00  0.00000000000E+00 -0.10200370671E+04  0.10200370671E+04  0.25500000920E-02 0.  1.
    10030    2    1    2    0    0  0.00000000000E+00  0.00000000000E+00 -0.89953082340E+03  0.11405433108E+04  0.70120135592E+03 0.  0.
        3    1    3    3  502    0  0.86426033642E+02  0.22966745018E+03 -0.85706826074E+03  0.89150581082E+03  0.10100000352E+00 0.  1.
       -3    1    3    3    0  502 -0.86426033642E+02 -0.22966745018E+03 -0.42462562665E+02  0.24903749997E+03  0.10100000352E+00 0. -1.
</event>
<event>
 5   0  0.3184443E-02  0.6989261E+03  0.7818609E-02  0.9719070E-01
        2   -1    0    0  501    0  0.00000000000E+00  0.00000000000E+00  0.42326356883E+03  0.42326356883E+03  0.25500000920E-02 0.  1.
       -2   -1    0    0    0  501  0.00000000000E+00  0.00000000000E+00 -0.28853045455E+03  0.28853045456E+03  0.25500000920E-02 0. -1.
    10030    2    1    2    0    0  0.00000000000E+00  0.00000000000E+00  0.13473311427E+03  0.71179402340E+03  0.69892611889E+03 0.  0.
        3    1    3    3  502    0 -0.29524287915E+03  0.10701613011E+03  0.22349799241E+03  0.38545060982E+03  0.10100000352E+00 0.  1.
       -3    1    3    3    0  502  0.29524287915E+03 -0.10701613011E+03 -0.88764878141E+02  0.32634341358E+03  0.10100000352E+00 0. -1.
</event>
<event>
 5   0  0.3184443E-02  0.6769689E+03  0.7818609E-02  0.9757450E-01
        2   -1    0    0  501    0  0.00000000000E+00  0.00000000000E+00  0.38407219103E+03  0.38407219103E+03  0.25500000920E-02 0. -1.
       -2   -1    0    0    0  501  0.00000000000E+00  0.00000000000E+00 -0.29830774002E+03  0.29830774003E+03  0.25500000920E-02 0.  1.
    10030    2    1    2    0    0  0.00000000000E+00  0.00000000000E+00  0.85764451010E+02  0.68237993106E+03  0.67696885398E+03 0.  0.
        3    1    3    3  502    0  0.33122607063E+03 -0.46029395449E+02  0.95667600862E+02  0.34782425903E+03  0.10100000352E+00 0.  1.
       -3    1    3    3    0  502 -0.33122607063E+03  0.46029395449E+02 -0.99031498520E+01  0.33455567203E+03  0.10100000352E+00 0. -1.
</event>
<event>
 5   0  0.1858013E-02  0.7136496E+03  0.7818609E-02  0.9694170E-01
       -1   -1    0    0    0  501  0.00000000000E+00  0.00000000000E+00  0.85858632256E+03  0.85858632258E+03  0.50400001928E-02 0.  1.
        1   -1    0    0  501    0  0.00000000000E+00  0.00000000000E+00 -0.14829487122E+03  0.14829487130E+03  0.50400001928E-02 0. -1.
    10030    2    1    2    0    0  0.00000000000E+00  0.00000000000E+00  0.71029145135E+03  0.10068811939E+04  0.71364962883E+03 0.  0.
        2    1    3    3  502    0  0.15973206504E+03  0.25880922088E+03  0.61844746579E+03  0.68918343956E+03  0.25500000920E-02 0.  1.
       -2    1    3    3    0  502 -0.15973206504E+03 -0.25880922088E+03  0.91843985558E+02  0.31769775432E+03  0.25500000920E-02 0. -1.
</event>
<event>
 5   0  0.3113940E-02  0.7000241E+03  0.7818609E-02  0.9717191E-01
       -2   -1    0    0    0  501  0.00000000000E+00  0.00000000000E+00  0.63983173247E+02  0.63983173298E+02  0.25500000920E-02 0. -1.
        2   -1    0    0  501    0  0.00000000000E+00  0.00000000000E+00 -0.19146978208E+04  0.19146978208E+04  0.25500000920E-02 0.  1.
    10030    2    1    2    0    0  0.00000000000E+00  0.00000000000E+00 -0.18507146475E+04  0.19786809941E+04  0.70002412083E+03 0.  0.
        5    1    3    3  502    0 -0.12374192897E+03 -0.28651850131E+03 -0.13730077219E+04  0.14080402022E+04  0.46999998093E+01 0.  1.
       -5    1    3    3    0  502  0.12374192897E+03  0.28651850131E+03 -0.47770692565E+03  0.57064079191E+03  0.46999998093E+01 0. -1.
</event>
<event>
 5   0  0.3113940E-02  0.7018009E+03  0.7818609E-02  0.9714157E-01
        2   -1    0    0  501    0  0.00000000000E+00  0.00000000000E+00  0.56650073356E+03  0.56650073356E+03  0.25500000920E-02 0. -1.
       -2   -1    0    0    0  501  0.00000000000E+00  0.00000000000E+00 -0.21735389758E+03  0.21735389759E+03  0.25500000920E-02 0.  1.
    10030    2    1    2    0    0  0.00000000000E+00  0.00000000000E+00  0.34914683598E+03  0.78385463116E+03  0.70180094736E+03 0.  0.
        5    1    3    3  502    0  0.34204208930E+03  0.55850776260E+02  0.23571849533E+03  0.41916273582E+03  0.46999998093E+01 0. -1.
       -5    1    3    3    0  502 -0.34204208930E+03 -0.55850776260E+02  0.11342834065E+03  0.36469189534E+03  0.46999998093E+01 0.  1.
</event>
<event>
 5   0  0.3183963E-02  0.7024948E+03  0.7818609E-02  0.9712975E-01
        2   -1    0    0  501    0  0.00000000000E+00  0.00000000000E+00  0.53494980565E+03  0.53494980566E+03  0.25500000920E-02 0. -1.
       -2   -1    0    0    0  501  0.00000000000E+00  0.00000000000E+00 -0.23062860370E+03  0.23062860371E+03  0.25500000920E-02 0.  1.
    10030    2    1    2    0    0  0.00000000000E+00  0.00000000000E+00  0.30432120195E+03  0.76557840937E+03  0.70249477360E+03 0.  0.
        4    1    3    3  502    0  0.29961960762E+03 -0.10930455070E+03 -0.82055979554E+01  0.31904284793E+03  0.12699999809E+01 0.  1.
       -4    1    3    3    0  502 -0.29961960762E+03  0.10930455070E+03  0.31252679991E+03  0.44653556145E+03  0.12699999809E+01 0. -1.
</event>
<event>
 5   0  0.3183963E-02  0.5851600E+03  0.7818609E-02  0.9936682E-01
       -2   -1    0    0    0  501  0.00000000000E+00  0.00000000000E+00  0.49304049735E+02  0.49304049801E+02  0.25500000920E-02 0. -1.
        2   -1    0    0  501    0  0.00000000000E+00  0.00000000000E+00 -0.17362276264E+04  0.17362276264E+04  0.25500000920E-02 0.  1.
    10030    2    1    2    0    0  0.00000000000E+00  0.00000000000E+00 -0.16869235767E+04  0.17855316762E+04  0.58515998942E+03 0.  0.
        4    1    3    3  502    0  0.15727534915E+03  0.64451651337E+02 -0.15701196805E+04  0.15792931884E+04  0.12699999809E+01 0.  1.
       -4    1    3    3    0  502 -0.15727534915E+03 -0.64451651337E+02 -0.11680389617E+03  0.20623848785E+03  0.12699999809E+01 0. -1.
</event>
<event>
 5   0  0.1858013E-02  0.7023988E+03  0.7818609E-02  0.9713139E-01
       -1   -1    0    0    0  501  0.00000000000E+00  0.00000000000E+00  0.11556386709E+03  0.11556386720E+03  0.50400001928E-02 0.  1.
        1   -1    0    0  501    0  0.00000000000E+00  0.00000000000E+00 -0.10672973485E+04  0.10672973485E+04  0.50400001928E-02 0. -1.
    10030    2    1    2    0    0  0.00000000000E+00  0.00000000000E+00 -0.95173348138E+03  0.11828612157E+04  0.70239877276E+03 0.  0.
        2    1    3    3  502    0  0.82970133424E+02 -0.31524833005E+03 -0.25580922405E+03  0.41437170723E+03  0.25500000920E-02 0.  1.
       -2    1    3    3    0  502 -0.82970133424E+02  0.31524833005E+03 -0.69592425733E+03  0.76848950844E+03  0.25500000920E-02 0. -1.
</event>
<event>
 5   0  0.3184443E-02  0.6993806E+03  0.7818609E-02  0.9718292E-01
       -2   -1    0    0    0  501  0.00000000000E+00  0.00000000000E+00  0.69788533010E+02  0.69788533056E+02  0.25500000920E-02 0.  1.
        2   -1    0    0  501    0  0.00000000000E+00  0.00000000000E+00 -0.17521976260E+04  0.17521976260E+04  0.25500000920E-02 0. -1.
    10030    2    1    2    0    0  0.00000000000E+00  0.00000000000E+00 -0.16824090930E+04  0.18219861591E+04  0.69938058854E+03 0.  0.
        3    1    3    3  502    0  0.33869077956E+02  0.25521054740E+03 -0.22469462799E+03  0.34171219468E+03  0.10100000352E+00 0.  1.
       -3    1    3    3    0  502 -0.33869077956E+02 -0.25521054740E+03 -0.14577144650E+04  0.14802739644E+04  0.10100000352E+00 0. -1.
</event>
<event>
 5   0  0.1951465E-02  0.6997487E+03  0.7818609E-02  0.9717662E-01
       -1   -1    0    0    0  501  0.00000000000E+00  0.00000000000E+00  0.72296867878E+02  0.72296868053E+02  0.50400001928E-02 0.  1.
        1   -1    0    0  501    0  0.00000000000E+00  0.00000000000E+00 -0.16931860237E+04  0.16931860237E+04  0.50400001928E-02 0. -1.
    10030    2    1    2    0    0  0.00000000000E+00  0.00000000000E+00 -0.16208891558E+04  0.17654828917E+04  0.69974865890E+03 0.  0.
        4    1    3    3  502    0  0.25538052113E+03 -0.18888297076E+03 -0.44037232393E+03  0.54297825352E+03  0.12699999809E+01 0. -1.
       -4    1    3    3    0  502 -0.25538052113E+03  0.18888297076E+03 -0.11805168319E+04  0.12225046382E+04  0.12699999809E+01 0.  1.
</event>
<event>
 5   0  0.3290656E-02  0.7069705E+03  0.7818609E-02  0.9705385E-01
        2   -1    0    0  501    0  0.00000000000E+00  0.00000000000E+00  0.58235513960E+03  0.58235513961E+03  0.25500000920E-02 0. -1.
       -2   -1    0    0    0  501  0.00000000000E+00  0.00000000000E+00 -0.21456290403E+03  0.21456290405E+03  0.25500000920E-02 0.  1.
    10030    2    1    2    0    0  0.00000000000E+00  0.00000000000E+00  0.36779223557E+03  0.79691804366E+03  0.70697046597E+03 0.  0.
        1    1    3    3  502    0  0.57773634789E+02 -0.21074545734E+03  0.49709635160E+03  0.54300665140E+03  0.50400001928E-02 0. -1.
       -1    1    3    3    0  502 -0.57773634789E+02  0.21074545734E+03 -0.12930411603E+03  0.25391139225E+03  0.50400001928E-02 0.  1.
</event>
<event>
 5   0  0.2933851E-02  0.7151959E+03  0.7818609E-02  0.9691592E-01
       -2   -1    0    0    0  501  0.00000000000E+00  0.00000000000E+00  0.12850180532E+03  0.12850180535E+03  0.25500000920E-02 0. -1.
        2   -1    0    0  501    0  0.00000000000E+00  0.00000000000E+00 -0.99513238438E+03  0.99513238438E+03  0.25500000920E-02 0.  1.
    10030    2    1    2    0    0  0.00000000000E+00  0.00000000000E+00 -0.86663057906E+03  0.11236341897E+04  0.71519593943E+03 0.  0.
        2    1    3    3  502    0  0.90136215914E+02  0.32656607080E+03 -0.61317800639E+03  0.70054065089E+03  0.25500000920E-02 0.  1.
       -2    1    3    3    0  502 -0.90136215914E+02 -0.32656607080E+03 -0.25345257267E+03  0.42309353885E+03  0.25500000920E-02 0. -1.
</event>
<event>
 5   0  0.1951465E-02  0.7029979E+03  0.7818609E-02  0.9712119E-01
       -1   -1    0    0    0  501  0.00000000000E+00  0.00000000000E+00  0.25623002561E+03  0.25623002566E+03  0.50400001928E-02 0. -1.
        1   -1    0    0  501    0  0.00000000000E+00  0.00000000000E+00 -0.48218983352E+03  0.48218983355E+03  0.50400001928E-02 0.  1.
    10030    2    1    2    0    0  0.00000000000E+00  0.00000000000E+00 -0.22595980791E+03  0.73841985921E+03  0.70299790447E+03 0.  0.
        4    1    3    3  502    0  0.11196995887E+02 -0.34662184646E+03 -0.17311695265E+03  0.38761213778E+03  0.12699999809E+01 0. -1.
       -4    1    3    3    0  502 -0.11196995887E+02  0.34662184646E+03 -0.52842855262E+02  0.35080772143E+03  0.12699999809E+01 0.  1.
</event>
<event>
 5   0  0.1858013E-02  0.6657521E+03  0.7818609E-02  0.9777662E-01
        1   -1    0    0  501    0  0.00000000000E+00  0.00000000000E+00  0.25921453274E+03  0.25921453279E+03  0.50400001928E-02 0. -1.
       -1   -1    0    0    0  501  0.00000000000E+00  0.00000000000E+00 -0.42747005452E+03  0.42747005454E+03  0.50400001928E-02 0.  1.
    10030    2    1    2    0    0  0.00000000000E+00  0.00000000000E+00 -0.16825552178E+03  0.68668458733E+03  0.66575205735E+03 0.  0.
        2    1    3    3  502    0  0.21460997080E+03  0.24805046261E+03 -0.25598735137E+02  0.32900116537E+03  0.25500000920E-02 0.  1.
       -2    1    3    3    0  502 -0.21460997080E+03 -0.24805046261E+03 -0.14265678664E+03  0.35768342196E+03  0.25500000920E-02 0. -1.
</event>
<event>
 5   0  0.3183963E-02  0.6947508E+03  0.7818609E-02  0.9726251E-01
       -2   -1    0    0    0  501  0.00000000000E+00  0.00000000000E+00  0.10399389036E+03  0.10399389039E+03  0.25500000920E-02 0. -1.
        2   -1    0    0  501    0  0.00000000000E+00  0.00000000000E+00 -0.11603533967E+04  0.11603533967E+04  0.25500000920E-02 0.  1.
    10030    2    1    2    0    0  0.00000000000E+00  0.00000000000E+00 -0.10563595063E+04  0.12643472871E+04  0.69475078679E+03 0.  0.
        4    1    3    3  502    0  0.44925886864E+02 -0.32119778043E+03 -0.30174312483E+03  0.44298631553E+03  0.12699999809E+01 0. -1.
       -4    1    3    3    0  502 -0.44925886864E+02  0.32119778043E+03 -0.75461638148E+03  0.82136097153E+03  0.12699999809E+01 0.  1.
</event>
<event>
 5   0  0.3183963E-02  0.7006076E+03  0.7818609E-02  0.9716194E-01
        2   -1    0    0  501    0  0.00000000000E+00  0.00000000000E+00  0.55528554275E+03  0.55528554276E+03  0.25500000920E-02 0.  1.
       -2   -1    0    0    0  501  0.00000000000E+00  0.00000000000E+00 -0.22099037847E+03  0.22099037849E+03  0.25500000920E-02 0. -1.
    10030    2    1    2    0    0  0.00000000000E+00  0.00000000000E+00  0.33429516428E+03  0.77627592124E+03  0.70060762845E+03 0.  0.
        4    1    3    3  502    0 -0.31308835900E+03 -0.15069126840E+03  0.21643781933E+03  0.40936428942E+03  0.12699999809E+01 0.  1.
       -4    1    3    3    0  502  0.31308835900E+03  0.15069126840E+03  0.11785734494E+03  0.36691163183E+03  0.12699999809E+01 0. -1.
</event>
<event>
 5   0  0.1951465E-02  0.6948363E+03  0.7818609E-02  0.9726104E-01
       -1   -1    0    0    0  501  0.00000000000E+00  0.00000000000E+00  0.20965474895E+03  0.20965474901E+03  0.50400001928E-02 0.  1.
        1   -1    0    0  501    0  0.00000000000E+00  0.00000000000E+00 -0.57570541449E+03  0.57570541451E+03  0.50400001928E-02 0. -1.
    10030    2    1    2    0    0  0.00000000000E+00  0.00000000000E+00 -0.36605066553E+03  0.78536016352E+03  0.69483630929E+03 0.  0.
        4    1    3    3  502    0  0.21435274133E+03  0.26286525822E+03 -0.26800350807E+03  0.43228779179E+03  0.12699999809E+01 0. -1.
       -4    1    3    3    0  502 -0.21435274133E+03 -0.26286525822E+03 -0.98047157458E+02  0.35307237173E+03  0.12699999809E+01 0.  1.
</event>
<event>
 5   0  0.1858013E-02  0.6996438E+03  0.7818609E-02  0.9717842E-01
       -1   -1    0    0    0  501  0.00000000000E+00  0.00000000000E+00  0.75559845660E+02  0.75559845828E+02  0.50400001928E-02 0. -1.
        1   -1    0    0  501    0  0.00000000000E+00  0.00000000000E+00 -0.16195817319E+04  0.16195817319E+04  0.50400001928E-02 0.  1.
    10030    2    1    2    0    0  0.00000000000E+00  0.00000000000E+00 -0.15440218863E+04  0.16951415778E+04  0.69964375463E+03 0.  0.
        2    1    3    3  502    0  0.12081392642E+03  0.19863255859E+03 -0.13869987322E+03  0.27071858634E+03  0.25500000920E-02 0. -1.
       -2    1    3    3    0  502 -0.12081392642E+03 -0.19863255859E+03 -0.14053220131E+04  0.14244229914E+04  0.25500000920E-02 0.  1.
</event>
<event>
 5   0  0.3113940E-02  0.6923226E+03  0.7818609E-02  0.9730452E-01
       -2   -1    0    0    0  501  0.00000000000E+00  0.00000000000E+00  0.10155990353E+03  0.10155990356E+03  0.25500000920E-02 0. -1.
        2   -1    0    0  501    0  0.00000000000E+00  0.00000000000E+00 -0.11798716707E+04  0.11798716707E+04  0.25500000920E-02 0.  1.
    10030    2    1    2    0    0  0.00000000000E+00  0.00000000000E+00 -0.10783117671E+04  0.12814315742E+04  0.69232262155E+03 0.  0.
        5    1    3    3  502    0  0.21901303956E+02  0.29632614270E+03 -0.21056360220E+03  0.36420869090E+03  0.46999998093E+01 0. -1.
       -5    1    3    3    0  502 -0.21901303956E+02 -0.29632614270E+03 -0.86774816493E+03  0.91722288333E+03  0.46999998093E+01 0.  1.
</event>
<event>
 5   0  0.1233912E-02  0.6466692E+03  0.7818609E-02  0.9813049E-01
        4   -1    0    0  501    0  0.00000000000E+00  0.00000000000E+00  0.24942380014E+03  0.24942703337E+03  0.12699999809E+01 0.  1.
       -4   -1    0    0    0  501  0.00000000000E+00  0.00000000000E+00 -0.41914017863E+03  0.41914210269E+03  0.12699999809E+01 0. -1.
    10030    2    1    2    0    0  0.00000000000E+00  0.00000000000E+00 -0.16971637849E+03  0.66856913606E+03  0.64666918943E+03 0.  0.
        2    1    3    3  502    0  0.80398486134E+02 -0.18005887084E+03 -0.34977839178E+03  0.40153460238E+03  0.25500000920E-02 0. -1.
       -2    1    3    3    0  502 -0.80398486134E+02  0.18005887084E+03  0.18006201329E+03  0.26703453368E+03  0.25500000920E-02 0.  1.
</event>
<event>
 5   0  0.1839038E-02  0.6914924E+03  0.7818609E-02  0.9731893E-01
        1   -1    0    0  501    0  0.00000000000E+00  0.00000000000E+00  0.36316125692E+03  0.36316125695E+03  0.50400001928E-02 0. -1.
       -1   -1    0    0    0  501  0.00000000000E+00  0.00000000000E+00 -0.32916629104E+03  0.32916629108E+03  0.50400001928E-02 0.  1.
    10030    2    1    2    0    0  0.00000000000E+00  0.00000000000E+00  0.33994965873E+02  0.69232754803E+03  0.69149242661E+03 0.  0.
        5    1    3    3  502    0 -0.19778661095E+03 -0.28122198339E+03 -0.19281711910E+02  0.34438237734E+03  0.46999998093E+01 0.  1.
       -5    1    3    3    0  502  0.19778661095E+03  0.28122198339E+03  0.53276677783E+02  0.34794517069E+03  0.46999998093E+01 0. -1.
</event>
<event>
 5   0  0.2933851E-02  0.6980194E+03  0.7818609E-02  0.9720625E-01
        2   -1    0    0  501    0  0.00000000000E+00  0.00000000000E+00  0.17281331825E+04  0.17281331825E+04  0.25500000920E-02 0.  1.
       -2   -1    0    0    0  501  0.00000000000E+00  0.00000000000E+00 -0.70485167120E+02  0.70485167166E+02  0.25500000920E-02 0. -1.
    10030    2    1    2    0    0  0.00000000000E+00  0.00000000000E+00  0.16576480154E+04  0.17986183497E+04  0.69801935852E+03 0.  0.
        2    1    3    3  502    0 -0.22611852266E+03 -0.11987907109E+03  0.21738458801E+03  0.33579255067E+03  0.25500000920E-02 0. -1.
       -2    1    3    3    0  502  0.22611852266E+03  0.11987907109E+03  0.14402634274E+04  0.14628257990E+04  0.25500000920E-02 0.  1.
</event>
<event>
 5   0  0.1951465E-02  0.6789460E+03  0.7818609E-02  0.9753930E-01
        1   -1    0    0  501    0  0.00000000000E+00  0.00000000000E+00  0.79630350487E+03  0.79630350489E+03  0.50400001928E-02 0. -1.
       -1   -1    0    0    0  501  0.00000000000E+00  0.00000000000E+00 -0.14472111295E+03  0.14472111303E+03  0.50400001928E-02 0.  1.
    10030    2    1    2    0    0  0.00000000000E+00  0.00000000000E+00  0.65158239193E+03  0.94102461792E+03  0.67894603472E+03 0.  0.
        4    1    3    3  502    0 -0.12682120033E+03 -0.26808536556E+03  0.96839893110E+02  0.31198230379E+03  0.12699999809E+01 0. -1.
       -4    1    3    3    0  502  0.12682120033E+03  0.26808536556E+03  0.55474249882E+03  0.62904231413E+03  0.12699999809E+01 0.  1.
</event>
<event>
 5   0  0.3184443E-02  0.7029887E+03  0.7818609E-02  0.9712135E-01
        2   -1    0    0  501    0  0.00000000000E+00  0.00000000000E+00  0.48899150027E+03  0.48899150028E+03  0.25500000920E-02 0. -1.
       -2   -1    0    0    0  501  0.00000000000E+00  0.00000000000E+00 -0.25265938198E+03  0.25265938200E+03  0.25500000920E-02 0.  1.
    10030    2    1    2    0    0  0.00000000000E+00  0.00000000000E+00  0.23633211829E+03  0.74165088228E+03  0.70298873465E+03 0.  0.
        3    1    3    3  502    0 -0.29076373621E+03 -0.33029442398E+01 -0.90162612781E+02  0.30444008718E+03  0.10100000352E+00 0.  1.
       -3    1    3    3    0  502  0.29076373621E+03  0.33029442398E+01  0.32649473107E+03  0.43721079510E+03  0.10100000352E+00 0. -1.
</event>
<event>
 5   0  0.1233912E-02  0.7000580E+03  0.7818609E-02  0.9717133E-01
       -4   -1    0    0    0  501  0.00000000000E+00  0.00000000000E+00  0.18429997158E+03  0.18430434728E+03  0.12699999809E+01 0. -1.
        4   -1    0    0  501    0  0.00000000000E+00  0.00000000000E+00 -0.66477445642E+03  0.66477566953E+03  0.12699999809E+01 0.  1.
    10030    2    1    2    0    0  0.00000000000E+00  0.00000000000E+00 -0.48047448483E+03  0.84908001681E+03  0.70005795787E+03 0.  0.
        4    1    3    3  502    0  0.20274831278E+03 -0.16535938521E+03 -0.52226058203E+03  0.58413040758E+03  0.12699999809E+01 0.  1.
       -4    1    3    3    0  502 -0.20274831278E+03  0.16535938521E+03  0.41786097199E+02  0.26494960923E+03  0.12699999809E+01 0. -1.
</event>
<event>
 5   0  0.2933851E-02  0.6802668E+03  0.7818609E-02  0.9751587E-01
        2   -1    0    0  501    0  0.00000000000E+00  0.00000000000E+00  0.73045600539E+03  0.73045600539E+03  0.25500000920E-02 0.  1.
       -2   -1    0    0    0  501  0.00000000000E+00  0.00000000000E+00 -0.15838153924E+03  0.15838153927E+03  0.25500000920E-02 0. -1.
    10030    2    1    2    0    0  0.00000000000E+00  0.00000000000E+00  0.57207446614E+03  0.88883754466E+03  0.68026684910E+03 0.  0.
        2    1    3    3  502    0  0.14030588189E+02 -0.13325745020E+03 -0.12244307201E+03  0.18151228974E+03  0.25500000920E-02 0. -1.
       -2    1    3    3    0  502 -0.14030588189E+02  0.13325745020E+03  0.69451753815E+03  0.70732525491E+03  0.25500000920E-02 0.  1.
</event>
<event>
 5   0  0.1884172E-02  0.7044859E+03  0.7818609E-02  0.9709591E-01
        1   -1    0    0  501    0  0.00000000000E+00  0.00000000000E+00  0.11375982121E+04  0.11375982121E+04  0.50400001928E-02 0. -1.
       -1   -1    0    0    0  501  0.00000000000E+00  0.00000000000E+00 -0.10906757659E+03  0.10906757671E+03  0.50400001928E-02 0.  1.
    10030    2    1    2    0    0  0.00000000000E+00  0.00000000000E+00  0.10285306355E+04  0.12466657888E+04  0.70448585566E+03 0.  0.
        3    1    3    3  502    0  0.62490502542E+02  0.21057054955E+03  0.26963044845E+02  0.22129626123E+03  0.10100000352E+00 0.  1.
       -3    1    3    3    0  502 -0.62490502542E+02 -0.21057054955E+03  0.10015675906E+04  0.10253695276E+04  0.10100000352E+00 0. -1.
</event>
<event>
 5   0  0.2933851E-02  0.7265183E+03  0.7818609E-02  0.9672927E-01
        2   -1    0    0  501    0  0.00000000000E+00  0.00000000000E+00  0.29116108983E+03  0.29116108984E+03  0.25500000920E-02 0.  1.
       -2   -1    0    0    0  501  0.00000000000E+00  0.00000000000E+00 -0.45321034692E+03  0.45321034693E+03  0.25500000920E-02 0. -1.
    10030    2    1    2    0    0  0.00000000000E+00  0.00000000000E+00 -0.16204925709E+03  0.74437143677E+03  0.72651832334E+03 0.  0.
        2    1    3    3  502    0 -0.66309176534E+02  0.25301473435E+03 -0.33929816548E+03  0.42841172696E+03  0.25500000920E-02 0. -1.
       -2    1    3    3    0  502  0.66309176534E+02 -0.25301473435E+03  0.17724890839E+03  0.31595970981E+03  0.25500000920E-02 0.  1.
</event>
<event>
 5   0  0.1839038E-02  0.6961702E+03  0.7818609E-02  0.9723804E-01
        1   -1    0    0  501    0  0.00000000000E+00  0.00000000000E+00  0.12468630839E+04  0.12468630839E+04  0.50400001928E-02 0.  1.
       -1   -1    0    0    0  501  0.00000000000E+00  0.00000000000E+00 -0.97174444186E+02  0.97174444317E+02  0.50400001928E-02 0. -1.
    10030    2    1    2    0    0  0.00000000000E+00  0.00000000000E+00  0.11496886398E+04  0.13440375283E+04  0.69617017245E+03 0.  0.
        5    1    3    3  502    0  0.10323594649E+03  0.33193343835E+03  0.54120119789E+03  0.64324046417E+03  0.46999998093E+01 0.  1.
       -5    1    3    3    0  502 -0.10323594649E+03 -0.33193343835E+03  0.60848744186E+03  0.70079706410E+03  0.46999998093E+01 0. -1.
</event>
<event>
 5   0  0.1951465E-02  0.6950929E+03  0.7818609E-02  0.9725661E-01
       -1   -1    0    0    0  501  0.00000000000E+00  0.00000000000E+00  0.11045425751E+03  0.11045425763E+03  0.50400001928E-02 0. -1.
        1   -1    0    0  501    0  0.00000000000E+00  0.00000000000E+00 -0.10935617530E+04  0.10935617530E+04  0.50400001928E-02 0.  1.
    10030    2    1    2    0    0  0.00000000000E+00  0.00000000000E+00 -0.98310749549E+03  0.12040160106E+04  0.69509294788E+03 0.  0.
        4    1    3    3  502    0 -0.28290194875E+03  0.16805868519E+03 -0.29781659939E+03  0.44381705020E+03  0.12699999809E+01 0. -1.
       -4    1    3    3    0  502  0.28290194875E+03 -0.16805868519E+03 -0.68529089609E+03  0.76019896043E+03  0.12699999809E+01 0.  1.
</event>
<event>
 5   0  0.3184443E-02  0.7027581E+03  0.7818609E-02  0.9712527E-01
        2   -1    0    0  501    0  0.00000000000E+00  0.00000000000E+00  0.10988966939E+04  0.10988966939E+04  0.25500000920E-02 0.  1.
       -2   -1    0    0    0  501  0.00000000000E+00  0.00000000000E+00 -0.11235562245E+03  0.11235562248E+03  0.25500000920E-02 0. -1.
    10030    2    1    2    0    0  0.00000000000E+00  0.00000000000E+00  0.98654107144E+03  0.12112523164E+04  0.70275805815E+03 0.  0.
        3    1    3    3  502    0  0.15514016721E+03 -0.31219091062E+03  0.41744179056E+03  0.54386514401E+03  0.10100000352E+00 0. -1.
       -3    1    3    3    0  502 -0.15514016721E+03  0.31219091062E+03  0.56909928087E+03  0.66738717237E+03  0.10100000352E+00 0.  1.
</event>
<event>
 5   0  0.1884172E-02  0.7401853E+03  0.7818609E-02  0.9650875E-01
       -1   -1    0    0    0  501  0.00000000000E+00  0.00000000000E+00  0.22995455028E+03  0.22995455034E+03  0.50400001928E-02 0.  1.
        1   -1    0    0  501    0  0.00000000000E+00  0.00000000000E+00 -0.59563317885E+03  0.59563317887E+03  0.50400001928E-02 0. -1.
    10030    2    1    2    0    0  0.00000000000E+00  0.00000000000E+00 -0.36567862856E+03  0.82558772921E+03  0.74018527358E+03 0.  0.
        3    1    3    3  502    0 -0.60768612014E+02 -0.51606404213E+02  0.22026288493E+03  0.23424729207E+03  0.10100000352E+00 0.  1.
       -3    1    3    3    0  502  0.60768612014E+02  0.51606404213E+02 -0.58594151349E+03  0.59134043714E+03  0.10100000352E+00 0. -1.
</event>
<event>
 5   0  0.1858013E-02  0.7237769E+03  0.7818609E-02  0.9677413E-01
       -1   -1    0    0    0  501  0.00000000000E+00  0.00000000000E+00  0.17788974514E+03  0.17788974521E+03  0.50400001928E-02 0.  1.
        1   -1    0    0  501    0  0.00000000000E+00  0.00000000000E+00 -0.73620460119E+03  0.73620460121E+03  0.50400001928E-02 0. -1.
    10030    2    1    2    0    0  0.00000000000E+00  0.00000000000E+00 -0.55831485605E+03  0.91409434642E+03  0.72377689633E+03 0.  0.
        2    1    3    3  502    0  0.93174108226E+02 -0.27899380783E+03 -0.54541029426E+03  0.61967035457E+03  0.25500000920E-02 0. -1.
       -2    1    3    3    0  502 -0.93174108226E+02  0.27899380783E+03 -0.12904561799E+02  0.29442399184E+03  0.25500000920E-02 0.  1.
</event>
<event>
 5   0  0.1858013E-02  0.6998140E+03  0.7818609E-02  0.9717550E-01
       -1   -1    0    0    0  501  0.00000000000E+00  0.00000000000E+00  0.27465804350E+03  0.27465804354E+03  0.50400001928E-02 0.  1.
        1   -1    0    0  501    0  0.00000000000E+00  0.00000000000E+00 -0.44577219075E+03  0.44577219077E+03  0.50400001928E-02 0. -1.
    10030    2    1    2    0    0  0.00000000000E+00  0.00000000000E+00 -0.17111414725E+03  0.72043023432E+03  0.69981402610E+03 0.  0.
        2    1    3    3  502    0  0.22777566680E+03 -0.71985745806E+02 -0.34876718505E+03  0.42273189063E+03  0.25500000920E-02 0. -1.
       -2    1    3    3    0  502 -0.22777566680E+03  0.71985745806E+02  0.17765303780E+03  0.29769834368E+03  0.25500000920E-02 0.  1.
</event>
<event>
 5   0  0.3183963E-02  0.7001221E+03  0.7818609E-02  0.9717023E-01
       -2   -1    0    0    0  501  0.00000000000E+00  0.00000000000E+00  0.13288652885E+03  0.13288652887E+03  0.25500000920E-02 0. -1.
        2   -1    0    0  501    0  0.00000000000E+00  0.00000000000E+00 -0.92216077400E+03  0.92216077400E+03  0.25500000920E-02 0.  1.
    10030    2    1    2    0    0  0.00000000000E+00  0.00000000000E+00 -0.78927424515E+03  0.10550473029E+04  0.70012211595E+03 0.  0.
        4    1    3    3  502    0 -0.11978600038E+03  0.44879459616E+01  0.10099126684E+03  0.15674717358E+03  0.12699999809E+01 0. -1.
       -4    1    3    3    0  502  0.11978600038E+03 -0.44879459616E+01 -0.89026551199E+03  0.89830012929E+03  0.12699999809E+01 0.  1.
</event>
<event>
 5   0  0.1951465E-02  0.6799277E+03  0.7818609E-02  0.9752188E-01
        1   -1    0    0  501    0  0.00000000000E+00  0.00000000000E+00  0.12365532176E+03  0.12365532186E+03  0.50400001928E-02 0.  1.
       -1   -1    0    0    0  501  0.00000000000E+00  0.00000000000E+00 -0.93465789029E+03  0.93465789030E+03  0.50400001928E-02 0. -1.
    10030    2    1    2    0    0  0.00000000000E+00  0.00000000000E+00 -0.81100256853E+03  0.10583132122E+04  0.67992770856E+03 0.  0.
        4    1    3    3  502    0 -0.43764133692E+02  0.29861986143E+03 -0.16194532088E+03  0.34251572357E+03  0.12699999809E+01 0.  1.
       -4    1    3    3    0  502  0.43764133692E+02 -0.29861986143E+03 -0.64905724765E+03  0.71579748859E+03  0.12699999809E+01 0. -1.
</event>
<event>
 5   0  0.1969818E-02  0.7030218E+03  0.7818609E-02  0.9712078E-01
        1   -1    0    0  501    0  0.00000000000E+00  0.00000000000E+00  0.95216243971E+03  0.95216243973E+03  0.50400001928E-02 0. -1.
       -1   -1    0    0    0  501  0.00000000000E+00  0.00000000000E+00 -0.12976768759E+03  0.12976768768E+03  0.50400001928E-02 0.  1.
    10030    2    1    2    0    0  0.00000000000E+00  0.00000000000E+00  0.82239475213E+03  0.10819301274E+04  0.70302181493E+03 0.  0.
        1    1    3    3  502    0  0.25084688970E+02  0.32450904877E+03  0.20688744517E+03  0.38566537224E+03  0.50400001928E-02 0. -1.
       -1    1    3    3    0  502 -0.25084688970E+02 -0.32450904877E+03  0.61550730695E+03  0.69626475517E+03  0.50400001928E-02 0.  1.
</event>
<event>
 5   0  0.3113940E-02  0.7077119E+03  0.7818609E-02  0.9704134E-01
        2   -1    0    0  501    0  0.00000000000E+00  0.00000000000E+00  0.12157469033E+04  0.12157469033E+04  0.25500000920E-02 0. -1.
       -2   -1    0    0    0  501  0.00000000000E+00  0.00000000000E+00 -0.10299351520E+03  0.10299351523E+03  0.25500000920E-02 0.  1.
    10030    2    1    2    0    0  0.00000000000E+00  0.00000000000E+00  0.11127533881E+04  0.13187404185E+04  0.70771193911E+03 0.  0.
        5    1    3    3  502    0 -0.21313760277E+03 -0.38746159789E+02  0.35084535539E+02  0.21950379779E+03  0.46999998093E+01 0.  1.
       -5    1    3    3    0  502  0.21313760277E+03  0.38746159789E+02  0.10776688526E+04  0.10992366208E+04  0.46999998093E+01 0. -1.
</event>
<event>
 5   0  0.3290656E-02  0.7226777E+03  0.7818609E-02  0.9679217E-01
       -2   -1    0    0    0  501  0.00000000000E+00  0.00000000000E+00  0.93109462033E+02  0.93109462068E+02  0.25500000920E-02 0. -1.
        2   -1    0    0  501    0  0.00000000000E+00  0.00000000000E+00 -0.14022825390E+04  0.14022825391E+04  0.25500000920E-02 0.  1.
    10030    2    1    2    0    0  0.00000000000E+00  0.00000000000E+00 -0.13091730770E+04  0.14953920011E+04  0.72267772307E+03 0.  0.
        1    1    3    3  502    0  0.22104305645E+03  0.28537741051E+03 -0.68830137455E+03  0.77721237861E+03  0.50400001928E-02 0. -1.
       -1    1    3    3    0  502 -0.22104305645E+03 -0.28537741051E+03 -0.62087170247E+03  0.71817962251E+03  0.50400001928E-02 0.  1.
</event>
<event>
 5   0  0.3290656E-02  0.7145793E+03  0.7818609E-02  0.9692620E-01
        2   -1    0    0  501    0  0.00000000000E+00  0.00000000000E+00  0.18623260161E+04  0.18623260161E+04  0.25500000920E-02 0. -1.
       -2   -1    0    0    0  501  0.00000000000E+00  0.00000000000E+00 -0.68546473788E+02  0.68546473836E+02  0.25500000920E-02 0.  1.
    10030    2    1    2    0    0  0.00000000000E+00  0.00000000000E+00  0.17937795423E+04  0.19308724900E+04  0.71457926501E+03 0.  0.
        1    1    3    3  502    0  0.64855274861E+02 -0.17415067106E+03  0.17214597334E+04  0.17314613125E+04  0.50400001928E-02 0. -1.
       -1    1    3    3    0  502 -0.64855274861E+02  0.17415067106E+03  0.72319808932E+02  0.19941117747E+03  0.50400001928E-02 0.  1.
</event>
<event>
 5   0  0.1233912E-02  0.7086580E+03  0.7818609E-02  0.9702539E-01
       -3   -1    0    0    0  501  0.00000000000E+00  0.00000000000E+00  0.37773354699E+03  0.37773356049E+03  0.10100000352E+00 0. -1.
        3   -1    0    0  501    0  0.00000000000E+00  0.00000000000E+00 -0.33237461403E+03  0.33237462937E+03  0.10100000352E+00 0.  1.
    10030    2    1    2    0    0  0.00000000000E+00  0.00000000000E+00  0.45358932958E+02  0.71010818986E+03  0.70865803355E+03 0.  0.
        5    1    3    3  502    0 -0.27541936118E+03 -0.22143437876E+03 -0.26299611956E+01  0.35343742771E+03  0.46999998093E+01 0. -1.
       -5    1    3    3    0  502  0.27541936118E+03  0.22143437876E+03  0.47988894153E+02  0.35667076215E+03  0.46999998093E+01 0.  1.
</event>
<event>
 5   0  0.1884172E-02  0.7172144E+03  0.7818609E-02  0.9688238E-01
        1   -1    0    0  501    0  0.00000000000E+00  0.00000000000E+00  0.25665052726E+03  0.25665052731E+03  0.50400001928E-02 0.  1.
       -1   -1    0    0    0  501  0.00000000000E+00  0.00000000000E+00 -0.50106708099E+03  0.50106708102E+03  0.50400001928E-02 0. -1.
    10030    2    1    2    0    0  0.00000000000E+00  0.00000000000E+00 -0.24441655374E+03  0.75771760832E+03  0.71721441858E+03 0.  0.
        3    1    3    3  502    0  0.40190906930E+02  0.31248124689E+03  0.58751939312E+02  0.32048656638E+03  0.10100000352E+00 0. -1.
       -3    1    3    3    0  502 -0.40190906930E+02 -0.31248124689E+03 -0.30316849305E+03  0.43723104194E+03  0.10100000352E+00 0.  1.
</event>
<event>
 5   0  0.3113940E-02  0.6948247E+03  0.7818609E-02  0.9726124E-01
        2   -1    0    0  501    0  0.00000000000E+00  0.00000000000E+00  0.10563293181E+04  0.10563293181E+04  0.25500000920E-02 0. -1.
       -2   -1    0    0    0  501  0.00000000000E+00  0.00000000000E+00 -0.11425920132E+03  0.11425920135E+03  0.25500000920E-02 0.  1.
    10030    2    1    2    0    0  0.00000000000E+00  0.00000000000E+00  0.94207011673E+03  0.11705885194E+04  0.69482470951E+03 0.  0.
        5    1    3    3  502    0  0.31572864275E+03 -0.60916949974E+02  0.24958628843E+03  0.40707598310E+03  0.46999998093E+01 0.  1.
       -5    1    3    3    0  502 -0.31572864275E+03  0.60916949974E+02  0.69248382830E+03  0.76351253631E+03  0.46999998093E+01 0. -1.
</event>
<event>
 5   0  0.2933851E-02  0.7013450E+03  0.7818609E-02  0.9714935E-01
        2   -1    0    0  501    0  0.00000000000E+00  0.00000000000E+00  0.88661796099E+03  0.88661796100E+03  0.25500000920E-02 0.  1.
       -2   -1    0    0    0  501  0.00000000000E+00  0.00000000000E+00 -0.13869692604E+03  0.13869692607E+03  0.25500000920E-02 0. -1.
    10030    2    1    2    0    0  0.00000000000E+00  0.00000000000E+00  0.74792103495E+03  0.10253148871E+04  0.70134495301E+03 0.  0.
        2    1    3    3  502    0 -0.15456558368E+03 -0.30413376543E+03  0.49257781677E+03  0.59918342142E+03  0.25500000920E-02 0.  1.
       -2    1    3    3    0  502  0.15456558368E+03  0.30413376543E+03  0.25534321818E+03  0.42613146564E+03  0.25500000920E-02 0. -1.
</event>
<event>
 5   0  0.1839038E-02  0.7020209E+03  0.7818609E-02  0.9713782E-01
       -1   -1    0    0    0  501  0.00000000000E+00  0.00000000000E+00  0.50697326564E+02  0.50697326814E+02  0.50400001928E-02 0.  1.
        1   -1    0    0  501    0  0.00000000000E+00  0.00000000000E+00 -0.24302729094E+04  0.24302729094E+04  0.50400001928E-02 0. -1.
    10030    2    1    2    0    0  0.00000000000E+00  0.00000000000E+00 -0.23795755828E+04  0.24809702362E+04  0.70202091036E+03 0.  0.
        5    1    3    3  502    0 -0.21407484153E+03  0.16623921058E+03 -0.19778291627E+04  0.19963200644E+04  0.46999998093E+01 0. -1.
       -5    1    3    3    0  502  0.21407484153E+03 -0.16623921058E+03 -0.40174642018E+03  0.48465017181E+03  0.46999998093E+01 0.  1.
</event>
<event>
 5   0  0.3290656E-02  0.7100131E+03  0.7818609E-02  0.9700260E-01
       -2   -1    0    0    0  501  0.00000000000E+00  0.00000000000E+00  0.11802974976E+03  0.11802974979E+03  0.25500000920E-02 0.  1.
        2   -1    0    0  501    0  0.00000000000E+00  0.00000000000E+00 -0.10677785370E+04  0.10677785370E+04  0.25500000920E-02 0. -1.
    10030    2    1    2    0    0  0.00000000000E+00  0.00000000000E+00 -0.94974878722E+03  0.11858082868E+04  0.71001305209E+03 0.  0.
        1    1    3    3  502    0 -0.13706231210E+03 -0.27257088894E+03 -0.17171776363E+03  0.35009706835E+03  0.50400001928E-02 0.  1.
       -1    1    3    3    0  502  0.13706231210E+03  0.27257088894E+03 -0.77803102359E+03  0.83571121842E+03  0.50400001928E-02 0. -1.
</event>
<event>
 5   0  0.3183963E-02  0.6897600E+03  0.7818609E-02  0.9734906E-01
       -2   -1    0    0    0  501  0.00000000000E+00  0.00000000000E+00  0.59565992483E+03  0.59565992484E+03  0.25500000920E-02 0.  1.
        2   -1    0    0  501    0  0.00000000000E+00  0.00000000000E+00 -0.19968140600E+03  0.19968140601E+03  0.25500000920E-02 0. -1.
    10030    2    1    2    0    0  0.00000000000E+00  0.00000000000E+00  0.39597851884E+03  0.79534133086E+03  0.68975999100E+03 0.  0.
        4    1    3    3  502    0 -0.15204852894E+03  0.30945962407E+03  0.20666294312E+03  0.40198905338E+03  0.12699999809E+01 0. -1.
       -4    1    3    3    0  502  0.15204852894E+03 -0.30945962407E+03  0.18931557572E+03  0.39335227747E+03  0.12699999809E+01 0.  1.
</event>
<event>
 5   0  0.3290656E-02  0.7004369E+03  0.7818609E-02  0.9716485E-01
       -2   -1    0    0    0  501  0.00000000000E+00  0.00000000000E+00  0.45314610274E+03  0.45314610274E+03  0.25500000920E-02 0.  1.
        2   -1    0    0  501    0  0.00000000000E+00  0.00000000000E+00 -0.27066976604E+03  0.27066976605E+03  0.25500000920E-02 0. -1.
    10030    2    1    2    0    0  0.00000000000E+00  0.00000000000E+00  0.18247633670E+03  0.72381586879E+03  0.70043686258E+03 0.  0.
        1    1    3    3  502    0  0.24111979491E+03  0.53654702861E+02  0.34778939717E+03  0.42658533431E+03  0.50400001928E-02 0.  1.
       -1    1    3    3    0  502 -0.24111979491E+03 -0.53654702861E+02 -0.16531306048E+03  0.29723053448E+03  0.50400001928E-02 0. -1.
</event>
<event>
 5   0  0.2933851E-02  0.7018966E+03  0.7818609E-02  0.9713994E-01
       -2   -1    0    0    0  501  0.00000000000E+00  0.00000000000E+00  0.31485956132E+03  0.31485956133E+03  0.25500000920E-02 0.  1.
        2   -1    0    0  501    0  0.00000000000E+00  0.00000000000E+00 -0.39117352953E+03  0.39117352954E+03  0.25500000920E-02 0. -1.
    10030    2    1    2    0    0  0.00000000000E+00  0.00000000000E+00 -0.76313968211E+02  0.70603309087E+03  0.70189664742E+03 0.  0.
        2    1    3    3  502    0 -0.17244628431E+03  0.27862606581E+03 -0.16457387635E+03  0.36668074166E+03  0.25500000920E-02 0. -1.
       -2    1    3    3    0  502  0.17244628431E+03 -0.27862606581E+03  0.88259908135E+02  0.33935234921E+03  0.25500000920E-02 0.  1.
</event>
<event>
 5   0  0.1858013E-02  0.6998113E+03  0.7818609E-02  0.9717555E-01
        1   -1    0    0  501    0  0.00000000000E+00  0.00000000000E+00  0.99807541951E+03  0.99807541952E+03  0.50400001928E-02 0.  1.
       -1   -1    0    0    0  501  0.00000000000E+00  0.00000000000E+00 -0.12267006845E+03  0.12267006855E+03  0.50400001928E-02 0. -1.
    10030    2    1    2    0    0  0.00000000000E+00  0.00000000000E+00  0.87540535105E+03  0.11207454881E+04  0.69981134628E+03 0.  0.
        2    1    3    3  502    0 -0.77847449950E+02 -0.15268865577E+03 -0.50845480093E+02  0.17877168097E+03  0.25500000920E-02 0. -1.
       -2    1    3    3    0  502  0.77847449950E+02  0.15268865577E+03  0.92625083115E+03  0.94197380710E+03  0.25500000920E-02 0.  1.
</event>
<event>
 5   0  0.1858013E-02  0.7005961E+03  0.7818609E-02  0.9716213E-01
        1   -1    0    0  501    0  0.00000000000E+00  0.00000000000E+00  0.64982037054E+03  0.64982037056E+03  0.50400001928E-02 0. -1.
       -1   -1    0    0    0  501  0.00000000000E+00  0.00000000000E+00 -0.18883482140E+03  0.18883482147E+03  0.50400001928E-02 0.  1.
    10030    2    1    2    0    0  0.00000000000E+00  0.00000000000E+00  0.46098554914E+03  0.83865519203E+03  0.70059607093E+03 0.  0.
        2    1    3    3  502    0 -0.19016578282E+03  0.26702057775E+03  0.37829787598E+03  0.50057196973E+03  0.25500000920E-02 0. -1.
       -2    1    3    3    0  502  0.19016578282E+03 -0.26702057775E+03  0.82687673157E+02  0.33808322230E+03  0.25500000920E-02 0.  1.
</event>
<event>
 5   0  0.3290656E-02  0.6901320E+03  0.7818609E-02  0.9734258E-01
       -2   -1    0    0    0  501  0.00000000000E+00  0.00000000000E+00  0.60926387868E+02  0.60926387921E+02  0.25500000920E-02 0.  1.
        2   -1    0    0  501    0  0.00000000000E+00  0.00000000000E+00 -0.19543348122E+04  0.19543348122E+04  0.25500000920E-02 0. -1.
    10030    2    1    2    0    0  0.00000000000E+00  0.00000000000E+00 -0.18934084243E+04  0.20152612001E+04  0.69013204778E+03 0.  0.
        1    1    3    3  502    0 -0.21377775207E+03  0.17831682297E+03 -0.35131152707E+03  0.44823833584E+03  0.50400001928E-02 0.  1.
       -1    1    3    3    0  502  0.21377775207E+03 -0.17831682297E+03 -0.15420968972E+04  0.15670228642E+04  0.50400001928E-02 0. -1.
</event>
<event>
 5   0  0.1969818E-02  0.6966435E+03  0.7818609E-02  0.9722990E-01
       -1   -1    0    0    0  501  0.00000000000E+00  0.00000000000E+00  0.18915135303E+03  0.18915135309E+03  0.50400001928E-02 0. -1.
        1   -1    0    0  501    0  0.00000000000E+00  0.00000000000E+00 -0.64143358264E+03  0.64143358266E+03  0.50400001928E-02 0.  1.
    10030    2    1    2    0    0  0.00000000000E+00  0.00000000000E+00 -0.45228222962E+03  0.83058493576E+03  0.69664346712E+03 0.  0.
        1    1    3    3  502    0 -0.33264994545E+03  0.31771313365E+02 -0.10894287214E+03  0.35147397055E+03  0.50400001928E-02 0.  1.
       -1    1    3    3    0  502  0.33264994545E+03 -0.31771313365E+02 -0.34333935748E+03  0.47911096521E+03  0.50400001928E-02 0. -1.
</event>
<event>
 5   0  0.1839038E-02  0.7042198E+03  0.7818609E-02  0.9710043E-01
        1   -1    0    0  501    0  0.00000000000E+00  0.00000000000E+00  0.20984817428E+03  0.20984817434E+03  0.50400001928E-02 0. -1.
       -1   -1    0    0    0  501  0.00000000000E+00  0.00000000000E+00 -0.59081463244E+03  0.59081463246E+03  0.50400001928E-02 0.  1.
    10030    2    1    2    0    0  0.00000000000E+00  0.00000000000E+00 -0.38096645817E+03  0.80066280680E+03  0.70421977247E+03 0.  0.
        5    1    3    3  502    0 -0.21810892299E+03 -0.15449327036E+03 -0.45103989154E+03  0.52430787390E+03  0.46999998093E+01 0.  1.
       -5    1    3    3    0  502  0.21810892299E+03  0.15449327036E+03  0.70073433373E+02  0.27635493290E+03  0.46999998093E+01 0. -1.
</event>
<event>
 5   0  0.3184443E-02  0.6964628E+03  0.7818609E-02  0.9723300E-01
        2   -1    0    0  501    0  0.00000000000E+00  0.00000000000E+00  0.17439119901E+04  0.17439119901E+04  0.25500000920E-02 0.  1.
       -2   -1    0    0    0  501  0.00000000000E+00  0.00000000000E+00 -0.69536251130E+02  0.69536251177E+02  0.25500000920E-02 0. -1.
    10030    2    1    2    0    0  0.00000000000E+00  0.00000000000E+00  0.16743757390E+04  0.18134482413E+04  0.69646278332E+03 0.  0.
        3    1    3    3  502    0  0.13367134840E+03  0.20863631773E+03  0.14742832297E+04  0.14949609340E+04  0.10100000352E+00 0.  1.
       -3    1    3    3    0  502 -0.13367134840E+03 -0.20863631773E+03  0.20009250924E+03  0.31848730730E+03  0.10100000352E+00 0. -1.
</event>
<event>
 5   0  0.1951465E-02  0.6999320E+03  0.7818609E-02  0.9717348E-01
        1   -1    0    0  501    0  0.00000000000E+00  0.00000000000E+00  0.33175174704E+03  0.33175174708E+03  0.50400001928E-02 0.  1.
       -1   -1    0    0    0  501  0.00000000000E+00  0.00000000000E+00 -0.36918029316E+03  0.36918029320E+03  0.50400001928E-02 0. -1.
    10030    2    1    2    0    0  0.00000000000E+00  0.00000000000E+00 -0.37428546120E+02  0.70093204028E+03  0.69993201743E+03 0.  0.
        4    1    3    3  502    0  0.28998775700E+03 -0.17021191232E+03 -0.11585595853E+03  0.35565321639E+03  0.12699999809E+01 0.  1.
       -4    1    3    3    0  502 -0.28998775700E+03  0.17021191232E+03  0.78427412408E+02  0.34527882388E+03  0.12699999809E+01 0. -1.
</event>
<event>
 5   0  0.2933851E-02  0.6983023E+03  0.7818609E-02  0.9720140E-01
       -2   -1    0    0    0  501  0.00000000000E+00  0.00000000000E+00  0.69502877814E+02  0.69502877861E+02  0.25500000920E-02 0. -1.
        2   -1    0    0  501    0  0.00000000000E+00  0.00000000000E+00 -0.17539778587E+04  0.17539778587E+04  0.25500000920E-02 0.  1.
    10030    2    1    2    0    0  0.00000000000E+00  0.00000000000E+00 -0.16844749808E+04  0.18234807365E+04  0.69830225216E+03 0.  0.
        2    1    3    3  502    0  0.12891489167E+03 -0.96217190716E+02 -0.33028778664E+02  0.16421844388E+03  0.25500000920E-02 0. -1.
       -2    1    3    3    0  502 -0.12891489167E+03  0.96217190716E+02 -0.16514462022E+04  0.16592622926E+04  0.25500000920E-02 0.  1.
</event>
<event>
 5   0  0.1951465E-02  0.6988948E+03  0.7818609E-02  0.9719124E-01
        1   -1    0    0  501    0  0.00000000000E+00  0.00000000000E+00  0.14055544185E+04  0.14055544185E+04  0.50400001928E-02 0. -1.
       -1   -1    0    0    0  501  0.00000000000E+00  0.00000000000E+00 -0.86879220537E+02  0.86879220683E+02  0.50400001928E-02 0.  1.
    10030    2    1    2    0    0  0.00000000000E+00  0.00000000000E+00  0.13186751980E+04  0.14924336392E+04  0.69889476295E+03 0.  0.
        4    1    3    3  502    0 -0.19486795825E+03  0.18861078920E+03  0.11299266822E+04  0.11620169840E+04  0.12699999809E+01 0. -1.
       -4    1    3    3    0  502  0.19486795825E+03 -0.18861078920E+03  0.18874851576E+03  0.33041665523E+03  0.12699999809E+01 0.  1.
</event>
<event>
 5   0  0.1969818E-02  0.7027553E+03  0.7818609E-02  0.9712532E-01
       -1   -1    0    0    0  501  0.00000000000E+00  0.00000000000E+00  0.48688818851E+03  0.48688818854E+03  0.50400001928E-02 0. -1.
        1   -1    0    0  501    0  0.00000000000E+00  0.00000000000E+00 -0.25358238797E+03  0.25358238802E+03  0.50400001928E-02 0.  1.
    10030    2    1    2    0    0  0.00000000000E+00  0.00000000000E+00  0.23330580054E+03  0.74047057656E+03  0.70275534732E+03 0.  0.
        1    1    3    3  502    0  0.24033087074E+03 -0.15477543172E+03  0.33195179965E+03  0.43807118030E+03  0.50400001928E-02 0. -1.
       -1    1    3    3    0  502 -0.24033087074E+03  0.15477543172E+03 -0.98645999105E+02  0.30239939626E+03  0.50400001928E-02 0.  1.
</event>
<event>
 5   0  0.3113940E-02  0.7181136E+03  0.7818609E-02  0.9686747E-01
        2   -1    0    0  501    0  0.00000000000E+00  0.00000000000E+00  0.12977845244E+04  0.12977845244E+04  0.25500000920E-02 0.  1.
       -2   -1    0    0    0  501  0.00000000000E+00  0.00000000000E+00 -0.99339904598E+02  0.99339904630E+02  0.25500000920E-02 0. -1.
    10030    2    1    2    0    0  0.00000000000E+00  0.00000000000E+00  0.11984446198E+04  0.13971244290E+04  0.71811361459E+03 0.  0.
        5    1    3    3  502    0  0.22531198945E+02  0.14319588784E+03  0.12382599678E+04  0.12467247310E+04  0.46999998093E+01 0.  1.
       -5    1    3    3    0  502 -0.22531198945E+02 -0.14319588784E+03 -0.39815347970E+02  0.15039969798E+03  0.46999998093E+01 0. -1.
</event>
<event>
 5   0  0.1884172E-02  0.6897742E+03  0.7818609E-02  0.9734881E-01
       -1   -1    0    0    0  501  0.00000000000E+00  0.00000000000E+00  0.99179138648E+03  0.99179138649E+03  0.50400001928E-02 0. -1.
        1   -1    0    0  501    0  0.00000000000E+00  0.00000000000E+00 -0.11993157708E+03  0.11993157718E+03  0.50400001928E-02 0.  1.
    10030    2    1    2    0    0  0.00000000000E+00  0.00000000000E+00  0.87185980941E+03  0.11117229637E+04  0.68977418095E+03 0.  0.
        3    1    3    3  502    0  0.22647595918E+03  0.12149889471E+02  0.85469225956E+03  0.88427249683E+03  0.10100000352E+00 0. -1.
       -3    1    3    3    0  502 -0.22647595918E+03 -0.12149889471E+02  0.17167549845E+02  0.22745046685E+03  0.10100000352E+00 0.  1.
</event>
<event>
 5   0  0.1884172E-02  0.7026562E+03  0.7818609E-02  0.9712701E-01
       -1   -1    0    0    0  501  0.00000000000E+00  0.00000000000E+00  0.13580148219E+03  0.13580148228E+03  0.50400001928E-02 0.  1.
        1   -1    0    0  501    0  0.00000000000E+00  0.00000000000E+00 -0.90891070530E+03  0.90891070531E+03  0.50400001928E-02 0. -1.
    10030    2    1    2    0    0  0.00000000000E+00  0.00000000000E+00 -0.77310922310E+03  0.10447121876E+04  0.70265616347E+03 0.  0.
        3    1    3    3  502    0  0.27329016803E+02  0.23788257103E+03 -0.76880044777E+03  0.80522613684E+03  0.10100000352E+00 0. -1.
       -3    1    3    3    0  502 -0.27329016803E+02 -0.23788257103E+03 -0.43087753354E+01  0.23948605075E+03  0.10100000352E+00 0.  1.
</event>
<event>
 5   0  0.2933851E-02  0.6535306E+03  0.7818609E-02  0.9800177E-01
       -2   -1    0    0    0  501  0.00000000000E+00  0.00000000000E+00  0.15374092274E+03  0.15374092276E+03  0.25500000920E-02 0. -1.
        2   -1    0    0  501    0  0.00000000000E+00  0.00000000000E+00 -0.69451630063E+03  0.69451630064E+03  0.25500000920E-02 0.  1.
    10030    2    1    2    0    0  0.00000000000E+00  0.00000000000E+00 -0.54077537789E+03  0.84825722340E+03  0.65353064788E+03 0.  0.
        2    1    3    3  502    0  0.30190346777E+03 -0.26200754728E+01 -0.43262245952E+03  0.52755545787E+03  0.25500000920E-02 0.  1.
       -2    1    3    3    0  502 -0.30190346777E+03  0.26200754728E+01 -0.10815291838E+03  0.32070176552E+03  0.25500000920E-02 0. -1.
</event>
<event>
 5   0  0.3183963E-02  0.6907039E+03  0.7818609E-02  0.9733263E-01
        2   -1    0    0  501    0  0.00000000000E+00  0.00000000000E+00  0.70802271068E+03  0.70802271068E+03  0.25500000920E-02 0. -1.
       -2   -1    0    0    0  501  0.00000000000E+00  0.00000000000E+00 -0.16845220027E+03  0.16845220029E+03  0.25500000920E-02 0.  1.
    10030    2    1    2    0    0  0.00000000000E+00  0.00000000000E+00  0.53957051041E+03  0.87647491097E+03  0.69070394082E+03 0.  0.
        4    1    3    3  502    0  0.86437841662E+02  0.30711092779E+03  0.43754597980E+03  0.54151336066E+03  0.12699999809E+01 0.  1.
       -4    1    3    3    0  502 -0.86437841662E+02 -0.30711092779E+03  0.10202453061E+03  0.33496155031E+03  0.12699999809E+01 0. -1.
</event>
<event>
 5   0  0.1884172E-02  0.7040087E+03  0.7818609E-02  0.9710401E-01
       -1   -1    0    0    0  501  0.00000000000E+00  0.00000000000E+00  0.21879099583E+03  0.21879099589E+03  0.50400001928E-02 0.  1.
        1   -1    0    0  501    0  0.00000000000E+00  0.00000000000E+00 -0.56632609577E+03  0.56632609579E+03  0.50400001928E-02 0. -1.
    10030    2    1    2    0    0  0.00000000000E+00  0.00000000000E+00 -0.34753509994E+03  0.78511709168E+03  0.70400866611E+03 0.  0.
        3    1    3    3  502    0  0.28432716546E+03 -0.35404448096E+02  0.54269265404E+02  0.29161717256E+03  0.10100000352E+00 0.  1.
       -3    1    3    3    0  502 -0.28432716546E+03  0.35404448096E+02 -0.40180436534E+03  0.49349991912E+03  0.10100000352E+00 0. -1.
</event>
<event>
 5   0  0.2933851E-02  0.6962634E+03  0.7818609E-02  0.9723644E-01
       -2   -1    0    0    0  501  0.00000000000E+00  0.00000000000E+00  0.44833584974E+02  0.44833585047E+02  0.25500000920E-02 0. -1.
        2   -1    0    0  501    0  0.00000000000E+00  0.00000000000E+00 -0.27032341112E+04  0.27032341112E+04  0.25500000920E-02 0.  1.
    10030    2    1    2    0    0  0.00000000000E+00  0.00000000000E+00 -0.26584005262E+04  0.27480676962E+04  0.69626338789E+03 0.  0.
        2    1    3    3  502    0  0.10629897317E+03 -0.28673565229E+03 -0.67255918382E+03  0.73881842271E+03  0.25500000920E-02 0. -1.
       -2    1    3    3    0  502 -0.10629897317E+03  0.28673565229E+03 -0.19858413424E+04  0.20092492735E+04  0.25500000920E-02 0.  1.
</event>
<event>
 5   0  0.3183963E-02  0.7009711E+03  0.7818609E-02  0.9715573E-01
       -2   -1    0    0    0  501  0.00000000000E+00  0.00000000000E+00  0.14932317064E+03  0.14932317066E+03  0.25500000920E-02 0.  1.
        2   -1    0    0  501    0  0.00000000000E+00  0.00000000000E+00 -0.82264606381E+03  0.82264606381E+03  0.25500000920E-02 0. -1.
    10030    2    1    2    0    0  0.00000000000E+00  0.00000000000E+00 -0.67332289317E+03  0.97196923447E+03  0.70097109377E+03 0.  0.
        4    1    3    3  502    0  0.32188949221E+03  0.10500500566E+03 -0.21110211701E+03  0.39900452768E+03  0.12699999809E+01 0. -1.
       -4    1    3    3    0  502 -0.32188949221E+03 -0.10500500566E+03 -0.46222077617E+03  0.57296470679E+03  0.12699999809E+01 0.  1.
</event>
<event>
 5   0  0.3184443E-02  0.6995413E+03  0.7818609E-02  0.9718017E-01
        2   -1    0    0  501    0  0.00000000000E+00  0.00000000000E+00  0.10142946725E+04  0.10142946725E+04  0.25500000920E-02 0. -1.
       -2   -1    0    0    0  501  0.00000000000E+00  0.00000000000E+00 -0.12061533686E+03  0.12061533688E+03  0.25500000920E-02 0.  1.
    10030    2    1    2    0    0  0.00000000000E+00  0.00000000000E+00  0.89367933564E+03  0.11349100094E+04  0.69954126000E+03 0.  0.
        3    1    3    3  502    0  0.53625786443E+02 -0.15647118486E+03 -0.53155006248E+02  0.17373664425E+03  0.10100000352E+00 0.  1.
       -3    1    3    3    0  502 -0.53625786443E+02  0.15647118486E+03  0.94683434189E+03  0.96117336513E+03  0.10100000352E+00 0. -1.
</event>
<event>
 5   0  0.1884172E-02  0.6453163E+03  0.7818609E-02  0.9815608E-01
        1   -1    0    0  501    0  0.00000000000E+00  0.00000000000E+00  0.84762645368E+03  0.84762645370E+03  0.50400001928E-02 0. -1.
       -1   -1    0    0    0  501  0.00000000000E+00  0.00000000000E+00 -0.12282330358E+03  0.12282330368E+03  0.50400001928E-02 0.  1.
    10030    2    1    2    0    0  0.00000000000E+00  0.00000000000E+00  0.72480315010E+03  0.97044975738E+03  0.64531629857E+03 0.  0.
        3    1    3    3  502    0 -0.11029057813E+03  0.13573295142E+03 -0.45359352681E+02  0.18067907128E+03  0.10100000352E+00 0.  1.
       -3    1    3    3    0  502  0.11029057813E+03 -0.13573295142E+03  0.77016250278E+03  0.78977068610E+03  0.10100000352E+00 0. -1.
</event>
<event>
 5   0  0.2933851E-02  0.7010322E+03  0.7818609E-02  0.9715469E-01
       -2   -1    0    0    0  501  0.00000000000E+00  0.00000000000E+00  0.37417195976E+02  0.37417196063E+02  0.25500000920E-02 0. -1.
        2   -1    0    0  501    0  0.00000000000E+00  0.00000000000E+00 -0.32835580705E+04  0.32835580705E+04  0.25500000920E-02 0.  1.
    10030    2    1    2    0    0  0.00000000000E+00  0.00000000000E+00 -0.32461408745E+04  0.33209752666E+04  0.70103219888E+03 0.  0.
        2    1    3    3  502    0 -0.44855053456E+02  0.54968659575E+02  0.30471258066E+01  0.71012775880E+02  0.25500000920E-02 0. -1.
       -2    1    3    3    0  502  0.44855053456E+02 -0.54968659575E+02 -0.32491880003E+04  0.32499624907E+04  0.25500000920E-02 0.  1.
</event>
<event>
 5   0  0.1839038E-02  0.6995996E+03  0.7818609E-02  0.9717917E-01
       -1   -1    0    0    0  501  0.00000000000E+00  0.00000000000E+00  0.67453409258E+03  0.67453409260E+03  0.50400001928E-02 0. -1.
        1   -1    0    0  501    0  0.00000000000E+00  0.00000000000E+00 -0.18139913458E+03  0.18139913465E+03  0.50400001928E-02 0.  1.
    10030    2    1    2    0    0  0.00000000000E+00  0.00000000000E+00  0.49313495800E+03  0.85593322725E+03  0.69959960171E+03 0.  0.
        5    1    3    3  502    0 -0.18088697091E+03 -0.19765515378E+03  0.52164276715E+03  0.58644771513E+03  0.46999998093E+01 0.  1.
       -5    1    3    3    0  502  0.18088697091E+03  0.19765515378E+03 -0.28507809149E+02  0.26948551212E+03  0.46999998093E+01 0. -1.
</event>
<event>
 5   0  0.1951465E-02  0.7029038E+03  0.7818609E-02  0.9712279E-01
       -1   -1    0    0    0  501  0.00000000000E+00  0.00000000000E+00  0.93181515757E+02  0.93181515893E+02  0.50400001928E-02 0.  1.
        1   -1    0    0  501    0  0.00000000000E+00  0.00000000000E+00 -0.13255680273E+04  0.13255680273E+04  0.50400001928E-02 0. -1.
    10030    2    1    2    0    0  0.00000000000E+00  0.00000000000E+00 -0.12323865115E+04  0.14187495432E+04  0.70290380032E+03 0.  0.
        4    1    3    3  502    0 -0.33894544323E+02 -0.13122896292E+03  0.38304514787E+02  0.14085002519E+03  0.12699999809E+01 0.  1.
       -4    1    3    3    0  502  0.33894544323E+02  0.13122896292E+03 -0.12706910263E+04  0.12778995180E+04  0.12699999809E+01 0. -1.
</event>
<event>
 5   0  0.2933851E-02  0.6979079E+03  0.7818609E-02  0.9720817E-01
        2   -1    0    0  501    0  0.00000000000E+00  0.00000000000E+00  0.26482559732E+04  0.26482559732E+04  0.25500000920E-02 0. -1.
       -2   -1    0    0    0  501  0.00000000000E+00  0.00000000000E+00 -0.45980769585E+02  0.45980769656E+02  0.25500000920E-02 0.  1.
    10030    2    1    2    0    0  0.00000000000E+00  0.00000000000E+00  0.26022752036E+04  0.26942367429E+04  0.69790786728E+03 0.  0.
        2    1    3    3  502    0 -0.11737928523E+03  0.30770266993E+03  0.17465137795E+04  0.17772926635E+04  0.25500000920E-02 0. -1.
       -2    1    3    3    0  502  0.11737928523E+03 -0.30770266993E+03  0.85576142410E+03  0.91694407936E+03  0.25500000920E-02 0.  1.
</event>
<event>
 5   0  0.1839038E-02  0.6982272E+03  0.7818609E-02  0.9720269E-01
        1   -1    0    0  501    0  0.00000000000E+00  0.00000000000E+00  0.57671191464E+03  0.57671191466E+03  0.50400001928E-02 0.  1.
       -1   -1    0    0    0  501  0.00000000000E+00  0.00000000000E+00 -0.21133653741E+03  0.21133653747E+03  0.50400001928E-02 0. -1.
    10030    2    1    2    0    0  0.00000000000E+00  0.00000000000E+00  0.36537537723E+03  0.78804845213E+03  0.69822718124E+03 0.  0.
        5    1    3    3  502    0  0.48891772771E+02 -0.16524688974E+02  0.57234668827E+03  0.57468799567E+03  0.46999998093E+01 0.  1.
       -5    1    3    3    0  502 -0.48891772771E+02  0.16524688974E+02 -0.20697131104E+03  0.21336045646E+03  0.46999998093E+01 0. -1.
</event>
<event>
 5   0  0.1884172E-02  0.6610391E+03  0.7818609E-02  0.9786283E-01
        1   -1    0    0  501    0  0.00000000000E+00  0.00000000000E+00  0.13783669528E+04  0.13783669528E+04  0.50400001928E-02 0.  1.
       -1   -1    0    0    0  501  0.00000000000E+00  0.00000000000E+00 -0.79255519057E+02  0.79255519217E+02  0.50400001928E-02 0. -1.
    10030    2    1    2    0    0  0.00000000000E+00  0.00000000000E+00  0.12991114338E+04  0.14576224720E+04  0.66103914686E+03 0.  0.
        3    1    3    3  502    0  0.25883276193E+02  0.16757018361E+03  0.23953621188E+02  0.17124104821E+03  0.10100000352E+00 0. -1.
       -3    1    3    3    0  502 -0.25883276193E+02 -0.16757018361E+03  0.12751578126E+04  0.12863814238E+04  0.10100000352E+00 0.  1.
</event>
<event>
 5   0  0.1884172E-02  0.6726992E+03  0.7818609E-02  0.9765094E-01
        1   -1    0    0  501    0  0.00000000000E+00  0.00000000000E+00  0.20557454714E+03  0.20557454720E+03  0.50400001928E-02 0.  1.
       -1   -1    0    0    0  501  0.00000000000E+00  0.00000000000E+00 -0.55031636195E+03  0.55031636198E+03  0.50400001928E-02 0. -1.
    10030    2    1    2    0    0  0.00000000000E+00  0.00000000000E+00 -0.34474181482E+03  0.75589090917E+03  0.67269915095E+03 0.  0.
        3    1    3    3  502    0  0.42030099611E+02  0.18175431776E+03 -0.48685735365E+03  0.52137438976E+03  0.10100000352E+00 0. -1.
       -3    1    3    3    0  502 -0.42030099611E+02 -0.18175431776E+03  0.14211553883E+03  0.23451651941E+03  0.10100000352E+00 0.  1.
</event>
<event>
 5   0  0.1858013E-02  0.6943915E+03  0.7818609E-02  0.9726872E-01
       -1   -1    0    0    0  501  0.00000000000E+00  0.00000000000E+00  0.11376138540E+03  0.11376138551E+03  0.50400001928E-02 0. -1.
        1   -1    0    0  501    0  0.00000000000E+00  0.00000000000E+00 -0.10596292396E+04  0.10596292396E+04  0.50400001928E-02 0.  1.
    10030    2    1    2    0    0  0.00000000000E+00  0.00000000000E+00 -0.94586785417E+03  0.11733906251E+04  0.69439150449E+03 0.  0.
        2    1    3    3  502    0 -0.15377800268E+03 -0.30646698870E+03 -0.56510536821E+03  0.66099452831E+03  0.25500000920E-02 0.  1.
       -2    1    3    3    0  502  0.15377800268E+03  0.30646698870E+03 -0.38076248596E+03  0.51239609678E+03  0.25500000920E-02 0. -1.
</event>
<event>
 5   0  0.3113940E-02  0.7009561E+03  0.7818609E-02  0.9715598E-01
       -2   -1    0    0    0  501  0.00000000000E+00  0.00000000000E+00  0.12303529718E+03  0.12303529720E+03  0.25500000920E-02 0.  1.
        2   -1    0    0  501    0  0.00000000000E+00  0.00000000000E+00 -0.99837098257E+03  0.99837098257E+03  0.25500000920E-02 0. -1.
    10030    2    1    2    0    0  0.00000000000E+00  0.00000000000E+00 -0.87533568539E+03  0.11214062798E+04  0.70095612002E+03 0.  0.
        5    1    3    3  502    0  0.19788386692E+02 -0.34756878909E+03 -0.37333309831E+03  0.51048539224E+03  0.46999998093E+01 0.  1.
       -5    1    3    3    0  502 -0.19788386692E+02  0.34756878909E+03 -0.50200258708E+03  0.61092088754E+03  0.46999998093E+01 0. -1.
</event>
<event>
 5   0  0.1951465E-02  0.6926872E+03  0.7818609E-02  0.9729820E-01
       -1   -1    0    0    0  501  0.00000000000E+00  0.00000000000E+00  0.73455632443E+02  0.73455632616E+02  0.50400001928E-02 0.  1.
        1   -1    0    0  501    0  0.00000000000E+00  0.00000000000E+00 -0.16330113727E+04  0.16330113727E+04  0.50400001928E-02 0. -1.
    10030    2    1    2    0    0  0.00000000000E+00  0.00000000000E+00 -0.15595557402E+04  0.17064670053E+04  0.69268718285E+03 0.  0.
        4    1    3    3  502    0  0.25259897734E+02  0.12724574272E+03  0.11334075794E+02  0.13022908910E+03  0.12699999809E+01 0.  1.
       -4    1    3    3    0  502 -0.25259897734E+02 -0.12724574272E+03 -0.15708898160E+04  0.15762379162E+04  0.12699999809E+01 0. -1.
</event>
<event>
 5   0  0.1884172E-02  0.6997318E+03  0.7818609E-02  0.9717691E-01
       -1   -1    0    0    0  501  0.00000000000E+00  0.00000000000E+00  0.44464919883E+03  0.44464919886E+03  0.50400001928E-02 0. -1.
        1   -1    0    0  501    0  0.00000000000E+00  0.00000000000E+00 -0.27528703814E+03  0.27528703819E+03  0.50400001928E-02 0.  1.
    10030    2    1    2    0    0  0.00000000000E+00  0.00000000000E+00  0.16936216069E+03  0.71993623705E+03  0.69973183716E+03 0.  0.
        3    1    3    3  502    0 -0.17385726262E+03 -0.27139934576E+03 -0.55344913014E+02  0.32702755578E+03  0.10100000352E+00 0.  1.
       -3    1    3    3    0  502  0.17385726262E+03  0.27139934576E+03  0.22470707370E+03  0.39290868127E+03  0.10100000352E+00 0. -1.
</event>
<event>
 5   0  0.2933851E-02  0.6978818E+03  0.7818609E-02  0.9720861E-01
        2   -1    0    0  501    0  0.00000000000E+00  0.00000000000E+00  0.14799815411E+04  0.14799815411E+04  0.25500000920E-02 0.  1.
       -2   -1    0    0    0  501  0.00000000000E+00  0.00000000000E+00 -0.82271139454E+02  0.82271139493E+02  0.25500000920E-02 0. -1.
    10030    2    1    2    0    0  0.00000000000E+00  0.00000000000E+00  0.13977104017E+04  0.15622526806E+04  0.69788184614E+03 0.  0.
        2    1    3    3  502    0 -0.29210478065E+03  0.10493630381E+03  0.10557845321E+04  0.11004625432E+04  0.25500000920E-02 0.  1.
       -2    1    3    3    0  502  0.29210478065E+03 -0.10493630381E+03  0.34192586956E+03  0.46179013742E+03  0.25500000920E-02 0. -1.
</event>
<event>
 5   0  0.1233912E-02  0.6951865E+03  0.7818609E-02  0.9725500E-01
        4   -1    0    0  501    0  0.00000000000E+00  0.00000000000E+00  0.14372571693E+04  0.14372577304E+04  0.12699999809E+01 0.  1.
       -4   -1    0    0    0  501  0.00000000000E+00  0.00000000000E+00 -0.84058262768E+02  0.84067856161E+02  0.12699999809E+01 0. -1.
    10030    2    1    2    0    0  0.00000000000E+00  0.00000000000E+00  0.13531989065E+04  0.15213255865E+04  0.69518649274E+03 0.  0.
        5    1    3    3  502    0 -0.58587212941E+02  0.34156471590E+03  0.73450070249E+03  0.81216518556E+03  0.46999998093E+01 0.  1.
       -5    1    3    3    0  502  0.58587212941E+02 -0.34156471590E+03  0.61869820401E+03  0.70916040097E+03  0.46999998093E+01 0. -1.
</event>
<event>
 5   0  0.3113940E-02  0.6925464E+03  0.7818609E-02  0.9730064E-01
        2   -1    0    0  501    0  0.00000000000E+00  0.00000000000E+00  0.60609110066E+03  0.60609110066E+03  0.25500000920E-02 0. -1.
       -2   -1    0    0    0  501  0.00000000000E+00  0.00000000000E+00 -0.19783349407E+03  0.19783349409E+03  0.25500000920E-02 0.  1.
    10030    2    1    2    0    0  0.00000000000E+00  0.00000000000E+00  0.40825760658E+03  0.80392459475E+03  0.69254637441E+03 0.  0.
        5    1    3    3  502    0 -0.14863769943E+03  0.27082404992E+02  0.56577055329E+03  0.58561508802E+03  0.46999998093E+01 0. -1.
       -5    1    3    3    0  502  0.14863769943E+03 -0.27082404992E+02 -0.15751294670E+03  0.21830950673E+03  0.46999998093E+01 0.  1.
</event>
<event>
 5   0  0.1969818E-02  0.6766684E+03  0.7818609E-02  0.9757986E-01
        1   -1    0    0  501    0  0.00000000000E+00  0.00000000000E+00  0.71370574072E+03  0.71370574074E+03  0.50400001928E-02 0.  1.
       -1   -1    0    0    0  501  0.00000000000E+00  0.00000000000E+00 -0.16038828106E+03  0.16038828114E+03  0.50400001928E-02 0. -1.
    10030    2    1    2    0    0  0.00000000000E+00  0.00000000000E+00  0.55331745966E+03  0.87409402188E+03  0.67666841801E+03 0.  0.
        1    1    3    3  502    0 -0.26893491437E+03 -0.20411630480E+03  0.30497697906E+03  0.45497297924E+03  0.50400001928E-02 0.  1.
       -1    1    3    3    0  502  0.26893491437E+03  0.20411630480E+03  0.24834048060E+03  0.41912104264E+03  0.50400001928E-02 0. -1.
</event>
<event>
 5   0  0.3184443E-02  0.6919761E+03  0.7818609E-02  0.9731053E-01
        2   -1    0    0  501    0  0.00000000000E+00  0.00000000000E+00  0.56028341123E+03  0.56028341123E+03  0.25500000920E-02 0. -1.
       -2   -1    0    0    0  501  0.00000000000E+00  0.00000000000E+00 -0.21365570368E+03  0.21365570369E+03  0.25500000920E-02 0.  1.
    10030    2    1    2    0    0  0.00000000000E+00  0.00000000000E+00  0.34662770755E+03  0.77393911492E+03  0.69197614552E+03 0.  0.
        3    1    3    3  502    0  0.16915805271E+03  0.48173858314E+02  0.50655227400E+03  0.53621859714E+03  0.10100000352E+00 0. -1.
       -3    1    3    3    0  502 -0.16915805271E+03 -0.48173858314E+02 -0.15992456645E+03  0.23772051779E+03  0.10100000352E+00 0.  1.
</event>
<event>
 5   0  0.3113940E-02  0.6373007E+03  0.7818609E-02  0.9830905E-01
       -2   -1    0    0    0  501  0.00000000000E+00  0.00000000000E+00  0.49260940245E+02  0.49260940311E+02  0.25500000920E-02 0. -1.
        2   -1    0    0  501    0  0.00000000000E+00  0.00000000000E+00 -0.20612286348E+04  0.20612286348E+04  0.25500000920E-02 0.  1.
    10030    2    1    2    0    0  0.00000000000E+00  0.00000000000E+00 -0.20119676946E+04  0.21104895751E+04  0.63730074748E+03 0.  0.
        5    1    3    3  502    0  0.20751764226E+03 -0.20833935428E+03 -0.59976004725E+03  0.66798432816E+03  0.46999998093E+01 0. -1.
       -5    1    3    3    0  502 -0.20751764226E+03  0.20833935428E+03 -0.14122076473E+04  0.14425052470E+04  0.46999998093E+01 0.  1.
</event>
<event>
 5   0  0.1969818E-02  0.6937536E+03  0.7818609E-02  0.9727974E-01
       -1   -1    0    0    0  501  0.00000000000E+00  0.00000000000E+00  0.86985840684E+03  0.86985840685E+03  0.50400001928E-02 0.  1.
        1   -1    0    0  501    0  0.00000000000E+00  0.00000000000E+00 -0.13832539863E+03  0.13832539872E+03  0.50400001928E-02 0. -1.
    10030    2    1    2    0    0  0.00000000000E+00  0.00000000000E+00  0.73153300821E+03  0.10081838056E+04  0.69375359006E+03 0.  0.
        1    1    3    3  502    0  0.27002107984E+02  0.33557722541E+03  0.48719886441E+03  0.59220260179E+03  0.50400001928E-02 0. -1.
       -1    1    3    3    0  502 -0.27002107984E+02 -0.33557722541E+03  0.24433414380E+03  0.41598120379E+03  0.50400001928E-02 0.  1.
</event>
<event>
 5   0  0.2933851E-02  0.6948059E+03  0.7818609E-02  0.9726156E-01
       -2   -1    0    0    0  501  0.00000000000E+00  0.00000000000E+00  0.21174831026E+03  0.21174831028E+03  0.25500000920E-02 0.  1.
        2   -1    0    0  501    0  0.00000000000E+00  0.00000000000E+00 -0.56996356742E+03  0.56996356742E+03  0.25500000920E-02 0. -1.
    10030    2    1    2    0    0  0.00000000000E+00  0.00000000000E+00 -0.35821525715E+03  0.78171187770E+03  0.69480593641E+03 0.  0.
        2    1    3    3  502    0 -0.50960858138E+02  0.16850100073E+03  0.15785174202E+03  0.23644612235E+03  0.25500000920E-02 0.  1.
       -2    1    3    3    0  502  0.50960858138E+02 -0.16850100073E+03 -0.51606699917E+03  0.54526575535E+03  0.25500000920E-02 0. -1.
</event>
<event>
 5   0  0.3113940E-02  0.6979601E+03  0.7818609E-02  0.9720727E-01
        2   -1    0    0  501    0  0.00000000000E+00  0.00000000000E+00  0.55985618362E+03  0.55985618363E+03  0.25500000920E-02 0.  1.
       -2   -1    0    0    0  501  0.00000000000E+00  0.00000000000E+00 -0.21753281495E+03  0.21753281497E+03  0.25500000920E-02 0. -1.
    10030    2    1    2    0    0  0.00000000000E+00  0.00000000000E+00  0.34232336867E+03  0.77738899859E+03  0.69796014671E+03 0.  0.
        5    1    3    3  502    0 -0.33196068001E+03  0.82259817913E+02  0.93991795318E+02  0.35471272645E+03  0.46999998093E+01 0. -1.
       -5    1    3    3    0  502  0.33196068001E+03 -0.82259817913E+02  0.24833157335E+03  0.42267627215E+03  0.46999998093E+01 0.  1.
</event>
<event>
 5   0  0.1858013E-02  0.6385204E+03  0.7818609E-02  0.9828562E-01
        1   -1    0    0  501    0  0.00000000000E+00  0.00000000000E+00  0.73037251660E+03  0.73037251662E+03  0.50400001928E-02 0. -1.
       -1   -1    0    0    0  501  0.00000000000E+00  0.00000000000E+00 -0.13955490576E+03  0.13955490585E+03  0.50400001928E-02 0.  1.
    10030    2    1    2    0    0  0.00000000000E+00  0.00000000000E+00  0.59081761084E+03  0.86992742247E+03  0.63852037641E+03 0.  0.
        2    1    3    3  502    0 -0.75090867031E+02 -0.63427139141E+02  0.70924432101E+03  0.71602314710E+03  0.25500000920E-02 0. -1.
       -2    1    3    3    0  502  0.75090867031E+02  0.63427139141E+02 -0.11842671017E+03  0.15390427537E+03  0.25500000920E-02 0.  1.
</event>
<event>
 5   0  0.3113940E-02  0.6929916E+03  0.7818609E-02  0.9729293E-01
        2   -1    0    0  501    0  0.00000000000E+00  0.00000000000E+00  0.84134720762E+03  0.84134720762E+03  0.25500000920E-02 0.  1.
       -2   -1    0    0    0  501  0.00000000000E+00  0.00000000000E+00 -0.14269894174E+03  0.14269894177E+03  0.25500000920E-02 0. -1.
    10030    2    1    2    0    0  0.00000000000E+00  0.00000000000E+00  0.69864826587E+03  0.98404614939E+03  0.69299164838E+03 0.  0.
        5    1    3    3  502    0 -0.16890061275E+03  0.44802423956E+02  0.77414444331E+03  0.79363491814E+03  0.46999998093E+01 0.  1.
       -5    1    3    3    0  502  0.16890061275E+03 -0.44802423956E+02 -0.75496177438E+02  0.19041123125E+03  0.46999998093E+01 0. -1.
</event>
<event>
 5   0  0.1951465E-02  0.6901584E+03  0.7818609E-02  0.9734212E-01
       -1   -1    0    0    0  501  0.00000000000E+00  0.00000000000E+00  0.22239347919E+03  0.22239347924E+03  0.50400001928E-02 0.  1.
        1   -1    0    0  501    0  0.00000000000E+00  0.00000000000E+00 -0.53544580361E+03  0.53544580364E+03  0.50400001928E-02 0. -1.
    10030    2    1    2    0    0  0.00000000000E+00  0.00000000000E+00 -0.31305232443E+03  0.75783928288E+03  0.69015840272E+03 0.  0.
        4    1    3    3  502    0 -0.32716923593E+03  0.77207677825E+02 -0.24212817016E+03  0.41428057900E+03  0.12699999809E+01 0. -1.
       -4    1    3    3    0  502  0.32716923593E+03 -0.77207677825E+02 -0.70924154267E+02  0.34355870388E+03  0.12699999809E+01 0.  1.
</event>
<event>
 5   0  0.1839038E-02  0.7017670E+03  0.7818609E-02  0.9714215E-01
        1   -1    0    0  501    0  0.00000000000E+00  0.00000000000E+00  0.34982874736E+03  0.34982874739E+03  0.50400001928E-02 0. -1.
       -1   -1    0    0    0  501  0.00000000000E+00  0.00000000000E+00 -0.35194145151E+03  0.35194145155E+03  0.50400001928E-02 0.  1.
    10030    2    1    2    0    0  0.00000000000E+00  0.00000000000E+00 -0.21127041550E+01  0.70177019894E+03  0.70176701875E+03 0.  0.
        5    1    3    3  502    0 -0.10061679950E+03  0.21949640046E+03 -0.25560560912E+03  0.35165142907E+03  0.46999998093E+01 0.  1.
       -5    1    3    3    0  502  0.10061679950E+03 -0.21949640046E+03  0.25349290496E+03  0.35011876988E+03  0.46999998093E+01 0. -1.
</event>
<event>
 5   0  0.1839038E-02  0.7402940E+03  0.7818609E-02  0.9650702E-01
        1   -1    0    0  501    0  0.00000000000E+00  0.00000000000E+00  0.54613868380E+03  0.54613868382E+03  0.50400001928E-02 0. -1.
       -1   -1    0    0    0  501  0.00000000000E+00  0.00000000000E+00 -0.25086817147E+03  0.25086817152E+03  0.50400001928E-02 0.  1.
    10030    2    1    2    0    0  0.00000000000E+00  0.00000000000E+00  0.29527051232E+03  0.79700685534E+03  0.74029403078E+03 0.  0.
        5    1    3    3  502    0 -0.74491666740E+02  0.17447356608E+03 -0.19451067392E+03  0.27174717283E+03  0.46999998093E+01 0.  1.
       -5    1    3    3    0  502  0.74491666740E+02 -0.17447356608E+03  0.48978118625E+03  0.52525968251E+03  0.46999998093E+01 0. -1.
</event>
<event>
 5   0  0.1233912E-02  0.6955686E+03  0.7818609E-02  0.9724841E-01
        3   -1    0    0  501    0  0.00000000000E+00  0.00000000000E+00  0.13005406514E+03  0.13005410436E+03  0.10100000352E+00 0. -1.
       -3   -1    0    0    0  501  0.00000000000E+00  0.00000000000E+00 -0.93002771021E+03  0.93002771570E+03  0.10100000352E+00 0.  1.
    10030    2    1    2    0    0  0.00000000000E+00  0.00000000000E+00 -0.79997364508E+03  0.10600818201E+04  0.69556856772E+03 0.  0.
        2    1    3    3  502    0  0.84658943001E+02 -0.23251822783E+03 -0.27537855424E+02  0.24897830506E+03  0.25500000920E-02 0. -1.
       -2    1    3    3    0  502 -0.84658943001E+02  0.23251822783E+03 -0.77243578965E+03  0.81110351500E+03  0.25500000920E-02 0.  1.
</event>
<event>
 5   0  0.3184443E-02  0.6305464E+03  0.7818609E-02  0.9843983E-01
        2   -1    0    0  501    0  0.00000000000E+00  0.00000000000E+00  0.66691608508E+03  0.66691608509E+03  0.25500000920E-02 0.  1.
       -2   -1    0    0    0  501  0.00000000000E+00  0.00000000000E+00 -0.14904002926E+03  0.14904002928E+03  0.25500000920E-02 0. -1.
    10030    2    1    2    0    0  0.00000000000E+00  0.00000000000E+00  0.51787605582E+03  0.81595611437E+03  0.63054640699E+03 0.  0.
        3    1    3    3  502    0 -0.59772356550E+01 -0.65597722866E+02 -0.14003632799E+03  0.15475455389E+03  0.10100000352E+00 0. -1.
       -3    1    3    3    0  502  0.59772356550E+01  0.65597722866E+02  0.65791238382E+03  0.66120156047E+03  0.10100000352E+00 0.  1.
</event>
<event>
 5   0  0.1839038E-02  0.6846540E+03  0.7818609E-02  0.9743842E-01
        1   -1    0    0  501    0  0.00000000000E+00  0.00000000000E+00  0.45140037792E+03  0.45140037794E+03  0.50400001928E-02 0. -1.
       -1   -1    0    0    0  501  0.00000000000E+00  0.00000000000E+00 -0.25960940504E+03  0.25960940509E+03  0.50400001928E-02 0.  1.
    10030    2    1    2    0    0  0.00000000000E+00  0.00000000000E+00  0.19179097287E+03  0.71100978303E+03  0.68465402525E+03 0.  0.
        5    1    3    3  502    0  0.28912913049E+02  0.23229997607E+03 -0.16345075056E+03  0.28554767251E+03  0.46999998093E+01 0.  1.
       -5    1    3    3    0  502 -0.28912913049E+02 -0.23229997607E+03  0.35524172344E+03  0.42546211052E+03  0.46999998093E+01 0. -1.
</event>
<event>
 5   0  0.1839038E-02  0.7071432E+03  0.7818609E-02  0.9705094E-01
       -1   -1    0    0    0  501  0.00000000000E+00  0.00000000000E+00  0.13746631374E+03  0.13746631383E+03  0.50400001928E-02 0. -1.
        1   -1    0    0  501    0  0.00000000000E+00  0.00000000000E+00 -0.90940731662E+03  0.90940731663E+03  0.50400001928E-02 0.  1.
    10030    2    1    2    0    0  0.00000000000E+00  0.00000000000E+00 -0.77194100288E+03  0.10468736305E+04  0.70714318651E+03 0.  0.
        5    1    3    3  502    0  0.25822960756E+03 -0.23791103809E+03 -0.44712823851E+03  0.56853315113E+03  0.46999998093E+01 0. -1.
       -5    1    3    3    0  502 -0.25822960756E+03  0.23791103809E+03 -0.32481276438E+03  0.47834047933E+03  0.46999998093E+01 0.  1.
</event>
<event>
 5   0  0.3184443E-02  0.7033163E+03  0.7818609E-02  0.9711578E-01
        2   -1    0    0  501    0  0.00000000000E+00  0.00000000000E+00  0.11623539725E+04  0.11623539725E+04  0.25500000920E-02 0. -1.
       -2   -1    0    0    0  501  0.00000000000E+00  0.00000000000E+00 -0.10639052853E+03  0.10639052856E+03  0.25500000920E-02 0.  1.
    10030    2    1    2    0    0  0.00000000000E+00  0.00000000000E+00  0.10559634440E+04  0.12687445011E+04  0.70331629725E+03 0.  0.
        3    1    3    3  502    0 -0.90590755837E+02 -0.28642067597E+03  0.19820012259E+03  0.35989830155E+03  0.10100000352E+00 0.  1.
       -3    1    3    3    0  502  0.90590755837E+02  0.28642067597E+03  0.85776332139E+03  0.90884619953E+03  0.10100000352E+00 0. -1.
</event>
<event>
 5   0  0.3290656E-02  0.7093105E+03  0.7818609E-02  0.9701441E-01
        2   -1    0    0  501    0  0.00000000000E+00  0.00000000000E+00  0.59988538046E+03  0.59988538047E+03  0.25500000920E-02 0.  1.
       -2   -1    0    0    0  501  0.00000000000E+00  0.00000000000E+00 -0.20967395444E+03  0.20967395445E+03  0.25500000920E-02 0. -1.
    10030    2    1    2    0    0  0.00000000000E+00  0.00000000000E+00  0.39021142603E+03  0.80955933492E+03  0.70931048192E+03 0.  0.
        1    1    3    3  502    0  0.29357290033E+01  0.20579940680E+03 -0.13453666715E+03  0.24589048208E+03  0.50400001928E-02 0. -1.
       -1    1    3    3    0  502 -0.29357290033E+01 -0.20579940680E+03  0.52474809318E+03  0.56366885284E+03  0.50400001928E-02 0.  1.
</event>
<event>
 5   0  0.3183963E-02  0.6921947E+03  0.7818609E-02  0.9730674E-01
       -2   -1    0    0    0  501  0.00000000000E+00  0.00000000000E+00  0.28083304682E+03  0.28083304683E+03  0.25500000920E-02 0. -1.
        2   -1    0    0  501    0  0.00000000000E+00  0.00000000000E+00 -0.42652881923E+03  0.42652881923E+03  0.25500000920E-02 0.  1.
    10030    2    1    2    0    0  0.00000000000E+00  0.00000000000E+00 -0.14569577240E+03  0.70736186607E+03  0.69219473522E+03 0.  0.
        4    1    3    3  502    0  0.71669822472E+02  0.23472458137E+03 -0.32222277059E+03  0.40504483621E+03  0.12699999809E+01 0.  1.
       -4    1    3    3    0  502 -0.71669822472E+02 -0.23472458137E+03  0.17652699819E+03  0.30231702986E+03  0.12699999809E+01 0. -1.
</event>
<event>
 5   0  0.1858013E-02  0.6825127E+03  0.7818609E-02  0.9747614E-01
        1   -1    0    0  501    0  0.00000000000E+00  0.00000000000E+00  0.11861693281E+04  0.11861693281E+04  0.50400001928E-02 0.  1.
       -1   -1    0    0    0  501  0.00000000000E+00  0.00000000000E+00 -0.98178130473E+02  0.98178130602E+02  0.50400001928E-02 0. -1.
    10030    2    1    2    0    0  0.00000000000E+00  0.00000000000E+00  0.10879911976E+04  0.12843474587E+04  0.68251267283E+03 0.  0.
        2    1    3    3  502    0 -0.82411431750E+02  0.18793505720E+03  0.10570893115E+04  0.10768235893E+04  0.25500000920E-02 0. -1.
       -2    1    3    3    0  502  0.82411431750E+02 -0.18793505720E+03  0.30901886043E+02  0.20752386941E+03  0.25500000920E-02 0.  1.
</event>
<event>
 5   0  0.3113940E-02  0.6955507E+03  0.7818609E-02  0.9724871E-01
       -2   -1    0    0    0  501  0.00000000000E+00  0.00000000000E+00  0.16885264468E+03  0.16885264469E+03  0.25500000920E-02 0.  1.
        2   -1    0    0  501    0  0.00000000000E+00  0.00000000000E+00 -0.71629145466E+03  0.71629145467E+03  0.25500000920E-02 0. -1.
    10030    2    1    2    0    0  0.00000000000E+00  0.00000000000E+00 -0.54743880999E+03  0.88514409936E+03  0.69555073572E+03 0.  0.
        5    1    3    3  502    0  0.77235592258E+02  0.26098416196E+03 -0.54916040851E+03  0.61292521059E+03  0.46999998093E+01 0. -1.
       -5    1    3    3    0  502 -0.77235592258E+02 -0.26098416196E+03  0.17215985217E+01  0.27221888877E+03  0.46999998093E+01 0.  1.
</event>
<event>
 5   0  0.1951465E-02  0.7097579E+03  0.7818609E-02  0.9700689E-01
        1   -1    0    0  501    0  0.00000000000E+00  0.00000000000E+00  0.44568809130E+03  0.44568809133E+03  0.50400001928E-02 0.  1.
       -1   -1    0    0    0  501  0.00000000000E+00  0.00000000000E+00 -0.28257217176E+03  0.28257217181E+03  0.50400001928E-02 0. -1.
    10030    2    1    2    0    0  0.00000000000E+00  0.00000000000E+00  0.16311591954E+03  0.72826026313E+03  0.70975785142E+03 0.  0.
        4    1    3    3  502    0 -0.19220964501E+03  0.24711346382E+03 -0.89914739321E+02  0.32572363268E+03  0.12699999809E+01 0. -1.
       -4    1    3    3    0  502  0.19220964501E+03 -0.24711346382E+03  0.25303065886E+03  0.40253663046E+03  0.12699999809E+01 0.  1.
</event>
<event>
 5   0  0.3290656E-02  0.7040932E+03  0.7818609E-02  0.9710258E-01
       -2   -1    0    0    0  501  0.00000000000E+00  0.00000000000E+00  0.12318506383E+03  0.12318506385E+03  0.25500000920E-02 0.  1.
        2   -1    0    0  501    0  0.00000000000E+00  0.00000000000E+00 -0.10061024974E+04  0.10061024974E+04  0.25500000920E-02 0. -1.
    10030    2    1    2    0    0  0.00000000000E+00  0.00000000000E+00 -0.88291743353E+03  0.11292875612E+04  0.70409317670E+03 0.  0.
        1    1    3    3  502    0  0.20474173955E+03  0.26336150383E+03 -0.26100627402E+03  0.42355960232E+03  0.50400001928E-02 0. -1.
       -1    1    3    3    0  502 -0.20474173955E+03 -0.26336150383E+03 -0.62191115951E+03  0.70572795890E+03  0.50400001928E-02 0.  1.
</event>
<event>
 5   0  0.1233912E-02  0.7013673E+03  0.7818609E-02  0.9714897E-01
        4   -1    0    0  501    0  0.00000000000E+00  0.00000000000E+00  0.50968780215E+03  0.50968938439E+03  0.12699999809E+01 0.  1.
       -4   -1    0    0    0  501  0.00000000000E+00  0.00000000000E+00 -0.24127940420E+03  0.24128274656E+03  0.12699999809E+01 0. -1.
    10030    2    1    2    0    0  0.00000000000E+00  0.00000000000E+00  0.26840839795E+03  0.75097213095E+03  0.70136728850E+03 0.  0.
        2    1    3    3  502    0  0.29948478043E+03 -0.30184249067E+02 -0.58457438142E+02  0.30662598501E+03  0.25500000920E-02 0. -1.
       -2    1    3    3    0  502 -0.29948478043E+03  0.30184249067E+02  0.32686583609E+03  0.44434614594E+03  0.25500000920E-02 0.  1.
</event>
<event>
 5   0  0.2933851E-02  0.6883918E+03  0.7818609E-02  0.9737292E-01
       -2   -1    0    0    0  501  0.00000000000E+00  0.00000000000E+00  0.15501697511E+03  0.15501697513E+03  0.25500000920E-02 0.  1.
        2   -1    0    0  501    0  0.00000000000E+00  0.00000000000E+00 -0.76424426500E+03  0.76424426501E+03  0.25500000920E-02 0. -1.
    10030    2    1    2    0    0  0.00000000000E+00  0.00000000000E+00 -0.60922728990E+03  0.91926124014E+03  0.68839184834E+03 0.  0.
        2    1    3    3  502    0  0.15835742734E+03  0.74200167342E+02  0.91270632813E+02  0.19726395527E+03  0.25500000920E-02 0.  1.
       -2    1    3    3    0  502 -0.15835742734E+03 -0.74200167342E+02 -0.70049792271E+03  0.72199728487E+03  0.25500000920E-02 0. -1.
</event>
<event>
 5   0  0.1969818E-02  0.7110870E+03  0.7818609E-02  0.9698458E-01
        1   -1    0    0  501    0  0.00000000000E+00  0.00000000000E+00  0.47993950345E+03  0.47993950348E+03  0.50400001928E-02 0.  1.
       -1   -1    0    0    0  501  0.00000000000E+00  0.00000000000E+00 -0.26338979770E+03  0.26338979775E+03  0.50400001928E-02 0. -1.
    10030    2    1    2    0    0  0.00000000000E+00  0.00000000000E+00  0.21654970575E+03  0.74332930123E+03  0.71108696726E+03 0.  0.
        1    1    3    3  502    0  0.16946657444E+03  0.22362980353E+03  0.33653788525E+03  0.43816316266E+03  0.50400001928E-02 0.  1.
       -1    1    3    3    0  502 -0.16946657444E+03 -0.22362980353E+03 -0.11998817950E+03  0.30516613856E+03  0.50400001928E-02 0. -1.
</event>
<event>
 5   0  0.1951465E-02  0.7010872E+03  0.7818609E-02  0.9715375E-01
       -1   -1    0    0    0  501  0.00000000000E+00  0.00000000000E+00  0.31743688995E+03  0.31743688999E+03  0.50400001928E-02 0.  1.
        1   -1    0    0  501    0  0.00000000000E+00  0.00000000000E+00 -0.38710312836E+03  0.38710312840E+03  0.50400001928E-02 0. -1.
    10030    2    1    2    0    0  0.00000000000E+00  0.00000000000E+00 -0.69666238413E+02  0.70454001839E+03  0.70108719339E+03 0.  0.
        4    1    3    3  502    0  0.21921941364E+03 -0.27213157040E+03 -0.70118056159E+01  0.34951898553E+03  0.12699999809E+01 0.  1.
       -4    1    3    3    0  502 -0.21921941364E+03  0.27213157040E+03 -0.62654432797E+02  0.35502103286E+03  0.12699999809E+01 0. -1.
</event>
<event>
 5   0  0.2933851E-02  0.7015588E+03  0.7818609E-02  0.9714570E-01
        2   -1    0    0  501    0  0.00000000000E+00  0.00000000000E+00  0.17944252025E+03  0.17944252027E+03  0.25500000920E-02 0.  1.
       -2   -1    0    0    0  501  0.00000000000E+00  0.00000000000E+00 -0.68571368907E+03  0.68571368907E+03  0.25500000920E-02 0. -1.
    10030    2    1    2    0    0  0.00000000000E+00  0.00000000000E+00 -0.50627116881E+03  0.86515620934E+03  0.70155881449E+03 0.  0.
        2    1    3    3  502    0  0.34467103732E+02  0.20645950977E+02 -0.68286683661E+03  0.68404777105E+03  0.25500000920E-02 0. -1.
       -2    1    3    3    0  502 -0.34467103732E+02 -0.20645950977E+02  0.17659566779E+03  0.18110843829E+03  0.25500000920E-02 0.  1.
</event>
<event>
 5   0  0.3113940E-02  0.7150248E+03  0.7818609E-02  0.9691877E-01
        2   -1    0    0  501    0  0.00000000000E+00  0.00000000000E+00  0.25890622344E+03  0.25890622345E+03  0.25500000920E-02 0. -1.
       -2   -1    0    0    0  501  0.00000000000E+00  0.00000000000E+00 -0.49367347110E+03  0.49367347111E+03  0.25500000920E-02 0.  1.
    10030    2    1    2    0    0  0.00000000000E+00  0.00000000000E+00 -0.23476724766E+03  0.75257969455E+03  0.71502484997E+03 0.  0.
        5    1    3    3  502    0 -0.27493312609E+03 -0.20332483750E+03 -0.22708772272E+03  0.41051204267E+03  0.46999998093E+01 0.  1.
       -5    1    3    3    0  502  0.27493312609E+03  0.20332483750E+03 -0.76795249412E+01  0.34206765189E+03  0.46999998093E+01 0. -1.
</event>
<event>
 5   0  0.1951465E-02  0.6986847E+03  0.7818609E-02  0.9719484E-01
       -1   -1    0    0    0  501  0.00000000000E+00  0.00000000000E+00  0.47388579202E+03  0.47388579205E+03  0.50400001928E-02 0. -1.
        1   -1    0    0  501    0  0.00000000000E+00  0.00000000000E+00 -0.25753059633E+03  0.25753059638E+03  0.50400001928E-02 0.  1.
    10030    2    1    2    0    0  0.00000000000E+00  0.00000000000E+00  0.21635519569E+03  0.73141638843E+03  0.69868473760E+03 0.  0.
        4    1    3    3  502    0  0.34539076588E+03  0.42637634334E+02  0.76326434458E+02  0.35628652306E+03  0.12699999809E+01 0.  1.
       -4    1    3    3    0  502 -0.34539076588E+03 -0.42637634334E+02  0.14002876123E+03  0.37512986537E+03  0.12699999809E+01 0. -1.
</event>
<event>
 5   0  0.1858013E-02  0.7047101E+03  0.7818609E-02  0.9709211E-01
       -1   -1    0    0    0  501  0.00000000000E+00  0.00000000000E+00  0.10891620506E+03  0.10891620518E+03  0.50400001928E-02 0. -1.
        1   -1    0    0  501    0  0.00000000000E+00  0.00000000000E+00 -0.11399047158E+04  0.11399047158E+04  0.50400001928E-02 0.  1.
    10030    2    1    2    0    0  0.00000000000E+00  0.00000000000E+00 -0.10309885107E+04  0.12488209210E+04  0.70471014143E+03 0.  0.
        2    1    3    3  502    0 -0.19111505933E+03  0.74646252423E+02 -0.10231246747E+04  0.10434946713E+04  0.25500000920E-02 0.  1.
       -2    1    3    3    0  502  0.19111505933E+03 -0.74646252423E+02 -0.78638360109E+01  0.20532624973E+03  0.25500000920E-02 0. -1.
</event>
<event>
 5   0  0.1233912E-02  0.6898874E+03  0.7818609E-02  0.9734684E-01
        3   -1    0    0  501    0  0.00000000000E+00  0.00000000000E+00  0.21319817519E+03  0.21319819911E+03  0.10100000352E+00 0. -1.
       -3   -1    0    0    0  501  0.00000000000E+00  0.00000000000E+00 -0.55810106817E+03  0.55810107731E+03  0.10100000352E+00 0.  1.
    10030    2    1    2    0    0  0.00000000000E+00  0.00000000000E+00 -0.34490289298E+03  0.77129927642E+03  0.68988735908E+03 0.  0.
        3    1    3    3  502    0  0.27536239232E+03 -0.13742873633E+03 -0.34664199992E+03  0.46354265282E+03  0.10100000352E+00 0. -1.
       -3    1    3    3    0  502 -0.27536239232E+03  0.13742873633E+03  0.17391069337E+01  0.30775662360E+03  0.10100000352E+00 0.  1.
</event>
<event>
 5   0  0.3183963E-02  0.7012073E+03  0.7818609E-02  0.9715170E-01
       -2   -1    0    0    0  501  0.00000000000E+00  0.00000000000E+00  0.34730141748E+03  0.34730141749E+03  0.25500000920E-02 0. -1.
        2   -1    0    0  501    0  0.00000000000E+00  0.00000000000E+00 -0.35393732639E+03  0.35393732640E+03  0.25500000920E-02 0.  1.
    10030    2    1    2    0    0  0.00000000000E+00  0.00000000000E+00 -0.66359089074E+01  0.70123874389E+03  0.70120734497E+03 0.  0.
        4    1    3    3  502    0 -0.18014067131E+03  0.99586632874E+02 -0.28714955522E+03  0.35330530546E+03  0.12699999809E+01 0.  1.
       -4    1    3    3    0  502  0.18014067131E+03 -0.99586632874E+02  0.28051364631E+03  0.34793343842E+03  0.12699999809E+01 0. -1.
</event>
<event>
 5   0  0.1839038E-02  0.7040506E+03  0.7818609E-02  0.9710330E-01
       -1   -1    0    0    0  501  0.00000000000E+00  0.00000000000E+00  0.82774567550E+03  0.82774567552E+03  0.50400001928E-02 0. -1.
        1   -1    0    0  501    0  0.00000000000E+00  0.00000000000E+00 -0.14970999776E+03  0.14970999785E+03  0.50400001928E-02 0.  1.
    10030    2    1    2    0    0  0.00000000000E+00  0.00000000000E+00  0.67803567774E+03  0.97745567337E+03  0.70405057568E+03 0.  0.
        5    1    3    3  502    0  0.23666621824E+03 -0.35105224622E+02 -0.19420341191E+02  0.24008855721E+03  0.46999998093E+01 0.  1.
       -5    1    3    3    0  502 -0.23666621824E+03  0.35105224622E+02  0.69745601893E+03  0.73736711616E+03  0.46999998093E+01 0. -1.
</event>
<event>
 5   0  0.3183963E-02  0.6951837E+03  0.7818609E-02  0.9725504E-01
       -2   -1    0    0    0  501  0.00000000000E+00  0.00000000000E+00  0.75465093762E+02  0.75465093805E+02  0.25500000920E-02 0.  1.
        2   -1    0    0  501    0  0.00000000000E+00  0.00000000000E+00 -0.16010065416E+04  0.16010065416E+04  0.25500000920E-02 0. -1.
    10030    2    1    2    0    0  0.00000000000E+00  0.00000000000E+00 -0.15255414478E+04  0.16764716354E+04  0.69518374207E+03 0.  0.
        4    1    3    3  502    0 -0.20789264863E+03  0.10289536411E+02 -0.14340891860E+04  0.14491165013E+04  0.12699999809E+01 0. -1.
       -4    1    3    3    0  502  0.20789264863E+03 -0.10289536411E+02 -0.91452261783E+02  0.22735513409E+03  0.12699999809E+01 0.  1.
</event>
<event>
 5   0  0.3183963E-02  0.6935355E+03  0.7818609E-02  0.9728352E-01
       -2   -1    0    0    0  501  0.00000000000E+00  0.00000000000E+00  0.56097017318E+03  0.56097017319E+03  0.25500000920E-02 0.  1.
        2   -1    0    0  501    0  0.00000000000E+00  0.00000000000E+00 -0.21435700184E+03  0.21435700185E+03  0.25500000920E-02 0. -1.
    10030    2    1    2    0    0  0.00000000000E+00  0.00000000000E+00  0.34661317135E+03  0.77532717504E+03  0.69353553464E+03 0.  0.
        4    1    3    3  502    0 -0.58444782819E+02  0.73623105012E+02 -0.19983925413E+03  0.22084722009E+03  0.12699999809E+01 0. -1.
       -4    1    3    3    0  502  0.58444782819E+02 -0.73623105012E+02  0.54645242548E+03  0.55447995495E+03  0.12699999809E+01 0.  1.
</event>
<event>
 5   0  0.3113940E-02  0.6998959E+03  0.7818609E-02  0.9717410E-01
        2   -1    0    0  501    0  0.00000000000E+00  0.00000000000E+00  0.39307401740E+03  0.39307401741E+03  0.25500000920E-02 0.  1.
       -2   -1    0    0    0  501  0.00000000000E+00  0.00000000000E+00 -0.31155349047E+03  0.31155349048E+03  0.25500000920E-02 0. -1.
    10030    2    1    2    0    0  0.00000000000E+00  0.00000000000E+00  0.81520526938E+02  0.70462750789E+03  0.69989594124E+03 0.  0.
        5    1    3    3  502    0  0.31484767887E+02 -0.34776854181E+03  0.18085952867E+02  0.34969049311E+03  0.46999998093E+01 0.  1.
       -5    1    3    3    0  502 -0.31484767887E+02  0.34776854181E+03  0.63434574071E+02  0.35493701479E+03  0.46999998093E+01 0. -1.
</event>
<event>
 5   0  0.1858013E-02  0.7077693E+03  0.7818609E-02  0.9704037E-01
       -1   -1    0    0    0  501  0.00000000000E+00  0.00000000000E+00  0.53291603778E+03  0.53291603780E+03  0.50400001928E-02 0.  1.
        1   -1    0    0  501    0  0.00000000000E+00  0.00000000000E+00 -0.23499826038E+03  0.23499826043E+03  0.50400001928E-02 0. -1.
    10030    2    1    2    0    0  0.00000000000E+00  0.00000000000E+00  0.29791777740E+03  0.76791429824E+03  0.70776928963E+03 0.  0.
        2    1    3    3  502    0  0.90872232248E+01  0.32880299212E+03  0.73272178227E+01  0.32901014176E+03  0.25500000920E-02 0. -1.
       -2    1    3    3    0  502 -0.90872232248E+01 -0.32880299212E+03  0.29059055957E+03  0.43890415648E+03  0.25500000920E-02 0.  1.
</event>
<event>
 5   0  0.1951465E-02  0.7036128E+03  0.7818609E-02  0.9711074E-01
        1   -1    0    0  501    0  0.00000000000E+00  0.00000000000E+00  0.15070369813E+04  0.15070369813E+04  0.50400001928E-02 0. -1.
       -1   -1    0    0    0  501  0.00000000000E+00  0.00000000000E+00 -0.82126537684E+02  0.82126537838E+02  0.50400001928E-02 0.  1.
    10030    2    1    2    0    0  0.00000000000E+00  0.00000000000E+00  0.14249104436E+04  0.15891635192E+04  0.70361276158E+03 0.  0.
        4    1    3    3  502    0  0.29220753317E+03 -0.18690140254E+03  0.84509234792E+03  0.91350975152E+03  0.12699999809E+01 0.  1.
       -4    1    3    3    0  502 -0.29220753317E+03  0.18690140254E+03  0.57981809571E+03  0.67565376763E+03  0.12699999809E+01 0. -1.
</event>
<event>
 5   0  0.1839038E-02  0.6110738E+03  0.7818609E-02  0.9882694E-01
       -1   -1    0    0    0  501  0.00000000000E+00  0.00000000000E+00  0.28597521021E+03  0.28597521025E+03  0.50400001928E-02 0.  1.
        1   -1    0    0  501    0  0.00000000000E+00  0.00000000000E+00 -0.32643670101E+03  0.32643670105E+03  0.50400001928E-02 0. -1.
    10030    2    1    2    0    0  0.00000000000E+00  0.00000000000E+00 -0.40461490803E+02  0.61241191130E+03  0.61107382277E+03 0.  0.
        5    1    3    3  502    0 -0.57664295253E+02  0.25927692319E+03  0.13103358719E+03  0.29621206055E+03  0.46999998093E+01 0.  1.
       -5    1    3    3    0  502  0.57664295253E+02 -0.25927692319E+03 -0.17149507799E+03  0.31619985076E+03  0.46999998093E+01 0. -1.
</event>
<event>
 5   0  0.3290656E-02  0.6982195E+03  0.7818609E-02  0.9720282E-01
       -2   -1    0    0    0  501  0.00000000000E+00  0.00000000000E+00  0.78094695205E+02  0.78094695246E+02  0.25500000920E-02 0.  1.
        2   -1    0    0  501    0  0.00000000000E+00  0.00000000000E+00 -0.15606387162E+04  0.15606387162E+04  0.25500000920E-02 0. -1.
    10030    2    1    2    0    0  0.00000000000E+00  0.00000000000E+00 -0.14825440210E+04  0.16387334115E+04  0.69821946379E+03 0.  0.
        1    1    3    3  502    0  0.17046354085E+03 -0.20510411368E+03 -0.12700134113E+04  0.12977132122E+04  0.50400001928E-02 0. -1.
       -1    1    3    3    0  502 -0.17046354085E+03  0.20510411368E+03 -0.21253060967E+03  0.34102019923E+03  0.50400001928E-02 0.  1.
</event>
<event>
 5   0  0.1233912E-02  0.7068141E+03  0.7818609E-02  0.9705650E-01
        4   -1    0    0  501    0  0.00000000000E+00  0.00000000000E+00  0.31157593427E+03  0.31157852255E+03  0.12699999809E+01 0.  1.
       -4   -1    0    0    0  501  0.00000000000E+00  0.00000000000E+00 -0.40084899273E+03  0.40085100458E+03  0.12699999809E+01 0. -1.
    10030    2    1    2    0    0  0.00000000000E+00  0.00000000000E+00 -0.89273058464E+02  0.71242952713E+03  0.70681408600E+03 0.  0.
        2    1    3    3  502    0 -0.31005589115E+02  0.34917924211E+03 -0.89815039913E+02  0.36187598853E+03  0.25500000920E-02 0. -1.
       -2    1    3    3    0  502  0.31005589115E+02 -0.34917924211E+03  0.54198144970E+00  0.35055353860E+03  0.25500000920E-02 0.  1.
</event>
<event>
 5   0  0.3183963E-02  0.6792585E+03  0.7818609E-02  0.9753375E-01
       -2   -1    0    0    0  501  0.00000000000E+00  0.00000000000E+00  0.15410294259E+03  0.15410294261E+03  0.25500000920E-02 0. -1.
        2   -1    0    0  501    0  0.00000000000E+00  0.00000000000E+00 -0.74851289788E+03  0.74851289789E+03  0.25500000920E-02 0.  1.
    10030    2    1    2    0    0  0.00000000000E+00  0.00000000000E+00 -0.59440995529E+03  0.90261584050E+03  0.67925853736E+03 0.  0.
        4    1    3    3  502    0 -0.71383246004E+01  0.12619078730E+03 -0.71609349450E+03  0.72716337659E+03  0.12699999809E+01 0.  1.
       -4    1    3    3    0  502  0.71383246004E+01 -0.12619078730E+03  0.12168353921E+03  0.17545246391E+03  0.12699999809E+01 0. -1.
</event>
<event>
 5   0  0.1839038E-02  0.7002480E+03  0.7818609E-02  0.9716808E-01
       -1   -1    0    0    0  501  0.00000000000E+00  0.00000000000E+00  0.11483253920E+04  0.11483253920E+04  0.50400001928E-02 0. -1.
        1   -1    0    0  501    0  0.00000000000E+00  0.00000000000E+00 -0.10675268838E+03  0.10675268850E+03  0.50400001928E-02 0.  1.
    10030    2    1    2    0    0  0.00000000000E+00  0.00000000000E+00  0.10415727037E+04  0.12550780805E+04  0.70024802124E+03 0.  0.
        5    1    3    3  502    0  0.12036952244E+02  0.81355746414E+02  0.11307095794E+04  0.11337062621E+04  0.46999998093E+01 0. -1.
       -5    1    3    3    0  502 -0.12036952244E+02 -0.81355746414E+02 -0.89136875769E+02  0.12137181845E+03  0.46999998093E+01 0.  1.
</event>
<event>
 5   0  0.1969818E-02  0.6977849E+03  0.7818609E-02  0.9721028E-01
       -1   -1    0    0    0  501  0.00000000000E+00  0.00000000000E+00  0.14234849623E+03  0.14234849632E+03  0.50400001928E-02 0. -1.
        1   -1    0    0  501    0  0.00000000000E+00  0.00000000000E+00 -0.85512619545E+03  0.85512619546E+03  0.50400001928E-02 0.  1.
    10030    2    1    2    0    0  0.00000000000E+00  0.00000000000E+00 -0.71277769921E+03  0.99747469178E+03  0.69778486101E+03 0.  0.
        1    1    3    3  502    0 -0.92814941592E+02  0.20746035948E+03  0.22011120030E+02  0.22833944812E+03  0.50400001928E-02 0. -1.
       -1    1    3    3    0  502  0.92814941592E+02 -0.20746035948E+03 -0.73478881924E+03  0.76913524366E+03  0.50400001928E-02 0.  1.
</event>
<event>
 5   0  0.1858013E-02  0.6986356E+03  0.7818609E-02  0.9719568E-01
       -1   -1    0    0    0  501  0.00000000000E+00  0.00000000000E+00  0.18152860532E+03  0.18152860539E+03  0.50400001928E-02 0.  1.
        1   -1    0    0  501    0  0.00000000000E+00  0.00000000000E+00 -0.67219675626E+03  0.67219675628E+03  0.50400001928E-02 0. -1.
    10030    2    1    2    0    0  0.00000000000E+00  0.00000000000E+00 -0.49066815094E+03  0.85372536166E+03  0.69863564094E+03 0.  0.
        2    1    3    3  502    0 -0.28683707954E+03 -0.17232906076E+03 -0.36783889154E+03  0.49727081708E+03  0.25500000920E-02 0. -1.
       -2    1    3    3    0  502  0.28683707954E+03  0.17232906076E+03 -0.12282925940E+03  0.35645454459E+03  0.25500000920E-02 0.  1.
</event>
<event>
 5   0  0.1858013E-02  0.6974292E+03  0.7818609E-02  0.9721639E-01
        1   -1    0    0  501    0  0.00000000000E+00  0.00000000000E+00  0.27243638402E+03  0.27243638407E+03  0.50400001928E-02 0. -1.
       -1   -1    0    0    0  501  0.00000000000E+00  0.00000000000E+00 -0.44634955517E+03  0.44634955520E+03  0.50400001928E-02 0.  1.
    10030    2    1    2    0    0  0.00000000000E+00  0.00000000000E+00 -0.17391317115E+03  0.71878593927E+03  0.69742916156E+03 0.  0.
        2    1    3    3  502    0 -0.10335119858E+03  0.87633332607E+02 -0.41810686431E+03  0.43951612168E+03  0.25500000920E-02 0.  1.
       -2    1    3    3    0  502  0.10335119858E+03 -0.87633332607E+02  0.24419369316E+03  0.27926981759E+03  0.25500000920E-02 0. -1.
</event>
<event>
 5   0  0.1839038E-02  0.6990243E+03  0.7818609E-02  0.9718902E-01
       -1   -1    0    0    0  501  0.00000000000E+00  0.00000000000E+00  0.11472070044E+03  0.11472070055E+03  0.50400001928E-02 0. -1.
        1   -1    0    0  501    0  0.00000000000E+00  0.00000000000E+00 -0.10648360761E+04  0.10648360761E+04  0.50400001928E-02 0.  1.
    10030    2    1    2    0    0  0.00000000000E+00  0.00000000000E+00 -0.95011537564E+03  0.11795567766E+04  0.69902429305E+03 0.  0.
        5    1    3    3  502    0  0.13295962350E+02  0.33275418116E+03 -0.29620152980E+03  0.44571242292E+03  0.46999998093E+01 0. -1.
       -5    1    3    3    0  502 -0.13295962350E+02 -0.33275418116E+03 -0.65391384584E+03  0.73384435371E+03  0.46999998093E+01 0.  1.
</event>
<event>
 5   0  0.3290656E-02  0.6946393E+03  0.7818609E-02  0.9726444E-01
       -2   -1    0    0    0  501  0.00000000000E+00  0.00000000000E+00  0.10689346878E+03  0.10689346881E+03  0.25500000920E-02 0. -1.
        2   -1    0    0  501    0  0.00000000000E+00  0.00000000000E+00 -0.11285155519E+04  0.11285155519E+04  0.25500000920E-02 0.  1.
    10030    2    1    2    0    0  0.00000000000E+00  0.00000000000E+00 -0.10216220831E+04  0.12354090207E+04  0.69463930765E+03 0.  0.
        1    1    3    3  502    0 -0.21355954133E+03  0.17371148728E+03 -0.13417581578E+03  0.30624582948E+03  0.50400001928E-02 0. -1.
       -1    1    3    3    0  502  0.21355954133E+03 -0.17371148728E+03 -0.88744626732E+03  0.92916319122E+03  0.50400001928E-02 0.  1.
</event>
<event>
 5   0  0.1858013E-02  0.7003951E+03  0.7818609E-02  0.9716557E-01
        1   -1    0    0  501    0  0.00000000000E+00  0.00000000000E+00  0.49217423479E+03  0.49217423482E+03  0.50400001928E-02 0.  1.
       -1   -1    0    0    0  501  0.00000000000E+00  0.00000000000E+00 -0.24917666697E+03  0.24917666702E+03  0.50400001928E-02 0. -1.
    10030    2    1    2    0    0  0.00000000000E+00  0.00000000000E+00  0.24299756782E+03  0.74135090183E+03  0.70039513254E+03 0.  0.
        2    1    3    3  502    0  0.23125579825E+03 -0.19904982917E+03  0.30341571927E+03  0.43030358751E+03  0.25500000920E-02 0.  1.
       -2    1    3    3    0  502 -0.23125579825E+03  0.19904982917E+03 -0.60418151450E+02  0.31104731432E+03  0.25500000920E-02 0. -1.
</event>
<event>
 5   0  0.1951465E-02  0.6896820E+03  0.7818609E-02  0.9735042E-01
       -1   -1    0    0    0  501  0.00000000000E+00  0.00000000000E+00  0.15390767759E+03  0.15390767767E+03  0.50400001928E-02 0.  1.
        1   -1    0    0  501    0  0.00000000000E+00  0.00000000000E+00 -0.77264046182E+03  0.77264046184E+03  0.50400001928E-02 0. -1.
    10030    2    1    2    0    0  0.00000000000E+00  0.00000000000E+00 -0.61873278424E+03  0.92654813950E+03  0.68968195317E+03 0.  0.
        4    1    3    3  502    0 -0.52391261799E+02  0.32123934085E+03 -0.15634286350E+03  0.36108761027E+03  0.12699999809E+01 0.  1.
       -4    1    3    3    0  502  0.52391261799E+02 -0.32123934085E+03 -0.46238992073E+03  0.56546052923E+03  0.12699999809E+01 0. -1.
</event>
<event>
 5   0  0.3183963E-02  0.7101539E+03  0.7818609E-02  0.9700024E-01
        2   -1    0    0  501    0  0.00000000000E+00  0.00000000000E+00  0.10986863915E+04  0.10986863915E+04  0.25500000920E-02 0.  1.
       -2   -1    0    0    0  501  0.00000000000E+00  0.00000000000E+00 -0.11475487869E+03  0.11475487872E+03  0.25500000920E-02 0. -1.
    10030    2    1    2    0    0  0.00000000000E+00  0.00000000000E+00  0.98393151277E+03  0.12134412702E+04  0.71015385259E+03 0.  0.
        4    1    3    3  502    0 -0.17935602881E+03 -0.29924557409E+03  0.37912009918E+03  0.51521855672E+03  0.12699999809E+01 0. -1.
       -4    1    3    3    0  502  0.17935602881E+03  0.29924557409E+03  0.60481141358E+03  0.69822271346E+03  0.12699999809E+01 0.  1.
</event>
<event>
 5   0  0.1839038E-02  0.7097822E+03  0.7818609E-02  0.9700648E-01
        1   -1    0    0  501    0  0.00000000000E+00  0.00000000000E+00  0.64576269302E+03  0.64576269304E+03  0.50400001928E-02 0.  1.
       -1   -1    0    0    0  501  0.00000000000E+00  0.00000000000E+00 -0.19503713492E+03  0.19503713498E+03  0.50400001928E-02 0. -1.
    10030    2    1    2    0    0  0.00000000000E+00  0.00000000000E+00  0.45072555810E+03  0.84079982802E+03  0.70978223567E+03 0.  0.
        5    1    3    3  502    0  0.93894089561E+02 -0.26368337202E+03 -0.33031219096E+02  0.28188325982E+03  0.46999998093E+01 0. -1.
       -5    1    3    3    0  502 -0.93894089561E+02  0.26368337202E+03  0.48375677719E+03  0.55891656820E+03  0.46999998093E+01 0.  1.
</event>
<event>
 5   0  0.1839038E-02  0.6945355E+03  0.7818609E-02  0.9726623E-01
        1   -1    0    0  501    0  0.00000000000E+00  0.00000000000E+00  0.68482021033E+03  0.68482021035E+03  0.50400001928E-02 0. -1.
       -1   -1    0    0    0  501  0.00000000000E+00  0.00000000000E+00 -0.17609715690E+03  0.17609715698E+03  0.50400001928E-02 0.  1.
    10030    2    1    2    0    0  0.00000000000E+00  0.00000000000E+00  0.50872305342E+03  0.86091736732E+03  0.69453550541E+03 0.  0.
        5    1    3    3  502    0  0.25323238196E+02 -0.33787345743E+03  0.16017904190E+03  0.37480548967E+03  0.46999998093E+01 0.  1.
       -5    1    3    3    0  502 -0.25323238196E+02  0.33787345743E+03  0.34854401152E+03  0.48611187765E+03  0.46999998093E+01 0. -1.
</event>
<event>
 5   0  0.1233912E-02  0.7103585E+03  0.7818609E-02  0.9699680E-01
        3   -1    0    0  501    0  0.00000000000E+00  0.00000000000E+00  0.19376904240E+03  0.19376906872E+03  0.10100000352E+00 0.  1.
       -3   -1    0    0    0  501  0.00000000000E+00  0.00000000000E+00 -0.65104460230E+03  0.65104461013E+03  0.10100000352E+00 0. -1.
    10030    2    1    2    0    0  0.00000000000E+00  0.00000000000E+00 -0.45727555990E+03  0.84481367885E+03  0.71035851110E+03 0.  0.
        5    1    3    3  502    0 -0.39045620744E+02  0.12691338409E+03  0.16310004543E+03  0.21036939506E+03  0.46999998093E+01 0.  1.
       -5    1    3    3    0  502  0.39045620744E+02 -0.12691338409E+03 -0.62037560532E+03  0.63444428379E+03  0.46999998093E+01 0. -1.
</event>
<event>
 5   0  0.1858013E-02  0.6972002E+03  0.7818609E-02  0.9722032E-01
        1   -1    0    0  501    0  0.00000000000E+00  0.00000000000E+00  0.32067447357E+03  0.32067447361E+03  0.50400001928E-02 0.  1.
       -1   -1    0    0    0  501  0.00000000000E+00  0.00000000000E+00 -0.37895763689E+03  0.37895763692E+03  0.50400001928E-02 0. -1.
    10030    2    1    2    0    0  0.00000000000E+00  0.00000000000E+00 -0.58283163316E+02  0.69963211054E+03  0.69720023162E+03 0.  0.
        2    1    3    3  502    0  0.10365780756E+03 -0.28433717981E+03  0.14446321026E+03  0.33535383107E+03  0.25500000920E-02 0.  1.
       -2    1    3    3    0  502 -0.10365780756E+03  0.28433717981E+03 -0.20274637357E+03  0.36427827947E+03  0.25500000920E-02 0. -1.
</event>
<event>
 5   0  0.3290656E-02  0.7179918E+03  0.7818609E-02  0.9686949E-01
       -2   -1    0    0    0  501  0.00000000000E+00  0.00000000000E+00  0.39512816511E+03  0.39512816512E+03  0.25500000920E-02 0. -1.
        2   -1    0    0  501    0  0.00000000000E+00  0.00000000000E+00 -0.32616776029E+03  0.32616776030E+03  0.25500000920E-02 0.  1.
    10030    2    1    2    0    0  0.00000000000E+00  0.00000000000E+00  0.68960404819E+02  0.72129592542E+03  0.71799183463E+03 0.  0.
        1    1    3    3  502    0  0.12020402822E+03  0.48609215072E+02 -0.30182323410E+03  0.32849524937E+03  0.50400001928E-02 0.  1.
       -1    1    3    3    0  502 -0.12020402822E+03 -0.48609215072E+02  0.37078363892E+03  0.39280067605E+03  0.50400001928E-02 0. -1.
</event>
<event>
 5   0  0.1858013E-02  0.7071357E+03  0.7818609E-02  0.9705106E-01
        1   -1    0    0  501    0  0.00000000000E+00  0.00000000000E+00  0.40747525634E+03  0.40747525637E+03  0.50400001928E-02 0. -1.
       -1   -1    0    0    0  501  0.00000000000E+00  0.00000000000E+00 -0.30679221067E+03  0.30679221072E+03  0.50400001928E-02 0.  1.
    10030    2    1    2    0    0  0.00000000000E+00  0.00000000000E+00  0.10068304566E+03  0.71426746708E+03  0.70713572873E+03 0.  0.
        2    1    3    3  502    0  0.13872566639E+03 -0.22055480452E+02 -0.27739807990E+03  0.31093560342E+03  0.25500000920E-02 0.  1.
       -2    1    3    3    0  502 -0.13872566639E+03  0.22055480452E+02  0.37808112556E+03  0.40333186366E+03  0.25500000920E-02 0. -1.
</event>
<event>
 5   0  0.3290656E-02  0.6997439E+03  0.7818609E-02  0.9717670E-01
       -2   -1    0    0    0  501  0.00000000000E+00  0.00000000000E+00  0.50573633867E+02  0.50573633931E+02  0.25500000920E-02 0.  1.
        2   -1    0    0  501    0  0.00000000000E+00  0.00000000000E+00 -0.24204385816E+04  0.24204385816E+04  0.25500000920E-02 0. -1.
    10030    2    1    2    0    0  0.00000000000E+00  0.00000000000E+00 -0.23698649477E+04  0.24710122155E+04  0.69974388087E+03 0.  0.
        1    1    3    3  502    0  0.29138890934E+03 -0.11322606729E+03 -0.17397273367E+04  0.17675912550E+04  0.50400001928E-02 0. -1.
       -1    1    3    3    0  502 -0.29138890934E+03  0.11322606729E+03 -0.63013761103E+03  0.70342096049E+03  0.50400001928E-02 0.  1.
</event>
<event>
 5   0  0.3184443E-02  0.6897908E+03  0.7818609E-02  0.9734852E-01
        2   -1    0    0  501    0  0.00000000000E+00  0.00000000000E+00  0.54116972843E+03  0.54116972843E+03  0.25500000920E-02 0.  1.
       -2   -1    0    0    0  501  0.00000000000E+00  0.00000000000E+00 -0.21980692306E+03  0.21980692307E+03  0.25500000920E-02 0. -1.
    10030    2    1    2    0    0  0.00000000000E+00  0.00000000000E+00  0.32136280537E+03  0.76097665150E+03  0.68979084617E+03 0.  0.
        3    1    3    3  502    0 -0.33441643768E+03  0.72050804148E+02  0.20911134747E+03  0.40094044198E+03  0.10100000352E+00 0. -1.
       -3    1    3    3    0  502  0.33441643768E+03 -0.72050804148E+02  0.11225145790E+03  0.36003620953E+03  0.10100000352E+00 0.  1.
</event>
<event>
 5   0  0.3184443E-02  0.7025209E+03  0.7818609E-02  0.9712931E-01
        2   -1    0    0  501    0  0.00000000000E+00  0.00000000000E+00  0.16969136664E+04  0.16969136664E+04  0.25500000920E-02 0.  1.
       -2   -1    0    0    0  501  0.00000000000E+00  0.00000000000E+00 -0.72710780086E+02  0.72710780131E+02  0.25500000920E-02 0. -1.
    10030    2    1    2    0    0  0.00000000000E+00  0.00000000000E+00  0.16242028863E+04  0.17696244466E+04  0.70252093625E+03 0.  0.
        3    1    3    3  502    0 -0.34585610960E+03  0.37643405337E+02  0.93422393586E+03  0.99689911578E+03  0.10100000352E+00 0. -1.
       -3    1    3    3    0  502  0.34585610960E+03 -0.37643405337E+02  0.68997895049E+03  0.77272533078E+03  0.10100000352E+00 0.  1.
</event>
<event>
 5   0  0.1969818E-02  0.7002309E+03  0.7818609E-02  0.9716837E-01
       -1   -1    0    0    0  501  0.00000000000E+00  0.00000000000E+00  0.22648118490E+03  0.22648118495E+03  0.50400001928E-02 0. -1.
        1   -1    0    0  501    0  0.00000000000E+00  0.00000000000E+00 -0.54124074348E+03  0.54124074350E+03  0.50400001928E-02 0.  1.
    10030    2    1    2    0    0  0.00000000000E+00  0.00000000000E+00 -0.31475955858E+03  0.76772192846E+03  0.70023094741E+03 0.  0.
        1    1    3    3  502    0 -0.34519800937E+03 -0.47436101318E+02 -0.19486577654E+03  0.39922990904E+03  0.50400001928E-02 0.  1.
       -1    1    3    3    0  502  0.34519800937E+03  0.47436101318E+02 -0.11989378204E+03  0.36849201942E+03  0.50400001928E-02 0. -1.
</event>
<event>
 5   0  0.1839038E-02  0.6984379E+03  0.7818609E-02  0.9719907E-01
       -1   -1    0    0    0  501  0.00000000000E+00  0.00000000000E+00  0.32289041046E+03  0.32289041050E+03  0.50400001928E-02 0.  1.
        1   -1    0    0  501    0  0.00000000000E+00  0.00000000000E+00 -0.37769433651E+03  0.37769433655E+03  0.50400001928E-02 0. -1.
    10030    2    1    2    0    0  0.00000000000E+00  0.00000000000E+00 -0.54803926057E+02  0.70058474704E+03  0.69843791240E+03 0.  0.
        5    1    3    3  502    0 -0.74614891803E+02  0.10331960912E+03  0.29869647851E+03  0.32478300445E+03  0.46999998093E+01 0.  1.
       -5    1    3    3    0  502  0.74614891803E+02 -0.10331960912E+03 -0.35350040457E+03  0.37580174259E+03  0.46999998093E+01 0. -1.
</event>
<event>
 5   0  0.3184443E-02  0.6888549E+03  0.7818609E-02  0.9736484E-01
        2   -1    0    0  501    0  0.00000000000E+00  0.00000000000E+00  0.68330165034E+03  0.68330165034E+03  0.25500000920E-02 0. -1.
       -2   -1    0    0    0  501  0.00000000000E+00  0.00000000000E+00 -0.17361329791E+03  0.17361329793E+03  0.25500000920E-02 0.  1.
    10030    2    1    2    0    0  0.00000000000E+00  0.00000000000E+00  0.50968835243E+03  0.85691494827E+03  0.68885485551E+03 0.  0.
        3    1    3    3  502    0  0.34156736592E+03  0.40190028800E+02  0.27800805505E+03  0.44223522333E+03  0.10100000352E+00 0.  1.
       -3    1    3    3    0  502 -0.34156736592E+03 -0.40190028800E+02  0.23168029738E+03  0.41467972494E+03  0.10100000352E+00 0. -1.
</event>
<event>
 5   0  0.1839038E-02  0.7450761E+03  0.7818609E-02  0.9643107E-01
        1   -1    0    0  501    0  0.00000000000E+00  0.00000000000E+00  0.11912175950E+04  0.11912175950E+04  0.50400001928E-02 0. -1.
       -1   -1    0    0    0  501  0.00000000000E+00  0.00000000000E+00 -0.11650649085E+03  0.11650649096E+03  0.50400001928E-02 0.  1.
    10030    2    1    2    0    0  0.00000000000E+00  0.00000000000E+00  0.10747111041E+04  0.13077240859E+04  0.74507605492E+03 0.  0.
        5    1    3    3  502    0  0.30645575887E+03 -0.18763083294E+03  0.36501012593E+03  0.51222548125E+03  0.46999998093E+01 0.  1.
       -5    1    3    3    0  502 -0.30645575887E+03  0.18763083294E+03  0.70970097820E+03  0.79549860469E+03  0.46999998093E+01 0. -1.
</event>
<event>
 5   0  0.2933851E-02  0.7036635E+03  0.7818609E-02  0.9710988E-01
        2   -1    0    0  501    0  0.00000000000E+00  0.00000000000E+00  0.10633845037E+04  0.10633845037E+04  0.25500000920E-02 0.  1.
       -2   -1    0    0    0  501  0.00000000000E+00  0.00000000000E+00 -0.11640717921E+03  0.11640717924E+03  0.25500000920E-02 0. -1.
    10030    2    1    2    0    0  0.00000000000E+00  0.00000000000E+00  0.94697732448E+03  0.11797916829E+04  0.70366352900E+03 0.  0.
        2    1    3    3  502    0 -0.18952951665E+03  0.60719496780E+02  0.95993817469E+03  0.98035177065E+03  0.25500000920E-02 0.  1.
       -2    1    3    3    0  502  0.18952951665E+03 -0.60719496780E+02 -0.12960850215E+02  0.19943991229E+03  0.25500000920E-02 0. -1.
</event>
<event>
 5   0  0.1969818E-02  0.6729873E+03  0.7818609E-02  0.9764576E-01
       -1   -1    0    0    0  501  0.00000000000E+00  0.00000000000E+00  0.24711347486E+03  0.24711347491E+03  0.50400001928E-02 0. -1.
        1   -1    0    0  501    0  0.00000000000E+00  0.00000000000E+00 -0.45820239567E+03  0.45820239569E+03  0.50400001928E-02 0.  1.
    10030    2    1    2    0    0  0.00000000000E+00  0.00000000000E+00 -0.21108892081E+03  0.70531587060E+03  0.67298732888E+03 0.  0.
        1    1    3    3  502    0  0.19970820694E+03 -0.20807102344E+03  0.76135372024E+02  0.29828428321E+03  0.50400001928E-02 0. -1.
       -1    1    3    3    0  502 -0.19970820694E+03  0.20807102344E+03 -0.28722429283E+03  0.40703158739E+03  0.50400001928E-02 0.  1.
</event>
<event>
 5   0  0.1969818E-02  0.7004188E+03  0.7818609E-02  0.9716516E-01
        1   -1    0    0  501    0  0.00000000000E+00  0.00000000000E+00  0.73864428419E+03  0.73864428421E+03  0.50400001928E-02 0. -1.
       -1   -1    0    0    0  501  0.00000000000E+00  0.00000000000E+00 -0.16604286269E+03  0.16604286277E+03  0.50400001928E-02 0.  1.
    10030    2    1    2    0    0  0.00000000000E+00  0.00000000000E+00  0.57260142150E+03  0.90468714697E+03  0.70041876474E+03 0.  0.
        1    1    3    3  502    0 -0.24826190531E+03  0.13210925438E+03  0.55587812307E+03  0.62296654521E+03  0.50400001928E-02 0. -1.
       -1    1    3    3    0  502  0.24826190531E+03 -0.13210925438E+03  0.16723298427E+02  0.28172060176E+03  0.50400001928E-02 0.  1.
</event>
<event>
 5   0  0.1858013E-02  0.6942028E+03  0.7818609E-02  0.9727198E-01
       -1   -1    0    0    0  501  0.00000000000E+00  0.00000000000E+00  0.17061886208E+03  0.17061886215E+03  0.50400001928E-02 0.  1.
        1   -1    0    0  501    0  0.00000000000E+00  0.00000000000E+00 -0.70613157568E+03  0.70613157570E+03  0.50400001928E-02 0. -1.
    10030    2    1    2    0    0  0.00000000000E+00  0.00000000000E+00 -0.53551271361E+03  0.87675043785E+03  0.69420275413E+03 0.  0.
        2    1    3    3  502    0  0.44894579248E+02  0.56324478853E+01 -0.70239106822E+03  0.70384690128E+03  0.25500000920E-02 0. -1.
       -2    1    3    3    0  502 -0.44894579248E+02 -0.56324478853E+01  0.16687835461E+03  0.17290353657E+03  0.25500000920E-02 0.  1.
</event>
<event>
 5   0  0.3183963E-02  0.6979143E+03  0.7818609E-02  0.9720806E-01
        2   -1    0    0  501    0  0.00000000000E+00  0.00000000000E+00  0.60354630304E+03  0.60354630305E+03  0.25500000920E-02 0. -1.
       -2   -1    0    0    0  501  0.00000000000E+00  0.00000000000E+00 -0.20175932761E+03  0.20175932762E+03  0.25500000920E-02 0.  1.
    10030    2    1    2    0    0  0.00000000000E+00  0.00000000000E+00  0.40178697544E+03  0.80530563067E+03  0.69791431076E+03 0.  0.
        4    1    3    3  502    0 -0.85857066560E+02  0.32456139467E+03  0.31071149478E+03  0.45744374591E+03  0.12699999809E+01 0. -1.
       -4    1    3    3    0  502  0.85857066560E+02 -0.32456139467E+03  0.91075480660E+02  0.34786188476E+03  0.12699999809E+01 0.  1.
</event>
<event>
 5   0  0.1884172E-02  0.6995413E+03  0.7818609E-02  0.9718017E-01
        1   -1    0    0  501    0  0.00000000000E+00  0.00000000000E+00  0.40445964068E+03  0.40445964071E+03  0.50400001928E-02 0. -1.
       -1   -1    0    0    0  501  0.00000000000E+00  0.00000000000E+00 -0.30247645679E+03  0.30247645683E+03  0.50400001928E-02 0.  1.
    10030    2    1    2    0    0  0.00000000000E+00  0.00000000000E+00  0.10198318389E+03  0.70693609755E+03  0.69954133275E+03 0.  0.
        3    1    3    3  502    0  0.19531236255E+03  0.16225170255E+03 -0.19210684576E+03  0.31839846786E+03  0.10100000352E+00 0.  1.
       -3    1    3    3    0  502 -0.19531236255E+03 -0.16225170255E+03  0.29409002965E+03  0.38853762969E+03  0.10100000352E+00 0. -1.
</event>
<event>
 5   0  0.1839038E-02  0.7014888E+03  0.7818609E-02  0.9714689E-01
        1   -1    0    0  501    0  0.00000000000E+00  0.00000000000E+00  0.52796291396E+03  0.52796291398E+03  0.50400001928E-02 0.  1.
       -1   -1    0    0    0  501  0.00000000000E+00  0.00000000000E+00 -0.23301190988E+03  0.23301190994E+03  0.50400001928E-02 0. -1.
    10030    2    1    2    0    0  0.00000000000E+00  0.00000000000E+00  0.29495100407E+03  0.76097482392E+03  0.70148883657E+03 0.  0.
        5    1    3    3  502    0  0.31971160984E+03  0.14263909248E+03  0.17018211743E+03  0.38928841141E+03  0.46999998093E+01 0.  1.
       -5    1    3    3    0  502 -0.31971160984E+03 -0.14263909248E+03  0.12476888664E+03  0.37168641250E+03  0.46999998093E+01 0. -1.
</event>
<event>
 5   0  0.1858013E-02  0.7013266E+03  0.7818609E-02  0.9714966E-01
        1   -1    0    0  501    0  0.00000000000E+00  0.00000000000E+00  0.55458778500E+03  0.55458778502E+03  0.50400001928E-02 0. -1.
       -1   -1    0    0    0  501  0.00000000000E+00  0.00000000000E+00 -0.22172277214E+03  0.22172277220E+03  0.50400001928E-02 0.  1.
    10030    2    1    2    0    0  0.00000000000E+00  0.00000000000E+00  0.33286501286E+03  0.77631055722E+03  0.70132657476E+03 0.  0.
        2    1    3    3  502    0  0.30621524897E+03  0.10548324360E+03  0.31523055989E+03  0.45195663429E+03  0.25500000920E-02 0. -1.
       -2    1    3    3    0  502 -0.30621524897E+03 -0.10548324360E+03  0.17634452964E+02  0.32435392293E+03  0.25500000920E-02 0.  1.
</event>
<event>
 5   0  0.2933851E-02  0.6818693E+03  0.7818609E-02  0.9748751E-01
        2   -1    0    0  501    0  0.00000000000E+00  0.00000000000E+00  0.19616867190E+03  0.19616867192E+03  0.25500000920E-02 0.  1.
       -2   -1    0    0    0  501  0.00000000000E+00  0.00000000000E+00 -0.59253305082E+03  0.59253305082E+03  0.25500000920E-02 0. -1.
    10030    2    1    2    0    0  0.00000000000E+00  0.00000000000E+00 -0.39636437892E+03  0.78870172274E+03  0.68186925915E+03 0.  0.
        2    1    3    3  502    0 -0.27307425099E+03 -0.17351507962E+03 -0.32254174981E+03  0.45684812552E+03  0.25500000920E-02 0. -1.
       -2    1    3    3    0  502  0.27307425099E+03  0.17351507962E+03 -0.73822629107E+02  0.33185359722E+03  0.25500000920E-02 0.  1.
</event>
<event>
 5   0  0.1233912E-02  0.7013072E+03  0.7818609E-02  0.9714999E-01
        3   -1    0    0  501    0  0.00000000000E+00  0.00000000000E+00  0.64350055963E+03  0.64350056755E+03  0.10100000352E+00 0.  1.
       -3   -1    0    0    0  501  0.00000000000E+00  0.00000000000E+00 -0.19107666420E+03  0.19107669089E+03  0.10100000352E+00 0. -1.
    10030    2    1    2    0    0  0.00000000000E+00  0.00000000000E+00  0.45242389543E+03  0.83457725844E+03  0.70130722166E+03 0.  0.
        1    1    3    3  502    0  0.22402358087E+03 -0.23439755238E+03  0.38511194458E+03  0.50342823444E+03  0.50400001928E-02 0. -1.
       -1    1    3    3    0  502 -0.22402358087E+03  0.23439755238E+03  0.67311950856E+02  0.33114902401E+03  0.50400001928E-02 0.  1.
</event>
<event>
 5   0  0.3183963E-02  0.6931800E+03  0.7818609E-02  0.9728967E-01
        2   -1    0    0  501    0  0.00000000000E+00  0.00000000000E+00  0.11526212948E+04  0.11526212948E+04  0.25500000920E-02 0.  1.
       -2   -1    0    0    0  501  0.00000000000E+00  0.00000000000E+00 -0.10421864265E+03  0.10421864268E+03  0.25500000920E-02 0. -1.
    10030    2    1    2    0    0  0.00000000000E+00  0.00000000000E+00  0.10484026522E+04  0.12568399375E+04  0.69317999642E+03 0.  0.
        4    1    3    3  502    0  0.25073996050E+03  0.10186934608E+03  0.91676052507E+03  0.95587622875E+03  0.12699999809E+01 0.  1.
       -4    1    3    3    0  502 -0.25073996050E+03 -0.10186934608E+03  0.13164212709E+03  0.30096370875E+03  0.12699999809E+01 0. -1.
</event>
<event>
 5   0  0.3183963E-02  0.7197841E+03  0.7818609E-02  0.9683984E-01
        2   -1    0    0  501    0  0.00000000000E+00  0.00000000000E+00  0.93221489362E+03  0.93221489363E+03  0.25500000920E-02 0.  1.
       -2   -1    0    0    0  501  0.00000000000E+00  0.00000000000E+00 -0.13894036747E+03  0.13894036750E+03  0.25500000920E-02 0. -1.
    10030    2    1    2    0    0  0.00000000000E+00  0.00000000000E+00  0.79327452615E+03  0.10711552611E+04  0.71978407845E+03 0.  0.
        4    1    3    3  502    0 -0.12754433557E+03 -0.28959780838E+02  0.89559210463E+03  0.90509284452E+03  0.12699999809E+01 0.  1.
       -4    1    3    3    0  502  0.12754433557E+03  0.28959780838E+02 -0.10231757847E+03  0.16606241660E+03  0.12699999809E+01 0. -1.
</event>
<event>
 5   0  0.1951465E-02  0.7009504E+03  0.7818609E-02  0.9715608E-01
        1   -1    0    0  501    0  0.00000000000E+00  0.00000000000E+00  0.99664101481E+03  0.99664101482E+03  0.50400001928E-02 0.  1.
       -1   -1    0    0    0  501  0.00000000000E+00  0.00000000000E+00 -0.12324683257E+03  0.12324683267E+03  0.50400001928E-02 0. -1.
    10030    2    1    2    0    0  0.00000000000E+00  0.00000000000E+00  0.87339418224E+03  0.11198878475E+04  0.70095035017E+03 0.  0.
        4    1    3    3  502    0  0.29310161843E+03 -0.18734753374E+03  0.36847115781E+03  0.50673490522E+03  0.12699999809E+01 0. -1.
       -4    1    3    3    0  502 -0.29310161843E+03  0.18734753374E+03  0.50492302442E+03  0.61315294227E+03  0.12699999809E+01 0.  1.
</event>
<event>
 5   0  0.2933851E-02  0.7092344E+03  0.7818609E-02  0.9701569E-01
        2   -1    0    0  501    0  0.00000000000E+00  0.00000000000E+00  0.75270499095E+03  0.75270499096E+03  0.25500000920E-02 0. -1.
       -2   -1    0    0    0  501  0.00000000000E+00  0.00000000000E+00 -0.16706860351E+03  0.16706860353E+03  0.25500000920E-02 0.  1.
    10030    2    1    2    0    0  0.00000000000E+00  0.00000000000E+00  0.58563638745E+03  0.91977359449E+03  0.70923443713E+03 0.  0.
        2    1    3    3  502    0  0.15704177638E+03 -0.16724190892E+03 -0.57863713536E+02  0.23660132075E+03  0.25500000920E-02 0.  1.
       -2    1    3    3    0  502 -0.15704177638E+03  0.16724190892E+03  0.64350010098E+03  0.68317227374E+03  0.25500000920E-02 0. -1.
</event>
<event>
 5   0  0.1233912E-02  0.7076649E+03  0.7818609E-02  0.9704213E-01
       -3   -1    0    0    0  501  0.00000000000E+00  0.00000000000E+00  0.61899653564E+03  0.61899654388E+03  0.10100000352E+00 0. -1.
        3   -1    0    0  501    0  0.00000000000E+00  0.00000000000E+00 -0.20225861281E+03  0.20225863803E+03  0.10100000352E+00 0.  1.
    10030    2    1    2    0    0  0.00000000000E+00  0.00000000000E+00  0.41673792283E+03  0.82125518191E+03  0.70766487654E+03 0.  0.
        3    1    3    3  502    0  0.30085256690E+03  0.33083613303E+02 -0.43270319357E+01  0.30269708602E+03  0.10100000352E+00 0.  1.
       -3    1    3    3    0  502 -0.30085256690E+03 -0.33083613303E+02  0.42106495477E+03  0.51855809589E+03  0.10100000352E+00 0. -1.
</event>
<event>
 5   0  0.3183963E-02  0.7519660E+03  0.7818609E-02  0.9632271E-01
        2   -1    0    0  501    0  0.00000000000E+00  0.00000000000E+00  0.17866301743E+03  0.17866301745E+03  0.25500000920E-02 0.  1.
       -2   -1    0    0    0  501  0.00000000000E+00  0.00000000000E+00 -0.79122813783E+03  0.79122813784E+03  0.25500000920E-02 0. -1.
    10030    2    1    2    0    0  0.00000000000E+00  0.00000000000E+00 -0.61256512041E+03  0.96989115528E+03  0.75196597420E+03 0.  0.
        4    1    3    3  502    0  0.16049659978E+02 -0.15549314425E+03  0.13475963457E+03  0.20639157324E+03  0.12699999809E+01 0.  1.
       -4    1    3    3    0  502 -0.16049659978E+02  0.15549314425E+03 -0.74732475497E+03  0.76349958205E+03  0.12699999809E+01 0. -1.
</event>
<event>
 5   0  0.3113940E-02  0.7079449E+03  0.7818609E-02  0.9703741E-01
        2   -1    0    0  501    0  0.00000000000E+00  0.00000000000E+00  0.10324513964E+04  0.10324513964E+04  0.25500000920E-02 0.  1.
       -2   -1    0    0    0  501  0.00000000000E+00  0.00000000000E+00 -0.12135825372E+03  0.12135825374E+03  0.25500000920E-02 0. -1.
    10030    2    1    2    0    0  0.00000000000E+00  0.00000000000E+00  0.91109314266E+03  0.11538096501E+04  0.70794490895E+03 0.  0.
        5    1    3    3  502    0  0.24739528481E+03 -0.16883841475E+03  0.14819362044E+03  0.33420693646E+03  0.46999998093E+01 0. -1.
       -5    1    3    3    0  502 -0.24739528481E+03  0.16883841475E+03  0.76289952222E+03  0.81960271366E+03  0.46999998093E+01 0.  1.
</event>
<event>
 5   0  0.1233912E-02  0.6961825E+03  0.7818609E-02  0.9723783E-01
        4   -1    0    0  501    0  0.00000000000E+00  0.00000000000E+00  0.92004180699E+03  0.92004268352E+03  0.12699999809E+01 0. -1.
       -4   -1    0    0    0  501  0.00000000000E+00  0.00000000000E+00 -0.13169382990E+03  0.13169995343E+03  0.12699999809E+01 0.  1.
    10030    2    1    2    0    0  0.00000000000E+00  0.00000000000E+00  0.78834797708E+03  0.10517426370E+04  0.69618247710E+03 0.  0.
        1    1    3    3  502    0 -0.52569091065E+02  0.14503323733E+03 -0.77234667141E+02  0.17252055848E+03  0.50400001928E-02 0.  1.
       -1    1    3    3    0  502  0.52569091065E+02 -0.14503323733E+03  0.86558264422E+03  0.87922207847E+03  0.50400001928E-02 0. -1.
</event>
<event>
 5   0  0.3113940E-02  0.6972116E+03  0.7818609E-02  0.9722013E-01
       -2   -1    0    0    0  501  0.00000000000E+00  0.00000000000E+00  0.30655348622E+03  0.30655348623E+03  0.25500000920E-02 0. -1.
        2   -1    0    0  501    0  0.00000000000E+00  0.00000000000E+00 -0.39642675647E+03  0.39642675648E+03  0.25500000920E-02 0.  1.
    10030    2    1    2    0    0  0.00000000000E+00  0.00000000000E+00 -0.89873270249E+02  0.70298024271E+03  0.69721160127E+03 0.  0.
        5    1    3    3  502    0 -0.10635314056E+03 -0.29432271789E+03 -0.19972247629E+03  0.37127888481E+03  0.46999998093E+01 0.  1.
       -5    1    3    3    0  502  0.10635314056E+03  0.29432271789E+03  0.10984920604E+03  0.33170135791E+03  0.46999998093E+01 0. -1.
</event>
<event>
 5   0  0.1839038E-02  0.6902622E+03  0.7818609E-02  0.9734032E-01
        1   -1    0    0  501    0  0.00000000000E+00  0.00000000000E+00  0.54420907516E+03  0.54420907518E+03  0.50400001928E-02 0. -1.
       -1   -1    0    0    0  501  0.00000000000E+00  0.00000000000E+00 -0.21887816674E+03  0.21887816680E+03  0.50400001928E-02 0.  1.
    10030    2    1    2    0    0  0.00000000000E+00  0.00000000000E+00  0.32533090842E+03  0.76308724198E+03  0.69026222474E+03 0.  0.
        5    1    3    3  502    0  0.25266943866E+03 -0.60552891260E+02 -0.88419893035E+02  0.27449711357E+03  0.46999998093E+01 0.  1.
       -5    1    3    3    0  502 -0.25266943866E+03  0.60552891260E+02  0.41375080146E+03  0.48859012841E+03  0.46999998093E+01 0. -1.
</event>
<event>
 5   0  0.1858013E-02  0.5642183E+03  0.7818609E-02  0.9982555E-01
        1   -1    0    0  501    0  0.00000000000E+00  0.00000000000E+00  0.40910749218E+03  0.40910749221E+03  0.50400001928E-02 0. -1.
       -1   -1    0    0    0  501  0.00000000000E+00  0.00000000000E+00 -0.19453459039E+03  0.19453459046E+03  0.50400001928E-02 0.  1.
    10030    2    1    2    0    0  0.00000000000E+00  0.00000000000E+00  0.21457290179E+03  0.60364208267E+03  0.56421825014E+03 0.  0.
        2    1    3    3  502    0 -0.16087990244E+03 -0.17589748593E+03 -0.54130780316E+02  0.24444306075E+03  0.25500000920E-02 0.  1.
       -2    1    3    3    0  502  0.16087990244E+03  0.17589748593E+03  0.26870368210E+03  0.35919902192E+03  0.25500000920E-02 0. -1.
</event>
<event>
 5   0  0.3290656E-02  0.6956944E+03  0.7818609E-02  0.9724624E-01
       -2   -1    0    0    0  501  0.00000000000E+00  0.00000000000E+00  0.39999464787E+03  0.39999464788E+03  0.25500000920E-02 0.  1.
        2   -1    0    0  501    0  0.00000000000E+00  0.00000000000E+00 -0.30249822673E+03  0.30249822674E+03  0.25500000920E-02 0. -1.
    10030    2    1    2    0    0  0.00000000000E+00  0.00000000000E+00  0.97496421138E+02  0.70249287462E+03  0.69569439178E+03 0.  0.
        1    1    3    3  502    0  0.17061784072E+03 -0.25954779550E+03  0.20687404660E+03  0.37319214475E+03  0.50400001928E-02 0.  1.
       -1    1    3    3    0  502 -0.17061784072E+03  0.25954779550E+03 -0.10937762546E+03  0.32930072987E+03  0.50400001928E-02 0. -1.
</event>
<event>
 5   0  0.1951465E-02  0.6883359E+03  0.7818609E-02  0.9737390E-01
       -1   -1    0    0    0  501  0.00000000000E+00  0.00000000000E+00  0.22889964528E+03  0.22889964534E+03  0.50400001928E-02 0. -1.
        1   -1    0    0  501    0  0.00000000000E+00  0.00000000000E+00 -0.51748261684E+03  0.51748261686E+03  0.50400001928E-02 0.  1.
    10030    2    1    2    0    0  0.00000000000E+00  0.00000000000E+00 -0.28858297156E+03  0.74638226220E+03  0.68833592805E+03 0.  0.
        4    1    3    3  502    0 -0.53255153015E+01  0.10420111117E+03 -0.49991774572E+03  0.51069129429E+03  0.12699999809E+01 0.  1.
       -4    1    3    3    0  502  0.53255153015E+01 -0.10420111117E+03  0.21133477416E+03  0.23569096791E+03  0.12699999809E+01 0. -1.
</event>
<event>
 5   0  0.3184443E-02  0.6955690E+03  0.7818609E-02  0.9724840E-01
        2   -1    0    0  501    0  0.00000000000E+00  0.00000000000E+00  0.83729498201E+03  0.83729498201E+03  0.25500000920E-02 0. -1.
       -2   -1    0    0    0  501  0.00000000000E+00  0.00000000000E+00 -0.14445810094E+03  0.14445810096E+03  0.25500000920E-02 0.  1.
    10030    2    1    2    0    0  0.00000000000E+00  0.00000000000E+00  0.69283688107E+03  0.98175308297E+03  0.69556895572E+03 0.  0.
        3    1    3    3  502    0 -0.24257854604E+03 -0.15594233969E+02 -0.46484420226E+01  0.24312373258E+03  0.10100000352E+00 0.  1.
       -3    1    3    3    0  502  0.24257854604E+03  0.15594233969E+02  0.69748532309E+03  0.73862935039E+03  0.10100000352E+00 0. -1.
</event>
<event>
 5   0  0.1839038E-02  0.7226896E+03  0.7818609E-02  0.9679198E-01
       -1   -1    0    0    0  501  0.00000000000E+00  0.00000000000E+00  0.62892385580E+03  0.62892385582E+03  0.50400001928E-02 0. -1.
        1   -1    0    0  501    0  0.00000000000E+00  0.00000000000E+00 -0.20760872015E+03  0.20760872021E+03  0.50400001928E-02 0.  1.
    10030    2    1    2    0    0  0.00000000000E+00  0.00000000000E+00  0.42131513565E+03  0.83653257603E+03  0.72268963410E+03 0.  0.
        5    1    3    3  502    0 -0.33841873712E+03  0.28341646814E+02  0.35344915923E+03  0.49018250554E+03  0.46999998093E+01 0. -1.
       -5    1    3    3    0  502  0.33841873712E+03 -0.28341646814E+02  0.67865976415E+02  0.34635007049E+03  0.46999998093E+01 0.  1.
</event>
<event>
 5   0  0.1884172E-02  0.6929434E+03  0.7818609E-02  0.9729377E-01
       -1   -1    0    0    0  501  0.00000000000E+00  0.00000000000E+00  0.12942979149E+03  0.12942979158E+03  0.50400001928E-02 0. -1.
        1   -1    0    0  501    0  0.00000000000E+00  0.00000000000E+00 -0.92747296210E+03  0.92747296211E+03  0.50400001928E-02 0.  1.
    10030    2    1    2    0    0  0.00000000000E+00  0.00000000000E+00 -0.79804317061E+03  0.10569027537E+04  0.69294338052E+03 0.  0.
        3    1    3    3  502    0 -0.14292201978E+03  0.52474630771E+02  0.75673502737E+02  0.17001993951E+03  0.10100000352E+00 0. -1.
       -3    1    3    3    0  502  0.14292201978E+03 -0.52474630771E+02 -0.87371667335E+03  0.88688281419E+03  0.10100000352E+00 0.  1.
</event>
<event>
 5   0  0.1233912E-02  0.6799215E+03  0.7818609E-02  0.9752199E-01
       -3   -1    0    0    0  501  0.00000000000E+00  0.00000000000E+00  0.41773571456E+03  0.41773572677E+03  0.10100000352E+00 0.  1.
        3   -1    0    0  501    0  0.00000000000E+00  0.00000000000E+00 -0.27666607738E+03  0.27666609581E+03  0.10100000352E+00 0. -1.
    10030    2    1    2    0    0  0.00000000000E+00  0.00000000000E+00  0.14106963718E+03  0.69440182258E+03  0.67992150184E+03 0.  0.
        2    1    3    3  502    0 -0.14965527183E+03  0.28875106070E+03  0.17163516250E+03  0.36773972379E+03  0.25500000920E-02 0.  1.
       -2    1    3    3    0  502  0.14965527183E+03 -0.28875106070E+03 -0.30565525321E+02  0.32666209879E+03  0.25500000920E-02 0. -1.
</event>
<event>
 5   0  0.2933851E-02  0.7061317E+03  0.7818609E-02  0.9706803E-01
       -2   -1    0    0    0  501  0.00000000000E+00  0.00000000000E+00  0.12831831919E+03  0.12831831922E+03  0.25500000920E-02 0.  1.
        2   -1    0    0  501    0  0.00000000000E+00  0.00000000000E+00 -0.97145511274E+03  0.97145511274E+03  0.25500000920E-02 0. -1.
    10030    2    1    2    0    0  0.00000000000E+00  0.00000000000E+00 -0.84313679355E+03  0.10997734320E+04  0.70613167965E+03 0.  0.
        2    1    3    3  502    0 -0.31767034183E+03 -0.12104608988E+03 -0.27308672826E+03  0.43605385345E+03  0.25500000920E-02 0. -1.
       -2    1    3    3    0  502  0.31767034183E+03  0.12104608988E+03 -0.57005006529E+03  0.66371957851E+03  0.25500000920E-02 0.  1.
</event>
<event>
 5   0  0.3113940E-02  0.6962058E+03  0.7818609E-02  0.9723743E-01
       -2   -1    0    0    0  501  0.00000000000E+00  0.00000000000E+00  0.34465648297E+03  0.34465648298E+03  0.25500000920E-02 0.  1.
        2   -1    0    0  501    0  0.00000000000E+00  0.00000000000E+00 -0.35158378107E+03  0.35158378108E+03  0.25500000920E-02 0. -1.
    10030    2    1    2    0    0  0.00000000000E+00  0.00000000000E+00 -0.69272981033E+01  0.69624026406E+03  0.69620580136E+03 0.  0.
        5    1    3    3  502    0 -0.12703716529E+03  0.28809565357E+03 -0.15184886450E+03  0.34959650258E+03  0.46999998093E+01 0. -1.
       -5    1    3    3    0  502  0.12703716529E+03 -0.28809565357E+03  0.14492156640E+03  0.34664376148E+03  0.46999998093E+01 0.  1.
</event>
<event>
 5   0  0.1951465E-02  0.6975732E+03  0.7818609E-02  0.9721391E-01
       -1   -1    0    0    0  501  0.00000000000E+00  0.00000000000E+00  0.33520845643E+03  0.33520845647E+03  0.50400001928E-02 0. -1.
        1   -1    0    0  501    0  0.00000000000E+00  0.00000000000E+00 -0.36291469578E+03  0.36291469582E+03  0.50400001928E-02 0.  1.
    10030    2    1    2    0    0  0.00000000000E+00  0.00000000000E+00 -0.27706239351E+02  0.69812315229E+03  0.69757315033E+03 0.  0.
        4    1    3    3  502    0  0.19509748040E+02  0.34821014395E+03 -0.18275596806E+02  0.34923708989E+03  0.12699999809E+01 0. -1.
       -4    1    3    3    0  502 -0.19509748040E+02 -0.34821014395E+03 -0.94306425447E+01  0.34888606240E+03  0.12699999809E+01 0.  1.
</event>
<event>
 5   0  0.3183963E-02  0.6985545E+03  0.7818609E-02  0.9719707E-01
       -2   -1    0    0    0  501  0.00000000000E+00  0.00000000000E+00  0.75975109770E+02  0.75975109813E+02  0.25500000920E-02 0.  1.
        2   -1    0    0  501    0  0.00000000000E+00  0.00000000000E+00 -0.16057177306E+04  0.16057177306E+04  0.25500000920E-02 0. -1.
    10030    2    1    2    0    0  0.00000000000E+00  0.00000000000E+00 -0.15297426208E+04  0.16816928404E+04  0.69855445279E+03 0.  0.
        4    1    3    3  502    0  0.27140969505E+03  0.10817161400E+02 -0.23627114864E+03  0.36000819731E+03  0.12699999809E+01 0.  1.
       -4    1    3    3    0  502 -0.27140969505E+03 -0.10817161400E+02 -0.12934714722E+04  0.13216846431E+04  0.12699999809E+01 0. -1.
</event>
<event>
 5   0  0.1839038E-02  0.7007508E+03  0.7818609E-02  0.9715949E-01
        1   -1    0    0  501    0  0.00000000000E+00  0.00000000000E+00  0.24354760962E+03  0.24354760967E+03  0.50400001928E-02 0. -1.
       -1   -1    0    0    0  501  0.00000000000E+00  0.00000000000E+00 -0.50406125642E+03  0.50406125645E+03  0.50400001928E-02 0.  1.
    10030    2    1    2    0    0  0.00000000000E+00  0.00000000000E+00 -0.26051364681E+03  0.74760886612E+03  0.70075078061E+03 0.  0.
        5    1    3    3  502    0 -0.20486695017E+03  0.23547021077E+03 -0.30003355848E+03  0.43296525686E+03  0.46999998093E+01 0.  1.
       -5    1    3    3    0  502  0.20486695017E+03 -0.23547021077E+03  0.39519911676E+02  0.31464360926E+03  0.46999998093E+01 0. -1.
</event>
<event>
 5   0  0.2933851E-02  0.7079817E+03  0.7818609E-02  0.9703679E-01
       -2   -1    0    0    0  501  0.00000000000E+00  0.00000000000E+00  0.41760013076E+03  0.41760013077E+03  0.25500000920E-02 0.  1.
        2   -1    0    0  501    0  0.00000000000E+00  0.00000000000E+00 -0.30007063879E+03  0.30007063880E+03  0.25500000920E-02 0. -1.
    10030    2    1    2    0    0  0.00000000000E+00  0.00000000000E+00  0.11752949197E+03  0.71767076957E+03  0.70798174553E+03 0.  0.
        2    1    3    3  502    0  0.24988880356E+03  0.16179307932E+03  0.25292751036E+03  0.39063248733E+03  0.25500000920E-02 0.  1.
       -2    1    3    3    0  502 -0.24988880356E+03 -0.16179307932E+03 -0.13539801839E+03  0.32703828223E+03  0.25500000920E-02 0. -1.
</event>
<event>
 5   0  0.3184443E-02  0.7047480E+03  0.7818609E-02  0.9709147E-01
       -2   -1    0    0    0  501  0.00000000000E+00  0.00000000000E+00  0.60903101760E+03  0.60903101760E+03  0.25500000920E-02 0. -1.
        2   -1    0    0  501    0  0.00000000000E+00  0.00000000000E+00 -0.20387704518E+03  0.20387704520E+03  0.25500000920E-02 0.  1.
    10030    2    1    2    0    0  0.00000000000E+00  0.00000000000E+00  0.40515397241E+03  0.81290806280E+03  0.70474802391E+03 0.  0.
        3    1    3    3  502    0  0.70989467399E+02  0.31623668620E+03  0.36208315759E+03  0.48595202375E+03  0.10100000352E+00 0. -1.
       -3    1    3    3    0  502 -0.70989467399E+02 -0.31623668620E+03  0.43070814826E+02  0.32695603905E+03  0.10100000352E+00 0.  1.
</event>
<event>
 5   0  0.1858013E-02  0.7014343E+03  0.7818609E-02  0.9714783E-01
        1   -1    0    0  501    0  0.00000000000E+00  0.00000000000E+00  0.68625617836E+03  0.68625617838E+03  0.50400001928E-02 0. -1.
       -1   -1    0    0    0  501  0.00000000000E+00  0.00000000000E+00 -0.17923702225E+03  0.17923702232E+03  0.50400001928E-02 0.  1.
    10030    2    1    2    0    0  0.00000000000E+00  0.00000000000E+00  0.50701915610E+03  0.86549320070E+03  0.70143428473E+03 0.  0.
        2    1    3    3  502    0  0.11828276780E+03  0.49283545465E+02  0.65633818141E+03  0.66872975812E+03  0.25500000920E-02 0. -1.
       -2    1    3    3    0  502 -0.11828276780E+03 -0.49283545465E+02 -0.14931902530E+03  0.19676344258E+03  0.25500000920E-02 0.  1.
</event>
<event>
 5   0  0.1839038E-02  0.6533343E+03  0.7818609E-02  0.9800543E-01
       -1   -1    0    0    0  501  0.00000000000E+00  0.00000000000E+00  0.35065891850E+03  0.35065891853E+03  0.50400001928E-02 0. -1.
        1   -1    0    0  501    0  0.00000000000E+00  0.00000000000E+00 -0.30431688116E+03  0.30431688120E+03  0.50400001928E-02 0.  1.
    10030    2    1    2    0    0  0.00000000000E+00  0.00000000000E+00  0.46342037335E+02  0.65497579974E+03  0.65333430479E+03 0.  0.
        5    1    3    3  502    0 -0.17758708699E+03 -0.25215205679E+03  0.13101222064E+03  0.33511807645E+03  0.46999998093E+01 0. -1.
       -5    1    3    3    0  502  0.17758708699E+03  0.25215205679E+03 -0.84670183304E+02  0.31985772329E+03  0.46999998093E+01 0.  1.
</event>
<event>
 5   0  0.3184443E-02  0.7015223E+03  0.7818609E-02  0.9714632E-01
        2   -1    0    0  501    0  0.00000000000E+00  0.00000000000E+00  0.53109431564E+03  0.53109431564E+03  0.25500000920E-02 0.  1.
       -2   -1    0    0    0  501  0.00000000000E+00  0.00000000000E+00 -0.23166012439E+03  0.23166012441E+03  0.25500000920E-02 0. -1.
    10030    2    1    2    0    0  0.00000000000E+00  0.00000000000E+00  0.29943419124E+03  0.76275444005E+03  0.70152227401E+03 0.  0.
        3    1    3    3  502    0  0.11212625507E+03  0.31784024447E+03  0.25534973961E+03  0.42284538286E+03  0.10100000352E+00 0.  1.
       -3    1    3    3    0  502 -0.11212625507E+03 -0.31784024447E+03  0.44084451629E+02  0.33990905719E+03  0.10100000352E+00 0. -1.
</event>
<event>
 5   0  0.3184443E-02  0.6596169E+03  0.7818609E-02  0.9788899E-01
        2   -1    0    0  501    0  0.00000000000E+00  0.00000000000E+00  0.11269838610E+04  0.11269838610E+04  0.25500000920E-02 0. -1.
       -2   -1    0    0    0  501  0.00000000000E+00  0.00000000000E+00 -0.96517454780E+02  0.96517454814E+02  0.25500000920E-02 0.  1.
    10030    2    1    2    0    0  0.00000000000E+00  0.00000000000E+00  0.10304664062E+04  0.12235013158E+04  0.65961690051E+03 0.  0.
        3    1    3    3  502    0 -0.22719548528E+03 -0.10413343612E+03  0.11606160355E+03  0.27555737528E+03  0.10100000352E+00 0.  1.
       -3    1    3    3    0  502  0.22719548528E+03  0.10413343612E+03  0.91440480263E+03  0.94794394050E+03  0.10100000352E+00 0. -1.
</event>
<event>
 5   0  0.2933851E-02  0.7013379E+03  0.7818609E-02  0.9714947E-01
       -2   -1    0    0    0  501  0.00000000000E+00  0.00000000000E+00  0.14029374421E+03  0.14029374423E+03  0.25500000920E-02 0.  1.
        2   -1    0    0  501    0  0.00000000000E+00  0.00000000000E+00 -0.87650890075E+03  0.87650890076E+03  0.25500000920E-02 0. -1.
    10030    2    1    2    0    0  0.00000000000E+00  0.00000000000E+00 -0.73621515654E+03  0.10168026450E+04  0.70133790867E+03 0.  0.
        2    1    3    3  502    0 -0.66041294092E+02  0.20507940590E+03  0.33018687541E+02  0.21796616476E+03  0.25500000920E-02 0.  1.
       -2    1    3    3    0  502  0.66041294092E+02 -0.20507940590E+03 -0.76923384408E+03  0.79883648022E+03  0.25500000920E-02 0. -1.
</event>
<event>
 5   0  0.1969818E-02  0.6884373E+03  0.7818609E-02  0.9737213E-01
       -1   -1    0    0    0  501  0.00000000000E+00  0.00000000000E+00  0.14377415823E+03  0.14377415832E+03  0.50400001928E-02 0. -1.
        1   -1    0    0  501    0  0.00000000000E+00  0.00000000000E+00 -0.82411527767E+03  0.82411527769E+03  0.50400001928E-02 0.  1.
    10030    2    1    2    0    0  0.00000000000E+00  0.00000000000E+00 -0.68034111944E+03  0.96788943601E+03  0.68843730400E+03 0.  0.
        1    1    3    3  502    0 -0.24559840904E+03 -0.15223196079E+03 -0.60316950262E+03  0.66880983645E+03  0.50400001928E-02 0.  1.
       -1    1    3    3    0  502  0.24559840904E+03  0.15223196079E+03 -0.77171616815E+02  0.29907959956E+03  0.50400001928E-02 0. -1.
</event>
<event>
 5   0  0.3183963E-02  0.7073481E+03  0.7818609E-02  0.9704748E-01
       -2   -1    0    0    0  501  0.00000000000E+00  0.00000000000E+00  0.87654743312E+02  0.87654743349E+02  0.25500000920E-02 0. -1.
        2   -1    0    0  501    0  0.00000000000E+00  0.00000000000E+00 -0.14270228902E+04  0.14270228902E+04  0.25500000920E-02 0.  1.
    10030    2    1    2    0    0  0.00000000000E+00  0.00000000000E+00 -0.13393681469E+04  0.15146776336E+04  0.70734807606E+03 0.  0.
        4    1    3    3  502    0  0.19535684818E+03 -0.28621632318E+03 -0.82109457216E+03  0.89122499466E+03  0.12699999809E+01 0.  1.
       -4    1    3    3    0  502 -0.19535684818E+03  0.28621632318E+03 -0.51827357478E+03  0.62345263894E+03  0.12699999809E+01 0. -1.
</event>
<event>
 5   0  0.3184443E-02  0.6981038E+03  0.7818609E-02  0.9720480E-01
        2   -1    0    0  501    0  0.00000000000E+00  0.00000000000E+00  0.12105595572E+03  0.12105595575E+03  0.25500000920E-02 0. -1.
       -2   -1    0    0    0  501  0.00000000000E+00  0.00000000000E+00 -0.10064539060E+04  0.10064539060E+04  0.25500000920E-02 0.  1.
    10030    2    1    2    0    0  0.00000000000E+00  0.00000000000E+00 -0.88539795029E+03  0.11275098618E+04  0.69810383038E+03 0.  0.
        3    1    3    3  502    0 -0.13022856142E+03  0.94231650707E+02  0.57717677479E+02  0.17079350895E+03  0.10100000352E+00 0. -1.
       -3    1    3    3    0  502  0.13022856142E+03 -0.94231650707E+02 -0.94311562777E+03  0.95671635282E+03  0.10100000352E+00 0.  1.
</event>
<event>
 5   0  0.1233912E-02  0.6612083E+03  0.7818609E-02  0.9785972E-01
       -4   -1    0    0    0  501  0.00000000000E+00  0.00000000000E+00  0.87869544064E+02  0.87878721395E+02  0.12699999809E+01 0. -1.
        4   -1    0    0  501    0  0.00000000000E+00  0.00000000000E+00 -0.12438049051E+04  0.12438055535E+04  0.12699999809E+01 0.  1.
    10030    2    1    2    0    0  0.00000000000E+00  0.00000000000E+00 -0.11559353611E+04  0.13316842749E+04  0.66120832500E+03 0.  0.
        5    1    3    3  502    0 -0.11494511043E+03 -0.26308416670E+03 -0.90799215126E+03  0.95231165798E+03  0.46999998093E+01 0.  1.
       -5    1    3    3    0  502  0.11494511043E+03  0.26308416670E+03 -0.24794320981E+03  0.37937261692E+03  0.46999998093E+01 0. -1.
</event>
<event>
 5   0  0.1969818E-02  0.6358403E+03  0.7818609E-02  0.9833718E-01
        1   -1    0    0  501    0  0.00000000000E+00  0.00000000000E+00  0.10549704706E+04  0.10549704706E+04  0.50400001928E-02 0.  1.
       -1   -1    0    0    0  501  0.00000000000E+00  0.00000000000E+00 -0.95806683253E+02  0.95806683385E+02  0.50400001928E-02 0. -1.
    10030    2    1    2    0    0  0.00000000000E+00  0.00000000000E+00  0.95916378736E+03  0.11507771540E+04  0.63584030008E+03 0.  0.
        1    1    3    3  502    0 -0.16941387940E+03 -0.16409560007E+02 -0.63993452439E+01  0.17032700267E+03  0.50400001928E-02 0. -1.
       -1    1    3    3    0  502  0.16941387940E+03  0.16409560007E+02  0.96556313260E+03  0.98045015134E+03  0.50400001928E-02 0.  1.
</event>
<event>
 5   0  0.3290656E-02  0.6941078E+03  0.7818609E-02  0.9727362E-01
        2   -1    0    0  501    0  0.00000000000E+00  0.00000000000E+00  0.63394467826E+03  0.63394467826E+03  0.25500000920E-02 0. -1.
       -2   -1    0    0    0  501  0.00000000000E+00  0.00000000000E+00 -0.18999512305E+03  0.18999512307E+03  0.25500000920E-02 0.  1.
    10030    2    1    2    0    0  0.00000000000E+00  0.00000000000E+00  0.44394955521E+03  0.82393980133E+03  0.69410776443E+03 0.  0.
        1    1    3    3  502    0 -0.23895641861E+03 -0.25109832210E+02  0.51924868950E+03  0.57214497747E+03  0.50400001928E-02 0. -1.
       -1    1    3    3    0  502  0.23895641861E+03  0.25109832210E+02 -0.75299134298E+02  0.25179482386E+03  0.50400001928E-02 0.  1.
</event>
<event>
 5   0  0.1839038E-02  0.6976849E+03  0.7818609E-02  0.9721200E-01
        1   -1    0    0  501    0  0.00000000000E+00  0.00000000000E+00  0.18340621064E+04  0.18340621064E+04  0.50400001928E-02 0. -1.
       -1   -1    0    0    0  501  0.00000000000E+00  0.00000000000E+00 -0.66350566306E+02  0.66350566497E+02  0.50400001928E-02 0.  1.
    10030    2    1    2    0    0  0.00000000000E+00  0.00000000000E+00  0.17677115401E+04  0.19004126729E+04  0.69768491337E+03 0.  0.
        5    1    3    3  502    0 -0.13082160575E+03 -0.20689365706E+03  0.15607268874E+04  0.15798132120E+04  0.46999998093E+01 0. -1.
       -5    1    3    3    0  502  0.13082160575E+03  0.20689365706E+03  0.20698465269E+03  0.32059946087E+03  0.46999998093E+01 0.  1.
</event>
<event>
 5   0  0.1951465E-02  0.6977751E+03  0.7818609E-02  0.9721045E-01
       -1   -1    0    0    0  501  0.00000000000E+00  0.00000000000E+00  0.20207802794E+03  0.20207802800E+03  0.50400001928E-02 0. -1.
        1   -1    0    0  501    0  0.00000000000E+00  0.00000000000E+00 -0.60235399322E+03  0.60235399324E+03  0.50400001928E-02 0.  1.
    10030    2    1    2    0    0  0.00000000000E+00  0.00000000000E+00 -0.40027596528E+03  0.80443202125E+03  0.69777505575E+03 0.  0.
        4    1    3    3  502    0 -0.13121121876E+03 -0.72683442537E+02  0.16300452045E+03  0.22152054833E+03  0.12699999809E+01 0. -1.
       -4    1    3    3    0  502  0.13121121876E+03  0.72683442537E+02 -0.56328048573E+03  0.58291147291E+03  0.12699999809E+01 0.  1.
</event>
<event>
 5   0  0.3184443E-02  0.6921533E+03  0.7818609E-02  0.9730746E-01
       -2   -1    0    0    0  501  0.00000000000E+00  0.00000000000E+00  0.33508756830E+03  0.33508756831E+03  0.25500000920E-02 0. -1.
        2   -1    0    0  501    0  0.00000000000E+00  0.00000000000E+00 -0.35742607538E+03  0.35742607538E+03  0.25500000920E-02 0.  1.
    10030    2    1    2    0    0  0.00000000000E+00  0.00000000000E+00 -0.22338507071E+02  0.69251364370E+03  0.69215326179E+03 0.  0.
        3    1    3    3  502    0 -0.33851226366E+03 -0.30250979576E+02  0.54159075501E+02  0.34414951703E+03  0.10100000352E+00 0.  1.
       -3    1    3    3    0  502  0.33851226366E+03  0.30250979576E+02 -0.76497582571E+02  0.34836412667E+03  0.10100000352E+00 0. -1.
</event>
<event>
 5   0  0.1951465E-02  0.6607192E+03  0.7818609E-02  0.9786871E-01
       -1   -1    0    0    0  501  0.00000000000E+00  0.00000000000E+00  0.50642880529E+03  0.50642880532E+03  0.50400001928E-02 0. -1.
        1   -1    0    0  501    0  0.00000000000E+00  0.00000000000E+00 -0.21550406828E+03  0.21550406834E+03  0.50400001928E-02 0.  1.
    10030    2    1    2    0    0  0.00000000000E+00  0.00000000000E+00  0.29092473701E+03  0.72193287365E+03  0.66071920772E+03 0.  0.
        4    1    3    3  502    0  0.58760439072E+02  0.41720364620E+02  0.49773298278E+03  0.50292456002E+03  0.12699999809E+01 0. -1.
       -4    1    3    3    0  502 -0.58760439072E+02 -0.41720364620E+02 -0.20680824577E+03  0.21900831363E+03  0.12699999809E+01 0.  1.
</event>
<event>
 5   0  0.1969818E-02  0.6646175E+03  0.7818609E-02  0.9779731E-01
       -1   -1    0    0    0  501  0.00000000000E+00  0.00000000000E+00  0.14646941859E+03  0.14646941868E+03  0.50400001928E-02 0.  1.
        1   -1    0    0  501    0  0.00000000000E+00  0.00000000000E+00 -0.75393972212E+03  0.75393972214E+03  0.50400001928E-02 0. -1.
    10030    2    1    2    0    0  0.00000000000E+00  0.00000000000E+00 -0.60747030352E+03  0.90040914082E+03  0.66461752249E+03 0.  0.
        1    1    3    3  502    0 -0.18035993926E+03 -0.10617083221E+02 -0.68158628870E+03  0.70512573284E+03  0.50400001928E-02 0. -1.
       -1    1    3    3    0  502  0.18035993926E+03  0.10617083221E+02  0.74115985174E+02  0.19528340798E+03  0.50400001928E-02 0.  1.
</event>
<event>
 5   0  0.1858013E-02  0.6972220E+03  0.7818609E-02  0.9721995E-01
        1   -1    0    0  501    0  0.00000000000E+00  0.00000000000E+00  0.36100749183E+03  0.36100749186E+03  0.50400001928E-02 0.  1.
       -1   -1    0    0    0  501  0.00000000000E+00  0.00000000000E+00 -0.33664014183E+03  0.33664014186E+03  0.50400001928E-02 0. -1.
    10030    2    1    2    0    0  0.00000000000E+00  0.00000000000E+00  0.24367350002E+02  0.69764763373E+03  0.69722195397E+03 0.  0.
        2    1    3    3  502    0  0.16969466850E+03  0.27180480163E+03  0.14958277808E+03  0.35362287569E+03  0.25500000920E-02 0.  1.
       -2    1    3    3    0  502 -0.16969466850E+03 -0.27180480163E+03 -0.12521542807E+03  0.34402475804E+03  0.25500000920E-02 0. -1.
</event>
<event>
 5   0  0.3290656E-02  0.6990287E+03  0.7818609E-02  0.9718895E-01
        2   -1    0    0  501    0  0.00000000000E+00  0.00000000000E+00  0.18519627132E+04  0.18519627132E+04  0.25500000920E-02 0. -1.
       -2   -1    0    0    0  501  0.00000000000E+00  0.00000000000E+00 -0.65962607696E+02  0.65962607745E+02  0.25500000920E-02 0.  1.
    10030    2    1    2    0    0  0.00000000000E+00  0.00000000000E+00  0.17860001055E+04  0.19179253209E+04  0.69902872606E+03 0.  0.
        1    1    3    3  502    0  0.96749298635E+02 -0.24818538308E+03  0.27214803041E+03  0.38081617828E+03  0.50400001928E-02 0.  1.
       -1    1    3    3    0  502 -0.96749298635E+02  0.24818538308E+03  0.15138520750E+04  0.15371091426E+04  0.50400001928E-02 0. -1.
</event>
<event>
 5   0  0.1233912E-02  0.6991282E+03  0.7818609E-02  0.9718724E-01
       -3   -1    0    0    0  501  0.00000000000E+00  0.00000000000E+00  0.14353127852E+04  0.14353127887E+04  0.10100000352E+00 0. -1.
        3   -1    0    0  501    0  0.00000000000E+00  0.00000000000E+00 -0.85134772744E+02  0.85134832655E+02  0.10100000352E+00 0.  1.
    10030    2    1    2    0    0  0.00000000000E+00  0.00000000000E+00  0.13501780124E+04  0.15204476214E+04  0.69912824583E+03 0.  0.
        2    1    3    3  502    0  0.24041882234E+03 -0.22708776563E+03  0.42880085714E+03  0.54151660965E+03  0.25500000920E-02 0.  1.
       -2    1    3    3    0  502 -0.24041882234E+03  0.22708776563E+03  0.92137715528E+03  0.97893101172E+03  0.25500000920E-02 0. -1.
</event>
<event>
 5   0  0.3184443E-02  0.7024452E+03  0.7818609E-02  0.9713060E-01
        2   -1    0    0  501    0  0.00000000000E+00  0.00000000000E+00  0.47131728091E+03  0.47131728091E+03  0.25500000920E-02 0.  1.
       -2   -1    0    0    0  501  0.00000000000E+00  0.00000000000E+00 -0.26172879434E+03  0.26172879435E+03  0.25500000920E-02 0. -1.
    10030    2    1    2    0    0  0.00000000000E+00  0.00000000000E+00  0.20958848657E+03  0.73304607526E+03  0.70244516850E+03 0.  0.
        3    1    3    3  502    0  0.26599299405E+03 -0.21190719083E+03  0.13219766806E+02  0.34034056891E+03  0.10100000352E+00 0. -1.
       -3    1    3    3    0  502 -0.26599299405E+03  0.21190719083E+03  0.19636871977E+03  0.39270550635E+03  0.10100000352E+00 0.  1.
</event>
<event>
 5   0  0.2933851E-02  0.7038649E+03  0.7818609E-02  0.9710645E-01
       -2   -1    0    0    0  501  0.00000000000E+00  0.00000000000E+00  0.17334658593E+03  0.17334658595E+03  0.25500000920E-02 0. -1.
        2   -1    0    0  501    0  0.00000000000E+00  0.00000000000E+00 -0.71450175790E+03  0.71450175790E+03  0.25500000920E-02 0.  1.
    10030    2    1    2    0    0  0.00000000000E+00  0.00000000000E+00 -0.54115517197E+03  0.88784834385E+03  0.70386487448E+03 0.  0.
        2    1    3    3  502    0  0.31153805795E+03  0.15617085467E+03 -0.33251612798E+03  0.48167652297E+03  0.25500000920E-02 0. -1.
       -2    1    3    3    0  502 -0.31153805795E+03 -0.15617085467E+03 -0.20863904399E+03  0.40617182089E+03  0.25500000920E-02 0.  1.
</event>
<event>
 5   0  0.3183963E-02  0.7252692E+03  0.7818609E-02  0.9674968E-01
       -2   -1    0    0    0  501  0.00000000000E+00  0.00000000000E+00  0.51042778912E+03  0.51042778912E+03  0.25500000920E-02 0.  1.
        2   -1    0    0  501    0  0.00000000000E+00  0.00000000000E+00 -0.25763456761E+03  0.25763456763E+03  0.25500000920E-02 0. -1.
    10030    2    1    2    0    0  0.00000000000E+00  0.00000000000E+00  0.25279322150E+03  0.76806235675E+03  0.72526917143E+03 0.  0.
        4    1    3    3  502    0  0.13673453711E+03 -0.33364486795E+03  0.85559735846E+02  0.37059049212E+03  0.12699999809E+01 0. -1.
       -4    1    3    3    0  502 -0.13673453711E+03  0.33364486795E+03  0.16723348566E+03  0.39747186463E+03  0.12699999809E+01 0.  1.
</event>
<event>
 5   0  0.3184443E-02  0.6982498E+03  0.7818609E-02  0.9720230E-01
        2   -1    0    0  501    0  0.00000000000E+00  0.00000000000E+00  0.26568376396E+03  0.26568376398E+03  0.25500000920E-02 0. -1.
       -2   -1    0    0    0  501  0.00000000000E+00  0.00000000000E+00 -0.45877170977E+03  0.45877170978E+03  0.25500000920E-02 0.  1.
    10030    2    1    2    0    0  0.00000000000E+00  0.00000000000E+00 -0.19308794581E+03  0.72445547375E+03  0.69824979673E+03 0.  0.
        3    1    3    3  502    0 -0.76690627986E+02 -0.34054334718E+03 -0.90236271126E+02  0.36054655532E+03  0.10100000352E+00 0. -1.
       -3    1    3    3    0  502  0.76690627986E+02  0.34054334718E+03 -0.10285167468E+03  0.36390891843E+03  0.10100000352E+00 0.  1.
</event>
<event>
 5   0  0.1969818E-02  0.6099744E+03  0.7818609E-02  0.9884926E-01
       -1   -1    0    0    0  501  0.00000000000E+00  0.00000000000E+00  0.24645856002E+03  0.24645856007E+03  0.50400001928E-02 0. -1.
        1   -1    0    0  501    0  0.00000000000E+00  0.00000000000E+00 -0.37741515405E+03  0.37741515408E+03  0.50400001928E-02 0.  1.
    10030    2    1    2    0    0  0.00000000000E+00  0.00000000000E+00 -0.13095659403E+03  0.62387371415E+03  0.60997441069E+03 0.  0.
        1    1    3    3  502    0 -0.25203038824E+03  0.13474639291E+03  0.43443868942E+02  0.28907313395E+03  0.50400001928E-02 0. -1.
       -1    1    3    3    0  502  0.25203038824E+03 -0.13474639291E+03 -0.17440046297E+03  0.33480058020E+03  0.50400001928E-02 0.  1.
</event>
<event>
 5   0  0.1839038E-02  0.7013742E+03  0.7818609E-02  0.9714885E-01
        1   -1    0    0  501    0  0.00000000000E+00  0.00000000000E+00  0.72275677027E+02  0.72275677202E+02  0.50400001928E-02 0. -1.
       -1   -1    0    0    0  501  0.00000000000E+00  0.00000000000E+00 -0.17015603604E+04  0.17015603604E+04  0.50400001928E-02 0.  1.
    10030    2    1    2    0    0  0.00000000000E+00  0.00000000000E+00 -0.16292846834E+04  0.17738360376E+04  0.70137415753E+03 0.  0.
        5    1    3    3  502    0 -0.47601225772E+02  0.14968107774E+03 -0.21746298680E+02  0.15863572496E+03  0.46999998093E+01 0. -1.
       -5    1    3    3    0  502  0.47601225772E+02 -0.14968107774E+03 -0.16075383847E+04  0.16152003127E+04  0.46999998093E+01 0.  1.
</event>
<event>
 5   0  0.1233912E-02  0.6970224E+03  0.7818609E-02  0.9722338E-01
       -3   -1    0    0    0  501  0.00000000000E+00  0.00000000000E+00  0.12152588476E+04  0.12152588518E+04  0.10100000352E+00 0.  1.
        3   -1    0    0  501    0  0.00000000000E+00  0.00000000000E+00 -0.99945811313E+02  0.99945862346E+02  0.10100000352E+00 0. -1.
    10030    2    1    2    0    0  0.00000000000E+00  0.00000000000E+00  0.11153130363E+04  0.13152047141E+04  0.69702243234E+03 0.  0.
        4    1    3    3  502    0 -0.30578786185E+03  0.16535202290E+03  0.60429542444E+03  0.69715283893E+03  0.12699999809E+01 0. -1.
       -4    1    3    3    0  502  0.30578786185E+03 -0.16535202290E+03  0.51101761183E+03  0.61805187519E+03  0.12699999809E+01 0.  1.
</event>
<event>
 5   0  0.3183963E-02  0.7007173E+03  0.7818609E-02  0.9716006E-01
        2   -1    0    0  501    0  0.00000000000E+00  0.00000000000E+00  0.35447155792E+03  0.35447155793E+03  0.25500000920E-02 0. -1.
       -2   -1    0    0    0  501  0.00000000000E+00  0.00000000000E+00 -0.34629347427E+03  0.34629347428E+03  0.25500000920E-02 0.  1.
    10030    2    1    2    0    0  0.00000000000E+00  0.00000000000E+00  0.81780836508E+01  0.70076503221E+03  0.70071731056E+03 0.  0.
        4    1    3    3  502    0 -0.16543381071E+03  0.14142428954E+03 -0.27048456723E+03  0.34717818107E+03  0.12699999809E+01 0.  1.
       -4    1    3    3    0  502  0.16543381071E+03 -0.14142428954E+03  0.27866265088E+03  0.35358685114E+03  0.12699999809E+01 0. -1.
</event>
<event>
 5   0  0.2933851E-02  0.7079242E+03  0.7818609E-02  0.9703776E-01
       -2   -1    0    0    0  501  0.00000000000E+00  0.00000000000E+00  0.32242408045E+03  0.32242408046E+03  0.25500000920E-02 0. -1.
        2   -1    0    0  501    0  0.00000000000E+00  0.00000000000E+00 -0.38858503930E+03  0.38858503931E+03  0.25500000920E-02 0.  1.
    10030    2    1    2    0    0  0.00000000000E+00  0.00000000000E+00 -0.66160958855E+02  0.71100911977E+03  0.70792421623E+03 0.  0.
        2    1    3    3  502    0  0.10056335762E+03 -0.36766746324E+02 -0.37192937240E+03  0.38703519296E+03  0.25500000920E-02 0.  1.
       -2    1    3    3    0  502 -0.10056335762E+03  0.36766746324E+02  0.30576841354E+03  0.32397392682E+03  0.25500000920E-02 0. -1.
</event>
<event>
 5   0  0.1858013E-02  0.6992663E+03  0.7818609E-02  0.9718488E-01
        1   -1    0    0  501    0  0.00000000000E+00  0.00000000000E+00  0.27560386371E+03  0.27560386376E+03  0.50400001928E-02 0. -1.
       -1   -1    0    0    0  501  0.00000000000E+00  0.00000000000E+00 -0.44354729386E+03  0.44354729389E+03  0.50400001928E-02 0.  1.
    10030    2    1    2    0    0  0.00000000000E+00  0.00000000000E+00 -0.16794343015E+03  0.71915115765E+03  0.69926632395E+03 0.  0.
        2    1    3    3  502    0 -0.27638529574E+03  0.69536718040E+02 -0.29226293206E+03  0.40821784419E+03  0.25500000920E-02 0.  1.
       -2    1    3    3    0  502  0.27638529574E+03 -0.69536718040E+02  0.12431950191E+03  0.31093331345E+03  0.25500000920E-02 0. -1.
</event>
<event>
 5   0  0.1233912E-02  0.6995668E+03  0.7818609E-02  0.9717973E-01
       -4   -1    0    0    0  501  0.00000000000E+00  0.00000000000E+00  0.37229006680E+03  0.37229223298E+03  0.12699999809E+01 0.  1.
        4   -1    0    0  501    0  0.00000000000E+00  0.00000000000E+00 -0.32863299759E+03  0.32863545153E+03  0.12699999809E+01 0. -1.
    10030    2    1    2    0    0  0.00000000000E+00  0.00000000000E+00  0.43657069214E+02  0.70092768451E+03  0.69956677967E+03 0.  0.
        1    1    3    3  502    0  0.29267222837E+02  0.28069823759E+03 -0.18521408183E+03  0.33756825540E+03  0.50400001928E-02 0. -1.
       -1    1    3    3    0  502 -0.29267222837E+02 -0.28069823759E+03  0.22887115105E+03  0.36335942911E+03  0.50400001928E-02 0.  1.
</event>
<event>
 5   0  0.3290656E-02  0.6983802E+03  0.7818609E-02  0.9720006E-01
        2   -1    0    0  501    0  0.00000000000E+00  0.00000000000E+00  0.41448545070E+03  0.41448545070E+03  0.25500000920E-02 0. -1.
       -2   -1    0    0    0  501  0.00000000000E+00  0.00000000000E+00 -0.29418099040E+03  0.29418099041E+03  0.25500000920E-02 0.  1.
    10030    2    1    2    0    0  0.00000000000E+00  0.00000000000E+00  0.12030446030E+03  0.70866644111E+03  0.69838024141E+03 0.  0.
        1    1    3    3  502    0  0.15510890439E+02  0.24725394975E+03  0.30986340004E+03  0.39672462754E+03  0.50400001928E-02 0. -1.
       -1    1    3    3    0  502 -0.15510890439E+02 -0.24725394975E+03 -0.18955893974E+03  0.31194181357E+03  0.50400001928E-02 0.  1.
</event>
<event>
 5   0  0.1951465E-02  0.6860044E+03  0.7818609E-02  0.9741470E-01
        1   -1    0    0  501    0  0.00000000000E+00  0.00000000000E+00  0.15013870195E+04  0.15013870195E+04  0.50400001928E-02 0.  1.
       -1   -1    0    0    0  501  0.00000000000E+00  0.00000000000E+00 -0.78361219664E+02  0.78361219826E+02  0.50400001928E-02 0. -1.
    10030    2    1    2    0    0  0.00000000000E+00  0.00000000000E+00  0.14230257998E+04  0.15797482393E+04  0.68600442614E+03 0.  0.
        4    1    3    3  502    0 -0.83017741196E+02  0.85623038701E+02 -0.29072425851E+02  0.12276020917E+03  0.12699999809E+01 0. -1.
       -4    1    3    3    0  502  0.83017741196E+02 -0.85623038701E+02  0.14520982257E+04  0.14569880302E+04  0.12699999809E+01 0.  1.
</event>
<event>
 5   0  0.1839038E-02  0.7049013E+03  0.7818609E-02  0.9708887E-01
       -1   -1    0    0    0  501  0.00000000000E+00  0.00000000000E+00  0.42492695266E+03  0.42492695269E+03  0.50400001928E-02 0. -1.
        1   -1    0    0  501    0  0.00000000000E+00  0.00000000000E+00 -0.29233603234E+03  0.29233603239E+03  0.50400001928E-02 0.  1.
    10030    2    1    2    0    0  0.00000000000E+00  0.00000000000E+00  0.13259092032E+03  0.71726298508E+03  0.70490129636E+03 0.  0.
        5    1    3    3  502    0  0.14670330066E+03 -0.69124357122E+02  0.38467120883E+03  0.41748540582E+03  0.46999998093E+01 0. -1.
       -5    1    3    3    0  502 -0.14670330066E+03  0.69124357122E+02 -0.25208028851E+03  0.29977757926E+03  0.46999998093E+01 0.  1.
</event>
<event>
 5   0  0.1969818E-02  0.7070766E+03  0.7818609E-02  0.9705206E-01
       -1   -1    0    0    0  501  0.00000000000E+00  0.00000000000E+00  0.33941700579E+03  0.33941700583E+03  0.50400001928E-02 0.  1.
        1   -1    0    0  501    0  0.00000000000E+00  0.00000000000E+00 -0.36824708027E+03  0.36824708030E+03  0.50400001928E-02 0. -1.
    10030    2    1    2    0    0  0.00000000000E+00  0.00000000000E+00 -0.28830074475E+02  0.70766408613E+03  0.70707657691E+03 0.  0.
        1    1    3    3  502    0  0.20635572890E+03  0.47719432090E+02  0.26889169526E+03  0.34229019100E+03  0.50400001928E-02 0.  1.
       -1    1    3    3    0  502 -0.20635572890E+03 -0.47719432090E+02 -0.29772176974E+03  0.36537389514E+03  0.50400001928E-02 0. -1.
</event>
<event>
 5   0  0.1884172E-02  0.6987986E+03  0.7818609E-02  0.9719289E-01
       -1   -1    0    0    0  501  0.00000000000E+00  0.00000000000E+00  0.13669636488E+03  0.13669636498E+03  0.50400001928E-02 0. -1.
        1   -1    0    0  501    0  0.00000000000E+00  0.00000000000E+00 -0.89307331627E+03  0.89307331629E+03  0.50400001928E-02 0.  1.
    10030    2    1    2    0    0  0.00000000000E+00  0.00000000000E+00 -0.75637695139E+03  0.10297696813E+04  0.69879861466E+03 0.  0.
        3    1    3    3  502    0 -0.27542507433E+03  0.11886189211E+02 -0.61856950131E+02  0.28253591903E+03  0.10100000352E+00 0. -1.
       -3    1    3    3    0  502  0.27542507433E+03 -0.11886189211E+02 -0.69452000126E+03  0.74723376223E+03  0.10100000352E+00 0.  1.
</event>
<event>
 5   0  0.3184443E-02  0.7072835E+03  0.7818609E-02  0.9704857E-01
       -2   -1    0    0    0  501  0.00000000000E+00  0.00000000000E+00  0.12476001952E+03  0.12476001955E+03  0.25500000920E-02 0. -1.
        2   -1    0    0  501    0  0.00000000000E+00  0.00000000000E+00 -0.10024242688E+04  0.10024242688E+04  0.25500000920E-02 0.  1.
    10030    2    1    2    0    0  0.00000000000E+00  0.00000000000E+00 -0.87766424924E+03  0.11271842883E+04  0.70728345479E+03 0.  0.
        3    1    3    3  502    0 -0.68857650005E+02  0.75340056449E+02 -0.97844078754E+03  0.98374990978E+03  0.10100000352E+00 0.  1.
       -3    1    3    3    0  502  0.68857650005E+02 -0.75340056449E+02  0.10077653830E+03  0.14343437853E+03  0.10100000352E+00 0. -1.
</event>
<event>
 5   0  0.3290656E-02  0.7014650E+03  0.7818609E-02  0.9714730E-01
       -2   -1    0    0    0  501  0.00000000000E+00  0.00000000000E+00  0.23654648815E+03  0.23654648817E+03  0.25500000920E-02 0.  1.
        2   -1    0    0  501    0  0.00000000000E+00  0.00000000000E+00 -0.52003851123E+03  0.52003851124E+03  0.25500000920E-02 0. -1.
    10030    2    1    2    0    0  0.00000000000E+00  0.00000000000E+00 -0.28349202308E+03  0.75658499940E+03  0.70146499141E+03 0.  0.
        1    1    3    3  502    0  0.34605498966E+03  0.46146344128E+02 -0.17799880462E+03  0.39187640324E+03  0.50400001928E-02 0.  1.
       -1    1    3    3    0  502 -0.34605498966E+03 -0.46146344128E+02 -0.10549321845E+03  0.36470859616E+03  0.50400001928E-02 0. -1.
</event>
<event>
 5   0  0.1233912E-02  0.6935769E+03  0.7818609E-02  0.9728280E-01
        3   -1    0    0  501    0  0.00000000000E+00  0.00000000000E+00  0.27978637972E+03  0.27978639795E+03  0.10100000352E+00 0.  1.
       -3   -1    0    0    0  501  0.00000000000E+00  0.00000000000E+00 -0.42983591532E+03  0.42983592719E+03  0.10100000352E+00 0. -1.
    10030    2    1    2    0    0  0.00000000000E+00  0.00000000000E+00 -0.15004953561E+03  0.70962232514E+03  0.69357694685E+03 0.  0.
        2    1    3    3  502    0 -0.10732100614E+03 -0.31189935687E+03  0.34518647608E+02  0.33164822360E+03  0.25500000920E-02 0.  1.
       -2    1    3    3    0  502  0.10732100614E+03  0.31189935687E+03 -0.18456818321E+03  0.37797410154E+03  0.25500000920E-02 0. -1.
</event>
<event>
 5   0  0.3183963E-02  0.6978455E+03  0.7818609E-02  0.9720924E-01
       -2   -1    0    0    0  501  0.00000000000E+00  0.00000000000E+00  0.14454203227E+03  0.14454203229E+03  0.25500000920E-02 0. -1.
        2   -1    0    0  501    0  0.00000000000E+00  0.00000000000E+00 -0.84229528598E+03  0.84229528598E+03  0.25500000920E-02 0.  1.
    10030    2    1    2    0    0  0.00000000000E+00  0.00000000000E+00 -0.69775325371E+03  0.98683731827E+03  0.69784546259E+03 0.  0.
        4    1    3    3  502    0 -0.18865874411E+03  0.13736669580E+03 -0.71568676525E+03  0.75277545769E+03  0.12699999809E+01 0.  1.
       -4    1    3    3    0  502  0.18865874411E+03 -0.13736669580E+03  0.17933511541E+02  0.23406186058E+03  0.12699999809E+01 0. -1.
</event>
<event>
 5   0  0.1858013E-02  0.7013872E+03  0.7818609E-02  0.9714863E-01
        1   -1    0    0  501    0  0.00000000000E+00  0.00000000000E+00  0.27057397764E+03  0.27057397769E+03  0.50400001928E-02 0. -1.
       -1   -1    0    0    0  501  0.00000000000E+00  0.00000000000E+00 -0.45453749548E+03  0.45453749551E+03  0.50400001928E-02 0.  1.
    10030    2    1    2    0    0  0.00000000000E+00  0.00000000000E+00 -0.18396351785E+03  0.72511147320E+03  0.70138724872E+03 0.  0.
        2    1    3    3  502    0  0.10102979298E+03  0.10526685562E+02  0.25503269590E+03  0.27451685953E+03  0.25500000920E-02 0. -1.
       -2    1    3    3    0  502 -0.10102979298E+03 -0.10526685562E+02 -0.43899621375E+03  0.45059461367E+03  0.25500000920E-02 0.  1.
</event>
<event>
 5   0  0.3113940E-02  0.6918717E+03  0.7818609E-02  0.9731235E-01
       -2   -1    0    0    0  501  0.00000000000E+00  0.00000000000E+00  0.99606602162E+02  0.99606602194E+02  0.25500000920E-02 0.  1.
        2   -1    0    0  501    0  0.00000000000E+00  0.00000000000E+00 -0.12014424527E+04  0.12014424527E+04  0.25500000920E-02 0. -1.
    10030    2    1    2    0    0  0.00000000000E+00  0.00000000000E+00 -0.11018358506E+04  0.13010490549E+04  0.69187166565E+03 0.  0.
        5    1    3    3  502    0 -0.17011704292E+03 -0.26838063031E+03 -0.80794238603E+03  0.86819407978E+03  0.46999998093E+01 0. -1.
       -5    1    3    3    0  502  0.17011704292E+03  0.26838063031E+03 -0.29389346455E+03  0.43285497516E+03  0.46999998093E+01 0.  1.
</event>
<event>
 5   0  0.3113940E-02  0.7103157E+03  0.7818609E-02  0.9699752E-01
       -2   -1    0    0    0  501  0.00000000000E+00  0.00000000000E+00  0.16118716125E+03  0.16118716127E+03  0.25500000920E-02 0. -1.
        2   -1    0    0  501    0  0.00000000000E+00  0.00000000000E+00 -0.78255057030E+03  0.78255057031E+03  0.25500000920E-02 0.  1.
    10030    2    1    2    0    0  0.00000000000E+00  0.00000000000E+00 -0.62136340906E+03  0.94373773157E+03  0.71031571845E+03 0.  0.
        5    1    3    3  502    0 -0.14873061114E+02  0.67393068390E+02  0.15215024354E+03  0.16713712999E+03  0.46999998093E+01 0. -1.
       -5    1    3    3    0  502  0.14873061114E+02 -0.67393068390E+02 -0.77351365260E+03  0.77660060158E+03  0.46999998093E+01 0.  1.
</event>
<event>
 5   0  0.3184443E-02  0.6972085E+03  0.7818609E-02  0.9722018E-01
       -2   -1    0    0    0  501  0.00000000000E+00  0.00000000000E+00  0.32172422905E+03  0.32172422906E+03  0.25500000920E-02 0.  1.
        2   -1    0    0  501    0  0.00000000000E+00  0.00000000000E+00 -0.37773010835E+03  0.37773010836E+03  0.25500000920E-02 0. -1.
    10030    2    1    2    0    0  0.00000000000E+00  0.00000000000E+00 -0.56005879303E+02  0.69945433741E+03  0.69720851373E+03 0.  0.
        3    1    3    3  502    0 -0.12750641764E+03  0.12673874230E+02  0.29724254425E+03  0.32368449753E+03  0.10100000352E+00 0.  1.
       -3    1    3    3    0  502  0.12750641764E+03 -0.12673874230E+02 -0.35324842355E+03  0.37576983989E+03  0.10100000352E+00 0. -1.
</event>
<event>
 5   0  0.3113940E-02  0.7216709E+03  0.7818609E-02  0.9680873E-01
       -2   -1    0    0    0  501  0.00000000000E+00  0.00000000000E+00  0.65443339070E+02  0.65443339120E+02  0.25500000920E-02 0. -1.
        2   -1    0    0  501    0  0.00000000000E+00  0.00000000000E+00 -0.19895409920E+04  0.19895409920E+04  0.25500000920E-02 0.  1.
    10030    2    1    2    0    0  0.00000000000E+00  0.00000000000E+00 -0.19240976529E+04  0.20549843311E+04  0.72167085513E+03 0.  0.
        5    1    3    3  502    0 -0.31589332225E+03 -0.95704597787E+02 -0.54712690226E+03  0.63899757296E+03  0.46999998093E+01 0.  1.
       -5    1    3    3    0  502  0.31589332225E+03  0.95704597787E+02 -0.13769707507E+04  0.14159867582E+04  0.46999998093E+01 0. -1.
</event>
<event>
 5   0  0.2933851E-02  0.6726086E+03  0.7818609E-02  0.9765257E-01
        2   -1    0    0  501    0  0.00000000000E+00  0.00000000000E+00  0.21975131267E+03  0.21975131268E+03  0.25500000920E-02 0. -1.
       -2   -1    0    0    0  501  0.00000000000E+00  0.00000000000E+00 -0.51467539595E+03  0.51467539595E+03  0.25500000920E-02 0.  1.
    10030    2    1    2    0    0  0.00000000000E+00  0.00000000000E+00 -0.29492408328E+03  0.73442670864E+03  0.67260863469E+03 0.  0.
        2    1    3    3  502    0 -0.10108186801E+03  0.32606822403E+02 -0.49588137035E+03  0.50712827014E+03  0.25500000920E-02 0.  1.
       -2    1    3    3    0  502  0.10108186801E+03 -0.32606822403E+02  0.20095728707E+03  0.22729843849E+03  0.25500000920E-02 0. -1.
</event>
<event>
 5   0  0.3113940E-02  0.7081638E+03  0.7818609E-02  0.9703372E-01
       -2   -1    0    0    0  501  0.00000000000E+00  0.00000000000E+00  0.22791506989E+03  0.22791506991E+03  0.25500000920E-02 0. -1.
        2   -1    0    0  501    0  0.00000000000E+00  0.00000000000E+00 -0.55009085679E+03  0.55009085680E+03  0.25500000920E-02 0.  1.
    10030    2    1    2    0    0  0.00000000000E+00  0.00000000000E+00 -0.32217578690E+03  0.77800592671E+03  0.70816381179E+03 0.  0.
        5    1    3    3  502    0 -0.26315187651E+03 -0.71313466837E+01 -0.42119084115E+03  0.49671277503E+03  0.46999998093E+01 0.  1.
       -5    1    3    3    0  502  0.26315187651E+03  0.71313466837E+01  0.99015054243E+02  0.28129315168E+03  0.46999998093E+01 0. -1.
</event>
<event>
 5   0  0.2933851E-02  0.6980289E+03  0.7818609E-02  0.9720609E-01
        2   -1    0    0  501    0  0.00000000000E+00  0.00000000000E+00  0.92567806803E+03  0.92567806804E+03  0.25500000920E-02 0. -1.
       -2   -1    0    0    0  501  0.00000000000E+00  0.00000000000E+00 -0.13159118982E+03  0.13159118984E+03  0.25500000920E-02 0.  1.
    10030    2    1    2    0    0  0.00000000000E+00  0.00000000000E+00  0.79408687821E+03  0.10572692579E+04  0.69802887727E+03 0.  0.
        2    1    3    3  502    0 -0.23388641432E+03 -0.11222114391E+03  0.75068946558E+03  0.79424877317E+03  0.25500000920E-02 0. -1.
       -2    1    3    3    0  502  0.23388641432E+03  0.11222114391E+03  0.43397412635E+02  0.26302048471E+03  0.25500000920E-02 0.  1.
</event>
<event>
 5   0  0.3183963E-02  0.6955092E+03  0.7818609E-02  0.9724943E-01
       -2   -1    0    0    0  501  0.00000000000E+00  0.00000000000E+00  0.11714417378E+03  0.11714417381E+03  0.25500000920E-02 0.  1.
        2   -1    0    0  501    0  0.00000000000E+00  0.00000000000E+00 -0.10323455250E+04  0.10323455250E+04  0.25500000920E-02 0. -1.
    10030    2    1    2    0    0  0.00000000000E+00  0.00000000000E+00 -0.91520135126E+03  0.11494896989E+04  0.69550920513E+03 0.  0.
        4    1    3    3  502    0  0.30182071767E+03 -0.16143954366E+03 -0.35607967351E+03  0.49391580119E+03  0.12699999809E+01 0.  1.
       -4    1    3    3    0  502 -0.30182071767E+03  0.16143954366E+03 -0.55912167775E+03  0.65557389767E+03  0.12699999809E+01 0. -1.
</event>
<event>
 5   0  0.3290656E-02  0.6778268E+03  0.7818609E-02  0.9755921E-01
        2   -1    0    0  501    0  0.00000000000E+00  0.00000000000E+00  0.84200000589E+03  0.84200000590E+03  0.25500000920E-02 0. -1.
       -2   -1    0    0    0  501  0.00000000000E+00  0.00000000000E+00 -0.13641603646E+03  0.13641603649E+03  0.25500000920E-02 0.  1.
    10030    2    1    2    0    0  0.00000000000E+00  0.00000000000E+00  0.70558396943E+03  0.97841604238E+03  0.67782683193E+03 0.  0.
        1    1    3    3  502    0 -0.19070631068E+03  0.86102152817E+02  0.73763001748E+03  0.76673366977E+03  0.50400001928E-02 0. -1.
       -1    1    3    3    0  502  0.19070631068E+03 -0.86102152817E+02 -0.32046048048E+02  0.21168237261E+03  0.50400001928E-02 0.  1.
</event>
<event>
 5   0  0.1969818E-02  0.6915720E+03  0.7818609E-02  0.9731755E-01
        1   -1    0    0  501    0  0.00000000000E+00  0.00000000000E+00  0.79079243044E+03  0.79079243045E+03  0.50400001928E-02 0. -1.
       -1   -1    0    0    0  501  0.00000000000E+00  0.00000000000E+00 -0.15120017275E+03  0.15120017283E+03  0.50400001928E-02 0.  1.
    10030    2    1    2    0    0  0.00000000000E+00  0.00000000000E+00  0.63959225769E+03  0.94199260329E+03  0.69157198363E+03 0.  0.
        1    1    3    3  502    0  0.29313934883E+03 -0.18350662151E+02  0.56835865716E+03  0.63976479102E+03  0.50400001928E-02 0. -1.
       -1    1    3    3    0  502 -0.29313934883E+03  0.18350662151E+02  0.71233600533E+02  0.30222781227E+03  0.50400001928E-02 0.  1.
</event>
<event>
 5   0  0.1839038E-02  0.6706728E+03  0.7818609E-02  0.9768743E-01
       -1   -1    0    0    0  501  0.00000000000E+00  0.00000000000E+00  0.43624042466E+03  0.43624042469E+03  0.50400001928E-02 0. -1.
        1   -1    0    0  501    0  0.00000000000E+00  0.00000000000E+00 -0.25777183735E+03  0.25777183740E+03  0.50400001928E-02 0.  1.
    10030    2    1    2    0    0  0.00000000000E+00  0.00000000000E+00  0.17846858732E+03  0.69401226209E+03  0.67067278405E+03 0.  0.
        5    1    3    3  502    0 -0.19216708405E+02  0.23903660260E+03 -0.15327266352E+03  0.28464430197E+03  0.46999998093E+01 0.  1.
       -5    1    3    3    0  502  0.19216708405E+02 -0.23903660260E+03  0.33174125083E+03  0.40936796011E+03  0.46999998093E+01 0. -1.
</event>
<event>
 5   0  0.1858013E-02  0.7054112E+03  0.7818609E-02  0.9708023E-01
       -1   -1    0    0    0  501  0.00000000000E+00  0.00000000000E+00  0.10697587202E+03  0.10697587214E+03  0.50400001928E-02 0. -1.
        1   -1    0    0  501    0  0.00000000000E+00  0.00000000000E+00 -0.11628906130E+04  0.11628906130E+04  0.50400001928E-02 0.  1.
    10030    2    1    2    0    0  0.00000000000E+00  0.00000000000E+00 -0.10559147410E+04  0.12698664852E+04  0.70541119208E+03 0.  0.
        2    1    3    3  502    0  0.18437667197E+03  0.14945714270E+03 -0.58289840060E+02  0.24439701335E+03  0.25500000920E-02 0. -1.
       -2    1    3    3    0  502 -0.18437667197E+03 -0.14945714270E+03 -0.99762490094E+03  0.10254694718E+04  0.25500000920E-02 0.  1.
</event>
<event>
 5   0  0.1839038E-02  0.6936352E+03  0.7818609E-02  0.9728179E-01
       -1   -1    0    0    0  501  0.00000000000E+00  0.00000000000E+00  0.11047605108E+03  0.11047605119E+03  0.50400001928E-02 0.  1.
        1   -1    0    0  501    0  0.00000000000E+00  0.00000000000E+00 -0.10887648485E+04  0.10887648485E+04  0.50400001928E-02 0. -1.
    10030    2    1    2    0    0  0.00000000000E+00  0.00000000000E+00 -0.97828879740E+03  0.11992408997E+04  0.69363518102E+03 0.  0.
        5    1    3    3  502    0 -0.14664488041E+03  0.27296413671E+03 -0.21993063960E+03  0.38000752244E+03  0.46999998093E+01 0.  1.
       -5    1    3    3    0  502  0.14664488041E+03 -0.27296413671E+03 -0.75835815780E+03  0.81923337724E+03  0.46999998093E+01 0. -1.
</event>
<event>
 5   0  0.3290656E-02  0.7006168E+03  0.7818609E-02  0.9716178E-01
       -2   -1    0    0    0  501  0.00000000000E+00  0.00000000000E+00  0.86489741360E+02  0.86489741398E+02  0.25500000920E-02 0.  1.
        2   -1    0    0  501    0  0.00000000000E+00  0.00000000000E+00 -0.14188498777E+04  0.14188498777E+04  0.25500000920E-02 0. -1.
    10030    2    1    2    0    0  0.00000000000E+00  0.00000000000E+00 -0.13323601364E+04  0.15053396191E+04  0.70061675397E+03 0.  0.
        1    1    3    3  502    0  0.32737404862E+03 -0.94614195255E+02 -0.49175533845E+03  0.59828833063E+03  0.50400001928E-02 0.  1.
       -1    1    3    3    0  502 -0.32737404862E+03  0.94614195255E+02 -0.84060479794E+03  0.90705128851E+03  0.50400001928E-02 0. -1.
</event>
<event>
 5   0  0.3183963E-02  0.7300550E+03  0.7818609E-02  0.9667171E-01
        2   -1    0    0  501    0  0.00000000000E+00  0.00000000000E+00  0.77956858831E+03  0.77956858832E+03  0.25500000920E-02 0. -1.
       -2   -1    0    0    0  501  0.00000000000E+00  0.00000000000E+00 -0.17092156738E+03  0.17092156740E+03  0.25500000920E-02 0.  1.
    10030    2    1    2    0    0  0.00000000000E+00  0.00000000000E+00  0.60864702094E+03  0.95049015571E+03  0.73005502533E+03 0.  0.
        4    1    3    3  502    0 -0.16690102406E+03  0.18191086202E+03 -0.45741769248E+02  0.25108053670E+03  0.12699999809E+01 0.  1.
       -4    1    3    3    0  502  0.16690102406E+03 -0.18191086202E+03  0.65438879019E+03  0.69940961902E+03  0.12699999809E+01 0. -1.
</event>
<event>
 5   0  0.1951465E-02  0.6995974E+03  0.7818609E-02  0.9717921E-01
        1   -1    0    0  501    0  0.00000000000E+00  0.00000000000E+00  0.13555721193E+04  0.13555721193E+04  0.50400001928E-02 0. -1.
       -1   -1    0    0    0  501  0.00000000000E+00  0.00000000000E+00 -0.90263825413E+02  0.90263825554E+02  0.50400001928E-02 0.  1.
    10030    2    1    2    0    0  0.00000000000E+00  0.00000000000E+00  0.12653082938E+04  0.14458359448E+04  0.69959738483E+03 0.  0.
        4    1    3    3  502    0 -0.16146664469E+02  0.26475132851E+03  0.11039430989E+04  0.11353615984E+04  0.12699999809E+01 0. -1.
       -4    1    3    3    0  502  0.16146664469E+02 -0.26475132851E+03  0.16136519496E+03  0.31047434639E+03  0.12699999809E+01 0.  1.
</event>
<event>
 5   0  0.1858013E-02  0.7066537E+03  0.7818609E-02  0.9705921E-01
        1   -1    0    0  501    0  0.00000000000E+00  0.00000000000E+00  0.17325060397E+04  0.17325060397E+04  0.50400001928E-02 0.  1.
       -1   -1    0    0    0  501  0.00000000000E+00  0.00000000000E+00 -0.72057388245E+02  0.72057388421E+02  0.50400001928E-02 0. -1.
    10030    2    1    2    0    0  0.00000000000E+00  0.00000000000E+00  0.16604486515E+04  0.18045634281E+04  0.70665369313E+03 0.  0.
        2    1    3    3  502    0  0.47035650224E+02  0.30841001628E+02 -0.60551841033E+02  0.82644087704E+02  0.25500000920E-02 0. -1.
       -2    1    3    3    0  502 -0.47035650224E+02 -0.30841001628E+02  0.17210004925E+04  0.17219193404E+04  0.25500000920E-02 0.  1.
</event>
<event>
 5   0  0.1858013E-02  0.6945280E+03  0.7818609E-02  0.9726636E-01
        1   -1    0    0  501    0  0.00000000000E+00  0.00000000000E+00  0.36849974941E+03  0.36849974945E+03  0.50400001928E-02 0.  1.
       -1   -1    0    0    0  501  0.00000000000E+00  0.00000000000E+00 -0.32725202992E+03  0.32725202996E+03  0.50400001928E-02 0. -1.
    10030    2    1    2    0    0  0.00000000000E+00  0.00000000000E+00  0.41247719494E+02  0.69575177941E+03  0.69452801541E+03 0.  0.
        2    1    3    3  502    0  0.90294047753E+02  0.88504399558E+02  0.34462263462E+03  0.36708419211E+03  0.25500000920E-02 0.  1.
       -2    1    3    3    0  502 -0.90294047753E+02 -0.88504399558E+02 -0.30337491513E+03  0.32866758729E+03  0.25500000920E-02 0. -1.
</event>
<event>
 5   0  0.2933851E-02  0.7001013E+03  0.7818609E-02  0.9717059E-01
        2   -1    0    0  501    0  0.00000000000E+00  0.00000000000E+00  0.19164767211E+03  0.19164767212E+03  0.25500000920E-02 0.  1.
       -2   -1    0    0    0  501  0.00000000000E+00  0.00000000000E+00 -0.63937879562E+03  0.63937879562E+03  0.25500000920E-02 0. -1.
    10030    2    1    2    0    0  0.00000000000E+00  0.00000000000E+00 -0.44773112351E+03  0.83102646775E+03  0.70010130062E+03 0.  0.
        2    1    3    3  502    0  0.25211231793E+03 -0.24271206912E+03 -0.23348607883E+03  0.42069646820E+03  0.25500000920E-02 0.  1.
       -2    1    3    3    0  502 -0.25211231793E+03  0.24271206912E+03 -0.21424504469E+03  0.41032999954E+03  0.25500000920E-02 0. -1.
</event>
<event>
 5   0  0.1969818E-02  0.7025096E+03  0.7818609E-02  0.9712950E-01
       -1   -1    0    0    0  501  0.00000000000E+00  0.00000000000E+00  0.21514223565E+03  0.21514223571E+03  0.50400001928E-02 0. -1.
        1   -1    0    0  501    0  0.00000000000E+00  0.00000000000E+00 -0.57348083145E+03  0.57348083147E+03  0.50400001928E-02 0.  1.
    10030    2    1    2    0    0  0.00000000000E+00  0.00000000000E+00 -0.35833859580E+03  0.78862306718E+03  0.70250963898E+03 0.  0.
        1    1    3    3  502    0  0.85254273366E+02  0.26521465376E+03 -0.41934061486E+03  0.50344180895E+03  0.50400001928E-02 0.  1.
       -1    1    3    3    0  502 -0.85254273366E+02 -0.26521465376E+03  0.61002019065E+02  0.28518125824E+03  0.50400001928E-02 0. -1.
</event>
<event>
 5   0  0.1858013E-02  0.7171846E+03  0.7818609E-02  0.9688287E-01
       -1   -1    0    0    0  501  0.00000000000E+00  0.00000000000E+00  0.44815623289E+03  0.44815623292E+03  0.50400001928E-02 0. -1.
        1   -1    0    0  501    0  0.00000000000E+00  0.00000000000E+00 -0.28692769508E+03  0.28692769513E+03  0.50400001928E-02 0.  1.
    10030    2    1    2    0    0  0.00000000000E+00  0.00000000000E+00  0.16122853781E+03  0.73508392805E+03  0.71718459260E+03 0.  0.
        2    1    3    3  502    0 -0.12758825742E+03 -0.32544748950E+03 -0.13413648455E+01  0.34956634724E+03  0.25500000920E-02 0.  1.
       -2    1    3    3    0  502  0.12758825742E+03  0.32544748950E+03  0.16256990266E+03  0.38551758081E+03  0.25500000920E-02 0. -1.
</event>
<event>
 5   0  0.1884172E-02  0.6791397E+03  0.7818609E-02  0.9753586E-01
        1   -1    0    0  501    0  0.00000000000E+00  0.00000000000E+00  0.22976422637E+03  0.22976422642E+03  0.50400001928E-02 0. -1.
       -1   -1    0    0    0  501  0.00000000000E+00  0.00000000000E+00 -0.50185217557E+03  0.50185217560E+03  0.50400001928E-02 0.  1.
    10030    2    1    2    0    0  0.00000000000E+00  0.00000000000E+00 -0.27208794921E+03  0.73161640202E+03  0.67913968195E+03 0.  0.
        3    1    3    3  502    0  0.31943350773E+03 -0.75165054066E+02 -0.23008234683E+03  0.40078104713E+03  0.10100000352E+00 0.  1.
       -3    1    3    3    0  502 -0.31943350773E+03  0.75165054066E+02 -0.42005602376E+02  0.33083535489E+03  0.10100000352E+00 0. -1.
</event>
<event>
 5   0  0.1951465E-02  0.6981649E+03  0.7818609E-02  0.9720376E-01
        1   -1    0    0  501    0  0.00000000000E+00  0.00000000000E+00  0.59866664281E+03  0.59866664283E+03  0.50400001928E-02 0. -1.
       -1   -1    0    0    0  501  0.00000000000E+00  0.00000000000E+00 -0.20354993205E+03  0.20354993211E+03  0.50400001928E-02 0.  1.
    10030    2    1    2    0    0  0.00000000000E+00  0.00000000000E+00  0.39511671076E+03  0.80221657494E+03  0.69816489312E+03 0.  0.
        4    1    3    3  502    0 -0.23728264057E+03 -0.25468393022E+03  0.16737596091E+03  0.38624251581E+03  0.12699999809E+01 0.  1.
       -4    1    3    3    0  502  0.23728264057E+03  0.25468393022E+03  0.22774074985E+03  0.41597405913E+03  0.12699999809E+01 0. -1.
</event>
<event>
 5   0  0.3183963E-02  0.7013717E+03  0.7818609E-02  0.9714889E-01
        2   -1    0    0  501    0  0.00000000000E+00  0.00000000000E+00  0.43560650278E+03  0.43560650279E+03  0.25500000920E-02 0. -1.
       -2   -1    0    0    0  501  0.00000000000E+00  0.00000000000E+00 -0.28232034721E+03  0.28232034722E+03  0.25500000920E-02 0.  1.
    10030    2    1    2    0    0  0.00000000000E+00  0.00000000000E+00  0.15328615557E+03  0.71792685001E+03  0.70137173915E+03 0.  0.
        4    1    3    3  502    0 -0.32741894580E+03  0.33419526571E+02  0.20057498945E+03  0.38542440260E+03  0.12699999809E+01 0. -1.
       -4    1    3    3    0  502  0.32741894580E+03 -0.33419526571E+02 -0.47288833877E+02  0.33250244741E+03  0.12699999809E+01 0.  1.
</event>
<event>
 5   0  0.2933851E-02  0.6948128E+03  0.7818609E-02  0.9726144E-01
       -2   -1    0    0    0  501  0.00000000000E+00  0.00000000000E+00  0.18536388944E+03  0.18536388945E+03  0.25500000920E-02 0. -1.
        2   -1    0    0  501    0  0.00000000000E+00  0.00000000000E+00 -0.65110426944E+03  0.65110426945E+03  0.25500000920E-02 0.  1.
    10030    2    1    2    0    0  0.00000000000E+00  0.00000000000E+00 -0.46574038001E+03  0.83646815890E+03  0.69481283760E+03 0.  0.
        2    1    3    3  502    0  0.15605010857E+03  0.16333095242E+03 -0.55061712333E+03  0.59515363807E+03  0.25500000920E-02 0.  1.
       -2    1    3    3    0  502 -0.15605010857E+03 -0.16333095242E+03  0.84876743322E+02  0.24131452083E+03  0.25500000920E-02 0. -1.
</event>
<event>
 5   0  0.3113940E-02  0.7028072E+03  0.7818609E-02  0.9712444E-01
       -2   -1    0    0    0  501  0.00000000000E+00  0.00000000000E+00  0.11258452304E+03  0.11258452307E+03  0.25500000920E-02 0. -1.
        2   -1    0    0  501    0  0.00000000000E+00  0.00000000000E+00 -0.10968158092E+04  0.10968158092E+04  0.25500000920E-02 0.  1.
    10030    2    1    2    0    0  0.00000000000E+00  0.00000000000E+00 -0.98423128620E+03  0.12094003323E+04  0.70280718484E+03 0.  0.
        5    1    3    3  502    0 -0.76216575247E+02 -0.19679204951E+03 -0.86731604270E+01  0.21126616104E+03  0.46999998093E+01 0. -1.
       -5    1    3    3    0  502  0.76216575247E+02  0.19679204951E+03 -0.97555812577E+03  0.99813417127E+03  0.46999998093E+01 0.  1.
</event>
<event>
 5   0  0.3184443E-02  0.7013277E+03  0.7818609E-02  0.9714964E-01
        2   -1    0    0  501    0  0.00000000000E+00  0.00000000000E+00  0.16447436836E+04  0.16447436836E+04  0.25500000920E-02 0.  1.
       -2   -1    0    0    0  501  0.00000000000E+00  0.00000000000E+00 -0.74762488224E+02  0.74762488267E+02  0.25500000920E-02 0. -1.
    10030    2    1    2    0    0  0.00000000000E+00  0.00000000000E+00  0.15699811953E+04  0.17195061718E+04  0.70132768465E+03 0.  0.
        3    1    3    3  502    0  0.36244960747E+02  0.17036813562E+02 -0.69136761553E+02  0.79899012478E+02  0.10100000352E+00 0. -1.
       -3    1    3    3    0  502 -0.36244960747E+02 -0.17036813562E+02  0.16391179569E+04  0.16396071594E+04  0.10100000352E+00 0.  1.
</event>
<event>
 5   0  0.3290656E-02  0.6865088E+03  0.7818609E-02  0.9740586E-01
        2   -1    0    0  501    0  0.00000000000E+00  0.00000000000E+00  0.84709088515E+03  0.84709088515E+03  0.25500000920E-02 0.  1.
       -2   -1    0    0    0  501  0.00000000000E+00  0.00000000000E+00 -0.13909201820E+03  0.13909201823E+03  0.25500000920E-02 0. -1.
    10030    2    1    2    0    0  0.00000000000E+00  0.00000000000E+00  0.70799886694E+03  0.98618290338E+03  0.68650879333E+03 0.  0.
        1    1    3    3  502    0  0.13873935898E+03  0.11688774700E+03 -0.64597918946E+02  0.19257270390E+03  0.50400001928E-02 0. -1.
       -1    1    3    3    0  502 -0.13873935898E+03 -0.11688774700E+03  0.77259678589E+03  0.79361019948E+03  0.50400001928E-02 0.  1.
</event>
<event>
 5   0  0.1884172E-02  0.7069990E+03  0.7818609E-02  0.9705337E-01
        1   -1    0    0  501    0  0.00000000000E+00  0.00000000000E+00  0.40019431614E+03  0.40019431617E+03  0.50400001928E-02 0.  1.
       -1   -1    0    0    0  501  0.00000000000E+00  0.00000000000E+00 -0.31225303175E+03  0.31225303179E+03  0.50400001928E-02 0. -1.
    10030    2    1    2    0    0  0.00000000000E+00  0.00000000000E+00  0.87941284396E+02  0.71244734796E+03  0.70699897745E+03 0.  0.
        3    1    3    3  502    0  0.29559080246E+03  0.71868751835E+02  0.22542169984E+03  0.37862117340E+03  0.10100000352E+00 0.  1.
       -3    1    3    3    0  502 -0.29559080246E+03 -0.71868751835E+02 -0.13748041544E+03  0.33382617456E+03  0.10100000352E+00 0. -1.
</event>
<event>
 5   0  0.1884172E-02  0.7018380E+03  0.7818609E-02  0.9714094E-01
       -1   -1    0    0    0  501  0.00000000000E+00  0.00000000000E+00  0.52357652554E+03  0.52357652557E+03  0.50400001928E-02 0.  1.
        1   -1    0    0  501    0  0.00000000000E+00  0.00000000000E+00 -0.23519796258E+03  0.23519796263E+03  0.50400001928E-02 0. -1.
    10030    2    1    2    0    0  0.00000000000E+00  0.00000000000E+00  0.28837856296E+03  0.75877448820E+03  0.70183796447E+03 0.  0.
        3    1    3    3  502    0  0.23188496555E+03 -0.22796743431E+03  0.28681720598E+03  0.43359417454E+03  0.10100000352E+00 0.  1.
       -3    1    3    3    0  502 -0.23188496555E+03  0.22796743431E+03  0.15613569825E+01  0.32518031366E+03  0.10100000352E+00 0. -1.
</event>
<event>
 5   0  0.3113940E-02  0.7013930E+03  0.7818609E-02  0.9714853E-01
       -2   -1    0    0    0  501  0.00000000000E+00  0.00000000000E+00  0.23191597389E+03  0.23191597391E+03  0.25500000920E-02 0.  1.
        2   -1    0    0  501    0  0.00000000000E+00  0.00000000000E+00 -0.53031287230E+03  0.53031287231E+03  0.25500000920E-02 0. -1.
    10030    2    1    2    0    0  0.00000000000E+00  0.00000000000E+00 -0.29839689841E+03  0.76222884622E+03  0.70139297475E+03 0.  0.
        5    1    3    3  502    0  0.97132685466E+02 -0.31362984540E+03 -0.28303691153E+03  0.43350942527E+03  0.46999998093E+01 0. -1.
       -5    1    3    3    0  502 -0.97132685466E+02  0.31362984540E+03 -0.15359986875E+02  0.32871942094E+03  0.46999998093E+01 0.  1.
</event>
<event>
 5   0  0.1951465E-02  0.7090752E+03  0.7818609E-02  0.9701837E-01
        1   -1    0    0  501    0  0.00000000000E+00  0.00000000000E+00  0.52903662461E+03  0.52903662464E+03  0.50400001928E-02 0. -1.
       -1   -1    0    0    0  501  0.00000000000E+00  0.00000000000E+00 -0.23759583909E+03  0.23759583914E+03  0.50400001928E-02 0.  1.
    10030    2    1    2    0    0  0.00000000000E+00  0.00000000000E+00  0.29144078552E+03  0.76663246378E+03  0.70907517447E+03 0.  0.
        4    1    3    3  502    0  0.19289689662E+03 -0.64003437563E+02  0.45979981255E+03  0.50271575793E+03  0.12699999809E+01 0. -1.
       -4    1    3    3    0  502 -0.19289689662E+03  0.64003437563E+02 -0.16835902703E+03  0.26391670585E+03  0.12699999809E+01 0.  1.
</event>
<event>
 5   0  0.3290656E-02  0.7024676E+03  0.7818609E-02  0.9713021E-01
       -2   -1    0    0    0  501  0.00000000000E+00  0.00000000000E+00  0.16834886654E+03  0.16834886656E+03  0.25500000920E-02 0. -1.
        2   -1    0    0  501    0  0.00000000000E+00  0.00000000000E+00 -0.73279493920E+03  0.73279493920E+03  0.25500000920E-02 0.  1.
    10030    2    1    2    0    0  0.00000000000E+00  0.00000000000E+00 -0.56444607266E+03  0.90114380576E+03  0.70246764318E+03 0.  0.
        1    1    3    3  502    0 -0.14353047175E+03 -0.28599332288E+03 -0.46799831112E+03  0.56693526640E+03  0.50400001928E-02 0.  1.
       -1    1    3    3    0  502  0.14353047175E+03  0.28599332288E+03 -0.96447761547E+02  0.33420853936E+03  0.50400001928E-02 0. -1.
</event>
<event>
 5   0  0.3184443E-02  0.7025708E+03  0.7818609E-02  0.9712846E-01
       -2   -1    0    0    0  501  0.00000000000E+00  0.00000000000E+00  0.14539225735E+03  0.14539225737E+03  0.25500000920E-02 0.  1.
        2   -1    0    0  501    0  0.00000000000E+00  0.00000000000E+00 -0.84874821358E+03  0.84874821359E+03  0.25500000920E-02 0. -1.
    10030    2    1    2    0    0  0.00000000000E+00  0.00000000000E+00 -0.70335595623E+03  0.99414047096E+03  0.70257076144E+03 0.  0.
        3    1    3    3  502    0 -0.31487075000E+03  0.15551926013E+03 -0.33970642246E+03  0.48860034091E+03  0.10100000352E+00 0. -1.
       -3    1    3    3    0  502  0.31487075000E+03 -0.15551926013E+03 -0.36364953378E+03  0.50554013005E+03  0.10100000352E+00 0.  1.
</event>
<event>
 5   0  0.1233912E-02  0.7048975E+03  0.7818609E-02  0.9708893E-01
        3   -1    0    0  501    0  0.00000000000E+00  0.00000000000E+00  0.68190482379E+02  0.68190557177E+02  0.10100000352E+00 0.  1.
       -3   -1    0    0    0  501  0.00000000000E+00  0.00000000000E+00 -0.18216627113E+04  0.18216627141E+04  0.10100000352E+00 0. -1.
    10030    2    1    2    0    0  0.00000000000E+00  0.00000000000E+00 -0.17534722289E+04  0.18898532713E+04  0.70489753111E+03 0.  0.
        3    1    3    3  502    0 -0.24816946964E+03  0.16920876934E+03 -0.13710972200E+04  0.14036122293E+04  0.10100000352E+00 0. -1.
       -3    1    3    3    0  502  0.24816946964E+03 -0.16920876934E+03 -0.38237500897E+03  0.48624104205E+03  0.10100000352E+00 0.  1.
</event>
<event>
 5   0  0.1969818E-02  0.6991038E+03  0.7818609E-02  0.9718766E-01
       -1   -1    0    0    0  501  0.00000000000E+00  0.00000000000E+00  0.27836651636E+03  0.27836651641E+03  0.50400001928E-02 0. -1.
        1   -1    0    0  501    0  0.00000000000E+00  0.00000000000E+00 -0.43894125032E+03  0.43894125035E+03  0.50400001928E-02 0.  1.
    10030    2    1    2    0    0  0.00000000000E+00  0.00000000000E+00 -0.16057473396E+03  0.71730776676E+03  0.69910384570E+03 0.  0.
        1    1    3    3  502    0 -0.42367192527E+02  0.90000075719E+02 -0.42411231686E+03  0.43562168216E+03  0.50400001928E-02 0.  1.
       -1    1    3    3    0  502  0.42367192527E+02 -0.90000075719E+02  0.26353758290E+03  0.28168608460E+03  0.50400001928E-02 0. -1.
</event>
<event>
 5   0  0.3184443E-02  0.6915860E+03  0.7818609E-02  0.9731730E-01
       -2   -1    0    0    0  501  0.00000000000E+00  0.00000000000E+00  0.15823158884E+03  0.15823158886E+03  0.25500000920E-02 0.  1.
        2   -1    0    0  501    0  0.00000000000E+00  0.00000000000E+00 -0.75568218144E+03  0.75568218144E+03  0.25500000920E-02 0. -1.
    10030    2    1    2    0    0  0.00000000000E+00  0.00000000000E+00 -0.59745059259E+03  0.91391377030E+03  0.69158598089E+03 0.  0.
        3    1    3    3  502    0 -0.57070362432E+02  0.76756278362E+02  0.14040280376E+03  0.16988675652E+03  0.10100000352E+00 0.  1.
       -3    1    3    3    0  502  0.57070362432E+02 -0.76756278362E+02 -0.73785339635E+03  0.74402701379E+03  0.10100000352E+00 0. -1.
</event>
<event>
 5   0  0.3290656E-02  0.7392133E+03  0.7818609E-02  0.9652427E-01
       -2   -1    0    0    0  501  0.00000000000E+00  0.00000000000E+00  0.68259971881E+02  0.68259971929E+02  0.25500000920E-02 0. -1.
        2   -1    0    0  501    0  0.00000000000E+00  0.00000000000E+00 -0.20013057205E+04  0.20013057205E+04  0.25500000920E-02 0.  1.
    10030    2    1    2    0    0  0.00000000000E+00  0.00000000000E+00 -0.19330457486E+04  0.20695656924E+04  0.73921329062E+03 0.  0.
        1    1    3    3  502    0  0.36695927323E+03  0.12347443447E+02 -0.84782458427E+03  0.92391454869E+03  0.50400001928E-02 0.  1.
       -1    1    3    3    0  502 -0.36695927323E+03 -0.12347443447E+02 -0.10852211643E+04  0.11456511437E+04  0.50400001928E-02 0. -1.
</event>
<event>
 5   0  0.1858013E-02  0.7003519E+03  0.7818609E-02  0.9716631E-01
        1   -1    0    0  501    0  0.00000000000E+00  0.00000000000E+00  0.11691706653E+04  0.11691706653E+04  0.50400001928E-02 0.  1.
       -1   -1    0    0    0  501  0.00000000000E+00  0.00000000000E+00 -0.10488049733E+03  0.10488049745E+03  0.50400001928E-02 0. -1.
    10030    2    1    2    0    0  0.00000000000E+00  0.00000000000E+00  0.10642901680E+04  0.12740511628E+04  0.70035191418E+03 0.  0.
        2    1    3    3  502    0  0.20973631531E+03  0.42323906986E+02  0.10364247744E+04  0.10582801841E+04  0.25500000920E-02 0.  1.
       -2    1    3    3    0  502 -0.20973631531E+03 -0.42323906986E+02  0.27865393561E+02  0.21577097865E+03  0.25500000920E-02 0. -1.
</event>
<event>
 5   0  0.3183963E-02  0.6891056E+03  0.7818609E-02  0.9736047E-01
        2   -1    0    0  501    0  0.00000000000E+00  0.00000000000E+00  0.28833867270E+03  0.28833867272E+03  0.25500000920E-02 0.  1.
       -2   -1    0    0    0  501  0.00000000000E+00  0.00000000000E+00 -0.41172639794E+03  0.41172639795E+03  0.25500000920E-02 0. -1.
    10030    2    1    2    0    0  0.00000000000E+00  0.00000000000E+00 -0.12338772523E+03  0.70006507066E+03  0.68910563227E+03 0.  0.
        4    1    3    3  502    0  0.27819021526E+03  0.11522819603E+03 -0.23183182008E+03  0.38001965571E+03  0.12699999809E+01 0. -1.
       -4    1    3    3    0  502 -0.27819021526E+03 -0.11522819603E+03  0.10844409484E+03  0.32004541495E+03  0.12699999809E+01 0.  1.
</event>
<event>
 5   0  0.2933851E-02  0.6932292E+03  0.7818609E-02  0.9728882E-01
       -2   -1    0    0    0  501  0.00000000000E+00  0.00000000000E+00  0.12721357513E+03  0.12721357515E+03  0.25500000920E-02 0. -1.
        2   -1    0    0  501    0  0.00000000000E+00  0.00000000000E+00 -0.94440934276E+03  0.94440934277E+03  0.25500000920E-02 0.  1.
    10030    2    1    2    0    0  0.00000000000E+00  0.00000000000E+00 -0.81719576764E+03  0.10716229179E+04  0.69322922296E+03 0.  0.
        2    1    3    3  502    0 -0.74183711220E+02  0.32671524108E+03 -0.27123855154E+03  0.43106429174E+03  0.25500000920E-02 0. -1.
       -2    1    3    3    0  502  0.74183711220E+02 -0.32671524108E+03 -0.54595721609E+03  0.64055862618E+03  0.25500000920E-02 0.  1.
</event>
<event>
 5   0  0.1884172E-02  0.6977892E+03  0.7818609E-02  0.9721020E-01
        1   -1    0    0  501    0  0.00000000000E+00  0.00000000000E+00  0.54230713275E+03  0.54230713277E+03  0.50400001928E-02 0. -1.
       -1   -1    0    0    0  501  0.00000000000E+00  0.00000000000E+00 -0.22446216425E+03  0.22446216431E+03  0.50400001928E-02 0.  1.
    10030    2    1    2    0    0  0.00000000000E+00  0.00000000000E+00  0.31784496850E+03  0.76676929708E+03  0.69778917371E+03 0.  0.
        3    1    3    3  502    0  0.29844369981E+03 -0.17219506549E+03  0.21918585415E+03  0.40836531610E+03  0.10100000352E+00 0.  1.
       -3    1    3    3    0  502 -0.29844369981E+03  0.17219506549E+03  0.98659114341E+02  0.35840398097E+03  0.10100000352E+00 0. -1.
</event>
<event>
 5   0  0.1951465E-02  0.6751994E+03  0.7818609E-02  0.9760610E-01
        1   -1    0    0  501    0  0.00000000000E+00  0.00000000000E+00  0.10986449290E+04  0.10986449290E+04  0.50400001928E-02 0. -1.
       -1   -1    0    0    0  501  0.00000000000E+00  0.00000000000E+00 -0.10374012881E+03  0.10374012893E+03  0.50400001928E-02 0.  1.
    10030    2    1    2    0    0  0.00000000000E+00  0.00000000000E+00  0.99490480020E+03  0.12023850579E+04  0.67519942692E+03 0.  0.
        4    1    3    3  502    0 -0.30844829009E+03 -0.60715471466E+02  0.71660647467E+03  0.78252997934E+03  0.12699999809E+01 0. -1.
       -4    1    3    3    0  502  0.30844829009E+03  0.60715471466E+02  0.27829832553E+03  0.41985507860E+03  0.12699999809E+01 0.  1.
</event>
<event>
 5   0  0.1839038E-02  0.6841825E+03  0.7818609E-02  0.9744671E-01
        1   -1    0    0  501    0  0.00000000000E+00  0.00000000000E+00  0.65280136868E+03  0.65280136870E+03  0.50400001928E-02 0. -1.
       -1   -1    0    0    0  501  0.00000000000E+00  0.00000000000E+00 -0.17926803490E+03  0.17926803497E+03  0.50400001928E-02 0.  1.
    10030    2    1    2    0    0  0.00000000000E+00  0.00000000000E+00  0.47353333378E+03  0.83206940367E+03  0.68418248612E+03 0.  0.
        5    1    3    3  502    0  0.22460350496E+03 -0.20624170771E+03  0.48275176423E+02  0.30876359743E+03  0.46999998093E+01 0. -1.
       -5    1    3    3    0  502 -0.22460350496E+03  0.20624170771E+03  0.42525815736E+03  0.52330580624E+03  0.46999998093E+01 0.  1.
</event>
<event>
 5   0  0.1951465E-02  0.6994873E+03  0.7818609E-02  0.9718109E-01
        1   -1    0    0  501    0  0.00000000000E+00  0.00000000000E+00  0.66555819574E+03  0.66555819576E+03  0.50400001928E-02 0.  1.
       -1   -1    0    0    0  501  0.00000000000E+00  0.00000000000E+00 -0.18378653517E+03  0.18378653524E+03  0.50400001928E-02 0. -1.
    10030    2    1    2    0    0  0.00000000000E+00  0.00000000000E+00  0.48177166057E+03  0.84934473100E+03  0.69948734023E+03 0.  0.
        4    1    3    3  502    0  0.24397681774E+02 -0.29742874612E+03  0.19441425162E+02  0.29906301645E+03  0.12699999809E+01 0. -1.
       -4    1    3    3    0  502 -0.24397681774E+02  0.29742874612E+03  0.46233023541E+03  0.55028171455E+03  0.12699999809E+01 0.  1.
</event>
<event>
 5   0  0.1969818E-02  0.7003454E+03  0.7818609E-02  0.9716642E-01
        1   -1    0    0  501    0  0.00000000000E+00  0.00000000000E+00  0.22163664663E+03  0.22163664669E+03  0.50400001928E-02 0.  1.
       -1   -1    0    0    0  501  0.00000000000E+00  0.00000000000E+00 -0.55325206411E+03  0.55325206413E+03  0.50400001928E-02 0. -1.
    10030    2    1    2    0    0  0.00000000000E+00  0.00000000000E+00 -0.33161541748E+03  0.77488871082E+03  0.70034543551E+03 0.  0.
        1    1    3    3  502    0  0.63487979077E+02  0.32268572733E+03 -0.32739842978E+02  0.33049765424E+03  0.50400001928E-02 0.  1.
       -1    1    3    3    0  502 -0.63487979077E+02 -0.32268572733E+03 -0.29887557450E+03  0.44439105658E+03  0.50400001928E-02 0. -1.
</event>
<event>
 5   0  0.3113940E-02  0.6890718E+03  0.7818609E-02  0.9736105E-01
       -2   -1    0    0    0  501  0.00000000000E+00  0.00000000000E+00  0.22332670280E+03  0.22332670281E+03  0.25500000920E-02 0.  1.
        2   -1    0    0  501    0  0.00000000000E+00  0.00000000000E+00 -0.53153070586E+03  0.53153070587E+03  0.25500000920E-02 0. -1.
    10030    2    1    2    0    0  0.00000000000E+00  0.00000000000E+00 -0.30820400307E+03  0.75485740868E+03  0.68907183945E+03 0.  0.
        5    1    3    3  502    0  0.21289110065E+03 -0.16771195395E+03 -0.38708705832E+03  0.47255518297E+03  0.46999998093E+01 0. -1.
       -5    1    3    3    0  502 -0.21289110065E+03  0.16771195395E+03  0.78883055256E+02  0.28230222571E+03  0.46999998093E+01 0.  1.
</event>
<event>
 5   0  0.1951465E-02  0.6985761E+03  0.7818609E-02  0.9719670E-01
       -1   -1    0    0    0  501  0.00000000000E+00  0.00000000000E+00  0.16185948811E+03  0.16185948819E+03  0.50400001928E-02 0.  1.
        1   -1    0    0  501    0  0.00000000000E+00  0.00000000000E+00 -0.75375345081E+03  0.75375345083E+03  0.50400001928E-02 0. -1.
    10030    2    1    2    0    0  0.00000000000E+00  0.00000000000E+00 -0.59189396271E+03  0.91561293902E+03  0.69857611683E+03 0.  0.
        4    1    3    3  502    0  0.19880413721E+03  0.45836948674E+02 -0.66753570623E+03  0.69801836855E+03  0.12699999809E+01 0. -1.
       -4    1    3    3    0  502 -0.19880413721E+03 -0.45836948674E+02  0.75641743529E+02  0.21759457047E+03  0.12699999809E+01 0.  1.
</event>
<event>
 5   0  0.1233912E-02  0.7002194E+03  0.7818609E-02  0.9716857E-01
        4   -1    0    0  501    0  0.00000000000E+00  0.00000000000E+00  0.11919570516E+04  0.11919577282E+04  0.12699999809E+01 0. -1.
       -4   -1    0    0    0  501  0.00000000000E+00  0.00000000000E+00 -0.10283197090E+03  0.10283981301E+03  0.12699999809E+01 0.  1.
    10030    2    1    2    0    0  0.00000000000E+00  0.00000000000E+00  0.10891250807E+04  0.12947975412E+04  0.70021941651E+03 0.  0.
        4    1    3    3  502    0 -0.16412336681E+03 -0.20792950741E+03  0.96786430815E+03  0.10034610563E+04  0.12699999809E+01 0. -1.
       -4    1    3    3    0  502  0.16412336681E+03  0.20792950741E+03  0.12126077258E+03  0.29133648493E+03  0.12699999809E+01 0.  1.
</event>
<event>
 5   0  0.3184443E-02  0.7073196E+03  0.7818609E-02  0.9704796E-01
        2   -1    0    0  501    0  0.00000000000E+00  0.00000000000E+00  0.67346817170E+03  0.67346817171E+03  0.25500000920E-02 0. -1.
       -2   -1    0    0    0  501  0.00000000000E+00  0.00000000000E+00 -0.18571811242E+03  0.18571811243E+03  0.25500000920E-02 0.  1.
    10030    2    1    2    0    0  0.00000000000E+00  0.00000000000E+00  0.48775005928E+03  0.85918628414E+03  0.70731955333E+03 0.  0.
        3    1    3    3  502    0 -0.15376176753E+01  0.48699792009E+02 -0.18162154164E+03  0.18804368801E+03  0.10100000352E+00 0.  1.
       -3    1    3    3    0  502  0.15376176753E+01 -0.48699792009E+02  0.66937160093E+03  0.67114259613E+03  0.10100000352E+00 0. -1.
</event>
<event>
 5   0  0.3184443E-02  0.6989736E+03  0.7818609E-02  0.9718989E-01
       -2   -1    0    0    0  501  0.00000000000E+00  0.00000000000E+00  0.85475158252E+02  0.85475158290E+02  0.25500000920E-02 0. -1.
        2   -1    0    0  501    0  0.00000000000E+00  0.00000000000E+00 -0.14289652739E+04  0.14289652739E+04  0.25500000920E-02 0.  1.
    10030    2    1    2    0    0  0.00000000000E+00  0.00000000000E+00 -0.13434901156E+04  0.15144404322E+04  0.69897362741E+03 0.  0.
        3    1    3    3  502    0 -0.31932748865E+03 -0.87506187037E+02 -0.91411754557E+03  0.97223365253E+03  0.10100000352E+00 0. -1.
       -3    1    3    3    0  502  0.31932748865E+03  0.87506187037E+02 -0.42937257007E+03  0.54220677966E+03  0.10100000352E+00 0.  1.
</event>
<event>
 5   0  0.1839038E-02  0.6522595E+03  0.7818609E-02  0.9802549E-01
        1   -1    0    0  501    0  0.00000000000E+00  0.00000000000E+00  0.24233117339E+03  0.24233117344E+03  0.50400001928E-02 0.  1.
       -1   -1    0    0    0  501  0.00000000000E+00  0.00000000000E+00 -0.43890597087E+03  0.43890597090E+03  0.50400001928E-02 0. -1.
    10030    2    1    2    0    0  0.00000000000E+00  0.00000000000E+00 -0.19657479748E+03  0.68123714434E+03  0.65225945438E+03 0.  0.
        5    1    3    3  502    0  0.14482655458E+03  0.51211618494E+02 -0.39871422407E+03  0.42730841701E+03  0.46999998093E+01 0. -1.
       -5    1    3    3    0  502 -0.14482655458E+03 -0.51211618494E+02  0.20213942659E+03  0.25392872733E+03  0.46999998093E+01 0.  1.
</event>
<event>
 5   0  0.3113940E-02  0.7020421E+03  0.7818609E-02  0.9713746E-01
       -2   -1    0    0    0  501  0.00000000000E+00  0.00000000000E+00  0.78594725928E+02  0.78594725970E+02  0.25500000920E-02 0. -1.
        2   -1    0    0  501    0  0.00000000000E+00  0.00000000000E+00 -0.15677358301E+04  0.15677358301E+04  0.25500000920E-02 0.  1.
    10030    2    1    2    0    0  0.00000000000E+00  0.00000000000E+00 -0.14891411041E+04  0.16463305560E+04  0.70204207260E+03 0.  0.
        5    1    3    3  502    0 -0.81212844642E+02 -0.28928833912E+03 -0.11699931315E+04  0.12079690754E+04  0.46999998093E+01 0.  1.
       -5    1    3    3    0  502  0.81212844642E+02  0.28928833912E+03 -0.31914797258E+03  0.43836148061E+03  0.46999998093E+01 0. -1.
</event>
<event>
 5   0  0.3184443E-02  0.7037384E+03  0.7818609E-02  0.9710860E-01
       -2   -1    0    0    0  501  0.00000000000E+00  0.00000000000E+00  0.69634259304E+03  0.69634259305E+03  0.25500000920E-02 0. -1.
        2   -1    0    0  501    0  0.00000000000E+00  0.00000000000E+00 -0.17780316597E+03  0.17780316599E+03  0.25500000920E-02 0.  1.
    10030    2    1    2    0    0  0.00000000000E+00  0.00000000000E+00  0.51853942707E+03  0.87414575904E+03  0.70373835380E+03 0.  0.
        3    1    3    3  502    0 -0.15662828677E+03 -0.79219479100E+02  0.63808098312E+03  0.66178206179E+03  0.10100000352E+00 0. -1.
       -3    1    3    3    0  502  0.15662828677E+03  0.79219479100E+02 -0.11954155605E+03  0.21236369725E+03  0.10100000352E+00 0.  1.
</event>
<event>
 5   0  0.1884172E-02  0.7004962E+03  0.7818609E-02  0.9716384E-01
        1   -1    0    0  501    0  0.00000000000E+00  0.00000000000E+00  0.11157444138E+04  0.11157444138E+04  0.50400001928E-02 0. -1.
       -1   -1    0    0    0  501  0.00000000000E+00  0.00000000000E+00 -0.10994786821E+03  0.10994786833E+03  0.50400001928E-02 0.  1.
    10030    2    1    2    0    0  0.00000000000E+00  0.00000000000E+00  0.10057965456E+04  0.12256922821E+04  0.70049616657E+03 0.  0.
        3    1    3    3  502    0  0.13953407894E+03  0.22169217139E+02 -0.57874976659E+02  0.15267860524E+03  0.10100000352E+00 0.  1.
       -3    1    3    3    0  502 -0.13953407894E+03 -0.22169217139E+02  0.10636715222E+04  0.10730136769E+04  0.10100000352E+00 0. -1.
</event>
<event>
 5   0  0.1884172E-02  0.7199762E+03  0.7818609E-02  0.9683667E-01
       -1   -1    0    0    0  501  0.00000000000E+00  0.00000000000E+00  0.83774997837E+02  0.83774997989E+02  0.50400001928E-02 0.  1.
        1   -1    0    0  501    0  0.00000000000E+00  0.00000000000E+00 -0.15468984797E+04  0.15468984797E+04  0.50400001928E-02 0. -1.
    10030    2    1    2    0    0  0.00000000000E+00  0.00000000000E+00 -0.14631234818E+04  0.16306734777E+04  0.71997615771E+03 0.  0.
        3    1    3    3  502    0 -0.29641878356E+03 -0.10190592237E+03 -0.11325352411E+04  0.11751106309E+04  0.10100000352E+00 0. -1.
       -3    1    3    3    0  502  0.29641878356E+03  0.10190592237E+03 -0.33058824073E+03  0.45556284678E+03  0.10100000352E+00 0.  1.
</event>
<event>
 5   0  0.1951465E-02  0.6973588E+03  0.7818609E-02  0.9721760E-01
       -1   -1    0    0    0  501  0.00000000000E+00  0.00000000000E+00  0.32498051704E+03  0.32498051708E+03  0.50400001928E-02 0. -1.
        1   -1    0    0  501    0  0.00000000000E+00  0.00000000000E+00 -0.37410647313E+03  0.37410647316E+03  0.50400001928E-02 0.  1.
    10030    2    1    2    0    0  0.00000000000E+00  0.00000000000E+00 -0.49125956084E+02  0.69908699024E+03  0.69735877449E+03 0.  0.
        4    1    3    3  502    0  0.22995115433E+03  0.43083330926E+02  0.23461592863E+03  0.33133058061E+03  0.12699999809E+01 0. -1.
       -4    1    3    3    0  502 -0.22995115433E+03 -0.43083330926E+02 -0.28374188472E+03  0.36775640963E+03  0.12699999809E+01 0.  1.
</event>
<event>
 5   0  0.1233912E-02  0.7040586E+03  0.7818609E-02  0.9710316E-01
        3   -1    0    0  501    0  0.00000000000E+00  0.00000000000E+00  0.28740160836E+03  0.28740162611E+03  0.10100000352E+00 0.  1.
       -3   -1    0    0    0  501  0.00000000000E+00  0.00000000000E+00 -0.43118976751E+03  0.43118977934E+03  0.10100000352E+00 0. -1.
    10030    2    1    2    0    0  0.00000000000E+00  0.00000000000E+00 -0.14378815915E+03  0.71859140545E+03  0.70405864335E+03 0.  0.
        3    1    3    3  502    0  0.79705595703E+02 -0.11015285373E+03  0.25952061736E+03  0.29298053554E+03  0.10100000352E+00 0.  1.
       -3    1    3    3    0  502 -0.79705595703E+02  0.11015285373E+03 -0.40330877651E+03  0.42561086990E+03  0.10100000352E+00 0. -1.
</event>
<event>
 5   0  0.3290656E-02  0.6865155E+03  0.7818609E-02  0.9740575E-01
       -2   -1    0    0    0  501  0.00000000000E+00  0.00000000000E+00  0.24345522522E+03  0.24345522524E+03  0.25500000920E-02 0.  1.
        2   -1    0    0  501    0  0.00000000000E+00  0.00000000000E+00 -0.48397345392E+03  0.48397345393E+03  0.25500000920E-02 0. -1.
    10030    2    1    2    0    0  0.00000000000E+00  0.00000000000E+00 -0.24051822870E+03  0.72742867916E+03  0.68651545134E+03 0.  0.
        1    1    3    3  502    0 -0.19600854337E+03  0.18293647250E+03  0.10685242995E+03  0.28862180073E+03  0.50400001928E-02 0.  1.
       -1    1    3    3    0  502  0.19600854337E+03 -0.18293647250E+03 -0.34737065865E+03  0.43880687843E+03  0.50400001928E-02 0. -1.
</event>
<event>
 5   0  0.1233912E-02  0.6987002E+03  0.7818609E-02  0.9719458E-01
       -4   -1    0    0    0  501  0.00000000000E+00  0.00000000000E+00  0.85191443376E+03  0.85191538039E+03  0.12699999809E+01 0.  1.
        4   -1    0    0  501    0  0.00000000000E+00  0.00000000000E+00 -0.14325642291E+03  0.14326205222E+03  0.12699999809E+01 0. -1.
    10030    2    1    2    0    0  0.00000000000E+00  0.00000000000E+00  0.70865801084E+03  0.99517743261E+03  0.69870018322E+03 0.  0.
        4    1    3    3  502    0  0.32292903311E+03 -0.86747027142E+02  0.49843024771E+03  0.60020207586E+03  0.12699999809E+01 0.  1.
       -4    1    3    3    0  502 -0.32292903311E+03  0.86747027142E+02  0.21022776314E+03  0.39497535674E+03  0.12699999809E+01 0. -1.
</event>
<event>
 5   0  0.2933851E-02  0.6989046E+03  0.7818609E-02  0.9719107E-01
        2   -1    0    0  501    0  0.00000000000E+00  0.00000000000E+00  0.17375504311E+04  0.17375504311E+04  0.25500000920E-02 0. -1.
       -2   -1    0    0    0  501  0.00000000000E+00  0.00000000000E+00 -0.70281077892E+02  0.70281077938E+02  0.25500000920E-02 0.  1.
    10030    2    1    2    0    0  0.00000000000E+00  0.00000000000E+00  0.16672693532E+04  0.18078315090E+04  0.69890462077E+03 0.  0.
        2    1    3    3  502    0 -0.24717330029E+03  0.18827584043E+03  0.12472946372E+04  0.12854129081E+04  0.25500000920E-02 0. -1.
       -2    1    3    3    0  502  0.24717330029E+03 -0.18827584043E+03  0.41997471604E+03  0.52241860092E+03  0.25500000920E-02 0.  1.
</event>
<event>
 5   0  0.3184443E-02  0.6949329E+03  0.7818609E-02  0.9725937E-01
       -2   -1    0    0    0  501  0.00000000000E+00  0.00000000000E+00  0.15235755351E+03  0.15235755353E+03  0.25500000920E-02 0.  1.
        2   -1    0    0  501    0  0.00000000000E+00  0.00000000000E+00 -0.79243148148E+03  0.79243148149E+03  0.25500000920E-02 0. -1.
    10030    2    1    2    0    0  0.00000000000E+00  0.00000000000E+00 -0.64007392797E+03  0.94478903502E+03  0.69493286541E+03 0.  0.
        3    1    3    3  502    0 -0.49966339276E+02  0.34333051737E+03 -0.29422601773E+03  0.45490816538E+03  0.10100000352E+00 0.  1.
       -3    1    3    3    0  502  0.49966339276E+02 -0.34333051737E+03 -0.34584791024E+03  0.48988086964E+03  0.10100000352E+00 0. -1.
</event>
<event>
 5   0  0.1858013E-02  0.6962791E+03  0.7818609E-02  0.9723617E-01
        1   -1    0    0  501    0  0.00000000000E+00  0.00000000000E+00  0.10659806697E+04  0.10659806697E+04  0.50400001928E-02 0.  1.
       -1   -1    0    0    0  501  0.00000000000E+00  0.00000000000E+00 -0.11369919730E+03  0.11369919741E+03  0.50400001928E-02 0. -1.
    10030    2    1    2    0    0  0.00000000000E+00  0.00000000000E+00  0.95228147236E+03  0.11796798671E+04  0.69627910080E+03 0.  0.
        2    1    3    3  502    0  0.10964788219E+03  0.18011606126E+03  0.94547509315E+03  0.96870408555E+03  0.25500000920E-02 0.  1.
       -2    1    3    3    0  502 -0.10964788219E+03 -0.18011606126E+03  0.68063792174E+01  0.21097578154E+03  0.25500000920E-02 0. -1.
</event>
<event>
 5   0  0.1969818E-02  0.7083648E+03  0.7818609E-02  0.9703033E-01
        1   -1    0    0  501    0  0.00000000000E+00  0.00000000000E+00  0.86838603059E+03  0.86838603060E+03  0.50400001928E-02 0.  1.
       -1   -1    0    0    0  501  0.00000000000E+00  0.00000000000E+00 -0.14445782977E+03  0.14445782986E+03  0.50400001928E-02 0. -1.
    10030    2    1    2    0    0  0.00000000000E+00  0.00000000000E+00  0.72392820082E+03  0.10128438605E+04  0.70836476884E+03 0.  0.
        1    1    3    3  502    0 -0.11298621010E+03 -0.76829487232E+02  0.82918622821E+03  0.84036804726E+03  0.50400001928E-02 0.  1.
       -1    1    3    3    0  502  0.11298621010E+03  0.76829487232E+02 -0.10525802740E+03  0.17247581320E+03  0.50400001928E-02 0. -1.
</event>
<event>
 5   0  0.3184443E-02  0.7034050E+03  0.7818609E-02  0.9711427E-01
        2   -1    0    0  501    0  0.00000000000E+00  0.00000000000E+00  0.11742425070E+04  0.11742425070E+04  0.25500000920E-02 0.  1.
       -2   -1    0    0    0  501  0.00000000000E+00  0.00000000000E+00 -0.10533994633E+03  0.10533994636E+03  0.25500000920E-02 0. -1.
    10030    2    1    2    0    0  0.00000000000E+00  0.00000000000E+00  0.10689025607E+04  0.12795824534E+04  0.70340498347E+03 0.  0.
        3    1    3    3  502    0 -0.10212025024E+03 -0.31564971814E+03  0.74684034332E+03  0.81721098786E+03  0.10100000352E+00 0.  1.
       -3    1    3    3    0  502  0.10212025024E+03  0.31564971814E+03  0.32206221736E+03  0.46237146552E+03  0.10100000352E+00 0. -1.
</event>
<event>
 5   0  0.3113940E-02  0.6977947E+03  0.7818609E-02  0.9721011E-01
        2   -1    0    0  501    0  0.00000000000E+00  0.00000000000E+00  0.89195424501E+03  0.89195424501E+03  0.25500000920E-02 0.  1.
       -2   -1    0    0    0  501  0.00000000000E+00  0.00000000000E+00 -0.13647490573E+03  0.13647490575E+03  0.25500000920E-02 0. -1.
    10030    2    1    2    0    0  0.00000000000E+00  0.00000000000E+00  0.75547933928E+03  0.10284291508E+04  0.69779473061E+03 0.  0.
        5    1    3    3  502    0 -0.21924134793E+03 -0.24892413091E+03  0.21847563111E+03  0.39721994283E+03  0.46999998093E+01 0. -1.
       -5    1    3    3    0  502  0.21924134793E+03  0.24892413091E+03  0.53700370817E+03  0.63120920794E+03  0.46999998093E+01 0.  1.
</event>
<event>
 5   0  0.1884172E-02  0.7012042E+03  0.7818609E-02  0.9715175E-01
        1   -1    0    0  501    0  0.00000000000E+00  0.00000000000E+00  0.50122331792E+03  0.50122331794E+03  0.50400001928E-02 0. -1.
       -1   -1    0    0    0  501  0.00000000000E+00  0.00000000000E+00 -0.24524364133E+03  0.24524364138E+03  0.50400001928E-02 0.  1.
    10030    2    1    2    0    0  0.00000000000E+00  0.00000000000E+00  0.25597967659E+03  0.74646695933E+03  0.70120419747E+03 0.  0.
        3    1    3    3  502    0 -0.78522599049E+02 -0.13228344141E+03 -0.20739768622E+03  0.25822183851E+03  0.10100000352E+00 0.  1.
       -3    1    3    3    0  502  0.78522599049E+02  0.13228344141E+03  0.46337736281E+03  0.48824512082E+03  0.10100000352E+00 0. -1.
</event>
<event>
 5   0  0.1858013E-02  0.7036809E+03  0.7818609E-02  0.9710958E-01
       -1   -1    0    0    0  501  0.00000000000E+00  0.00000000000E+00  0.51971903826E+03  0.51971903829E+03  0.50400001928E-02 0.  1.
        1   -1    0    0  501    0  0.00000000000E+00  0.00000000000E+00 -0.23818967052E+03  0.23818967057E+03  0.50400001928E-02 0. -1.
    10030    2    1    2    0    0  0.00000000000E+00  0.00000000000E+00  0.28152936774E+03  0.75790870886E+03  0.70368091210E+03 0.  0.
        2    1    3    3  502    0  0.29742320710E+02 -0.34816279958E+03  0.96490109821E+02  0.36250831984E+03  0.25500000920E-02 0.  1.
       -2    1    3    3    0  502 -0.29742320710E+02  0.34816279958E+03  0.18503925792E+03  0.39540038902E+03  0.25500000920E-02 0. -1.
</event>
<event>
 5   0  0.1858013E-02  0.7117341E+03  0.7818609E-02  0.9697373E-01
        1   -1    0    0  501    0  0.00000000000E+00  0.00000000000E+00  0.10778841077E+04  0.10778841077E+04  0.50400001928E-02 0.  1.
       -1   -1    0    0    0  501  0.00000000000E+00  0.00000000000E+00 -0.11749070810E+03  0.11749070820E+03  0.50400001928E-02 0. -1.
    10030    2    1    2    0    0  0.00000000000E+00  0.00000000000E+00  0.96039339961E+03  0.11953748159E+04  0.71173412770E+03 0.  0.
        2    1    3    3  502    0 -0.30164846373E+03 -0.18855102010E+03  0.46356310972E+03  0.58432357436E+03  0.25500000920E-02 0.  1.
       -2    1    3    3    0  502  0.30164846373E+03  0.18855102010E+03  0.49683028989E+03  0.61105124156E+03  0.25500000920E-02 0. -1.
</event>
<event>
 5   0  0.3183963E-02  0.6893878E+03  0.7818609E-02  0.9735554E-01
        2   -1    0    0  501    0  0.00000000000E+00  0.00000000000E+00  0.29273126033E+03  0.29273126034E+03  0.25500000920E-02 0. -1.
       -2   -1    0    0    0  501  0.00000000000E+00  0.00000000000E+00 -0.40588044613E+03  0.40588044613E+03  0.25500000920E-02 0.  1.
    10030    2    1    2    0    0  0.00000000000E+00  0.00000000000E+00 -0.11314918579E+03  0.69861170648E+03  0.68938782857E+03 0.  0.
        4    1    3    3  502    0 -0.29871229181E+03 -0.92057612079E+02  0.90657477554E+02  0.32545971848E+03  0.12699999809E+01 0. -1.
       -4    1    3    3    0  502  0.29871229181E+03  0.92057612079E+02 -0.20380666335E+03  0.37315198799E+03  0.12699999809E+01 0.  1.
</event>
<event>
 5   0  0.1839038E-02  0.7027289E+03  0.7818609E-02  0.9712577E-01
        1   -1    0    0  501    0  0.00000000000E+00  0.00000000000E+00  0.34193018068E+03  0.34193018072E+03  0.50400001928E-02 0.  1.
       -1   -1    0    0    0  501  0.00000000000E+00  0.00000000000E+00 -0.36105904302E+03  0.36105904306E+03  0.50400001928E-02 0. -1.
    10030    2    1    2    0    0  0.00000000000E+00  0.00000000000E+00 -0.19128862342E+02  0.70298922377E+03  0.70272892026E+03 0.  0.
        5    1    3    3  502    0  0.24572449606E+03 -0.19491458046E+03 -0.16793501865E+03  0.35580399397E+03  0.46999998093E+01 0. -1.
       -5    1    3    3    0  502 -0.24572449606E+03  0.19491458046E+03  0.14880615630E+03  0.34718522980E+03  0.46999998093E+01 0.  1.
</event>
<event>
 5   0  0.3113940E-02  0.6993395E+03  0.7818609E-02  0.9718362E-01
        2   -1    0    0  501    0  0.00000000000E+00  0.00000000000E+00  0.14585664130E+04  0.14585664130E+04  0.25500000920E-02 0.  1.
       -2   -1    0    0    0  501  0.00000000000E+00  0.00000000000E+00 -0.83828147079E+02  0.83828147118E+02  0.25500000920E-02 0. -1.
    10030    2    1    2    0    0  0.00000000000E+00  0.00000000000E+00  0.13747382660E+04  0.15423945602E+04  0.69933945929E+03 0.  0.
        5    1    3    3  502    0  0.11677893849E+03 -0.31367153940E+03  0.91032863622E+03  0.96992137363E+03  0.46999998093E+01 0.  1.
       -5    1    3    3    0  502 -0.11677893849E+03  0.31367153940E+03  0.46440962974E+03  0.57247318653E+03  0.46999998093E+01 0. -1.
</event>
<event>
 5   0  0.1858013E-02  0.7038083E+03  0.7818609E-02  0.9710742E-01
       -1   -1    0    0    0  501  0.00000000000E+00  0.00000000000E+00  0.12435647675E+03  0.12435647686E+03  0.50400001928E-02 0. -1.
        1   -1    0    0  501    0  0.00000000000E+00  0.00000000000E+00 -0.99581898398E+03  0.99581898400E+03  0.50400001928E-02 0.  1.
    10030    2    1    2    0    0  0.00000000000E+00  0.00000000000E+00 -0.87146250723E+03  0.11201754609E+04  0.70380832731E+03 0.  0.
        2    1    3    3  502    0  0.99234160746E+02 -0.32923431295E+03 -0.31669244486E+03  0.46747915047E+03  0.25500000920E-02 0. -1.
       -2    1    3    3    0  502 -0.99234160746E+02  0.32923431295E+03 -0.55477006237E+03  0.65269631038E+03  0.25500000920E-02 0.  1.
</event>
<event>
 5   0  0.1233912E-02  0.7105074E+03  0.7818609E-02  0.9699430E-01
       -3   -1    0    0    0  501  0.00000000000E+00  0.00000000000E+00  0.34586950445E+03  0.34586951920E+03  0.10100000352E+00 0. -1.
        3   -1    0    0  501    0  0.00000000000E+00  0.00000000000E+00 -0.36489243197E+03  0.36489244595E+03  0.10100000352E+00 0.  1.
    10030    2    1    2    0    0  0.00000000000E+00  0.00000000000E+00 -0.19022927516E+02  0.71076196514E+03  0.71050735346E+03 0.  0.
        5    1    3    3  502    0  0.21480035140E+02  0.32175720119E+03  0.13951841842E+03  0.35139232704E+03  0.46999998093E+01 0. -1.
       -5    1    3    3    0  502 -0.21480035140E+02 -0.32175720119E+03 -0.15854134593E+03  0.35936963811E+03  0.46999998093E+01 0.  1.
</event>
<event>
 5   0  0.3290656E-02  0.7013599E+03  0.7818609E-02  0.9714909E-01
        2   -1    0    0  501    0  0.00000000000E+00  0.00000000000E+00  0.76366182313E+03  0.76366182314E+03  0.25500000920E-02 0.  1.
       -2   -1    0    0    0  501  0.00000000000E+00  0.00000000000E+00 -0.16103520539E+03  0.16103520541E+03  0.25500000920E-02 0. -1.
    10030    2    1    2    0    0  0.00000000000E+00  0.00000000000E+00  0.60262661775E+03  0.92469702855E+03  0.70135993198E+03 0.  0.
        1    1    3    3  502    0 -0.33113140325E+03  0.89686195074E+01  0.14956159399E+03  0.36345166498E+03  0.50400001928E-02 0. -1.
       -1    1    3    3    0  502  0.33113140325E+03 -0.89686195074E+01  0.45306502375E+03  0.56124536357E+03  0.50400001928E-02 0.  1.
</event>
<event>
 5   0  0.1839038E-02  0.7047482E+03  0.7818609E-02  0.9709146E-01
       -1   -1    0    0    0  501  0.00000000000E+00  0.00000000000E+00  0.44191211967E+03  0.44191211970E+03  0.50400001928E-02 0.  1.
        1   -1    0    0  501    0  0.00000000000E+00  0.00000000000E+00 -0.28097779249E+03  0.28097779254E+03  0.50400001928E-02 0. -1.
    10030    2    1    2    0    0  0.00000000000E+00  0.00000000000E+00  0.16093432718E+03  0.72288991224E+03  0.70474815896E+03 0.  0.
        5    1    3    3  502    0  0.22130006268E+03 -0.27400443427E+03  0.70561757231E+02  0.35923975187E+03  0.46999998093E+01 0.  1.
       -5    1    3    3    0  502 -0.22130006268E+03  0.27400443427E+03  0.90372569950E+02  0.36365016037E+03  0.46999998093E+01 0. -1.
</event>
<event>
 5   0  0.1233912E-02  0.7000282E+03  0.7818609E-02  0.9717184E-01
       -4   -1    0    0    0  501  0.00000000000E+00  0.00000000000E+00  0.21946996633E+03  0.21947364084E+03  0.12699999809E+01 0. -1.
        4   -1    0    0  501    0  0.00000000000E+00  0.00000000000E+00 -0.55819889336E+03  0.55820033809E+03  0.12699999809E+01 0.  1.
    10030    2    1    2    0    0  0.00000000000E+00  0.00000000000E+00 -0.33872892703E+03  0.77767397893E+03  0.70002823621E+03 0.  0.
        3    1    3    3  502    0  0.23666448891E+03 -0.39499950315E+02  0.11373342791E+03  0.26552896116E+03  0.10100000352E+00 0. -1.
       -3    1    3    3    0  502 -0.23666448891E+03  0.39499950315E+02 -0.45246235494E+03  0.51214501777E+03  0.10100000352E+00 0.  1.
</event>
<event>
 5   0  0.2933851E-02  0.7005258E+03  0.7818609E-02  0.9716333E-01
        2   -1    0    0  501    0  0.00000000000E+00  0.00000000000E+00  0.13105683256E+04  0.13105683256E+04  0.25500000920E-02 0. -1.
       -2   -1    0    0    0  501  0.00000000000E+00  0.00000000000E+00 -0.93611361351E+02  0.93611361386E+02  0.25500000920E-02 0.  1.
    10030    2    1    2    0    0  0.00000000000E+00  0.00000000000E+00  0.12169569642E+04  0.14041796870E+04  0.70052576006E+03 0.  0.
        2    1    3    3  502    0  0.37661593554E+02  0.34780686397E+03  0.57398799324E+03  0.67219805611E+03  0.25500000920E-02 0.  1.
       -2    1    3    3    0  502 -0.37661593554E+02 -0.34780686397E+03  0.64296897101E+03  0.73198163087E+03  0.25500000920E-02 0. -1.
</event>
<event>
 5   0  0.2933851E-02  0.7197638E+03  0.7818609E-02  0.9684018E-01
        2   -1    0    0  501    0  0.00000000000E+00  0.00000000000E+00  0.12286509880E+04  0.12286509880E+04  0.25500000920E-02 0. -1.
       -2   -1    0    0    0  501  0.00000000000E+00  0.00000000000E+00 -0.10541234978E+03  0.10541234981E+03  0.25500000920E-02 0.  1.
    10030    2    1    2    0    0  0.00000000000E+00  0.00000000000E+00  0.11232386382E+04  0.13340633378E+04  0.71976381605E+03 0.  0.
        2    1    3    3  502    0  0.12443883596E+03 -0.72630611233E+02  0.11728576380E+04  0.11816747728E+04  0.25500000920E-02 0. -1.
       -2    1    3    3    0  502 -0.12443883596E+03  0.72630611233E+02 -0.49618999852E+02  0.15238856498E+03  0.25500000920E-02 0.  1.
</event>
<event>
 5   0  0.3183963E-02  0.6847977E+03  0.7818609E-02  0.9743589E-01
        2   -1    0    0  501    0  0.00000000000E+00  0.00000000000E+00  0.39491954729E+03  0.39491954729E+03  0.25500000920E-02 0. -1.
       -2   -1    0    0    0  501  0.00000000000E+00  0.00000000000E+00 -0.29686290363E+03  0.29686290364E+03  0.25500000920E-02 0.  1.
    10030    2    1    2    0    0  0.00000000000E+00  0.00000000000E+00  0.98056643659E+02  0.69178245093E+03  0.68479767381E+03 0.  0.
        4    1    3    3  502    0 -0.33678527008E+03  0.52363377341E+02  0.15997582507E+02  0.34120928618E+03  0.12699999809E+01 0.  1.
       -4    1    3    3    0  502  0.33678527008E+03 -0.52363377341E+02  0.82059061152E+02  0.35057316475E+03  0.12699999809E+01 0. -1.
</event>
<event>
 5   0  0.2933851E-02  0.6480413E+03  0.7818609E-02  0.9810462E-01
       -2   -1    0    0    0  501  0.00000000000E+00  0.00000000000E+00  0.24963986559E+03  0.24963986560E+03  0.25500000920E-02 0. -1.
        2   -1    0    0  501    0  0.00000000000E+00  0.00000000000E+00 -0.42056334830E+03  0.42056334831E+03  0.25500000920E-02 0.  1.
    10030    2    1    2    0    0  0.00000000000E+00  0.00000000000E+00 -0.17092348271E+03  0.67020321391E+03  0.64804128803E+03 0.  0.
        2    1    3    3  502    0 -0.67063626543E+02 -0.14537509119E+03  0.20587750787E+03  0.26080068136E+03  0.25500000920E-02 0. -1.
       -2    1    3    3    0  502  0.67063626543E+02  0.14537509119E+03 -0.37680099058E+03  0.40940253255E+03  0.25500000920E-02 0.  1.
</event>
<event>
 5   0  0.2933851E-02  0.7553433E+03  0.7818609E-02  0.9627005E-01
        2   -1    0    0  501    0  0.00000000000E+00  0.00000000000E+00  0.40337137215E+03  0.40337137216E+03  0.25500000920E-02 0.  1.
       -2   -1    0    0    0  501  0.00000000000E+00  0.00000000000E+00 -0.35360931604E+03  0.35360931605E+03  0.25500000920E-02 0. -1.
    10030    2    1    2    0    0  0.00000000000E+00  0.00000000000E+00  0.49762056112E+02  0.75698068821E+03  0.75534329949E+03 0.  0.
        2    1    3    3  502    0 -0.30987511232E+03 -0.53816093483E+02 -0.18465860562E+03  0.36471572188E+03  0.25500000920E-02 0.  1.
       -2    1    3    3    0  502  0.30987511232E+03  0.53816093483E+02  0.23442066173E+03  0.39226496632E+03  0.25500000920E-02 0. -1.
</event>
<event>
 5   0  0.3184443E-02  0.7018924E+03  0.7818609E-02  0.9714001E-01
        2   -1    0    0  501    0  0.00000000000E+00  0.00000000000E+00  0.72653162613E+03  0.72653162613E+03  0.25500000920E-02 0. -1.
       -2   -1    0    0    0  501  0.00000000000E+00  0.00000000000E+00 -0.16952217872E+03  0.16952217874E+03  0.25500000920E-02 0.  1.
    10030    2    1    2    0    0  0.00000000000E+00  0.00000000000E+00  0.55700944740E+03  0.89605380487E+03  0.70189236834E+03 0.  0.
        3    1    3    3  502    0  0.31012683059E+03 -0.27538101310E+00  0.48821545357E+03  0.57838833512E+03  0.10100000352E+00 0. -1.
       -3    1    3    3    0  502 -0.31012683059E+03  0.27538101310E+00  0.68793993830E+02  0.31766546976E+03  0.10100000352E+00 0.  1.
</event>
<event>
 5   0  0.1858013E-02  0.7067915E+03  0.7818609E-02  0.9705688E-01
        1   -1    0    0  501    0  0.00000000000E+00  0.00000000000E+00  0.94618954369E+03  0.94618954370E+03  0.50400001928E-02 0.  1.
       -1   -1    0    0    0  501  0.00000000000E+00  0.00000000000E+00 -0.13199106980E+03  0.13199106990E+03  0.50400001928E-02 0. -1.
    10030    2    1    2    0    0  0.00000000000E+00  0.00000000000E+00  0.81419847389E+03  0.10781806136E+04  0.70679153975E+03 0.  0.
        2    1    3    3  502    0  0.33186486509E+03 -0.11527061351E+02  0.59155608328E+03  0.67838467074E+03  0.25500000920E-02 0.  1.
       -2    1    3    3    0  502 -0.33186486509E+03  0.11527061351E+02  0.22264239061E+03  0.39979594286E+03  0.25500000920E-02 0. -1.
</event>
<event>
 5   0  0.1969818E-02  0.7083197E+03  0.7818609E-02  0.9703109E-01
       -1   -1    0    0    0  501  0.00000000000E+00  0.00000000000E+00  0.42185905699E+03  0.42185905702E+03  0.50400001928E-02 0. -1.
        1   -1    0    0  501    0  0.00000000000E+00  0.00000000000E+00 -0.29732488214E+03  0.29732488218E+03  0.50400001928E-02 0.  1.
    10030    2    1    2    0    0  0.00000000000E+00  0.00000000000E+00  0.12453417485E+03  0.71918393920E+03  0.70831968608E+03 0.  0.
        1    1    3    3  502    0 -0.85141888479E+02  0.27903449949E+03  0.26614485040E+03  0.39489552353E+03  0.50400001928E-02 0. -1.
       -1    1    3    3    0  502  0.85141888479E+02 -0.27903449949E+03 -0.14161067556E+03  0.32428841567E+03  0.50400001928E-02 0.  1.
</event>
<event>
 5   0  0.1884172E-02  0.6962903E+03  0.7818609E-02  0.9723597E-01
       -1   -1    0    0    0  501  0.00000000000E+00  0.00000000000E+00  0.18314495911E+03  0.18314495918E+03  0.50400001928E-02 0. -1.
        1   -1    0    0  501    0  0.00000000000E+00  0.00000000000E+00 -0.66179850786E+03  0.66179850788E+03  0.50400001928E-02 0.  1.
    10030    2    1    2    0    0  0.00000000000E+00  0.00000000000E+00 -0.47865354875E+03  0.84494346706E+03  0.69629034375E+03 0.  0.
        3    1    3    3  502    0 -0.62594657757E+02 -0.14853798876E+03 -0.61379000486E+03  0.63460208442E+03  0.10100000352E+00 0.  1.
       -3    1    3    3    0  502  0.62594657757E+02  0.14853798876E+03  0.13513645611E+03  0.21034138265E+03  0.10100000352E+00 0. -1.
</event>
<event>
 5   0  0.1233912E-02  0.6994298E+03  0.7818609E-02  0.9718208E-01
       -3   -1    0    0    0  501  0.00000000000E+00  0.00000000000E+00  0.20209742898E+03  0.20209745422E+03  0.10100000352E+00 0. -1.
        3   -1    0    0  501    0  0.00000000000E+00  0.00000000000E+00 -0.60515614995E+03  0.60515615837E+03  0.10100000352E+00 0.  1.
    10030    2    1    2    0    0  0.00000000000E+00  0.00000000000E+00 -0.40305872097E+03  0.80725361259E+03  0.69942981241E+03 0.  0.
        3    1    3    3  502    0  0.30394138599E+03 -0.16680782214E+03 -0.25436024774E+03  0.43000507146E+03  0.10100000352E+00 0. -1.
       -3    1    3    3    0  502 -0.30394138599E+03  0.16680782214E+03 -0.14869847323E+03  0.37724854113E+03  0.10100000352E+00 0.  1.
</event>
<event>
 5   0  0.1858013E-02  0.6910451E+03  0.7818609E-02  0.9732670E-01
        1   -1    0    0  501    0  0.00000000000E+00  0.00000000000E+00  0.33948897248E+03  0.33948897251E+03  0.50400001928E-02 0. -1.
       -1   -1    0    0    0  501  0.00000000000E+00  0.00000000000E+00 -0.35166331530E+03  0.35166331533E+03  0.50400001928E-02 0.  1.
    10030    2    1    2    0    0  0.00000000000E+00  0.00000000000E+00 -0.12174342822E+02  0.69115228785E+03  0.69104505669E+03 0.  0.
        2    1    3    3  502    0  0.23058751619E+03 -0.76103016087E+02 -0.25193732801E+03  0.34990668604E+03  0.25500000920E-02 0.  1.
       -2    1    3    3    0  502 -0.23058751619E+03  0.76103016087E+02  0.23976298519E+03  0.34124560181E+03  0.25500000920E-02 0. -1.
</event>
<event>
 5   0  0.1969818E-02  0.6989026E+03  0.7818609E-02  0.9719111E-01
        1   -1    0    0  501    0  0.00000000000E+00  0.00000000000E+00  0.21783632436E+04  0.21783632436E+04  0.50400001928E-02 0. -1.
       -1   -1    0    0    0  501  0.00000000000E+00  0.00000000000E+00 -0.56058705618E+02  0.56058705845E+02  0.50400001928E-02 0.  1.
    10030    2    1    2    0    0  0.00000000000E+00  0.00000000000E+00  0.21223045380E+04  0.22344219495E+04  0.69890263718E+03 0.  0.
        1    1    3    3  502    0 -0.19034572308E+03 -0.72628670248E+02  0.15345203437E+03  0.25505674842E+03  0.50400001928E-02 0.  1.
       -1    1    3    3    0  502  0.19034572308E+03  0.72628670248E+02  0.19688525036E+04  0.19793652011E+04  0.50400001928E-02 0. -1.
</event>
<event>
 5   0  0.3183963E-02  0.6941583E+03  0.7818609E-02  0.9727275E-01
       -2   -1    0    0    0  501  0.00000000000E+00  0.00000000000E+00  0.11237908645E+03  0.11237908648E+03  0.25500000920E-02 0.  1.
        2   -1    0    0  501    0  0.00000000000E+00  0.00000000000E+00 -0.10719427457E+04  0.10719427457E+04  0.25500000920E-02 0. -1.
    10030    2    1    2    0    0  0.00000000000E+00  0.00000000000E+00 -0.95956365921E+03  0.11843218321E+04  0.69415832922E+03 0.  0.
        4    1    3    3  502    0 -0.17245339119E+03  0.20639787330E+02 -0.99246119550E+03  0.10075450414E+04  0.12699999809E+01 0. -1.
       -4    1    3    3    0  502  0.17245339119E+03 -0.20639787330E+02  0.32897536297E+02  0.17677679075E+03  0.12699999809E+01 0.  1.
</event>
<event>
 5   0  0.3183963E-02  0.7034103E+03  0.7818609E-02  0.9711418E-01
        2   -1    0    0  501    0  0.00000000000E+00  0.00000000000E+00  0.21128405648E+03  0.21128405649E+03  0.25500000920E-02 0.  1.
       -2   -1    0    0    0  501  0.00000000000E+00  0.00000000000E+00 -0.58545119876E+03  0.58545119877E+03  0.25500000920E-02 0. -1.
    10030    2    1    2    0    0  0.00000000000E+00  0.00000000000E+00 -0.37416714228E+03  0.79673525526E+03  0.70341027617E+03 0.  0.
        4    1    3    3  502    0  0.19449895960E+03 -0.11009705495E+03 -0.49467040560E+03  0.54281822913E+03  0.12699999809E+01 0. -1.
       -4    1    3    3    0  502 -0.19449895960E+03  0.11009705495E+03  0.12050326332E+03  0.25391702614E+03  0.12699999809E+01 0.  1.
</event>
<event>
 5   0  0.2933851E-02  0.6852208E+03  0.7818609E-02  0.9742846E-01
       -2   -1    0    0    0  501  0.00000000000E+00  0.00000000000E+00  0.12183783352E+03  0.12183783355E+03  0.25500000920E-02 0.  1.
        2   -1    0    0  501    0  0.00000000000E+00  0.00000000000E+00 -0.96342730540E+03  0.96342730540E+03  0.25500000920E-02 0. -1.
    10030    2    1    2    0    0  0.00000000000E+00  0.00000000000E+00 -0.84158947188E+03  0.10852651389E+04  0.68522082765E+03 0.  0.
        2    1    3    3  502    0  0.17844541719E+03  0.72281045579E+01 -0.88387368541E+03  0.90173593928E+03  0.25500000920E-02 0. -1.
       -2    1    3    3    0  502 -0.17844541719E+03 -0.72281045579E+01  0.42284213536E+02  0.18352919967E+03  0.25500000920E-02 0.  1.
</event>
<event>
 5   0  0.1839038E-02  0.8030154E+03  0.7818609E-02  0.9555663E-01
       -1   -1    0    0    0  501  0.00000000000E+00  0.00000000000E+00  0.36331351048E+03  0.36331351052E+03  0.50400001928E-02 0.  1.
        1   -1    0    0  501    0  0.00000000000E+00  0.00000000000E+00 -0.44371709242E+03  0.44371709245E+03  0.50400001928E-02 0. -1.
    10030    2    1    2    0    0  0.00000000000E+00  0.00000000000E+00 -0.80403581942E+02  0.80703060297E+03  0.80301535361E+03 0.  0.
        5    1    3    3  502    0  0.53562966785E+02  0.15232455713E+03 -0.40961909468E+03  0.44031994599E+03  0.46999998093E+01 0. -1.
       -5    1    3    3    0  502 -0.53562966785E+02 -0.15232455713E+03  0.32921551274E+03  0.36671065698E+03  0.46999998093E+01 0.  1.
</event>
<event>
 5   0  0.1951465E-02  0.6995285E+03  0.7818609E-02  0.9718039E-01
       -1   -1    0    0    0  501  0.00000000000E+00  0.00000000000E+00  0.12983797698E+03  0.12983797707E+03  0.50400001928E-02 0. -1.
        1   -1    0    0  501    0  0.00000000000E+00  0.00000000000E+00 -0.94221291353E+03  0.94221291354E+03  0.50400001928E-02 0.  1.
    10030    2    1    2    0    0  0.00000000000E+00  0.00000000000E+00 -0.81237493655E+03  0.10720508906E+04  0.69952846585E+03 0.  0.
        4    1    3    3  502    0  0.30250852937E+03  0.17366740585E+03 -0.36676745230E+03  0.50615388486E+03  0.12699999809E+01 0. -1.
       -4    1    3    3    0  502 -0.30250852937E+03 -0.17366740585E+03 -0.44560748426E+03  0.56589700575E+03  0.12699999809E+01 0.  1.
</event>
<event>
 5   0  0.1884172E-02  0.6984074E+03  0.7818609E-02  0.9719960E-01
       -1   -1    0    0    0  501  0.00000000000E+00  0.00000000000E+00  0.23852221341E+03  0.23852221346E+03  0.50400001928E-02 0. -1.
        1   -1    0    0  501    0  0.00000000000E+00  0.00000000000E+00 -0.51124474202E+03  0.51124474205E+03  0.50400001928E-02 0.  1.
    10030    2    1    2    0    0  0.00000000000E+00  0.00000000000E+00 -0.27272252862E+03  0.74976695551E+03  0.69840740972E+03 0.  0.
        3    1    3    3  502    0 -0.31926693272E+03 -0.12789621978E+03 -0.71464133831E+02  0.35127759676E+03  0.10100000352E+00 0. -1.
       -3    1    3    3    0  502  0.31926693272E+03  0.12789621978E+03 -0.20125839479E+03  0.39848935875E+03  0.10100000352E+00 0.  1.
</event>
<event>
 5   0  0.1233912E-02  0.6984489E+03  0.7818609E-02  0.9719888E-01
       -3   -1    0    0    0  501  0.00000000000E+00  0.00000000000E+00  0.29240213464E+03  0.29240215208E+03  0.10100000352E+00 0. -1.
        3   -1    0    0  501    0  0.00000000000E+00  0.00000000000E+00 -0.41708901083E+03  0.41708902306E+03  0.10100000352E+00 0.  1.
    10030    2    1    2    0    0  0.00000000000E+00  0.00000000000E+00 -0.12468687619E+03  0.70949117514E+03  0.69844893193E+03 0.  0.
        1    1    3    3  502    0  0.29812328826E+03 -0.16734544586E+03  0.10027096798E+02  0.34202709826E+03  0.50400001928E-02 0.  1.
       -1    1    3    3    0  502 -0.29812328826E+03  0.16734544586E+03 -0.13471397299E+03  0.36746407688E+03  0.50400001928E-02 0. -1.
</event>
<event>
 5   0  0.1951465E-02  0.6881248E+03  0.7818609E-02  0.9737759E-01
        1   -1    0    0  501    0  0.00000000000E+00  0.00000000000E+00  0.13744514729E+04  0.13744514729E+04  0.50400001928E-02 0. -1.
       -1   -1    0    0    0  501  0.00000000000E+00  0.00000000000E+00 -0.86128135278E+02  0.86128135425E+02  0.50400001928E-02 0.  1.
    10030    2    1    2    0    0  0.00000000000E+00  0.00000000000E+00  0.12883233377E+04  0.14605796084E+04  0.68812482155E+03 0.  0.
        4    1    3    3  502    0 -0.27205257309E+03 -0.16887343058E+03  0.37696897981E+03  0.49460899983E+03  0.12699999809E+01 0.  1.
       -4    1    3    3    0  502  0.27205257309E+03  0.16887343058E+03  0.91135435785E+03  0.96597060854E+03  0.12699999809E+01 0. -1.
</event>
<event>
 5   0  0.1858013E-02  0.6995974E+03  0.7818609E-02  0.9717921E-01
        1   -1    0    0  501    0  0.00000000000E+00  0.00000000000E+00  0.36857009223E+03  0.36857009226E+03  0.50400001928E-02 0. -1.
       -1   -1    0    0    0  501  0.00000000000E+00  0.00000000000E+00 -0.33198335277E+03  0.33198335281E+03  0.50400001928E-02 0.  1.
    10030    2    1    2    0    0  0.00000000000E+00  0.00000000000E+00  0.36586739455E+02  0.70055344508E+03  0.69959741273E+03 0.  0.
        2    1    3    3  502    0  0.81904075835E+02  0.26627667707E+03 -0.19353196270E+03  0.33921404302E+03  0.25500000920E-02 0.  1.
       -2    1    3    3    0  502 -0.81904075835E+02 -0.26627667707E+03  0.23011870216E+03  0.36133940206E+03  0.25500000920E-02 0. -1.
</event>
<event>
 5   0  0.3290656E-02  0.6795078E+03  0.7818609E-02  0.9752933E-01
       -2   -1    0    0    0  501  0.00000000000E+00  0.00000000000E+00  0.63229956811E+03  0.63229956811E+03  0.25500000920E-02 0.  1.
        2   -1    0    0  501    0  0.00000000000E+00  0.00000000000E+00 -0.18256016988E+03  0.18256016989E+03  0.25500000920E-02 0. -1.
    10030    2    1    2    0    0  0.00000000000E+00  0.00000000000E+00  0.44973939823E+03  0.81485973801E+03  0.67950781181E+03 0.  0.
        1    1    3    3  502    0  0.30585091598E+03  0.11258448997E+03  0.10976817408E+03  0.34390275116E+03  0.50400001928E-02 0. -1.
       -1    1    3    3    0  502 -0.30585091598E+03 -0.11258448997E+03  0.33997122415E+03  0.47095698685E+03  0.50400001928E-02 0.  1.
</event>
<event>
 5   0  0.2933851E-02  0.6999930E+03  0.7818609E-02  0.9717244E-01
       -2   -1    0    0    0  501  0.00000000000E+00  0.00000000000E+00  0.13961456691E+03  0.13961456694E+03  0.25500000920E-02 0.  1.
        2   -1    0    0  501    0  0.00000000000E+00  0.00000000000E+00 -0.87739818005E+03  0.87739818006E+03  0.25500000920E-02 0. -1.
    10030    2    1    2    0    0  0.00000000000E+00  0.00000000000E+00 -0.73778361314E+03  0.10170127470E+04  0.69999304834E+03 0.  0.
        2    1    3    3  502    0  0.13549016251E+03  0.27996019396E+03 -0.60208977081E+03  0.67767793712E+03  0.25500000920E-02 0. -1.
       -2    1    3    3    0  502 -0.13549016251E+03 -0.27996019396E+03 -0.13569384233E+03  0.33933480987E+03  0.25500000920E-02 0.  1.
</event>
<event>
 5   0  0.3184443E-02  0.6994109E+03  0.7818609E-02  0.9718240E-01
       -2   -1    0    0    0  501  0.00000000000E+00  0.00000000000E+00  0.16848983573E+03  0.16848983575E+03  0.25500000920E-02 0. -1.
        2   -1    0    0  501    0  0.00000000000E+00  0.00000000000E+00 -0.72582370279E+03  0.72582370279E+03  0.25500000920E-02 0.  1.
    10030    2    1    2    0    0  0.00000000000E+00  0.00000000000E+00 -0.55733386705E+03  0.89431353855E+03  0.69941094205E+03 0.  0.
        3    1    3    3  502    0  0.62196407975E+02  0.22636082649E+03  0.52767564517E+02  0.24060765366E+03  0.10100000352E+00 0. -1.
       -3    1    3    3    0  502 -0.62196407975E+02 -0.22636082649E+03 -0.61010143157E+03  0.65370588489E+03  0.10100000352E+00 0.  1.
</event>
<event>
 5   0  0.3113940E-02  0.7066220E+03  0.7818609E-02  0.9705974E-01
       -2   -1    0    0    0  501  0.00000000000E+00  0.00000000000E+00  0.23152854812E+04  0.23152854812E+04  0.25500000920E-02 0. -1.
        2   -1    0    0  501    0  0.00000000000E+00  0.00000000000E+00 -0.53915019042E+02  0.53915019103E+02  0.25500000920E-02 0.  1.
    10030    2    1    2    0    0  0.00000000000E+00  0.00000000000E+00  0.22613704622E+04  0.23692005003E+04  0.70662199480E+03 0.  0.
        5    1    3    3  502    0  0.90033399677E+02 -0.26445983292E+03  0.18557205027E+04  0.18766368030E+04  0.46999998093E+01 0. -1.
       -5    1    3    3    0  502 -0.90033399677E+02  0.26445983292E+03  0.40564995949E+03  0.49256369732E+03  0.46999998093E+01 0.  1.
</event>
<event>
 5   0  0.1233912E-02  0.6901407E+03  0.7818609E-02  0.9734243E-01
        3   -1    0    0  501    0  0.00000000000E+00  0.00000000000E+00  0.21291789654E+03  0.21291792050E+03  0.10100000352E+00 0.  1.
       -3   -1    0    0    0  501  0.00000000000E+00  0.00000000000E+00 -0.55924620586E+03  0.55924621498E+03  0.10100000352E+00 0. -1.
    10030    2    1    2    0    0  0.00000000000E+00  0.00000000000E+00 -0.34632830931E+03  0.77216413547E+03  0.69014067717E+03 0.  0.
        5    1    3    3  502    0  0.34368073143E+03 -0.12559036822E+01 -0.13898101289E+03  0.37075036668E+03  0.46999998093E+01 0.  1.
       -5    1    3    3    0  502 -0.34368073143E+03  0.12559036822E+01 -0.20734729642E+03  0.40141376880E+03  0.46999998093E+01 0. -1.
</event>
<event>
 5   0  0.1839038E-02  0.6948111E+03  0.7818609E-02  0.9726147E-01
        1   -1    0    0  501    0  0.00000000000E+00  0.00000000000E+00  0.27576957387E+03  0.27576957392E+03  0.50400001928E-02 0.  1.
       -1   -1    0    0    0  501  0.00000000000E+00  0.00000000000E+00 -0.43765026606E+03  0.43765026609E+03  0.50400001928E-02 0. -1.
    10030    2    1    2    0    0  0.00000000000E+00  0.00000000000E+00 -0.16188069219E+03  0.71341984001E+03  0.69481113233E+03 0.  0.
        5    1    3    3  502    0 -0.25531086248E+02  0.22538226002E+03  0.18920205925E+03  0.29541243833E+03  0.46999998093E+01 0.  1.
       -5    1    3    3    0  502  0.25531086248E+02 -0.22538226002E+03 -0.35108275145E+03  0.41800740168E+03  0.46999998093E+01 0. -1.
</event>
<event>
 5   0  0.1858013E-02  0.6922630E+03  0.7818609E-02  0.9730556E-01
        1   -1    0    0  501    0  0.00000000000E+00  0.00000000000E+00  0.38210959440E+03  0.38210959443E+03  0.50400001928E-02 0. -1.
       -1   -1    0    0    0  501  0.00000000000E+00  0.00000000000E+00 -0.31354095633E+03  0.31354095637E+03  0.50400001928E-02 0.  1.
    10030    2    1    2    0    0  0.00000000000E+00  0.00000000000E+00  0.68568638065E+02  0.69565055080E+03  0.69226297800E+03 0.  0.
        2    1    3    3  502    0 -0.33570916715E+03  0.84843839292E+01 -0.49997301548E+02  0.33951783436E+03  0.25500000920E-02 0. -1.
       -2    1    3    3    0  502  0.33570916715E+03 -0.84843839292E+01  0.11856593961E+03  0.35613271644E+03  0.25500000920E-02 0.  1.
</event>
<event>
 5   0  0.1839038E-02  0.7023312E+03  0.7818609E-02  0.9713254E-01
        1   -1    0    0  501    0  0.00000000000E+00  0.00000000000E+00  0.41098429004E+03  0.41098429007E+03  0.50400001928E-02 0. -1.
       -1   -1    0    0    0  501  0.00000000000E+00  0.00000000000E+00 -0.30005350873E+03  0.30005350877E+03  0.50400001928E-02 0.  1.
    10030    2    1    2    0    0  0.00000000000E+00  0.00000000000E+00  0.11093078131E+03  0.71103779885E+03  0.70233119904E+03 0.  0.
        5    1    3    3  502    0  0.20874743830E+03  0.85012305232E+02 -0.21711686136E+03  0.31299266209E+03  0.46999998093E+01 0.  1.
       -5    1    3    3    0  502 -0.20874743830E+03 -0.85012305232E+02  0.32804764267E+03  0.39804513676E+03  0.46999998093E+01 0. -1.
</event>
<event>
 5   0  0.2933851E-02  0.7073910E+03  0.7818609E-02  0.9704676E-01
       -2   -1    0    0    0  501  0.00000000000E+00  0.00000000000E+00  0.11918108661E+03  0.11918108664E+03  0.25500000920E-02 0. -1.
        2   -1    0    0  501    0  0.00000000000E+00  0.00000000000E+00 -0.10496673014E+04  0.10496673014E+04  0.25500000920E-02 0.  1.
    10030    2    1    2    0    0  0.00000000000E+00  0.00000000000E+00 -0.93048621480E+03  0.11688483880E+04  0.70739095153E+03 0.  0.
        2    1    3    3  502    0 -0.10457204493E+03 -0.33086303696E+03 -0.35202692302E+03  0.49429608166E+03  0.25500000920E-02 0. -1.
       -2    1    3    3    0  502  0.10457204493E+03  0.33086303696E+03 -0.57845929177E+03  0.67455230639E+03  0.25500000920E-02 0.  1.
</event>
<event>
 5   0  0.3290656E-02  0.7150462E+03  0.7818609E-02  0.9691842E-01
       -2   -1    0    0    0  501  0.00000000000E+00  0.00000000000E+00  0.17190229728E+03  0.17190229730E+03  0.25500000920E-02 0.  1.
        2   -1    0    0  501    0  0.00000000000E+00  0.00000000000E+00 -0.74357790598E+03  0.74357790598E+03  0.25500000920E-02 0. -1.
    10030    2    1    2    0    0  0.00000000000E+00  0.00000000000E+00 -0.57167560870E+03  0.91548020328E+03  0.71504615307E+03 0.  0.
        1    1    3    3  502    0  0.16122956177E+03  0.22259520459E+03  0.69002327875E+01  0.27493855665E+03  0.50400001928E-02 0.  1.
       -1    1    3    3    0  502 -0.16122956177E+03 -0.22259520459E+03 -0.57857584149E+03  0.64054164663E+03  0.50400001928E-02 0. -1.
</event>
<event>
 5   0  0.3290656E-02  0.7076234E+03  0.7818609E-02  0.9704283E-01
       -2   -1    0    0    0  501  0.00000000000E+00  0.00000000000E+00  0.23401495155E+03  0.23401495156E+03  0.25500000920E-02 0.  1.
        2   -1    0    0  501    0  0.00000000000E+00  0.00000000000E+00 -0.53493468005E+03  0.53493468005E+03  0.25500000920E-02 0. -1.
    10030    2    1    2    0    0  0.00000000000E+00  0.00000000000E+00 -0.30091972850E+03  0.76894963161E+03  0.70762338356E+03 0.  0.
        1    1    3    3  502    0  0.24046050413E+03 -0.24260399105E+03 -0.25067349973E+03  0.42369228694E+03  0.50400001928E-02 0. -1.
       -1    1    3    3    0  502 -0.24046050413E+03  0.24260399105E+03 -0.50246228769E+02  0.34525734467E+03  0.50400001928E-02 0.  1.
</event>
<event>
 5   0  0.3184443E-02  0.7022986E+03  0.7818609E-02  0.9713309E-01
        2   -1    0    0  501    0  0.00000000000E+00  0.00000000000E+00  0.25395248246E+04  0.25395248246E+04  0.25500000920E-02 0. -1.
       -2   -1    0    0    0  501  0.00000000000E+00  0.00000000000E+00 -0.48554688893E+02  0.48554688960E+02  0.25500000920E-02 0.  1.
    10030    2    1    2    0    0  0.00000000000E+00  0.00000000000E+00  0.24909701358E+04  0.25880795136E+04  0.70229861992E+03 0.  0.
        3    1    3    3  502    0  0.10237098794E+02  0.31691504411E+03  0.18015148608E+04  0.18292063162E+04  0.10100000352E+00 0. -1.
       -3    1    3    3    0  502 -0.10237098794E+02 -0.31691504411E+03  0.68945527499E+03  0.75887319744E+03  0.10100000352E+00 0.  1.
</event>
<event>
 5   0  0.1951465E-02  0.6876138E+03  0.7818609E-02  0.9738652E-01
        1   -1    0    0  501    0  0.00000000000E+00  0.00000000000E+00  0.11224667735E+04  0.11224667736E+04  0.50400001928E-02 0. -1.
       -1   -1    0    0    0  501  0.00000000000E+00  0.00000000000E+00 -0.10530662978E+03  0.10530662990E+03  0.50400001928E-02 0.  1.
    10030    2    1    2    0    0  0.00000000000E+00  0.00000000000E+00  0.10171601438E+04  0.12277734035E+04  0.68761382488E+03 0.  0.
        4    1    3    3  502    0  0.19024275128E+03 -0.27401040181E+03  0.65719562184E+03  0.73700861798E+03  0.12699999809E+01 0. -1.
       -4    1    3    3    0  502 -0.19024275128E+03  0.27401040181E+03  0.35996452192E+03  0.49076478547E+03  0.12699999809E+01 0.  1.
</event>
<event>
 5   0  0.3184443E-02  0.7917219E+03  0.7818609E-02  0.9572077E-01
        2   -1    0    0  501    0  0.00000000000E+00  0.00000000000E+00  0.41552089410E+03  0.41552089410E+03  0.25500000920E-02 0. -1.
       -2   -1    0    0    0  501  0.00000000000E+00  0.00000000000E+00 -0.37713117812E+03  0.37713117813E+03  0.25500000920E-02 0.  1.
    10030    2    1    2    0    0  0.00000000000E+00  0.00000000000E+00  0.38389715974E+02  0.79265207223E+03  0.79172188130E+03 0.  0.
        3    1    3    3  502    0 -0.30937362076E+03  0.11001773420E+03  0.24056532517E+03  0.40704744802E+03  0.10100000352E+00 0. -1.
       -3    1    3    3    0  502  0.30937362076E+03 -0.11001773420E+03 -0.20217560920E+03  0.38560462422E+03  0.10100000352E+00 0.  1.
</event>
<event>
 5   0  0.1858013E-02  0.7089690E+03  0.7818609E-02  0.9702016E-01
       -1   -1    0    0    0  501  0.00000000000E+00  0.00000000000E+00  0.13150470238E+03  0.13150470248E+03  0.50400001928E-02 0. -1.
        1   -1    0    0  501    0  0.00000000000E+00  0.00000000000E+00 -0.95554945148E+03  0.95554945149E+03  0.50400001928E-02 0.  1.
    10030    2    1    2    0    0  0.00000000000E+00  0.00000000000E+00 -0.82404474910E+03  0.10870541540E+04  0.70896895923E+03 0.  0.
        2    1    3    3  502    0  0.14048576544E+03 -0.28953740191E+03 -0.18412856903E+03  0.37077147589E+03  0.25500000920E-02 0. -1.
       -2    1    3    3    0  502 -0.14048576544E+03  0.28953740191E+03 -0.63991618006E+03  0.71628267808E+03  0.25500000920E-02 0.  1.
</event>
<event>
 5   0  0.1233912E-02  0.6984365E+03  0.7818609E-02  0.9719910E-01
        4   -1    0    0  501    0  0.00000000000E+00  0.00000000000E+00  0.20929631213E+03  0.20930016525E+03  0.12699999809E+01 0.  1.
       -4   -1    0    0    0  501  0.00000000000E+00  0.00000000000E+00 -0.58267301749E+03  0.58267440154E+03  0.12699999809E+01 0. -1.
    10030    2    1    2    0    0  0.00000000000E+00  0.00000000000E+00 -0.37337670536E+03  0.79197456679E+03  0.69843650415E+03 0.  0.
        2    1    3    3  502    0  0.26765437837E+02  0.26511417116E+03  0.69266098335E+02  0.27531746185E+03  0.25500000920E-02 0.  1.
       -2    1    3    3    0  502 -0.26765437837E+02 -0.26511417116E+03 -0.44264280369E+03  0.51665710494E+03  0.25500000920E-02 0. -1.
</event>
<event>
 5   0  0.3184443E-02  0.6995651E+03  0.7818609E-02  0.9717976E-01
        2   -1    0    0  501    0  0.00000000000E+00  0.00000000000E+00  0.94032806331E+03  0.94032806332E+03  0.25500000920E-02 0.  1.
       -2   -1    0    0    0  501  0.00000000000E+00  0.00000000000E+00 -0.13011184313E+03  0.13011184316E+03  0.25500000920E-02 0. -1.
    10030    2    1    2    0    0  0.00000000000E+00  0.00000000000E+00  0.81021622018E+03  0.10704399065E+04  0.69956505768E+03 0.  0.
        3    1    3    3  502    0  0.13284556938E+02  0.32118408096E+02 -0.12746286438E+03  0.13211685581E+03  0.10100000352E+00 0. -1.
       -3    1    3    3    0  502 -0.13284556938E+02 -0.32118408096E+02  0.93767908456E+03  0.93832305067E+03  0.10100000352E+00 0.  1.
</event>
<event>
 5   0  0.1858013E-02  0.7000469E+03  0.7818609E-02  0.9717152E-01
        1   -1    0    0  501    0  0.00000000000E+00  0.00000000000E+00  0.13057951550E+03  0.13057951560E+03  0.50400001928E-02 0.  1.
       -1   -1    0    0    0  501  0.00000000000E+00  0.00000000000E+00 -0.93825136220E+03  0.93825136222E+03  0.50400001928E-02 0. -1.
    10030    2    1    2    0    0  0.00000000000E+00  0.00000000000E+00 -0.80767184670E+03  0.10688308778E+04  0.70004687945E+03 0.  0.
        2    1    3    3  502    0 -0.19979873593E+03 -0.12772403933E+03 -0.79691904666E+03  0.83145230293E+03  0.25500000920E-02 0. -1.
       -2    1    3    3    0  502  0.19979873593E+03  0.12772403933E+03 -0.10752800038E+02  0.23737857489E+03  0.25500000920E-02 0.  1.
</event>
<event>
 5   0  0.1858013E-02  0.6977322E+03  0.7818609E-02  0.9721118E-01
        1   -1    0    0  501    0  0.00000000000E+00  0.00000000000E+00  0.29875060385E+03  0.29875060389E+03  0.50400001928E-02 0.  1.
       -1   -1    0    0    0  501  0.00000000000E+00  0.00000000000E+00 -0.40738848753E+03  0.40738848756E+03  0.50400001928E-02 0. -1.
    10030    2    1    2    0    0  0.00000000000E+00  0.00000000000E+00 -0.10863788367E+03  0.70613909145E+03  0.69773220272E+03 0.  0.
        2    1    3    3  502    0 -0.16198545223E+03 -0.29696875015E+02 -0.36557352563E+03  0.40095535134E+03  0.25500000920E-02 0. -1.
       -2    1    3    3    0  502  0.16198545223E+03  0.29696875015E+02  0.25693564195E+03  0.30518374012E+03  0.25500000920E-02 0.  1.
</event>
<event>
 5   0  0.1233912E-02  0.7026220E+03  0.7818609E-02  0.9712759E-01
       -3   -1    0    0    0  501  0.00000000000E+00  0.00000000000E+00  0.10968357965E+04  0.10968358012E+04  0.10100000352E+00 0. -1.
        3   -1    0    0  501    0  0.00000000000E+00  0.00000000000E+00 -0.11252310811E+03  0.11252315344E+03  0.10100000352E+00 0.  1.
    10030    2    1    2    0    0  0.00000000000E+00  0.00000000000E+00  0.98431268844E+03  0.12093589546E+04  0.70262195562E+03 0.  0.
        3    1    3    3  502    0  0.94724506772E+02 -0.21763012234E+03  0.46354043574E+02  0.24183529497E+03  0.10100000352E+00 0.  1.
       -3    1    3    3    0  502 -0.94724506772E+02  0.21763012234E+03  0.93795864486E+03  0.96752365966E+03  0.10100000352E+00 0. -1.
</event>
<event>
 5   0  0.1839038E-02  0.7019085E+03  0.7818609E-02  0.9713974E-01
       -1   -1    0    0    0  501  0.00000000000E+00  0.00000000000E+00  0.31951864829E+03  0.31951864833E+03  0.50400001928E-02 0. -1.
        1   -1    0    0  501    0  0.00000000000E+00  0.00000000000E+00 -0.38548257909E+03  0.38548257912E+03  0.50400001928E-02 0.  1.
    10030    2    1    2    0    0  0.00000000000E+00  0.00000000000E+00 -0.65963930798E+02  0.70500122745E+03  0.70190846308E+03 0.  0.
        5    1    3    3  502    0  0.27424677735E+03 -0.21481662136E+03 -0.75468549649E+02  0.35647590057E+03  0.46999998093E+01 0.  1.
       -5    1    3    3    0  502 -0.27424677735E+03  0.21481662136E+03  0.95046188510E+01  0.34852532688E+03  0.46999998093E+01 0. -1.
</event>
<event>
 5   0  0.2933851E-02  0.6995239E+03  0.7818609E-02  0.9718047E-01
        2   -1    0    0  501    0  0.00000000000E+00  0.00000000000E+00  0.12348699169E+03  0.12348699172E+03  0.25500000920E-02 0. -1.
       -2   -1    0    0    0  501  0.00000000000E+00  0.00000000000E+00 -0.99065835646E+03  0.99065835646E+03  0.25500000920E-02 0.  1.
    10030    2    1    2    0    0  0.00000000000E+00  0.00000000000E+00 -0.86717136477E+03  0.11141453482E+04  0.69952389595E+03 0.  0.
        2    1    3    3  502    0 -0.27980758045E+03  0.20265890018E+03 -0.34677869488E+03  0.48950829935E+03  0.25500000920E-02 0. -1.
       -2    1    3    3    0  502  0.27980758045E+03 -0.20265890018E+03 -0.52039266989E+03  0.62463704884E+03  0.25500000920E-02 0.  1.
</event>
<event>
 5   0  0.2933851E-02  0.7011688E+03  0.7818609E-02  0.9715235E-01
        2   -1    0    0  501    0  0.00000000000E+00  0.00000000000E+00  0.43838654304E+03  0.43838654305E+03  0.25500000920E-02 0. -1.
       -2   -1    0    0    0  501  0.00000000000E+00  0.00000000000E+00 -0.28036770215E+03  0.28036770216E+03  0.25500000920E-02 0.  1.
    10030    2    1    2    0    0  0.00000000000E+00  0.00000000000E+00  0.15801884089E+03  0.71875424521E+03  0.70116881771E+03 0.  0.
        2    1    3    3  502    0  0.15723147029E+03  0.51925674081E+01  0.40017331667E+03  0.42998532695E+03  0.25500000920E-02 0. -1.
       -2    1    3    3    0  502 -0.15723147029E+03 -0.51925674081E+01 -0.24215447578E+03  0.28876891826E+03  0.25500000920E-02 0.  1.
</event>
<event>
 5   0  0.1884172E-02  0.6991113E+03  0.7818609E-02  0.9718753E-01
       -1   -1    0    0    0  501  0.00000000000E+00  0.00000000000E+00  0.18753476542E+03  0.18753476549E+03  0.50400001928E-02 0.  1.
        1   -1    0    0  501    0  0.00000000000E+00  0.00000000000E+00 -0.65155474678E+03  0.65155474680E+03  0.50400001928E-02 0. -1.
    10030    2    1    2    0    0  0.00000000000E+00  0.00000000000E+00 -0.46401998136E+03  0.83908951229E+03  0.69911134059E+03 0.  0.
        3    1    3    3  502    0 -0.30134618776E+02 -0.10851882359E+02 -0.64978983969E+03  0.65057874586E+03  0.10100000352E+00 0. -1.
       -3    1    3    3    0  502  0.30134618776E+02  0.10851882359E+02  0.18576985832E+03  0.18851076644E+03  0.10100000352E+00 0.  1.
</event>
<event>
 5   0  0.3183963E-02  0.7099030E+03  0.7818609E-02  0.9700445E-01
       -2   -1    0    0    0  501  0.00000000000E+00  0.00000000000E+00  0.23439831008E+03  0.23439831009E+03  0.25500000920E-02 0.  1.
        2   -1    0    0  501    0  0.00000000000E+00  0.00000000000E+00 -0.53750631147E+03  0.53750631147E+03  0.25500000920E-02 0. -1.
    10030    2    1    2    0    0  0.00000000000E+00  0.00000000000E+00 -0.30310800139E+03  0.77190462157E+03  0.70990301048E+03 0.  0.
        4    1    3    3  502    0  0.12109428658E+03 -0.18168511254E+02  0.21070268021E+03  0.24370300242E+03  0.12699999809E+01 0.  1.
       -4    1    3    3    0  502 -0.12109428658E+03  0.18168511254E+02 -0.51381068160E+03  0.52820161914E+03  0.12699999809E+01 0. -1.
</event>
<event>
 5   0  0.1969818E-02  0.6958831E+03  0.7818609E-02  0.9724299E-01
        1   -1    0    0  501    0  0.00000000000E+00  0.00000000000E+00  0.10060646663E+04  0.10060646664E+04  0.50400001928E-02 0. -1.
       -1   -1    0    0    0  501  0.00000000000E+00  0.00000000000E+00 -0.12033353015E+03  0.12033353026E+03  0.50400001928E-02 0.  1.
    10030    2    1    2    0    0  0.00000000000E+00  0.00000000000E+00  0.88573113619E+03  0.11263981966E+04  0.69588307330E+03 0.  0.
        1    1    3    3  502    0 -0.80079075007E+02 -0.32944865722E+03  0.31629672669E+03  0.46367304789E+03  0.50400001928E-02 0. -1.
       -1    1    3    3    0  502  0.80079075007E+02  0.32944865722E+03  0.56943440949E+03  0.66272514872E+03  0.50400001928E-02 0.  1.
</event>
<event>
 5   0  0.2933851E-02  0.6914736E+03  0.7818609E-02  0.9731926E-01
       -2   -1    0    0    0  501  0.00000000000E+00  0.00000000000E+00  0.55610985734E+03  0.55610985735E+03  0.25500000920E-02 0. -1.
        2   -1    0    0  501    0  0.00000000000E+00  0.00000000000E+00 -0.21494659895E+03  0.21494659897E+03  0.25500000920E-02 0.  1.
    10030    2    1    2    0    0  0.00000000000E+00  0.00000000000E+00  0.34116325839E+03  0.77105645631E+03  0.69147356417E+03 0.  0.
        2    1    3    3  502    0  0.10321484396E+03  0.23349823586E+03  0.43056591242E+03  0.50056141991E+03  0.25500000920E-02 0. -1.
       -2    1    3    3    0  502 -0.10321484396E+03 -0.23349823586E+03 -0.89402654030E+02  0.27049503640E+03  0.25500000920E-02 0.  1.
</event>
<event>
 5   0  0.1884172E-02  0.7238065E+03  0.7818609E-02  0.9677364E-01
        1   -1    0    0  501    0  0.00000000000E+00  0.00000000000E+00  0.69056268416E+03  0.69056268418E+03  0.50400001928E-02 0.  1.
       -1   -1    0    0    0  501  0.00000000000E+00  0.00000000000E+00 -0.18966267826E+03  0.18966267833E+03  0.50400001928E-02 0. -1.
    10030    2    1    2    0    0  0.00000000000E+00  0.00000000000E+00  0.50090000590E+03  0.88022536251E+03  0.72380651621E+03 0.  0.
        3    1    3    3  502    0 -0.58220775775E+02  0.25153744882E+03 -0.57955051114E+02  0.26461206519E+03  0.10100000352E+00 0. -1.
       -3    1    3    3    0  502  0.58220775775E+02 -0.25153744882E+03  0.55885505701E+03  0.61561329732E+03  0.10100000352E+00 0.  1.
</event>
<event>
 5   0  0.1233912E-02  0.7023754E+03  0.7818609E-02  0.9713179E-01
       -3   -1    0    0    0  501  0.00000000000E+00  0.00000000000E+00  0.32859151880E+03  0.32859153432E+03  0.10100000352E+00 0. -1.
        3   -1    0    0  501    0  0.00000000000E+00  0.00000000000E+00 -0.37533768267E+03  0.37533769626E+03  0.10100000352E+00 0.  1.
    10030    2    1    2    0    0  0.00000000000E+00  0.00000000000E+00 -0.46746163873E+02  0.70392923059E+03  0.70237536819E+03 0.  0.
        5    1    3    3  502    0 -0.14146789815E+03 -0.18974002356E+03 -0.28336220593E+03  0.36922983695E+03  0.46999998093E+01 0.  1.
       -5    1    3    3    0  502  0.14146789815E+03  0.18974002356E+03  0.23661604205E+03  0.33469939364E+03  0.46999998093E+01 0. -1.
</event>
<event>
 5   0  0.3290656E-02  0.6915726E+03  0.7818609E-02  0.9731754E-01
       -2   -1    0    0    0  501  0.00000000000E+00  0.00000000000E+00  0.16592953529E+03  0.16592953531E+03  0.25500000920E-02 0.  1.
        2   -1    0    0  501    0  0.00000000000E+00  0.00000000000E+00 -0.72059612886E+03  0.72059612887E+03  0.25500000920E-02 0. -1.
    10030    2    1    2    0    0  0.00000000000E+00  0.00000000000E+00 -0.55466659357E+03  0.88652566417E+03  0.69157264493E+03 0.  0.
        1    1    3    3  502    0  0.66358686371E+02  0.25589369147E+03  0.83980938102E+01  0.26449118057E+03  0.50400001928E-02 0.  1.
       -1    1    3    3    0  502 -0.66358686371E+02 -0.25589369147E+03 -0.56306468738E+03  0.62203448361E+03  0.50400001928E-02 0. -1.
</event>
<event>
 5   0  0.1233912E-02  0.7012214E+03  0.7818609E-02  0.9715146E-01
        4   -1    0    0  501    0  0.00000000000E+00  0.00000000000E+00  0.58471985279E+03  0.58472123199E+03  0.12699999809E+01 0.  1.
       -4   -1    0    0    0  501  0.00000000000E+00  0.00000000000E+00 -0.21023023390E+03  0.21023406990E+03  0.12699999809E+01 0. -1.
    10030    2    1    2    0    0  0.00000000000E+00  0.00000000000E+00  0.37448961888E+03  0.79495530190E+03  0.70122140395E+03 0.  0.
        2    1    3    3  502    0  0.14166075494E+03 -0.22344252364E+03 -0.73582456465E+02  0.27460646162E+03  0.25500000920E-02 0. -1.
       -2    1    3    3    0  502 -0.14166075494E+03  0.22344252364E+03  0.44807207535E+03  0.52034884027E+03  0.25500000920E-02 0.  1.
</event>
<event>
 5   0  0.1969818E-02  0.7005847E+03  0.7818609E-02  0.9716233E-01
       -1   -1    0    0    0  501  0.00000000000E+00  0.00000000000E+00  0.16423688812E+03  0.16423688819E+03  0.50400001928E-02 0.  1.
        1   -1    0    0  501    0  0.00000000000E+00  0.00000000000E+00 -0.74712048462E+03  0.74712048463E+03  0.50400001928E-02 0. -1.
    10030    2    1    2    0    0  0.00000000000E+00  0.00000000000E+00 -0.58288359650E+03  0.91135737283E+03  0.70058473716E+03 0.  0.
        1    1    3    3  502    0  0.24068760404E+03 -0.25035564333E+03 -0.35100141789E+03  0.49377167423E+03  0.50400001928E-02 0.  1.
       -1    1    3    3    0  502 -0.24068760404E+03  0.25035564333E+03 -0.23188217861E+03  0.41758569859E+03  0.50400001928E-02 0. -1.
</event>
<event>
 5   0  0.1858013E-02  0.7097136E+03  0.7818609E-02  0.9700763E-01
        1   -1    0    0  501    0  0.00000000000E+00  0.00000000000E+00  0.19937376176E+03  0.19937376182E+03  0.50400001928E-02 0. -1.
       -1   -1    0    0    0  501  0.00000000000E+00  0.00000000000E+00 -0.63159438729E+03  0.63159438731E+03  0.50400001928E-02 0.  1.
    10030    2    1    2    0    0  0.00000000000E+00  0.00000000000E+00 -0.43222062553E+03  0.83096814913E+03  0.70971360121E+03 0.  0.
        2    1    3    3  502    0 -0.13876196070E+03 -0.11542940395E+03 -0.57383232293E+03  0.60154996790E+03  0.25500000920E-02 0.  1.
       -2    1    3    3    0  502  0.13876196070E+03  0.11542940395E+03  0.14161169740E+03  0.22941818123E+03  0.25500000920E-02 0. -1.
</event>
<event>
 5   0  0.1951465E-02  0.6233939E+03  0.7818609E-02  0.9858026E-01
       -1   -1    0    0    0  501  0.00000000000E+00  0.00000000000E+00  0.23673448341E+03  0.23673448346E+03  0.50400001928E-02 0.  1.
        1   -1    0    0  501    0  0.00000000000E+00  0.00000000000E+00 -0.41039642038E+03  0.41039642041E+03  0.50400001928E-02 0. -1.
    10030    2    1    2    0    0  0.00000000000E+00  0.00000000000E+00 -0.17366193697E+03  0.64713090388E+03  0.62339388704E+03 0.  0.
        4    1    3    3  502    0 -0.24620735342E+03  0.13437537406E+03 -0.22794291308E+03  0.36143379277E+03  0.12699999809E+01 0. -1.
       -4    1    3    3    0  502  0.24620735342E+03 -0.13437537406E+03  0.54280976108E+02  0.28569711111E+03  0.12699999809E+01 0.  1.
</event>
<event>
 5   0  0.2933851E-02  0.7100696E+03  0.7818609E-02  0.9700165E-01
       -2   -1    0    0    0  501  0.00000000000E+00  0.00000000000E+00  0.13122381468E+03  0.13122381471E+03  0.25500000920E-02 0.  1.
        2   -1    0    0  501    0  0.00000000000E+00  0.00000000000E+00 -0.96057027973E+03  0.96057027974E+03  0.25500000920E-02 0. -1.
    10030    2    1    2    0    0  0.00000000000E+00  0.00000000000E+00 -0.82934646505E+03  0.10917940944E+04  0.71006956389E+03 0.  0.
        2    1    3    3  502    0  0.52910446591E+02 -0.23413616966E+02 -0.95327234689E+03  0.95502663846E+03  0.25500000920E-02 0. -1.
       -2    1    3    3    0  502 -0.52910446591E+02  0.23413616966E+02  0.12392588184E+03  0.13676745598E+03  0.25500000920E-02 0.  1.
</event>
<event>
 5   0  0.2933851E-02  0.6922705E+03  0.7818609E-02  0.9730543E-01
       -2   -1    0    0    0  501  0.00000000000E+00  0.00000000000E+00  0.12714707357E+03  0.12714707360E+03  0.25500000920E-02 0. -1.
        2   -1    0    0  501    0  0.00000000000E+00  0.00000000000E+00 -0.94229166205E+03  0.94229166206E+03  0.25500000920E-02 0.  1.
    10030    2    1    2    0    0  0.00000000000E+00  0.00000000000E+00 -0.81514458848E+03  0.10694387357E+04  0.69227054624E+03 0.  0.
        2    1    3    3  502    0 -0.89685947740E+02 -0.24524002534E+03 -0.75856921631E+03  0.80225525564E+03  0.25500000920E-02 0.  1.
       -2    1    3    3    0  502  0.89685947740E+02  0.24524002534E+03 -0.56575372170E+02  0.26718348002E+03  0.25500000920E-02 0. -1.
</event>
<event>
 5   0  0.3183963E-02  0.6957908E+03  0.7818609E-02  0.9724458E-01
        2   -1    0    0  501    0  0.00000000000E+00  0.00000000000E+00  0.25883641629E+03  0.25883641630E+03  0.25500000920E-02 0. -1.
       -2   -1    0    0    0  501  0.00000000000E+00  0.00000000000E+00 -0.46759728420E+03  0.46759728420E+03  0.25500000920E-02 0.  1.
    10030    2    1    2    0    0  0.00000000000E+00  0.00000000000E+00 -0.20876086791E+03  0.72643370050E+03  0.69579078842E+03 0.  0.
        4    1    3    3  502    0 -0.11070604436E+03 -0.41765322023E+02  0.23718105566E+03  0.26505968468E+03  0.12699999809E+01 0. -1.
       -4    1    3    3    0  502  0.11070604436E+03  0.41765322023E+02 -0.44594192357E+03  0.46137401582E+03  0.12699999809E+01 0.  1.
</event>
<event>
 5   0  0.3113940E-02  0.7137375E+03  0.7818609E-02  0.9694023E-01
        2   -1    0    0  501    0  0.00000000000E+00  0.00000000000E+00  0.12841882130E+04  0.12841882130E+04  0.25500000920E-02 0. -1.
       -2   -1    0    0    0  501  0.00000000000E+00  0.00000000000E+00 -0.99171830225E+02  0.99171830258E+02  0.25500000920E-02 0.  1.
    10030    2    1    2    0    0  0.00000000000E+00  0.00000000000E+00  0.11850163827E+04  0.13833600432E+04  0.71373747403E+03 0.  0.
        5    1    3    3  502    0  0.25690524773E+03  0.21111636501E+03  0.84344810547E+03  0.90664062478E+03  0.46999998093E+01 0. -1.
       -5    1    3    3    0  502 -0.25690524773E+03 -0.21111636501E+03  0.34156827727E+03  0.47671941844E+03  0.46999998093E+01 0.  1.
</event>
<event>
 5   0  0.2933851E-02  0.7561747E+03  0.7818609E-02  0.9625713E-01
       -2   -1    0    0    0  501  0.00000000000E+00  0.00000000000E+00  0.40828619580E+03  0.40828619580E+03  0.25500000920E-02 0.  1.
        2   -1    0    0  501    0  0.00000000000E+00  0.00000000000E+00 -0.35012218314E+03  0.35012218315E+03  0.25500000920E-02 0. -1.
    10030    2    1    2    0    0  0.00000000000E+00  0.00000000000E+00  0.58164012656E+02  0.75840837895E+03  0.75617472643E+03 0.  0.
        2    1    3    3  502    0  0.15442861517E+03 -0.12618496167E+03  0.35124605094E+03  0.40391166119E+03  0.25500000920E-02 0.  1.
       -2    1    3    3    0  502 -0.15442861517E+03  0.12618496167E+03 -0.29308203828E+03  0.35449671777E+03  0.25500000920E-02 0. -1.
</event>
<event>
 5   0  0.3290656E-02  0.6948338E+03  0.7818609E-02  0.9726108E-01
       -2   -1    0    0    0  501  0.00000000000E+00  0.00000000000E+00  0.10794228157E+03  0.10794228160E+03  0.25500000920E-02 0.  1.
        2   -1    0    0  501    0  0.00000000000E+00  0.00000000000E+00 -0.11181764730E+04  0.11181764730E+04  0.25500000920E-02 0. -1.
    10030    2    1    2    0    0  0.00000000000E+00  0.00000000000E+00 -0.10102341915E+04  0.12261187546E+04  0.69483384983E+03 0.  0.
        1    1    3    3  502    0 -0.30673428661E+03  0.15534212179E+03 -0.59301973373E+03  0.68548486635E+03  0.50400001928E-02 0.  1.
       -1    1    3    3    0  502  0.30673428661E+03 -0.15534212179E+03 -0.41721445774E+03  0.54063388829E+03  0.50400001928E-02 0. -1.
</event>
<event>
 5   0  0.3183963E-02  0.7167222E+03  0.7818609E-02  0.9689055E-01
       -2   -1    0    0    0  501  0.00000000000E+00  0.00000000000E+00  0.18038881281E+03  0.18038881283E+03  0.25500000920E-02 0. -1.
        2   -1    0    0  501    0  0.00000000000E+00  0.00000000000E+00 -0.71192143445E+03  0.71192143446E+03  0.25500000920E-02 0.  1.
    10030    2    1    2    0    0  0.00000000000E+00  0.00000000000E+00 -0.53153262164E+03  0.89231024729E+03  0.71672215645E+03 0.  0.
        4    1    3    3  502    0  0.54958043314E+02  0.32170005146E+03 -0.45004862637E+03  0.55592867226E+03  0.12699999809E+01 0.  1.
       -4    1    3    3    0  502 -0.54958043314E+02 -0.32170005146E+03 -0.81483995268E+02  0.33638157503E+03  0.12699999809E+01 0. -1.
</event>
<event>
 5   0  0.3183963E-02  0.7030543E+03  0.7818609E-02  0.9712023E-01
       -2   -1    0    0    0  501  0.00000000000E+00  0.00000000000E+00  0.40355728053E+03  0.40355728054E+03  0.25500000920E-02 0. -1.
        2   -1    0    0  501    0  0.00000000000E+00  0.00000000000E+00 -0.30620517650E+03  0.30620517651E+03  0.25500000920E-02 0.  1.
    10030    2    1    2    0    0  0.00000000000E+00  0.00000000000E+00  0.97352104031E+02  0.70976245704E+03  0.70305427477E+03 0.  0.
        4    1    3    3  502    0  0.26687304801E+03  0.22635214122E+03  0.14993054295E+02  0.35026121704E+03  0.12699999809E+01 0.  1.
       -4    1    3    3    0  502 -0.26687304801E+03 -0.22635214122E+03  0.82359049736E+02  0.35950124000E+03  0.12699999809E+01 0. -1.
</event>
<event>
 5   0  0.3113940E-02  0.6848130E+03  0.7818609E-02  0.9743562E-01
        2   -1    0    0  501    0  0.00000000000E+00  0.00000000000E+00  0.71473411248E+03  0.71473411249E+03  0.25500000920E-02 0. -1.
       -2   -1    0    0    0  501  0.00000000000E+00  0.00000000000E+00 -0.16403612579E+03  0.16403612581E+03  0.25500000920E-02 0.  1.
    10030    2    1    2    0    0  0.00000000000E+00  0.00000000000E+00  0.55069798669E+03  0.87877023830E+03  0.68481301037E+03 0.  0.
        5    1    3    3  502    0  0.12652603495E+03  0.10851196127E+03 -0.10841179098E+03  0.19889416703E+03  0.46999998093E+01 0.  1.
       -5    1    3    3    0  502 -0.12652603495E+03 -0.10851196127E+03  0.65910977767E+03  0.67987607126E+03  0.46999998093E+01 0. -1.
</event>
<event>
 5   0  0.1858013E-02  0.6979570E+03  0.7818609E-02  0.9720732E-01
       -1   -1    0    0    0  501  0.00000000000E+00  0.00000000000E+00  0.23266688251E+03  0.23266688256E+03  0.50400001928E-02 0.  1.
        1   -1    0    0  501    0  0.00000000000E+00  0.00000000000E+00 -0.52343494701E+03  0.52343494703E+03  0.50400001928E-02 0. -1.
    10030    2    1    2    0    0  0.00000000000E+00  0.00000000000E+00 -0.29076806450E+03  0.75610182959E+03  0.69795695382E+03 0.  0.
        2    1    3    3  502    0 -0.48779251105E+02  0.22108844187E+03 -0.43307597699E+03  0.48868631689E+03  0.25500000920E-02 0. -1.
       -2    1    3    3    0  502  0.48779251105E+02 -0.22108844187E+03  0.14230791249E+03  0.26741551270E+03  0.25500000920E-02 0.  1.
</event>
<event>
 5   0  0.3113940E-02  0.6982704E+03  0.7818609E-02  0.9720195E-01
       -2   -1    0    0    0  501  0.00000000000E+00  0.00000000000E+00  0.91205311089E+02  0.91205311124E+02  0.25500000920E-02 0.  1.
        2   -1    0    0  501    0  0.00000000000E+00  0.00000000000E+00 -0.13364945673E+04  0.13364945673E+04  0.25500000920E-02 0. -1.
    10030    2    1    2    0    0  0.00000000000E+00  0.00000000000E+00 -0.12452892562E+04  0.14276998785E+04  0.69827044276E+03 0.  0.
        5    1    3    3  502    0  0.18096347412E+03 -0.21229694076E+03 -0.19349025574E+03  0.33952663973E+03  0.46999998093E+01 0.  1.
       -5    1    3    3    0  502 -0.18096347412E+03  0.21229694076E+03 -0.10517990005E+04  0.10881732387E+04  0.46999998093E+01 0. -1.
</event>
<event>
 5   0  0.3184443E-02  0.7133756E+03  0.7818609E-02  0.9694628E-01
        2   -1    0    0  501    0  0.00000000000E+00  0.00000000000E+00  0.41506760132E+03  0.41506760133E+03  0.25500000920E-02 0. -1.
       -2   -1    0    0    0  501  0.00000000000E+00  0.00000000000E+00 -0.30651916539E+03  0.30651916540E+03  0.25500000920E-02 0.  1.
    10030    2    1    2    0    0  0.00000000000E+00  0.00000000000E+00  0.10854843593E+03  0.72158676673E+03  0.71337556657E+03 0.  0.
        3    1    3    3  502    0 -0.10766394500E+03 -0.22962779665E+03  0.30797124580E+03  0.39895707599E+03  0.10100000352E+00 0. -1.
       -3    1    3    3    0  502  0.10766394500E+03  0.22962779665E+03 -0.19942280987E+03  0.32262969074E+03  0.10100000352E+00 0.  1.
</event>
<event>
 5   0  0.1233912E-02  0.6980104E+03  0.7818609E-02  0.9720641E-01
       -4   -1    0    0    0  501  0.00000000000E+00  0.00000000000E+00  0.60848456509E+03  0.60848589043E+03  0.12699999809E+01 0.  1.
        4   -1    0    0  501    0  0.00000000000E+00  0.00000000000E+00 -0.20017346252E+03  0.20017749123E+03  0.12699999809E+01 0. -1.
    10030    2    1    2    0    0  0.00000000000E+00  0.00000000000E+00  0.40831110257E+03  0.80866338166E+03  0.69801039272E+03 0.  0.
        4    1    3    3  502    0 -0.89145280710E+02 -0.29024081387E+03  0.40353116845E+03  0.50500062171E+03  0.12699999809E+01 0.  1.
       -4    1    3    3    0  502  0.89145280710E+02  0.29024081387E+03  0.47799341185E+01  0.30366275995E+03  0.12699999809E+01 0. -1.
</event>
<event>
 5   0  0.1969818E-02  0.6961418E+03  0.7818609E-02  0.9723853E-01
       -1   -1    0    0    0  501  0.00000000000E+00  0.00000000000E+00  0.62693869232E+02  0.62693869435E+02  0.50400001928E-02 0. -1.
        1   -1    0    0  501    0  0.00000000000E+00  0.00000000000E+00 -0.19324593387E+04  0.19324593387E+04  0.50400001928E-02 0.  1.
    10030    2    1    2    0    0  0.00000000000E+00  0.00000000000E+00 -0.18697654695E+04  0.19951532082E+04  0.69614180534E+03 0.  0.
        1    1    3    3  502    0 -0.87227262822E+02 -0.21364230759E+01 -0.19006074603E+04  0.19026092289E+04  0.50400001928E-02 0.  1.
       -1    1    3    3    0  502  0.87227262822E+02  0.21364230759E+01  0.30841990786E+02  0.92543979297E+02  0.50400001928E-02 0. -1.
</event>
<event>
 5   0  0.1839038E-02  0.6949429E+03  0.7818609E-02  0.9725920E-01
        1   -1    0    0  501    0  0.00000000000E+00  0.00000000000E+00  0.77712906442E+03  0.77712906443E+03  0.50400001928E-02 0.  1.
       -1   -1    0    0    0  501  0.00000000000E+00  0.00000000000E+00 -0.15536212159E+03  0.15536212167E+03  0.50400001928E-02 0. -1.
    10030    2    1    2    0    0  0.00000000000E+00  0.00000000000E+00  0.62176694283E+03  0.93249118610E+03  0.69494293360E+03 0.  0.
        5    1    3    3  502    0 -0.32363939690E+03  0.68055878124E+00  0.14130637593E+03  0.35317489189E+03  0.46999998093E+01 0. -1.
       -5    1    3    3    0  502  0.32363939690E+03 -0.68055878124E+00  0.48046056690E+03  0.57931629421E+03  0.46999998093E+01 0.  1.
</event>
<event>
 5   0  0.1839038E-02  0.7022047E+03  0.7818609E-02  0.9713469E-01
       -1   -1    0    0    0  501  0.00000000000E+00  0.00000000000E+00  0.46782700770E+03  0.46782700772E+03  0.50400001928E-02 0. -1.
        1   -1    0    0  501    0  0.00000000000E+00  0.00000000000E+00 -0.26350094137E+03  0.26350094141E+03  0.50400001928E-02 0.  1.
    10030    2    1    2    0    0  0.00000000000E+00  0.00000000000E+00  0.20432606633E+03  0.73132794914E+03  0.70220469082E+03 0.  0.
        5    1    3    3  502    0  0.16256664100E+03 -0.19464534450E+03 -0.15067298120E+03  0.29502399930E+03  0.46999998093E+01 0.  1.
       -5    1    3    3    0  502 -0.16256664100E+03  0.19464534450E+03  0.35499904753E+03  0.43630394984E+03  0.46999998093E+01 0. -1.
</event>
<event>
 5   0  0.1233912E-02  0.6941425E+03  0.7818609E-02  0.9727302E-01
       -3   -1    0    0    0  501  0.00000000000E+00  0.00000000000E+00  0.62153829575E+03  0.62153830396E+03  0.10100000352E+00 0. -1.
        3   -1    0    0  501    0  0.00000000000E+00  0.00000000000E+00 -0.19380697213E+03  0.19380699845E+03  0.10100000352E+00 0.  1.
    10030    2    1    2    0    0  0.00000000000E+00  0.00000000000E+00  0.42773132362E+03  0.81534530240E+03  0.69414254800E+03 0.  0.
        3    1    3    3  502    0 -0.30607083972E+03 -0.32507809850E+02  0.40225146246E+03  0.50650011439E+03  0.10100000352E+00 0. -1.
       -3    1    3    3    0  502  0.30607083972E+03  0.32507809850E+02  0.25479861160E+02  0.30884518801E+03  0.10100000352E+00 0.  1.
</event>
<event>
 5   0  0.3290656E-02  0.7005018E+03  0.7818609E-02  0.9716375E-01
       -2   -1    0    0    0  501  0.00000000000E+00  0.00000000000E+00  0.35410921055E+03  0.35410921056E+03  0.25500000920E-02 0.  1.
        2   -1    0    0  501    0  0.00000000000E+00  0.00000000000E+00 -0.34643458209E+03  0.34643458210E+03  0.25500000920E-02 0. -1.
    10030    2    1    2    0    0  0.00000000000E+00  0.00000000000E+00  0.76746284566E+01  0.70054379266E+03  0.70050175269E+03 0.  0.
        1    1    3    3  502    0 -0.34950183833E+03  0.30707657601E+00  0.26730762316E+02  0.35052269965E+03  0.50400001928E-02 0.  1.
       -1    1    3    3    0  502  0.34950183833E+03 -0.30707657601E+00 -0.19056133860E+02  0.35002109301E+03  0.50400001928E-02 0. -1.
</event>
<event>
 5   0  0.3290656E-02  0.7042896E+03  0.7818609E-02  0.9709924E-01
        2   -1    0    0  501    0  0.00000000000E+00  0.00000000000E+00  0.29731288090E+03  0.29731288091E+03  0.25500000920E-02 0.  1.
       -2   -1    0    0    0  501  0.00000000000E+00  0.00000000000E+00 -0.41708903721E+03  0.41708903721E+03  0.25500000920E-02 0. -1.
    10030    2    1    2    0    0  0.00000000000E+00  0.00000000000E+00 -0.11977615630E+03  0.71440191813E+03  0.70428955196E+03 0.  0.
        1    1    3    3  502    0 -0.49494692485E+02 -0.34267958850E+03  0.52754064734E+01  0.34627569204E+03  0.50400001928E-02 0. -1.
       -1    1    3    3    0  502  0.49494692485E+02  0.34267958850E+03 -0.12505156278E+03  0.36812622609E+03  0.50400001928E-02 0.  1.
</event>
<event>
 5   0  0.1951465E-02  0.7014665E+03  0.7818609E-02  0.9714728E-01
        1   -1    0    0  501    0  0.00000000000E+00  0.00000000000E+00  0.32226330798E+03  0.32226330802E+03  0.50400001928E-02 0. -1.
       -1   -1    0    0    0  501  0.00000000000E+00  0.00000000000E+00 -0.38171835409E+03  0.38171835412E+03  0.50400001928E-02 0.  1.
    10030    2    1    2    0    0  0.00000000000E+00  0.00000000000E+00 -0.59455046108E+02  0.70398166214E+03  0.70146651960E+03 0.  0.
        4    1    3    3  502    0  0.10032961588E+03 -0.28708824174E+03 -0.20507237570E+03  0.36679964905E+03  0.12699999809E+01 0.  1.
       -4    1    3    3    0  502 -0.10032961588E+03  0.28708824174E+03  0.14561732960E+03  0.33718201308E+03  0.12699999809E+01 0. -1.
</event>
<event>
 5   0  0.2933851E-02  0.7027905E+03  0.7818609E-02  0.9712472E-01
       -2   -1    0    0    0  501  0.00000000000E+00  0.00000000000E+00  0.78496302341E+02  0.78496302383E+02  0.25500000920E-02 0. -1.
        2   -1    0    0  501    0  0.00000000000E+00  0.00000000000E+00 -0.15730503175E+04  0.15730503175E+04  0.25500000920E-02 0.  1.
    10030    2    1    2    0    0  0.00000000000E+00  0.00000000000E+00 -0.14945540152E+04  0.16515466199E+04  0.70279053311E+03 0.  0.
        2    1    3    3  502    0  0.12084630083E+02  0.34826885503E+03 -0.64110037284E+03  0.72968960643E+03  0.25500000920E-02 0.  1.
       -2    1    3    3    0  502 -0.12084630083E+02 -0.34826885503E+03 -0.85345364233E+03  0.92185701347E+03  0.25500000920E-02 0. -1.
</event>
<event>
 5   0  0.1233912E-02  0.7139463E+03  0.7818609E-02  0.9693675E-01
        3   -1    0    0  501    0  0.00000000000E+00  0.00000000000E+00  0.35279226461E+03  0.35279227907E+03  0.10100000352E+00 0.  1.
       -3   -1    0    0    0  501  0.00000000000E+00  0.00000000000E+00 -0.36120353216E+03  0.36120354628E+03  0.10100000352E+00 0. -1.
    10030    2    1    2    0    0  0.00000000000E+00  0.00000000000E+00 -0.84112675546E+01  0.71399582535E+03  0.71394627893E+03 0.  0.
        2    1    3    3  502    0 -0.34740829276E+03 -0.56616322939E+01 -0.86096884991E+02  0.35796263712E+03  0.25500000920E-02 0. -1.
       -2    1    3    3    0  502  0.34740829276E+03  0.56616322939E+01  0.77685617436E+02  0.35603318823E+03  0.25500000920E-02 0.  1.
</event>
<event>
 5   0  0.3113940E-02  0.7136614E+03  0.7818609E-02  0.9694150E-01
        2   -1    0    0  501    0  0.00000000000E+00  0.00000000000E+00  0.36270504192E+03  0.36270504193E+03  0.25500000920E-02 0.  1.
       -2   -1    0    0    0  501  0.00000000000E+00  0.00000000000E+00 -0.35105148883E+03  0.35105148884E+03  0.25500000920E-02 0. -1.
    10030    2    1    2    0    0  0.00000000000E+00  0.00000000000E+00  0.11653553092E+02  0.71375653078E+03  0.71366139024E+03 0.  0.
        5    1    3    3  502    0  0.54580304928E+02  0.28570482955E+03  0.21249361308E+03  0.36025252937E+03  0.46999998093E+01 0.  1.
       -5    1    3    3    0  502 -0.54580304928E+02 -0.28570482955E+03 -0.20084005999E+03  0.35350400141E+03  0.46999998093E+01 0. -1.
</event>
<event>
 5   0  0.3113940E-02  0.6975994E+03  0.7818609E-02  0.9721346E-01
       -2   -1    0    0    0  501  0.00000000000E+00  0.00000000000E+00  0.10348454674E+03  0.10348454677E+03  0.25500000920E-02 0. -1.
        2   -1    0    0  501    0  0.00000000000E+00  0.00000000000E+00 -0.11756462668E+04  0.11756462668E+04  0.25500000920E-02 0.  1.
    10030    2    1    2    0    0  0.00000000000E+00  0.00000000000E+00 -0.10721617200E+04  0.12791308136E+04  0.69759937232E+03 0.  0.
        5    1    3    3  502    0 -0.16755814161E+03  0.91869241312E+02 -0.10710558383E+04  0.10879790380E+04  0.46999998093E+01 0.  1.
       -5    1    3    3    0  502  0.16755814161E+03 -0.91869241312E+02 -0.11058817005E+01  0.19115177554E+03  0.46999998093E+01 0. -1.
</event>
<event>
 5   0  0.1969818E-02  0.7037744E+03  0.7818609E-02  0.9710799E-01
       -1   -1    0    0    0  501  0.00000000000E+00  0.00000000000E+00  0.15777396212E+03  0.15777396220E+03  0.50400001928E-02 0. -1.
        1   -1    0    0  501    0  0.00000000000E+00  0.00000000000E+00 -0.78482284335E+03  0.78482284336E+03  0.50400001928E-02 0.  1.
    10030    2    1    2    0    0  0.00000000000E+00  0.00000000000E+00 -0.62704888122E+03  0.94259680556E+03  0.70377442296E+03 0.  0.
        1    1    3    3  502    0  0.68115550760E+01 -0.28020593013E+03 -0.59847100666E+03  0.66085498136E+03  0.50400001928E-02 0.  1.
       -1    1    3    3    0  502 -0.68115550760E+01  0.28020593013E+03 -0.28577874569E+02  0.28174182420E+03  0.50400001928E-02 0. -1.
</event>
<event>
 5   0  0.1951465E-02  0.6946120E+03  0.7818609E-02  0.9726491E-01
        1   -1    0    0  501    0  0.00000000000E+00  0.00000000000E+00  0.71216928602E+03  0.71216928604E+03  0.50400001928E-02 0.  1.
       -1   -1    0    0    0  501  0.00000000000E+00  0.00000000000E+00 -0.16937187298E+03  0.16937187305E+03  0.50400001928E-02 0. -1.
    10030    2    1    2    0    0  0.00000000000E+00  0.00000000000E+00  0.54279741305E+03  0.88154115909E+03  0.69461196618E+03 0.  0.
        4    1    3    3  502    0 -0.29298936379E+03  0.11998678567E+03  0.45257649251E+03  0.55232842630E+03  0.12699999809E+01 0.  1.
       -4    1    3    3    0  502  0.29298936379E+03 -0.11998678567E+03  0.90220920538E+02  0.32921273279E+03  0.12699999809E+01 0. -1.
</event>
<event>
 5   0  0.3184443E-02  0.7007026E+03  0.7818609E-02  0.9716031E-01
       -2   -1    0    0    0  501  0.00000000000E+00  0.00000000000E+00  0.63452780321E+02  0.63452780372E+02  0.25500000920E-02 0.  1.
        2   -1    0    0  501    0  0.00000000000E+00  0.00000000000E+00 -0.19344467125E+04  0.19344467125E+04  0.25500000920E-02 0. -1.
    10030    2    1    2    0    0  0.00000000000E+00  0.00000000000E+00 -0.18709939322E+04  0.19978994929E+04  0.70070256841E+03 0.  0.
        3    1    3    3  502    0 -0.25133602664E+03  0.20496044562E+03 -0.55758204618E+03  0.64503979023E+03  0.10100000352E+00 0.  1.
       -3    1    3    3    0  502  0.25133602664E+03 -0.20496044562E+03 -0.13134118860E+04  0.13528597026E+04  0.10100000352E+00 0. -1.
</event>
<event>
 5   0  0.3290656E-02  0.6883337E+03  0.7818609E-02  0.9737394E-01
       -2   -1    0    0    0  501  0.00000000000E+00  0.00000000000E+00  0.10664983126E+03  0.10664983129E+03  0.25500000920E-02 0. -1.
        2   -1    0    0  501    0  0.00000000000E+00  0.00000000000E+00 -0.11106516975E+04  0.11106516975E+04  0.25500000920E-02 0.  1.
    10030    2    1    2    0    0  0.00000000000E+00  0.00000000000E+00 -0.10040018662E+04  0.12173015288E+04  0.68833368696E+03 0.  0.
        1    1    3    3  502    0 -0.15536885785E+03  0.16448913574E+03 -0.96062868273E+03  0.98691621928E+03  0.50400001928E-02 0.  1.
       -1    1    3    3    0  502  0.15536885785E+03 -0.16448913574E+03 -0.43373183500E+02  0.23038530951E+03  0.50400001928E-02 0. -1.
</event>
<event>
 5   0  0.3113940E-02  0.7000204E+03  0.7818609E-02  0.9717197E-01
        2   -1    0    0  501    0  0.00000000000E+00  0.00000000000E+00  0.70365724353E+03  0.70365724354E+03  0.25500000920E-02 0. -1.
       -2   -1    0    0    0  501  0.00000000000E+00  0.00000000000E+00 -0.17410056902E+03  0.17410056904E+03  0.25500000920E-02 0.  1.
    10030    2    1    2    0    0  0.00000000000E+00  0.00000000000E+00  0.52955667451E+03  0.87775781258E+03  0.70002036115E+03 0.  0.
        5    1    3    3  502    0 -0.85006649500E+02 -0.12673518308E+03 -0.13014565444E+03  0.20061883873E+03  0.46999998093E+01 0.  1.
       -5    1    3    3    0  502  0.85006649500E+02  0.12673518308E+03  0.65970232895E+03  0.67713897385E+03  0.46999998093E+01 0. -1.
</event>
<event>
 5   0  0.1233912E-02  0.7009826E+03  0.7818609E-02  0.9715553E-01
        4   -1    0    0  501    0  0.00000000000E+00  0.00000000000E+00  0.21788480463E+03  0.21788850586E+03  0.12699999809E+01 0. -1.
       -4   -1    0    0    0  501  0.00000000000E+00  0.00000000000E+00 -0.56379395909E+03  0.56379538949E+03  0.12699999809E+01 0.  1.
    10030    2    1    2    0    0  0.00000000000E+00  0.00000000000E+00 -0.34590915446E+03  0.78168389535E+03  0.70098257404E+03 0.  0.
        1    1    3    3  502    0 -0.32416255222E+03 -0.81647776564E+02 -0.55487696551E+02  0.33886074451E+03  0.50400001928E-02 0.  1.
       -1    1    3    3    0  502  0.32416255222E+03  0.81647776564E+02 -0.29042145791E+03  0.44282315084E+03  0.50400001928E-02 0. -1.
</event>
<event>
 5   0  0.3184443E-02  0.7039084E+03  0.7818609E-02  0.9710571E-01
        2   -1    0    0  501    0  0.00000000000E+00  0.00000000000E+00  0.76372508347E+03  0.76372508348E+03  0.25500000920E-02 0. -1.
       -2   -1    0    0    0  501  0.00000000000E+00  0.00000000000E+00 -0.16219419415E+03  0.16219419417E+03  0.25500000920E-02 0.  1.
    10030    2    1    2    0    0  0.00000000000E+00  0.00000000000E+00  0.60153088932E+03  0.92591927764E+03  0.70390844426E+03 0.  0.
        3    1    3    3  502    0  0.39177798646E+01  0.11619346340E+03 -0.13620687922E+03  0.17907706186E+03  0.10100000352E+00 0.  1.
       -3    1    3    3    0  502 -0.39177798646E+01 -0.11619346340E+03  0.73773776854E+03  0.74684221578E+03  0.10100000352E+00 0. -1.
</event>
<event>
 5   0  0.3183963E-02  0.6929254E+03  0.7818609E-02  0.9729408E-01
       -2   -1    0    0    0  501  0.00000000000E+00  0.00000000000E+00  0.88066059871E+03  0.88066059872E+03  0.25500000920E-02 0. -1.
        2   -1    0    0  501    0  0.00000000000E+00  0.00000000000E+00 -0.13630267662E+03  0.13630267664E+03  0.25500000920E-02 0.  1.
    10030    2    1    2    0    0  0.00000000000E+00  0.00000000000E+00  0.74435792210E+03  0.10169632754E+04  0.69292538361E+03 0.  0.
        4    1    3    3  502    0  0.29155385391E+03 -0.71848235667E+02  0.11853245312E+03  0.32282715815E+03  0.12699999809E+01 0.  1.
       -4    1    3    3    0  502 -0.29155385391E+03  0.71848235667E+02  0.62582546898E+03  0.69413611721E+03  0.12699999809E+01 0. -1.
</event>
<event>
 5   0  0.1839038E-02  0.6940549E+03  0.7818609E-02  0.9727453E-01
        1   -1    0    0  501    0  0.00000000000E+00  0.00000000000E+00  0.23362786538E+03  0.23362786544E+03  0.50400001928E-02 0.  1.
       -1   -1    0    0    0  501  0.00000000000E+00  0.00000000000E+00 -0.51546955155E+03  0.51546955158E+03  0.50400001928E-02 0. -1.
    10030    2    1    2    0    0  0.00000000000E+00  0.00000000000E+00 -0.28184168617E+03  0.74909741702E+03  0.69405489993E+03 0.  0.
        5    1    3    3  502    0  0.27630296825E+03  0.40051230552E+02 -0.36331683213E+03  0.45822335366E+03  0.46999998093E+01 0. -1.
       -5    1    3    3    0  502 -0.27630296825E+03 -0.40051230552E+02  0.81475145957E+02  0.29087406336E+03  0.46999998093E+01 0.  1.
</event>
<event>
 5   0  0.3184443E-02  0.7041540E+03  0.7818609E-02  0.9710154E-01
       -2   -1    0    0    0  501  0.00000000000E+00  0.00000000000E+00  0.23952756301E+03  0.23952756303E+03  0.25500000920E-02 0. -1.
        2   -1    0    0  501    0  0.00000000000E+00  0.00000000000E+00 -0.51751133662E+03  0.51751133662E+03  0.25500000920E-02 0.  1.
    10030    2    1    2    0    0  0.00000000000E+00  0.00000000000E+00 -0.27798377360E+03  0.75703889965E+03  0.70415404365E+03 0.  0.
        3    1    3    3  502    0 -0.33113894523E+03  0.11454813387E+03 -0.17598457815E+03  0.39210312160E+03  0.10100000352E+00 0.  1.
       -3    1    3    3    0  502  0.33113894523E+03 -0.11454813387E+03 -0.10199919546E+03  0.36493577805E+03  0.10100000352E+00 0. -1.
</event>
<event>
 5   0  0.3183963E-02  0.7031213E+03  0.7818609E-02  0.9711909E-01
        2   -1    0    0  501    0  0.00000000000E+00  0.00000000000E+00  0.87492088096E+03  0.87492088097E+03  0.25500000920E-02 0.  1.
       -2   -1    0    0    0  501  0.00000000000E+00  0.00000000000E+00 -0.14126407287E+03  0.14126407289E+03  0.25500000920E-02 0. -1.
    10030    2    1    2    0    0  0.00000000000E+00  0.00000000000E+00  0.73365680810E+03  0.10161849539E+04  0.70312128995E+03 0.  0.
        4    1    3    3  502    0  0.66283257218E+01 -0.13314829939E+03  0.83696945694E+03  0.84752102575E+03  0.12699999809E+01 0.  1.
       -4    1    3    3    0  502 -0.66283257218E+01  0.13314829939E+03 -0.10331264885E+03  0.16866392810E+03  0.12699999809E+01 0. -1.
</event>
<event>
 5   0  0.3290656E-02  0.6982472E+03  0.7818609E-02  0.9720234E-01
       -2   -1    0    0    0  501  0.00000000000E+00  0.00000000000E+00  0.23199938834E+03  0.23199938835E+03  0.25500000920E-02 0. -1.
        2   -1    0    0  501    0  0.00000000000E+00  0.00000000000E+00 -0.52537759465E+03  0.52537759466E+03  0.25500000920E-02 0.  1.
    10030    2    1    2    0    0  0.00000000000E+00  0.00000000000E+00 -0.29337820632E+03  0.75737698301E+03  0.69824717862E+03 0.  0.
        1    1    3    3  502    0 -0.32795330079E+03  0.11743804147E+03 -0.17194661009E+03  0.38847226134E+03  0.50400001928E-02 0. -1.
       -1    1    3    3    0  502  0.32795330079E+03 -0.11743804147E+03 -0.12143159623E+03  0.36890472167E+03  0.50400001928E-02 0.  1.
</event>
<event>
 5   0  0.1951465E-02  0.7039255E+03  0.7818609E-02  0.9710543E-01
       -1   -1    0    0    0  501  0.00000000000E+00  0.00000000000E+00  0.23373270872E+03  0.23373270878E+03  0.50400001928E-02 0.  1.
        1   -1    0    0  501    0  0.00000000000E+00  0.00000000000E+00 -0.52999761995E+03  0.52999761998E+03  0.50400001928E-02 0. -1.
    10030    2    1    2    0    0  0.00000000000E+00  0.00000000000E+00 -0.29626491123E+03  0.76373032875E+03  0.70392550560E+03 0.  0.
        4    1    3    3  502    0 -0.17437418829E+03 -0.23979509147E+03 -0.35389779622E+03  0.46168528946E+03  0.12699999809E+01 0. -1.
       -4    1    3    3    0  502  0.17437418829E+03  0.23979509147E+03  0.57632884989E+02  0.30204503930E+03  0.12699999809E+01 0.  1.
</event>
<event>
 5   0  0.3184443E-02  0.6925958E+03  0.7818609E-02  0.9729979E-01
       -2   -1    0    0    0  501  0.00000000000E+00  0.00000000000E+00  0.89004959784E+02  0.89004959820E+02  0.25500000920E-02 0. -1.
        2   -1    0    0  501    0  0.00000000000E+00  0.00000000000E+00 -0.13473659179E+04  0.13473659179E+04  0.25500000920E-02 0.  1.
    10030    2    1    2    0    0  0.00000000000E+00  0.00000000000E+00 -0.12583609581E+04  0.14363708777E+04  0.69259583991E+03 0.  0.
        3    1    3    3  502    0 -0.33306769422E+02  0.59065471839E+02 -0.13334629484E+04  0.13351859480E+04  0.10100000352E+00 0.  1.
       -3    1    3    3    0  502  0.33306769422E+02 -0.59065471839E+02  0.75101990281E+02  0.10118492970E+03  0.10100000352E+00 0. -1.
</event>
<event>
 5   0  0.3113940E-02  0.6966289E+03  0.7818609E-02  0.9723015E-01
       -2   -1    0    0    0  501  0.00000000000E+00  0.00000000000E+00  0.30116273235E+03  0.30116273237E+03  0.25500000920E-02 0.  1.
        2   -1    0    0  501    0  0.00000000000E+00  0.00000000000E+00 -0.40284853303E+03  0.40284853304E+03  0.25500000920E-02 0. -1.
    10030    2    1    2    0    0  0.00000000000E+00  0.00000000000E+00 -0.10168580067E+03  0.70401126540E+03  0.69662892544E+03 0.  0.
        5    1    3    3  502    0 -0.47107731342E+02  0.20806883816E+03  0.22737269232E+03  0.31182079946E+03  0.46999998093E+01 0.  1.
       -5    1    3    3    0  502  0.47107731342E+02 -0.20806883816E+03 -0.32905849299E+03  0.39219046594E+03  0.46999998093E+01 0. -1.
</event>
<event>
 5   0  0.1884172E-02  0.7101761E+03  0.7818609E-02  0.9699986E-01
       -1   -1    0    0    0  501  0.00000000000E+00  0.00000000000E+00  0.39312705991E+03  0.39312705995E+03  0.50400001928E-02 0.  1.
        1   -1    0    0  501    0  0.00000000000E+00  0.00000000000E+00 -0.32072967226E+03  0.32072967229E+03  0.50400001928E-02 0. -1.
    10030    2    1    2    0    0  0.00000000000E+00  0.00000000000E+00  0.72397387658E+02  0.71385673224E+03  0.71017607143E+03 0.  0.
        3    1    3    3  502    0 -0.21507575644E+03  0.19069187999E+03  0.24576550451E+03  0.37818205604E+03  0.10100000352E+00 0.  1.
       -3    1    3    3    0  502  0.21507575644E+03 -0.19069187999E+03 -0.17336811686E+03  0.33567467620E+03  0.10100000352E+00 0. -1.
</event>
<event>
 5   0  0.1233912E-02  0.7067500E+03  0.7818609E-02  0.9705758E-01
       -3   -1    0    0    0  501  0.00000000000E+00  0.00000000000E+00  0.60709149020E+03  0.60709149860E+03  0.10100000352E+00 0. -1.
        3   -1    0    0  501    0  0.00000000000E+00  0.00000000000E+00 -0.20569201863E+03  0.20569204342E+03  0.10100000352E+00 0.  1.
    10030    2    1    2    0    0  0.00000000000E+00  0.00000000000E+00  0.40139947157E+03  0.81278354202E+03  0.70674999144E+03 0.  0.
        1    1    3    3  502    0  0.67659896269E+02 -0.23735449853E+03  0.49154331032E+03  0.55002713159E+03  0.50400001928E-02 0. -1.
       -1    1    3    3    0  502 -0.67659896269E+02  0.23735449853E+03 -0.90143838745E+02  0.26275641044E+03  0.50400001928E-02 0.  1.
</event>
<event>
 5   0  0.1951465E-02  0.6948952E+03  0.7818609E-02  0.9726002E-01
       -1   -1    0    0    0  501  0.00000000000E+00  0.00000000000E+00  0.46360495679E+03  0.46360495682E+03  0.50400001928E-02 0. -1.
        1   -1    0    0  501    0  0.00000000000E+00  0.00000000000E+00 -0.26039372358E+03  0.26039372363E+03  0.50400001928E-02 0.  1.
    10030    2    1    2    0    0  0.00000000000E+00  0.00000000000E+00  0.20321123321E+03  0.72399868045E+03  0.69489516044E+03 0.  0.
        4    1    3    3  502    0 -0.12626106797E+03  0.70477107521E+02  0.43076334286E+03  0.45438700512E+03  0.12699999809E+01 0. -1.
       -4    1    3    3    0  502  0.12626106797E+03 -0.70477107521E+02 -0.22755210965E+03  0.26961167533E+03  0.12699999809E+01 0.  1.
</event>
<event>
 5   0  0.3183963E-02  0.6996173E+03  0.7818609E-02  0.9717887E-01
       -2   -1    0    0    0  501  0.00000000000E+00  0.00000000000E+00  0.35275340946E+03  0.35275340947E+03  0.25500000920E-02 0.  1.
        2   -1    0    0  501    0  0.00000000000E+00  0.00000000000E+00 -0.34688845067E+03  0.34688845068E+03  0.25500000920E-02 0. -1.
    10030    2    1    2    0    0  0.00000000000E+00  0.00000000000E+00  0.58649587855E+01  0.69964186015E+03  0.69961727733E+03 0.  0.
        4    1    3    3  502    0  0.10434734637E+03  0.33333062345E+03  0.22085112037E+02  0.34998148279E+03  0.12699999809E+01 0. -1.
       -4    1    3    3    0  502 -0.10434734637E+03 -0.33333062345E+03 -0.16220153252E+02  0.34966037736E+03  0.12699999809E+01 0.  1.
</event>
<event>
 5   0  0.1884172E-02  0.7072444E+03  0.7818609E-02  0.9704923E-01
       -1   -1    0    0    0  501  0.00000000000E+00  0.00000000000E+00  0.22470967706E+03  0.22470967712E+03  0.50400001928E-02 0. -1.
        1   -1    0    0  501    0  0.00000000000E+00  0.00000000000E+00 -0.55648987645E+03  0.55648987647E+03  0.50400001928E-02 0.  1.
    10030    2    1    2    0    0  0.00000000000E+00  0.00000000000E+00 -0.33178019939E+03  0.78119955359E+03  0.70724440035E+03 0.  0.
        3    1    3    3  502    0  0.53480247912E+02  0.34951905859E+03 -0.16037377843E+03  0.38825696162E+03  0.10100000352E+00 0. -1.
       -3    1    3    3    0  502 -0.53480247912E+02 -0.34951905859E+03 -0.17140642096E+03  0.39294259197E+03  0.10100000352E+00 0.  1.
</event>
<event>
 5   0  0.3113940E-02  0.7008425E+03  0.7818609E-02  0.9715793E-01
       -2   -1    0    0    0  501  0.00000000000E+00  0.00000000000E+00  0.17412050315E+03  0.17412050317E+03  0.25500000920E-02 0. -1.
        2   -1    0    0  501    0  0.00000000000E+00  0.00000000000E+00 -0.70523024688E+03  0.70523024688E+03  0.25500000920E-02 0.  1.
    10030    2    1    2    0    0  0.00000000000E+00  0.00000000000E+00 -0.53110974373E+03  0.87935075005E+03  0.70084247997E+03 0.  0.
        5    1    3    3  502    0 -0.33965283459E+03  0.62093365341E+02 -0.34034752935E+03  0.48484859987E+03  0.46999998093E+01 0.  1.
       -5    1    3    3    0  502  0.33965283459E+03 -0.62093365341E+02 -0.19076221438E+03  0.39450215018E+03  0.46999998093E+01 0. -1.
</event>
<event>
 5   0  0.2933851E-02  0.6991916E+03  0.7818609E-02  0.9718616E-01
       -2   -1    0    0    0  501  0.00000000000E+00  0.00000000000E+00  0.19072732042E+03  0.19072732043E+03  0.25500000920E-02 0.  1.
        2   -1    0    0  501    0  0.00000000000E+00  0.00000000000E+00 -0.64079551526E+03  0.64079551526E+03  0.25500000920E-02 0. -1.
    10030    2    1    2    0    0  0.00000000000E+00  0.00000000000E+00 -0.45006819484E+03  0.83152283570E+03  0.69919156622E+03 0.  0.
        2    1    3    3  502    0 -0.74396584918E+02  0.87061727114E+02 -0.61785589637E+03  0.62837926832E+03  0.25500000920E-02 0. -1.
       -2    1    3    3    0  502  0.74396584918E+02 -0.87061727114E+02  0.16778770153E+03  0.20314356737E+03  0.25500000920E-02 0.  1.
</event>
<event>
 5   0  0.3113940E-02  0.7020338E+03  0.7818609E-02  0.9713760E-01
       -2   -1    0    0    0  501  0.00000000000E+00  0.00000000000E+00  0.43438762487E+03  0.43438762488E+03  0.25500000920E-02 0.  1.
        2   -1    0    0  501    0  0.00000000000E+00  0.00000000000E+00 -0.28364724278E+03  0.28364724279E+03  0.25500000920E-02 0. -1.
    10030    2    1    2    0    0  0.00000000000E+00  0.00000000000E+00  0.15074038210E+03  0.71803486767E+03  0.70203376585E+03 0.  0.
        5    1    3    3  502    0  0.18572323353E+03  0.29021436737E+03  0.69633117442E+01  0.34465646114E+03  0.46999998093E+01 0.  1.
       -5    1    3    3    0  502 -0.18572323353E+03 -0.29021436737E+03  0.14377707035E+03  0.37337840652E+03  0.46999998093E+01 0. -1.
</event>
<event>
 5   0  0.1839038E-02  0.7202984E+03  0.7818609E-02  0.9683135E-01
       -1   -1    0    0    0  501  0.00000000000E+00  0.00000000000E+00  0.19259019634E+03  0.19259019641E+03  0.50400001928E-02 0.  1.
        1   -1    0    0  501    0  0.00000000000E+00  0.00000000000E+00 -0.67348934172E+03  0.67348934174E+03  0.50400001928E-02 0. -1.
    10030    2    1    2    0    0  0.00000000000E+00  0.00000000000E+00 -0.48089914538E+03  0.86607953814E+03  0.72029839536E+03 0.  0.
        5    1    3    3  502    0  0.29398892142E+03 -0.17323070296E+03 -0.10205980777E+03  0.35619749680E+03  0.46999998093E+01 0.  1.
       -5    1    3    3    0  502 -0.29398892142E+03  0.17323070296E+03 -0.37883933760E+03  0.50988204134E+03  0.46999998093E+01 0. -1.
</event>
<event>
 5   0  0.1858013E-02  0.6929039E+03  0.7818609E-02  0.9729445E-01
       -1   -1    0    0    0  501  0.00000000000E+00  0.00000000000E+00  0.10721154676E+03  0.10721154687E+03  0.50400001928E-02 0. -1.
        1   -1    0    0  501    0  0.00000000000E+00  0.00000000000E+00 -0.11195524464E+04  0.11195524464E+04  0.50400001928E-02 0.  1.
    10030    2    1    2    0    0  0.00000000000E+00  0.00000000000E+00 -0.10123408997E+04  0.12267639933E+04  0.69290388809E+03 0.  0.
        2    1    3    3  502    0 -0.23548655110E+03 -0.13591026217E+03 -0.88632015817E+03  0.92708626238E+03  0.25500000920E-02 0.  1.
       -2    1    3    3    0  502  0.23548655110E+03  0.13591026217E+03 -0.12602074149E+03  0.29967773092E+03  0.25500000920E-02 0. -1.
</event>
<event>
 5   0  0.3184443E-02  0.6935253E+03  0.7818609E-02  0.9728369E-01
        2   -1    0    0  501    0  0.00000000000E+00  0.00000000000E+00  0.10256861681E+04  0.10256861681E+04  0.25500000920E-02 0.  1.
       -2   -1    0    0    0  501  0.00000000000E+00  0.00000000000E+00 -0.11723306842E+03  0.11723306845E+03  0.25500000920E-02 0. -1.
    10030    2    1    2    0    0  0.00000000000E+00  0.00000000000E+00  0.90845309973E+03  0.11429192366E+04  0.69352530378E+03 0.  0.
        3    1    3    3  502    0 -0.21121474637E+03 -0.15273309451E+03  0.77326746468E+02  0.27187957474E+03  0.10100000352E+00 0. -1.
       -3    1    3    3    0  502  0.21121474637E+03  0.15273309451E+03  0.83112635326E+03  0.87103966185E+03  0.10100000352E+00 0.  1.
</event>
<event>
 5   0  0.1858013E-02  0.7018151E+03  0.7818609E-02  0.9714133E-01
        1   -1    0    0  501    0  0.00000000000E+00  0.00000000000E+00  0.89115793500E+03  0.89115793501E+03  0.50400001928E-02 0.  1.
       -1   -1    0    0    0  501  0.00000000000E+00  0.00000000000E+00 -0.13817540847E+03  0.13817540856E+03  0.50400001928E-02 0. -1.
    10030    2    1    2    0    0  0.00000000000E+00  0.00000000000E+00  0.75298252653E+03  0.10293333436E+04  0.70181510879E+03 0.  0.
        2    1    3    3  502    0  0.12534597393E+03  0.15611921947E+03  0.79916621662E+03  0.82386374216E+03  0.25500000920E-02 0.  1.
       -2    1    3    3    0  502 -0.12534597393E+03 -0.15611921947E+03 -0.46183690088E+02  0.20546960141E+03  0.25500000920E-02 0. -1.
</event>
<event>
 5   0  0.3183963E-02  0.7021417E+03  0.7818609E-02  0.9713577E-01
       -2   -1    0    0    0  501  0.00000000000E+00  0.00000000000E+00  0.12356039783E+03  0.12356039786E+03  0.25500000920E-02 0. -1.
        2   -1    0    0  501    0  0.00000000000E+00  0.00000000000E+00 -0.99749399078E+03  0.99749399078E+03  0.25500000920E-02 0.  1.
    10030    2    1    2    0    0  0.00000000000E+00  0.00000000000E+00 -0.87393359295E+03  0.11210543886E+04  0.70214173598E+03 0.  0.
        4    1    3    3  502    0 -0.28354540491E+03 -0.19472046351E+03 -0.32480389055E+03  0.47308903577E+03  0.12699999809E+01 0.  1.
       -4    1    3    3    0  502  0.28354540491E+03  0.19472046351E+03 -0.54912970240E+03  0.64796535287E+03  0.12699999809E+01 0. -1.
</event>
<event>
 5   0  0.1951465E-02  0.7177583E+03  0.7818609E-02  0.9687336E-01
       -1   -1    0    0    0  501  0.00000000000E+00  0.00000000000E+00  0.10819086825E+03  0.10819086837E+03  0.50400001928E-02 0.  1.
        1   -1    0    0  501    0  0.00000000000E+00  0.00000000000E+00 -0.11904354705E+04  0.11904354705E+04  0.50400001928E-02 0. -1.
    10030    2    1    2    0    0  0.00000000000E+00  0.00000000000E+00 -0.10822446022E+04  0.12986263388E+04  0.71775830814E+03 0.  0.
        4    1    3    3  502    0 -0.12451733111E+03  0.32692885600E+03 -0.39631661854E+03  0.52863552441E+03  0.12699999809E+01 0. -1.
       -4    1    3    3    0  502  0.12451733111E+03 -0.32692885600E+03 -0.68592798367E+03  0.76999081443E+03  0.12699999809E+01 0.  1.
</event>
<event>
 5   0  0.1969818E-02  0.6955883E+03  0.7818609E-02  0.9724807E-01
       -1   -1    0    0    0  501  0.00000000000E+00  0.00000000000E+00  0.28223940119E+03  0.28223940123E+03  0.50400001928E-02 0. -1.
        1   -1    0    0  501    0  0.00000000000E+00  0.00000000000E+00 -0.42857510976E+03  0.42857510979E+03  0.50400001928E-02 0.  1.
    10030    2    1    2    0    0  0.00000000000E+00  0.00000000000E+00 -0.14633570858E+03  0.71081451103E+03  0.69558833334E+03 0.  0.
        1    1    3    3  502    0 -0.14529797811E+03 -0.23283265005E+03 -0.29147523828E+03  0.40035029653E+03  0.50400001928E-02 0.  1.
       -1    1    3    3    0  502  0.14529797811E+03  0.23283265005E+03  0.14513952971E+03  0.31046421449E+03  0.50400001928E-02 0. -1.
</event>
<event>
 5   0  0.1839038E-02  0.6947034E+03  0.7818609E-02  0.9726333E-01
        1   -1    0    0  501    0  0.00000000000E+00  0.00000000000E+00  0.18193739172E+04  0.18193739172E+04  0.50400001928E-02 0. -1.
       -1   -1    0    0    0  501  0.00000000000E+00  0.00000000000E+00 -0.66315778291E+02  0.66315778482E+02  0.50400001928E-02 0.  1.
    10030    2    1    2    0    0  0.00000000000E+00  0.00000000000E+00  0.17530581389E+04  0.18856896957E+04  0.69470338277E+03 0.  0.
        5    1    3    3  502    0 -0.22277643623E+03 -0.32503864161E+01  0.15330465435E+03  0.27048902490E+03  0.46999998093E+01 0.  1.
       -5    1    3    3    0  502  0.22277643623E+03  0.32503864161E+01  0.15997534846E+04  0.16152006708E+04  0.46999998093E+01 0. -1.
</event>
<event>
 5   0  0.1884172E-02  0.7036683E+03  0.7818609E-02  0.9710979E-01
       -1   -1    0    0    0  501  0.00000000000E+00  0.00000000000E+00  0.15655039888E+03  0.15655039896E+03  0.50400001928E-02 0.  1.
        1   -1    0    0  501    0  0.00000000000E+00  0.00000000000E+00 -0.79071837065E+03  0.79071837066E+03  0.50400001928E-02 0. -1.
    10030    2    1    2    0    0  0.00000000000E+00  0.00000000000E+00 -0.63416797177E+03  0.94726876962E+03  0.70366832065E+03 0.  0.
        3    1    3    3  502    0 -0.17202848347E+03  0.26191027958E+03 -0.53245898027E+03  0.61782147061E+03  0.10100000352E+00 0.  1.
       -3    1    3    3    0  502  0.17202848347E+03 -0.26191027958E+03 -0.10170899151E+03  0.32944729902E+03  0.10100000352E+00 0. -1.
</event>
<event>
 5   0  0.2933851E-02  0.6962485E+03  0.7818609E-02  0.9723669E-01
        2   -1    0    0  501    0  0.00000000000E+00  0.00000000000E+00  0.52343984367E+03  0.52343984368E+03  0.25500000920E-02 0. -1.
       -2   -1    0    0    0  501  0.00000000000E+00  0.00000000000E+00 -0.23152704489E+03  0.23152704491E+03  0.25500000920E-02 0.  1.
    10030    2    1    2    0    0  0.00000000000E+00  0.00000000000E+00  0.29191279878E+03  0.75496688859E+03  0.69624846195E+03 0.  0.
        2    1    3    3  502    0  0.10545883646E+03 -0.13833499068E+03  0.47293764948E+03  0.50391284578E+03  0.25500000920E-02 0. -1.
       -2    1    3    3    0  502 -0.10545883646E+03  0.13833499068E+03 -0.18102485070E+03  0.25105404281E+03  0.25500000920E-02 0.  1.
</event>
<event>
 5   0  0.1951465E-02  0.7971994E+03  0.7818609E-02  0.9564080E-01
       -1   -1    0    0    0  501  0.00000000000E+00  0.00000000000E+00  0.12842794653E+03  0.12842794663E+03  0.50400001928E-02 0. -1.
        1   -1    0    0  501    0  0.00000000000E+00  0.00000000000E+00 -0.12371272590E+04  0.12371272590E+04  0.50400001928E-02 0.  1.
    10030    2    1    2    0    0  0.00000000000E+00  0.00000000000E+00 -0.11086993124E+04  0.13655552056E+04  0.79719938168E+03 0.  0.
        4    1    3    3  502    0 -0.30577337617E+03  0.65422115164E+02 -0.13092857801E+03  0.33900046632E+03  0.12699999809E+01 0. -1.
       -4    1    3    3    0  502  0.30577337617E+03 -0.65422115164E+02 -0.97777073443E+03  0.10265547393E+04  0.12699999809E+01 0.  1.
</event>
<event>
 5   0  0.3113940E-02  0.6998154E+03  0.7818609E-02  0.9717548E-01
       -2   -1    0    0    0  501  0.00000000000E+00  0.00000000000E+00  0.17724135485E+03  0.17724135487E+03  0.25500000920E-02 0. -1.
        2   -1    0    0  501    0  0.00000000000E+00  0.00000000000E+00 -0.69078342722E+03  0.69078342722E+03  0.25500000920E-02 0.  1.
    10030    2    1    2    0    0  0.00000000000E+00  0.00000000000E+00 -0.51354207237E+03  0.86802478209E+03  0.69981537725E+03 0.  0.
        5    1    3    3  502    0  0.31735943415E+03 -0.11434810615E+03 -0.14160552311E+03  0.36587800425E+03  0.46999998093E+01 0.  1.
       -5    1    3    3    0  502 -0.31735943415E+03  0.11434810615E+03 -0.37193654926E+03  0.50214677784E+03  0.46999998093E+01 0. -1.
</event>
<event>
 5   0  0.1233912E-02  0.7003543E+03  0.7818609E-02  0.9716627E-01
        3   -1    0    0  501    0  0.00000000000E+00  0.00000000000E+00  0.13576608365E+03  0.13576612121E+03  0.10100000352E+00 0. -1.
       -3   -1    0    0    0  501  0.00000000000E+00  0.00000000000E+00 -0.90320056124E+03  0.90320056689E+03  0.10100000352E+00 0.  1.
    10030    2    1    2    0    0  0.00000000000E+00  0.00000000000E+00 -0.76743447759E+03  0.10389666881E+04  0.70035426863E+03 0.  0.
        1    1    3    3  502    0 -0.25121101001E+02 -0.25082606083E+03 -0.23137513391E+02  0.25314052828E+03  0.50400001928E-02 0. -1.
       -1    1    3    3    0  502  0.25121101001E+02  0.25082606083E+03 -0.74429696420E+03  0.78582615982E+03  0.50400001928E-02 0.  1.
</event>
<event>
 5   0  0.2933851E-02  0.6982419E+03  0.7818609E-02  0.9720244E-01
        2   -1    0    0  501    0  0.00000000000E+00  0.00000000000E+00  0.17107965618E+04  0.17107965618E+04  0.25500000920E-02 0.  1.
       -2   -1    0    0    0  501  0.00000000000E+00  0.00000000000E+00 -0.71244846026E+02  0.71244846072E+02  0.25500000920E-02 0. -1.
    10030    2    1    2    0    0  0.00000000000E+00  0.00000000000E+00  0.16395517158E+04  0.17820414079E+04  0.69824189984E+03 0.  0.
        2    1    3    3  502    0  0.13329996435E+03  0.28783062190E+03  0.44755856052E+03  0.54856541314E+03  0.25500000920E-02 0. -1.
       -2    1    3    3    0  502 -0.13329996435E+03 -0.28783062190E+03  0.11919931553E+04  0.12334759948E+04  0.25500000920E-02 0.  1.
</event>
<event>
 5   0  0.1969818E-02  0.6985256E+03  0.7818609E-02  0.9719757E-01
        1   -1    0    0  501    0  0.00000000000E+00  0.00000000000E+00  0.60469808238E+03  0.60469808240E+03  0.50400001928E-02 0.  1.
       -1   -1    0    0    0  501  0.00000000000E+00  0.00000000000E+00 -0.20172796445E+03  0.20172796452E+03  0.50400001928E-02 0. -1.
    10030    2    1    2    0    0  0.00000000000E+00  0.00000000000E+00  0.40297011793E+03  0.80642604692E+03  0.69852562817E+03 0.  0.
        1    1    3    3  502    0 -0.62522712366E+02 -0.33336870475E+03  0.29766506282E+03  0.45127405478E+03  0.50400001928E-02 0.  1.
       -1    1    3    3    0  502  0.62522712366E+02  0.33336870475E+03  0.10530505511E+03  0.35515199214E+03  0.50400001928E-02 0. -1.
</event>
<event>
 5   0  0.3113940E-02  0.7297011E+03  0.7818609E-02  0.9667745E-01
        2   -1    0    0  501    0  0.00000000000E+00  0.00000000000E+00  0.67212741245E+03  0.67212741245E+03  0.25500000920E-02 0.  1.
       -2   -1    0    0    0  501  0.00000000000E+00  0.00000000000E+00 -0.19805164442E+03  0.19805164443E+03  0.25500000920E-02 0. -1.
    10030    2    1    2    0    0  0.00000000000E+00  0.00000000000E+00  0.47407576803E+03  0.87017905688E+03  0.72970114239E+03 0.  0.
        5    1    3    3  502    0  0.33073572937E+03 -0.15384742232E+03  0.22961959544E+03  0.43104802592E+03  0.46999998093E+01 0. -1.
       -5    1    3    3    0  502 -0.33073572937E+03  0.15384742232E+03  0.24445617259E+03  0.43913103097E+03  0.46999998093E+01 0.  1.
</event>
<event>
 5   0  0.1233912E-02  0.7002532E+03  0.7818609E-02  0.9716799E-01
       -3   -1    0    0    0  501  0.00000000000E+00  0.00000000000E+00  0.40184289310E+03  0.40184290580E+03  0.10100000352E+00 0. -1.
        3   -1    0    0  501    0  0.00000000000E+00  0.00000000000E+00 -0.30506602878E+03  0.30506604550E+03  0.10100000352E+00 0.  1.
    10030    2    1    2    0    0  0.00000000000E+00  0.00000000000E+00  0.96776864327E+02  0.70690895129E+03  0.70025317132E+03 0.  0.
        4    1    3    3  502    0 -0.22927067146E+03  0.23441281683E+03 -0.75549011876E+02  0.33648725917E+03  0.12699999809E+01 0.  1.
       -4    1    3    3    0  502  0.22927067146E+03 -0.23441281683E+03  0.17232587620E+03  0.37042169212E+03  0.12699999809E+01 0. -1.
</event>
<event>
 5   0  0.3290656E-02  0.7024838E+03  0.7818609E-02  0.9712994E-01
       -2   -1    0    0    0  501  0.00000000000E+00  0.00000000000E+00  0.28825342226E+03  0.28825342228E+03  0.25500000920E-02 0.  1.
        2   -1    0    0  501    0  0.00000000000E+00  0.00000000000E+00 -0.42799441559E+03  0.42799441560E+03  0.25500000920E-02 0. -1.
    10030    2    1    2    0    0  0.00000000000E+00  0.00000000000E+00 -0.13974099333E+03  0.71624783788E+03  0.70248375074E+03 0.  0.
        1    1    3    3  502    0  0.37429812721E+00  0.15825427383E+03 -0.38958466953E+03  0.42050061836E+03  0.50400001928E-02 0. -1.
       -1    1    3    3    0  502 -0.37429812721E+00 -0.15825427383E+03  0.24984367620E+03  0.29574721951E+03  0.50400001928E-02 0.  1.
</event>
<event>
 5   0  0.3184443E-02  0.7164776E+03  0.7818609E-02  0.9689461E-01
        2   -1    0    0  501    0  0.00000000000E+00  0.00000000000E+00  0.21383359419E+03  0.21383359421E+03  0.25500000920E-02 0.  1.
       -2   -1    0    0    0  501  0.00000000000E+00  0.00000000000E+00 -0.60016304807E+03  0.60016304807E+03  0.25500000920E-02 0. -1.
    10030    2    1    2    0    0  0.00000000000E+00  0.00000000000E+00 -0.38632945388E+03  0.81399664228E+03  0.71647755492E+03 0.  0.
        3    1    3    3  502    0  0.83126363812E+02  0.43124339369E+02 -0.58601098574E+03  0.59344636372E+03  0.10100000352E+00 0. -1.
       -3    1    3    3    0  502 -0.83126363812E+02 -0.43124339369E+02  0.19968153186E+03  0.22055027856E+03  0.10100000352E+00 0.  1.
</event>
<event>
 5   0  0.1969818E-02  0.7159288E+03  0.7818609E-02  0.9690373E-01
        1   -1    0    0  501    0  0.00000000000E+00  0.00000000000E+00  0.23850425812E+04  0.23850425812E+04  0.50400001928E-02 0. -1.
       -1   -1    0    0    0  501  0.00000000000E+00  0.00000000000E+00 -0.53725878392E+02  0.53725878628E+02  0.50400001928E-02 0.  1.
    10030    2    1    2    0    0  0.00000000000E+00  0.00000000000E+00  0.23313167028E+04  0.24387684598E+04  0.71592878967E+03 0.  0.
        1    1    3    3  502    0 -0.13964121657E+03 -0.16561061331E+03  0.21364158358E+04  0.21473702914E+04  0.50400001928E-02 0. -1.
       -1    1    3    3    0  502  0.13964121657E+03  0.16561061331E+03  0.19490086694E+03  0.29139816843E+03  0.50400001928E-02 0.  1.
</event>
<event>
 5   0  0.1233912E-02  0.7013238E+03  0.7818609E-02  0.9714971E-01
        4   -1    0    0  501    0  0.00000000000E+00  0.00000000000E+00  0.12400810701E+03  0.12401461004E+03  0.12699999809E+01 0. -1.
       -4   -1    0    0    0  501  0.00000000000E+00  0.00000000000E+00 -0.99154544784E+03  0.99154626117E+03  0.12699999809E+01 0.  1.
    10030    2    1    2    0    0  0.00000000000E+00  0.00000000000E+00 -0.86753734084E+03  0.11155608712E+04  0.70132376234E+03 0.  0.
        5    1    3    3  502    0  0.38893218808E+02  0.34527513641E+03 -0.35892248544E+03  0.49957486210E+03  0.46999998093E+01 0. -1.
       -5    1    3    3    0  502 -0.38893218808E+02 -0.34527513641E+03 -0.50861485539E+03  0.61598600911E+03  0.46999998093E+01 0.  1.
</event>
<event>
 5   0  0.3290656E-02  0.7154436E+03  0.7818609E-02  0.9691180E-01
        2   -1    0    0  501    0  0.00000000000E+00  0.00000000000E+00  0.12040082664E+04  0.12040082664E+04  0.25500000920E-02 0. -1.
       -2   -1    0    0    0  501  0.00000000000E+00  0.00000000000E+00 -0.10628240260E+03  0.10628240263E+03  0.25500000920E-02 0.  1.
    10030    2    1    2    0    0  0.00000000000E+00  0.00000000000E+00  0.10977258638E+04  0.13102906690E+04  0.71544361432E+03 0.  0.
        1    1    3    3  502    0  0.19745736496E+03  0.27317407534E+03  0.32946150640E+03  0.47133679109E+03  0.50400001928E-02 0. -1.
       -1    1    3    3    0  502 -0.19745736496E+03 -0.27317407534E+03  0.76826435737E+03  0.83895387790E+03  0.50400001928E-02 0.  1.
</event>
<event>
 5   0  0.3184443E-02  0.7033610E+03  0.7818609E-02  0.9711502E-01
        2   -1    0    0  501    0  0.00000000000E+00  0.00000000000E+00  0.47099543515E+03  0.47099543516E+03  0.25500000920E-02 0.  1.
       -2   -1    0    0    0  501  0.00000000000E+00  0.00000000000E+00 -0.26259100343E+03  0.26259100344E+03  0.25500000920E-02 0. -1.
    10030    2    1    2    0    0  0.00000000000E+00  0.00000000000E+00  0.20840443173E+03  0.73358643860E+03  0.70336097115E+03 0.  0.
        3    1    3    3  502    0 -0.63273808428E+02  0.14446728680E+03  0.43204226802E+03  0.45992923732E+03  0.10100000352E+00 0.  1.
       -3    1    3    3    0  502  0.63273808428E+02 -0.14446728680E+03 -0.22363783629E+03  0.27365720128E+03  0.10100000352E+00 0. -1.
</event>
<event>
 5   0  0.1839038E-02  0.6988708E+03  0.7818609E-02  0.9719165E-01
        1   -1    0    0  501    0  0.00000000000E+00  0.00000000000E+00  0.38811625691E+03  0.38811625694E+03  0.50400001928E-02 0. -1.
       -1   -1    0    0    0  501  0.00000000000E+00  0.00000000000E+00 -0.31460959620E+03  0.31460959624E+03  0.50400001928E-02 0.  1.
    10030    2    1    2    0    0  0.00000000000E+00  0.00000000000E+00  0.73506660710E+02  0.70272585319E+03  0.69887080034E+03 0.  0.
        5    1    3    3  502    0 -0.24832044361E+02  0.33013574529E+03 -0.75562271414E+02  0.33961446908E+03  0.46999998093E+01 0. -1.
       -5    1    3    3    0  502  0.24832044361E+02 -0.33013574529E+03  0.14906893212E+03  0.36311138411E+03  0.46999998093E+01 0.  1.
</event>
<event>
 5   0  0.3184443E-02  0.6942974E+03  0.7818609E-02  0.9727034E-01
       -2   -1    0    0    0  501  0.00000000000E+00  0.00000000000E+00  0.49676598303E+02  0.49676598369E+02  0.25500000920E-02 0. -1.
        2   -1    0    0  501    0  0.00000000000E+00  0.00000000000E+00 -0.24259352935E+04  0.24259352935E+04  0.25500000920E-02 0.  1.
    10030    2    1    2    0    0  0.00000000000E+00  0.00000000000E+00 -0.23762586952E+04  0.24756118919E+04  0.69429738057E+03 0.  0.
        3    1    3    3  502    0 -0.56842061436E+02 -0.15623104730E+03 -0.22747597978E+04  0.22808268912E+04  0.10100000352E+00 0.  1.
       -3    1    3    3    0  502  0.56842061436E+02  0.15623104730E+03 -0.10149889744E+03  0.19478500063E+03  0.10100000352E+00 0. -1.
</event>
<event>
 5   0  0.1858013E-02  0.7048575E+03  0.7818609E-02  0.9708961E-01
        1   -1    0    0  501    0  0.00000000000E+00  0.00000000000E+00  0.16849713585E+04  0.16849713585E+04  0.50400001928E-02 0. -1.
       -1   -1    0    0    0  501  0.00000000000E+00  0.00000000000E+00 -0.73714033259E+02  0.73714033431E+02  0.50400001928E-02 0.  1.
    10030    2    1    2    0    0  0.00000000000E+00  0.00000000000E+00  0.16112573252E+04  0.17586853919E+04  0.70485753147E+03 0.  0.
        2    1    3    3  502    0 -0.14395098121E+03 -0.23999985757E+02  0.52201508894E+01  0.14603127846E+03  0.25500000920E-02 0.  1.
       -2    1    3    3    0  502  0.14395098121E+03  0.23999985757E+02  0.16060371743E+04  0.16126541135E+04  0.25500000920E-02 0. -1.
</event>
<event>
 5   0  0.1951465E-02  0.6988451E+03  0.7818609E-02  0.9719209E-01
       -1   -1    0    0    0  501  0.00000000000E+00  0.00000000000E+00  0.14444583146E+03  0.14444583155E+03  0.50400001928E-02 0.  1.
        1   -1    0    0  501    0  0.00000000000E+00  0.00000000000E+00 -0.84527269984E+03  0.84527269985E+03  0.50400001928E-02 0. -1.
    10030    2    1    2    0    0  0.00000000000E+00  0.00000000000E+00 -0.70082686837E+03  0.98971853140E+03  0.69884509869E+03 0.  0.
        4    1    3    3  502    0  0.15806191320E+03 -0.29792309786E+03 -0.22098017246E+03  0.40320663458E+03  0.12699999809E+01 0.  1.
       -4    1    3    3    0  502 -0.15806191320E+03  0.29792309786E+03 -0.47984669591E+03  0.58651189683E+03  0.12699999809E+01 0. -1.
</event>
<event>
 5   0  0.3184443E-02  0.7096658E+03  0.7818609E-02  0.9700844E-01
        2   -1    0    0  501    0  0.00000000000E+00  0.00000000000E+00  0.50649886866E+03  0.50649886867E+03  0.25500000920E-02 0.  1.
       -2   -1    0    0    0  501  0.00000000000E+00  0.00000000000E+00 -0.24858175045E+03  0.24858175046E+03  0.25500000920E-02 0. -1.
    10030    2    1    2    0    0  0.00000000000E+00  0.00000000000E+00  0.25791711822E+03  0.75508061913E+03  0.70966576747E+03 0.  0.
        3    1    3    3  502    0  0.18349830412E+03  0.17734832542E+03  0.39127654189E+03  0.46714173286E+03  0.10100000352E+00 0.  1.
       -3    1    3    3    0  502 -0.18349830412E+03 -0.17734832542E+03 -0.13335942367E+03  0.28793888627E+03  0.10100000352E+00 0. -1.
</event>
<event>
 5   0  0.1884172E-02  0.7112864E+03  0.7818609E-02  0.9698123E-01
        1   -1    0    0  501    0  0.00000000000E+00  0.00000000000E+00  0.30054221342E+03  0.30054221346E+03  0.50400001928E-02 0.  1.
       -1   -1    0    0    0  501  0.00000000000E+00  0.00000000000E+00 -0.42084635295E+03  0.42084635298E+03  0.50400001928E-02 0. -1.
    10030    2    1    2    0    0  0.00000000000E+00  0.00000000000E+00 -0.12030413953E+03  0.72138856645E+03  0.71128642459E+03 0.  0.
        3    1    3    3  502    0  0.86489849088E+02 -0.29570202053E+03  0.12002783003E+03  0.33064613883E+03  0.10100000352E+00 0.  1.
       -3    1    3    3    0  502 -0.86489849088E+02  0.29570202053E+03 -0.24033196956E+03  0.39074242761E+03  0.10100000352E+00 0. -1.
</event>
<event>
 5   0  0.1969818E-02  0.7086480E+03  0.7818609E-02  0.9702556E-01
        1   -1    0    0  501    0  0.00000000000E+00  0.00000000000E+00  0.56012572074E+03  0.56012572076E+03  0.50400001928E-02 0. -1.
       -1   -1    0    0    0  501  0.00000000000E+00  0.00000000000E+00 -0.22413809944E+03  0.22413809950E+03  0.50400001928E-02 0.  1.
    10030    2    1    2    0    0  0.00000000000E+00  0.00000000000E+00  0.33598762130E+03  0.78426382026E+03  0.70864804953E+03 0.  0.
        1    1    3    3  502    0 -0.28400113113E+03  0.39698311265E+02  0.39831839523E+03  0.49080560551E+03  0.50400001928E-02 0. -1.
       -1    1    3    3    0  502  0.28400113113E+03 -0.39698311265E+02 -0.62330773931E+02  0.29345821475E+03  0.50400001928E-02 0.  1.
</event>
<event>
 5   0  0.1951465E-02  0.6937604E+03  0.7818609E-02  0.9727963E-01
       -1   -1    0    0    0  501  0.00000000000E+00  0.00000000000E+00  0.40065587745E+03  0.40065587748E+03  0.50400001928E-02 0. -1.
        1   -1    0    0  501    0  0.00000000000E+00  0.00000000000E+00 -0.30032222310E+03  0.30032222315E+03  0.50400001928E-02 0.  1.
    10030    2    1    2    0    0  0.00000000000E+00  0.00000000000E+00  0.10033365435E+03  0.70097810063E+03  0.69376037316E+03 0.  0.
        4    1    3    3  502    0 -0.12362035449E+02 -0.29292267686E+02 -0.29884453083E+03  0.30053373085E+03  0.12699999809E+01 0.  1.
       -4    1    3    3    0  502  0.12362035449E+02  0.29292267686E+02  0.39917818518E+03  0.40044436978E+03  0.12699999809E+01 0. -1.
</event>
<event>
 5   0  0.2933851E-02  0.6977520E+03  0.7818609E-02  0.9721084E-01
       -2   -1    0    0    0  501  0.00000000000E+00  0.00000000000E+00  0.73051500252E+02  0.73051500297E+02  0.25500000920E-02 0.  1.
        2   -1    0    0  501    0  0.00000000000E+00  0.00000000000E+00 -0.16661461891E+04  0.16661461891E+04  0.25500000920E-02 0. -1.
    10030    2    1    2    0    0  0.00000000000E+00  0.00000000000E+00 -0.15930946888E+04  0.17391976894E+04  0.69775204419E+03 0.  0.
        2    1    3    3  502    0  0.28492187645E+03  0.19400701167E+03 -0.66242741787E+03  0.74674579357E+03  0.25500000920E-02 0.  1.
       -2    1    3    3    0  502 -0.28492187645E+03 -0.19400701167E+03 -0.93066727096E+03  0.99245189582E+03  0.25500000920E-02 0. -1.
</event>
<event>
 5   0  0.2933851E-02  0.6983671E+03  0.7818609E-02  0.9720029E-01
       -2   -1    0    0    0  501  0.00000000000E+00  0.00000000000E+00  0.12020800807E+03  0.12020800809E+03  0.25500000920E-02 0. -1.
        2   -1    0    0  501    0  0.00000000000E+00  0.00000000000E+00 -0.10143180574E+04  0.10143180574E+04  0.25500000920E-02 0.  1.
    10030    2    1    2    0    0  0.00000000000E+00  0.00000000000E+00 -0.89411004932E+03  0.11345260655E+04  0.69836710473E+03 0.  0.
        2    1    3    3  502    0 -0.28047537752E+03  0.50769462621E+02 -0.77473417674E+03  0.82550410075E+03  0.25500000920E-02 0.  1.
       -2    1    3    3    0  502  0.28047537752E+03 -0.50769462621E+02 -0.11937587257E+03  0.30902196473E+03  0.25500000920E-02 0. -1.
</event>
<event>
 5   0  0.2933851E-02  0.7076345E+03  0.7818609E-02  0.9704264E-01
       -2   -1    0    0    0  501  0.00000000000E+00  0.00000000000E+00  0.20877153392E+03  0.20877153393E+03  0.25500000920E-02 0. -1.
        2   -1    0    0  501    0  0.00000000000E+00  0.00000000000E+00 -0.59963473680E+03  0.59963473680E+03  0.25500000920E-02 0.  1.
    10030    2    1    2    0    0  0.00000000000E+00  0.00000000000E+00 -0.39086320288E+03  0.80840627074E+03  0.70763454919E+03 0.  0.
        2    1    3    3  502    0 -0.16243976532E+03 -0.83139487720E+02  0.15086609317E+03  0.23676872650E+03  0.25500000920E-02 0. -1.
       -2    1    3    3    0  502  0.16243976532E+03  0.83139487720E+02 -0.54172929604E+03  0.57163754423E+03  0.25500000920E-02 0.  1.
</event>
<event>
 5   0  0.1858013E-02  0.6927316E+03  0.7818609E-02  0.9729743E-01
       -1   -1    0    0    0  501  0.00000000000E+00  0.00000000000E+00  0.62052219635E+03  0.62052219637E+03  0.50400001928E-02 0.  1.
        1   -1    0    0  501    0  0.00000000000E+00  0.00000000000E+00 -0.19333598950E+03  0.19333598956E+03  0.50400001928E-02 0. -1.
    10030    2    1    2    0    0  0.00000000000E+00  0.00000000000E+00  0.42718620685E+03  0.81385818593E+03  0.69273161577E+03 0.  0.
        2    1    3    3  502    0  0.78355068986E+02  0.28551788274E+03  0.24156902504E+01  0.29608413291E+03  0.25500000920E-02 0. -1.
       -2    1    3    3    0  502 -0.78355068986E+02 -0.28551788274E+03  0.42477051660E+03  0.51777405302E+03  0.25500000920E-02 0.  1.
</event>
<event>
 5   0  0.1951465E-02  0.6972102E+03  0.7818609E-02  0.9722015E-01
        1   -1    0    0  501    0  0.00000000000E+00  0.00000000000E+00  0.69649152013E+03  0.69649152015E+03  0.50400001928E-02 0. -1.
       -1   -1    0    0    0  501  0.00000000000E+00  0.00000000000E+00 -0.17448241983E+03  0.17448241990E+03  0.50400001928E-02 0.  1.
    10030    2    1    2    0    0  0.00000000000E+00  0.00000000000E+00  0.52200910030E+03  0.87097394005E+03  0.69721022902E+03 0.  0.
        4    1    3    3  502    0  0.10396204374E+03 -0.24636890816E+03  0.54039097424E+03  0.60293429441E+03  0.12699999809E+01 0. -1.
       -4    1    3    3    0  502 -0.10396204374E+03  0.24636890816E+03 -0.18381873933E+02  0.26803964564E+03  0.12699999809E+01 0.  1.
</event>
<event>
 5   0  0.1884172E-02  0.7059673E+03  0.7818609E-02  0.9707081E-01
        1   -1    0    0  501    0  0.00000000000E+00  0.00000000000E+00  0.51344012164E+03  0.51344012167E+03  0.50400001928E-02 0. -1.
       -1   -1    0    0    0  501  0.00000000000E+00  0.00000000000E+00 -0.24267184153E+03  0.24267184158E+03  0.50400001928E-02 0.  1.
    10030    2    1    2    0    0  0.00000000000E+00  0.00000000000E+00  0.27076828012E+03  0.75611196325E+03  0.70596730763E+03 0.  0.
        3    1    3    3  502    0  0.27010760709E+03  0.85588276688E+02  0.36084537646E+03  0.45879501788E+03  0.10100000352E+00 0. -1.
       -3    1    3    3    0  502 -0.27010760709E+03 -0.85588276688E+02 -0.90077096347E+02  0.29731694537E+03  0.10100000352E+00 0.  1.
</event>
<event>
 5   0  0.3113940E-02  0.7004428E+03  0.7818609E-02  0.9716475E-01
       -2   -1    0    0    0  501  0.00000000000E+00  0.00000000000E+00  0.10390235572E+03  0.10390235575E+03  0.25500000920E-02 0.  1.
        2   -1    0    0  501    0  0.00000000000E+00  0.00000000000E+00 -0.11804835220E+04  0.11804835220E+04  0.25500000920E-02 0. -1.
    10030    2    1    2    0    0  0.00000000000E+00  0.00000000000E+00 -0.10765811663E+04  0.12843858778E+04  0.70044277096E+03 0.  0.
        5    1    3    3  502    0  0.68657042097E+02  0.90113426851E+02  0.69314617699E+02  0.13289403807E+03  0.46999998093E+01 0.  1.
       -5    1    3    3    0  502 -0.68657042097E+02 -0.90113426851E+02 -0.11458957840E+04  0.11514918397E+04  0.46999998093E+01 0. -1.
</event>
<event>
 5   0  0.1951465E-02  0.7128865E+03  0.7818609E-02  0.9695445E-01
       -1   -1    0    0    0  501  0.00000000000E+00  0.00000000000E+00  0.13770764095E+03  0.13770764104E+03  0.50400001928E-02 0. -1.
        1   -1    0    0  501    0  0.00000000000E+00  0.00000000000E+00 -0.92261987010E+03  0.92261987012E+03  0.50400001928E-02 0.  1.
    10030    2    1    2    0    0  0.00000000000E+00  0.00000000000E+00 -0.78491222915E+03  0.10603275112E+04  0.71288654317E+03 0.  0.
        4    1    3    3  502    0  0.15401867019E+03  0.18225038966E+03  0.13837051954E+01  0.23862205019E+03  0.12699999809E+01 0. -1.
       -4    1    3    3    0  502 -0.15401867019E+03 -0.18225038966E+03 -0.78629593435E+03  0.82170546096E+03  0.12699999809E+01 0.  1.
</event>
<event>
 5   0  0.3113940E-02  0.7019348E+03  0.7818609E-02  0.9713929E-01
        2   -1    0    0  501    0  0.00000000000E+00  0.00000000000E+00  0.12720001551E+04  0.12720001551E+04  0.25500000920E-02 0.  1.
       -2   -1    0    0    0  501  0.00000000000E+00  0.00000000000E+00 -0.96838124070E+02  0.96838124103E+02  0.25500000920E-02 0. -1.
    10030    2    1    2    0    0  0.00000000000E+00  0.00000000000E+00  0.11751620311E+04  0.13688382792E+04  0.70193478006E+03 0.  0.
        5    1    3    3  502    0  0.16391601265E+03 -0.11332547965E+03  0.24260890493E+02  0.20080289925E+03  0.46999998093E+01 0. -1.
       -5    1    3    3    0  502 -0.16391601265E+03  0.11332547965E+03  0.11509011406E+04  0.11680353800E+04  0.46999998093E+01 0.  1.
</event>
<event>
 5   0  0.1951465E-02  0.7021925E+03  0.7818609E-02  0.9713490E-01
       -1   -1    0    0    0  501  0.00000000000E+00  0.00000000000E+00  0.17889692967E+03  0.17889692974E+03  0.50400001928E-02 0.  1.
        1   -1    0    0  501    0  0.00000000000E+00  0.00000000000E+00 -0.68904809022E+03  0.68904809024E+03  0.50400001928E-02 0. -1.
    10030    2    1    2    0    0  0.00000000000E+00  0.00000000000E+00 -0.51015116055E+03  0.86794501998E+03  0.70219253136E+03 0.  0.
        4    1    3    3  502    0 -0.24354162387E+03  0.22559495705E+03 -0.11381195835E+03  0.35094213479E+03  0.12699999809E+01 0.  1.
       -4    1    3    3    0  502  0.24354162387E+03 -0.22559495705E+03 -0.39633920220E+03  0.51700288520E+03  0.12699999809E+01 0. -1.
</event>
<event>
 5   0  0.1839038E-02  0.7051331E+03  0.7818609E-02  0.9708494E-01
       -1   -1    0    0    0  501  0.00000000000E+00  0.00000000000E+00  0.15486903115E+03  0.15486903124E+03  0.50400001928E-02 0.  1.
        1   -1    0    0  501    0  0.00000000000E+00  0.00000000000E+00 -0.80263409966E+03  0.80263409968E+03  0.50400001928E-02 0. -1.
    10030    2    1    2    0    0  0.00000000000E+00  0.00000000000E+00 -0.64776506851E+03  0.95750313091E+03  0.70513308086E+03 0.  0.
        5    1    3    3  502    0  0.27861340210E+03  0.21254374021E+03 -0.27162869429E+03  0.44340106776E+03  0.46999998093E+01 0.  1.
       -5    1    3    3    0  502 -0.27861340210E+03 -0.21254374021E+03 -0.37613637421E+03  0.51410206315E+03  0.46999998093E+01 0. -1.
</event>
<event>
 5   0  0.1884172E-02  0.6968272E+03  0.7818609E-02  0.9722674E-01
        1   -1    0    0  501    0  0.00000000000E+00  0.00000000000E+00  0.16749967472E+03  0.16749967480E+03  0.50400001928E-02 0.  1.
       -1   -1    0    0    0  501  0.00000000000E+00  0.00000000000E+00 -0.72472991695E+03  0.72472991697E+03  0.50400001928E-02 0. -1.
    10030    2    1    2    0    0  0.00000000000E+00  0.00000000000E+00 -0.55723024223E+03  0.89222959177E+03  0.69682716765E+03 0.  0.
        3    1    3    3  502    0  0.20003843758E+03 -0.24200894135E+03 -0.47198913478E+03  0.56688398968E+03  0.10100000352E+00 0. -1.
       -3    1    3    3    0  502 -0.20003843758E+03  0.24200894135E+03 -0.85241107445E+02  0.32534560209E+03  0.10100000352E+00 0.  1.
</event>
<event>
 5   0  0.1969818E-02  0.7031057E+03  0.7818609E-02  0.9711936E-01
        1   -1    0    0  501    0  0.00000000000E+00  0.00000000000E+00  0.53916666123E+03  0.53916666126E+03  0.50400001928E-02 0. -1.
       -1   -1    0    0    0  501  0.00000000000E+00  0.00000000000E+00 -0.22922298962E+03  0.22922298967E+03  0.50400001928E-02 0.  1.
    10030    2    1    2    0    0  0.00000000000E+00  0.00000000000E+00  0.30994367162E+03  0.76838965093E+03  0.70310566495E+03 0.  0.
        1    1    3    3  502    0 -0.86597030106E+02 -0.33075805457E+03  0.24435513198E+03  0.42024917232E+03  0.50400001928E-02 0.  1.
       -1    1    3    3    0  502  0.86597030106E+02  0.33075805457E+03  0.65588539635E+02  0.34814047861E+03  0.50400001928E-02 0. -1.
</event>
<event>
 5   0  0.3183963E-02  0.6976843E+03  0.7818609E-02  0.9721201E-01
       -2   -1    0    0    0  501  0.00000000000E+00  0.00000000000E+00  0.24266307880E+03  0.24266307882E+03  0.25500000920E-02 0.  1.
        2   -1    0    0  501    0  0.00000000000E+00  0.00000000000E+00 -0.50148067647E+03  0.50148067648E+03  0.25500000920E-02 0. -1.
    10030    2    1    2    0    0  0.00000000000E+00  0.00000000000E+00 -0.25881759767E+03  0.74414375530E+03  0.69768429800E+03 0.  0.
        4    1    3    3  502    0  0.27313385618E+03 -0.24530092170E+02  0.10055326298E+03  0.29208971295E+03  0.12699999809E+01 0.  1.
       -4    1    3    3    0  502 -0.27313385618E+03  0.24530092170E+02 -0.35937086065E+03  0.45205404234E+03  0.12699999809E+01 0. -1.
</event>
<event>
 5   0  0.2933851E-02  0.7026764E+03  0.7818609E-02  0.9712666E-01
        2   -1    0    0  501    0  0.00000000000E+00  0.00000000000E+00  0.29548190042E+03  0.29548190043E+03  0.25500000920E-02 0.  1.
       -2   -1    0    0    0  501  0.00000000000E+00  0.00000000000E+00 -0.41775322253E+03  0.41775322254E+03  0.25500000920E-02 0. -1.
    10030    2    1    2    0    0  0.00000000000E+00  0.00000000000E+00 -0.12227132211E+03  0.71323512297E+03  0.70267635824E+03 0.  0.
        2    1    3    3  502    0  0.22335993860E+02  0.33841039391E+03  0.31992811420E+02  0.34065236139E+03  0.25500000920E-02 0.  1.
       -2    1    3    3    0  502 -0.22335993860E+02 -0.33841039391E+03 -0.15426413353E+03  0.37258276159E+03  0.25500000920E-02 0. -1.
</event>
<event>
 5   0  0.1884172E-02  0.7099634E+03  0.7818609E-02  0.9700344E-01
       -1   -1    0    0    0  501  0.00000000000E+00  0.00000000000E+00  0.59559153224E+03  0.59559153226E+03  0.50400001928E-02 0.  1.
        1   -1    0    0  501    0  0.00000000000E+00  0.00000000000E+00 -0.21157454917E+03  0.21157454923E+03  0.50400001928E-02 0. -1.
    10030    2    1    2    0    0  0.00000000000E+00  0.00000000000E+00  0.38401698307E+03  0.80716608149E+03  0.70996340738E+03 0.  0.
        3    1    3    3  502    0 -0.38158230483E+02  0.18110880300E+03 -0.15237562400E+03  0.23973900406E+03  0.10100000352E+00 0. -1.
       -3    1    3    3    0  502  0.38158230483E+02 -0.18110880300E+03  0.53639260707E+03  0.56742707742E+03  0.10100000352E+00 0.  1.
</event>
<event>
 5   0  0.3184443E-02  0.7002883E+03  0.7818609E-02  0.9716739E-01
        2   -1    0    0  501    0  0.00000000000E+00  0.00000000000E+00  0.20456546404E+04  0.20456546404E+04  0.25500000920E-02 0. -1.
       -2   -1    0    0    0  501  0.00000000000E+00  0.00000000000E+00 -0.59932365343E+02  0.59932365398E+02  0.25500000920E-02 0.  1.
    10030    2    1    2    0    0  0.00000000000E+00  0.00000000000E+00  0.19857222751E+04  0.21055870058E+04  0.70028828730E+03 0.  0.
        3    1    3    3  502    0 -0.32236443163E+03 -0.87031089510E+02  0.13097506658E+04  0.13516434642E+04  0.10100000352E+00 0.  1.
       -3    1    3    3    0  502  0.32236443163E+03  0.87031089510E+02  0.67597160921E+03  0.75394354164E+03  0.10100000352E+00 0. -1.
</event>
<event>
 5   0  0.1969818E-02  0.6952298E+03  0.7818609E-02  0.9725425E-01
       -1   -1    0    0    0  501  0.00000000000E+00  0.00000000000E+00  0.72799586945E+02  0.72799587119E+02  0.50400001928E-02 0.  1.
        1   -1    0    0  501    0  0.00000000000E+00  0.00000000000E+00 -0.16598461416E+04  0.16598461416E+04  0.50400001928E-02 0. -1.
    10030    2    1    2    0    0  0.00000000000E+00  0.00000000000E+00 -0.15870465546E+04  0.17326457287E+04  0.69522978548E+03 0.  0.
        1    1    3    3  502    0  0.12904409618E+01 -0.23357904896E+03 -0.15193388412E+03  0.27864806212E+03  0.50400001928E-02 0. -1.
       -1    1    3    3    0  502 -0.12904409618E+01  0.23357904896E+03 -0.14351126705E+04  0.14539976666E+04  0.50400001928E-02 0.  1.
</event>
<event>
 5   0  0.1951465E-02  0.7118550E+03  0.7818609E-02  0.9697171E-01
       -1   -1    0    0    0  501  0.00000000000E+00  0.00000000000E+00  0.99049199726E+02  0.99049199854E+02  0.50400001928E-02 0.  1.
        1   -1    0    0  501    0  0.00000000000E+00  0.00000000000E+00 -0.12790046689E+04  0.12790046689E+04  0.50400001928E-02 0. -1.
    10030    2    1    2    0    0  0.00000000000E+00  0.00000000000E+00 -0.11799554692E+04  0.13780538688E+04  0.71185501051E+03 0.  0.
        4    1    3    3  502    0 -0.24752891408E+03  0.53866080431E+02 -0.10597068833E+03  0.27459700948E+03  0.12699999809E+01 0.  1.
       -4    1    3    3    0  502  0.24752891408E+03 -0.53866080431E+02 -0.10739847808E+04  0.11034568593E+04  0.12699999809E+01 0. -1.
</event>
<event>
 5   0  0.1839038E-02  0.6869320E+03  0.7818609E-02  0.9739845E-01
        1   -1    0    0  501    0  0.00000000000E+00  0.00000000000E+00  0.25863823208E+03  0.25863823213E+03  0.50400001928E-02 0. -1.
       -1   -1    0    0    0  501  0.00000000000E+00  0.00000000000E+00 -0.45611549063E+03  0.45611549066E+03  0.50400001928E-02 0.  1.
    10030    2    1    2    0    0  0.00000000000E+00  0.00000000000E+00 -0.19747725855E+03  0.71475372279E+03  0.68693203201E+03 0.  0.
        5    1    3    3  502    0 -0.20035983357E+03 -0.26450425461E+03 -0.66072382660E+01  0.33192214330E+03  0.46999998093E+01 0. -1.
       -5    1    3    3    0  502  0.20035983357E+03  0.26450425461E+03 -0.19087002028E+03  0.38283157949E+03  0.46999998093E+01 0.  1.
</event>
<event>
 5   0  0.3184443E-02  0.7355708E+03  0.7818609E-02  0.9658263E-01
       -2   -1    0    0    0  501  0.00000000000E+00  0.00000000000E+00  0.81039523750E+02  0.81039523790E+02  0.25500000920E-02 0. -1.
        2   -1    0    0  501    0  0.00000000000E+00  0.00000000000E+00 -0.16691372887E+04  0.16691372887E+04  0.25500000920E-02 0.  1.
    10030    2    1    2    0    0  0.00000000000E+00  0.00000000000E+00 -0.15880977649E+04  0.17501768125E+04  0.73557077426E+03 0.  0.
        3    1    3    3  502    0 -0.70063149973E+02 -0.87178863195E+02  0.39595326783E+02  0.11864568798E+03  0.10100000352E+00 0. -1.
       -3    1    3    3    0  502  0.70063149973E+02  0.87178863195E+02 -0.16276930917E+04  0.16315311245E+04  0.10100000352E+00 0.  1.
</event>
<event>
 5   0  0.1969818E-02  0.5955738E+03  0.7818609E-02  0.9914632E-01
        1   -1    0    0  501    0  0.00000000000E+00  0.00000000000E+00  0.56624586847E+03  0.56624586849E+03  0.50400001928E-02 0.  1.
       -1   -1    0    0    0  501  0.00000000000E+00  0.00000000000E+00 -0.15660520657E+03  0.15660520665E+03  0.50400001928E-02 0. -1.
    10030    2    1    2    0    0  0.00000000000E+00  0.00000000000E+00  0.40964066191E+03  0.72285107514E+03  0.59557384508E+03 0.  0.
        1    1    3    3  502    0  0.28535467958E+03  0.44749135575E+02  0.11690187736E+03  0.31160203345E+03  0.50400001928E-02 0.  1.
       -1    1    3    3    0  502 -0.28535467958E+03 -0.44749135575E+02  0.29273878454E+03  0.41124904169E+03  0.50400001928E-02 0. -1.
</event>
<event>
 5   0  0.3290656E-02  0.7001499E+03  0.7818609E-02  0.9716976E-01
       -2   -1    0    0    0  501  0.00000000000E+00  0.00000000000E+00  0.32642165568E+03  0.32642165569E+03  0.25500000920E-02 0.  1.
        2   -1    0    0  501    0  0.00000000000E+00  0.00000000000E+00 -0.37544225555E+03  0.37544225556E+03  0.25500000920E-02 0. -1.
    10030    2    1    2    0    0  0.00000000000E+00  0.00000000000E+00 -0.49020599872E+02  0.70186391126E+03  0.70014993445E+03 0.  0.
        1    1    3    3  502    0 -0.25946937639E+02  0.31867554245E+03 -0.16742556145E+03  0.36091365114E+03  0.50400001928E-02 0. -1.
       -1    1    3    3    0  502  0.25946937639E+02 -0.31867554245E+03  0.11840496157E+03  0.34095026012E+03  0.50400001928E-02 0.  1.
</event>
<event>
 5   0  0.1951465E-02  0.6945730E+03  0.7818609E-02  0.9726558E-01
       -1   -1    0    0    0  501  0.00000000000E+00  0.00000000000E+00  0.39243826475E+03  0.39243826478E+03  0.50400001928E-02 0.  1.
        1   -1    0    0  501    0  0.00000000000E+00  0.00000000000E+00 -0.30732968761E+03  0.30732968766E+03  0.50400001928E-02 0. -1.
    10030    2    1    2    0    0  0.00000000000E+00  0.00000000000E+00  0.85108577137E+02  0.69976795244E+03  0.69457304681E+03 0.  0.
        4    1    3    3  502    0 -0.10942271789E+03 -0.10863070403E+02 -0.28932562473E+03  0.30951941379E+03  0.12699999809E+01 0. -1.
       -4    1    3    3    0  502  0.10942271789E+03  0.10863070403E+02  0.37443420187E+03  0.39024853865E+03  0.12699999809E+01 0.  1.
</event>
<event>
 5   0  0.1839038E-02  0.7097092E+03  0.7818609E-02  0.9700771E-01
        1   -1    0    0  501    0  0.00000000000E+00  0.00000000000E+00  0.22945898275E+03  0.22945898280E+03  0.50400001928E-02 0. -1.
       -1   -1    0    0    0  501  0.00000000000E+00  0.00000000000E+00 -0.54877696019E+03  0.54877696022E+03  0.50400001928E-02 0.  1.
    10030    2    1    2    0    0  0.00000000000E+00  0.00000000000E+00 -0.31931797744E+03  0.77823594302E+03  0.70970924489E+03 0.  0.
        5    1    3    3  502    0  0.23554947242E+03 -0.18651342133E+03  0.47322757442E+02  0.30419129452E+03  0.46999998093E+01 0. -1.
       -5    1    3    3    0  502 -0.23554947242E+03  0.18651342133E+03 -0.36664073489E+03  0.47404464850E+03  0.46999998093E+01 0.  1.
</event>
<event>
 5   0  0.1233912E-02  0.6976993E+03  0.7818609E-02  0.9721175E-01
        3   -1    0    0  501    0  0.00000000000E+00  0.00000000000E+00  0.66491476627E+03  0.66491477394E+03  0.10100000352E+00 0. -1.
       -3   -1    0    0    0  501  0.00000000000E+00  0.00000000000E+00 -0.18302506849E+03  0.18302509635E+03  0.10100000352E+00 0.  1.
    10030    2    1    2    0    0  0.00000000000E+00  0.00000000000E+00  0.48188969778E+03  0.84793987029E+03  0.69769932120E+03 0.  0.
        5    1    3    3  502    0 -0.32923238788E+03  0.73263415091E+02  0.13283788129E+03  0.36253204814E+03  0.46999998093E+01 0.  1.
       -5    1    3    3    0  502  0.32923238788E+03 -0.73263415091E+02  0.34905181649E+03  0.48540782216E+03  0.46999998093E+01 0. -1.
</event>
<event>
 5   0  0.1858013E-02  0.7089804E+03  0.7818609E-02  0.9701997E-01
       -1   -1    0    0    0  501  0.00000000000E+00  0.00000000000E+00  0.19855841681E+03  0.19855841687E+03  0.50400001928E-02 0.  1.
        1   -1    0    0  501    0  0.00000000000E+00  0.00000000000E+00 -0.63287817838E+03  0.63287817840E+03  0.50400001928E-02 0. -1.
    10030    2    1    2    0    0  0.00000000000E+00  0.00000000000E+00 -0.43431976157E+03  0.83143659527E+03  0.70898036409E+03 0.  0.
        2    1    3    3  502    0 -0.31158291395E+02 -0.15713357075E+02 -0.63085900144E+03  0.63182341553E+03  0.25500000920E-02 0. -1.
       -2    1    3    3    0  502  0.31158291395E+02  0.15713357075E+02  0.19653923987E+03  0.19961317974E+03  0.25500000920E-02 0.  1.
</event>
<event>
 5   0  0.1858013E-02  0.7094341E+03  0.7818609E-02  0.9701233E-01
       -1   -1    0    0    0  501  0.00000000000E+00  0.00000000000E+00  0.28240761893E+03  0.28240761897E+03  0.50400001928E-02 0. -1.
        1   -1    0    0  501    0  0.00000000000E+00  0.00000000000E+00 -0.44554103096E+03  0.44554103099E+03  0.50400001928E-02 0.  1.
    10030    2    1    2    0    0  0.00000000000E+00  0.00000000000E+00 -0.16313341203E+03  0.72794864996E+03  0.70943408916E+03 0.  0.
        2    1    3    3  502    0 -0.13463677311E+03  0.15893422534E+03 -0.37617832344E+03  0.42999683684E+03  0.25500000920E-02 0.  1.
       -2    1    3    3    0  502  0.13463677311E+03 -0.15893422534E+03  0.21304491141E+03  0.29795181312E+03  0.25500000920E-02 0. -1.
</event>
<event>
 5   0  0.1233912E-02  0.6957201E+03  0.7818609E-02  0.9724580E-01
       -3   -1    0    0    0  501  0.00000000000E+00  0.00000000000E+00  0.41294047682E+03  0.41294048917E+03  0.10100000352E+00 0.  1.
        3   -1    0    0  501    0  0.00000000000E+00  0.00000000000E+00 -0.29303642113E+03  0.29303643853E+03  0.10100000352E+00 0. -1.
    10030    2    1    2    0    0  0.00000000000E+00  0.00000000000E+00  0.11990405569E+03  0.70597692770E+03  0.69572008730E+03 0.  0.
        5    1    3    3  502    0  0.31759248003E+03 -0.88655285288E+02  0.17230828160E+03  0.37207119868E+03  0.46999998093E+01 0.  1.
       -5    1    3    3    0  502 -0.31759248003E+03  0.88655285288E+02 -0.52404225914E+02  0.33390572902E+03  0.46999998093E+01 0. -1.
</event>
<event>
 5   0  0.1839038E-02  0.7006567E+03  0.7818609E-02  0.9716110E-01
       -1   -1    0    0    0  501  0.00000000000E+00  0.00000000000E+00  0.65583065224E+03  0.65583065226E+03  0.50400001928E-02 0. -1.
        1   -1    0    0  501    0  0.00000000000E+00  0.00000000000E+00 -0.18713666150E+03  0.18713666157E+03  0.50400001928E-02 0.  1.
    10030    2    1    2    0    0  0.00000000000E+00  0.00000000000E+00  0.46869399074E+03  0.84296731383E+03  0.70065671710E+03 0.  0.
        5    1    3    3  502    0 -0.22835483354E+02  0.30036459383E+02  0.65334079488E+03  0.65444627927E+03  0.46999998093E+01 0. -1.
       -5    1    3    3    0  502  0.22835483354E+02 -0.30036459383E+02 -0.18464680414E+03  0.18852103456E+03  0.46999998093E+01 0.  1.
</event>
<event>
 5   0  0.2933851E-02  0.6974787E+03  0.7818609E-02  0.9721554E-01
       -2   -1    0    0    0  501  0.00000000000E+00  0.00000000000E+00  0.68747452421E+02  0.68747452468E+02  0.25500000920E-02 0.  1.
        2   -1    0    0  501    0  0.00000000000E+00  0.00000000000E+00 -0.17690710427E+04  0.17690710427E+04  0.25500000920E-02 0. -1.
    10030    2    1    2    0    0  0.00000000000E+00  0.00000000000E+00 -0.17003235903E+04  0.18378184952E+04  0.69747868034E+03 0.  0.
        2    1    3    3  502    0 -0.31439570744E+03  0.49880846251E+02 -0.12254577013E+04  0.12661276940E+04  0.25500000920E-02 0. -1.
       -2    1    3    3    0  502  0.31439570744E+03 -0.49880846251E+02 -0.47486588894E+03  0.57169080119E+03  0.25500000920E-02 0.  1.
</event>
<event>
 5   0  0.1951465E-02  0.6997072E+03  0.7818609E-02  0.9717733E-01
       -1   -1    0    0    0  501  0.00000000000E+00  0.00000000000E+00  0.38736292191E+03  0.38736292194E+03  0.50400001928E-02 0. -1.
        1   -1    0    0  501    0  0.00000000000E+00  0.00000000000E+00 -0.31597640640E+03  0.31597640644E+03  0.50400001928E-02 0.  1.
    10030    2    1    2    0    0  0.00000000000E+00  0.00000000000E+00  0.71386515506E+02  0.70333932839E+03  0.69970720752E+03 0.  0.
        4    1    3    3  502    0 -0.26719852927E+03  0.21216872839E+03 -0.42073107362E+02  0.34377664641E+03  0.12699999809E+01 0. -1.
       -4    1    3    3    0  502  0.26719852927E+03 -0.21216872839E+03  0.11345962287E+03  0.35956268198E+03  0.12699999809E+01 0.  1.
</event>
<event>
 5   0  0.1969818E-02  0.7002326E+03  0.7818609E-02  0.9716834E-01
        1   -1    0    0  501    0  0.00000000000E+00  0.00000000000E+00  0.16754288192E+03  0.16754288199E+03  0.50400001928E-02 0.  1.
       -1   -1    0    0    0  501  0.00000000000E+00  0.00000000000E+00 -0.73164208994E+03  0.73164208996E+03  0.50400001928E-02 0. -1.
    10030    2    1    2    0    0  0.00000000000E+00  0.00000000000E+00 -0.56409920803E+03  0.89918497195E+03  0.70023260228E+03 0.  0.
        1    1    3    3  502    0 -0.14351046363E+02 -0.17613694267E+03  0.10606855071E+03  0.20610849711E+03  0.50400001928E-02 0.  1.
       -1    1    3    3    0  502  0.14351046363E+02  0.17613694267E+03 -0.67016775874E+03  0.69307647484E+03  0.50400001928E-02 0. -1.
</event>
<event>
 5   0  0.1969818E-02  0.6918122E+03  0.7818609E-02  0.9731338E-01
        1   -1    0    0  501    0  0.00000000000E+00  0.00000000000E+00  0.89850500042E+03  0.89850500044E+03  0.50400001928E-02 0.  1.
       -1   -1    0    0    0  501  0.00000000000E+00  0.00000000000E+00 -0.13316678722E+03  0.13316678732E+03  0.50400001928E-02 0. -1.
    10030    2    1    2    0    0  0.00000000000E+00  0.00000000000E+00  0.76533821320E+03  0.10316717878E+04  0.69181218337E+03 0.  0.
        1    1    3    3  502    0  0.29584818193E+02 -0.32906175558E+03  0.22990320070E+03  0.40250761753E+03  0.50400001928E-02 0. -1.
       -1    1    3    3    0  502 -0.29584818193E+02  0.32906175558E+03  0.53543501251E+03  0.62916417023E+03  0.50400001928E-02 0.  1.
</event>
<event>
 5   0  0.1233912E-02  0.7098120E+03  0.7818609E-02  0.9700598E-01
        3   -1    0    0  501    0  0.00000000000E+00  0.00000000000E+00  0.17321992689E+03  0.17321995633E+03  0.10100000352E+00 0. -1.
       -3   -1    0    0    0  501  0.00000000000E+00  0.00000000000E+00 -0.72715795773E+03  0.72715796474E+03  0.10100000352E+00 0.  1.
    10030    2    1    2    0    0  0.00000000000E+00  0.00000000000E+00 -0.55393803084E+03  0.90037792108E+03  0.70981198831E+03 0.  0.
        1    1    3    3  502    0  0.70535441865E+02  0.20798102986E+03 -0.63061375358E+03  0.66776123246E+03  0.50400001928E-02 0.  1.
       -1    1    3    3    0  502 -0.70535441865E+02 -0.20798102986E+03  0.76675722743E+02  0.23261668862E+03  0.50400001928E-02 0. -1.
</event>
<event>
 5   0  0.3183963E-02  0.7005378E+03  0.7818609E-02  0.9716313E-01
       -2   -1    0    0    0  501  0.00000000000E+00  0.00000000000E+00  0.79600139768E+02  0.79600139809E+02  0.25500000920E-02 0. -1.
        2   -1    0    0  501    0  0.00000000000E+00  0.00000000000E+00 -0.15413074487E+04  0.15413074487E+04  0.25500000920E-02 0.  1.
    10030    2    1    2    0    0  0.00000000000E+00  0.00000000000E+00 -0.14617073089E+04  0.16209075885E+04  0.70053776023E+03 0.  0.
        4    1    3    3  502    0  0.80301903961E+02  0.31493187952E+03 -0.42867225315E+03  0.53795166886E+03  0.12699999809E+01 0.  1.
       -4    1    3    3    0  502 -0.80301903961E+02 -0.31493187952E+03 -0.10330350558E+04  0.10829559196E+04  0.12699999809E+01 0. -1.
</event>
<event>
 5   0  0.1884172E-02  0.7002032E+03  0.7818609E-02  0.9716885E-01
        1   -1    0    0  501    0  0.00000000000E+00  0.00000000000E+00  0.11538193116E+03  0.11538193127E+03  0.50400001928E-02 0.  1.
       -1   -1    0    0    0  501  0.00000000000E+00  0.00000000000E+00 -0.10623078217E+04  0.10623078217E+04  0.50400001928E-02 0. -1.
    10030    2    1    2    0    0  0.00000000000E+00  0.00000000000E+00 -0.94692589053E+03  0.11776897530E+04  0.70020319343E+03 0.  0.
        3    1    3    3  502    0  0.32510189051E+03  0.10232553329E+02 -0.25562159564E+03  0.41368871717E+03  0.10100000352E+00 0. -1.
       -3    1    3    3    0  502 -0.32510189051E+03 -0.10232553329E+02 -0.69130429489E+03  0.76400103580E+03  0.10100000352E+00 0.  1.
</event>
<event>
 5   0  0.3183963E-02  0.6949653E+03  0.7818609E-02  0.9725881E-01
        2   -1    0    0  501    0  0.00000000000E+00  0.00000000000E+00  0.18791691262E+04  0.18791691262E+04  0.25500000920E-02 0. -1.
       -2   -1    0    0    0  501  0.00000000000E+00  0.00000000000E+00 -0.64254035075E+02  0.64254035125E+02  0.25500000920E-02 0.  1.
    10030    2    1    2    0    0  0.00000000000E+00  0.00000000000E+00  0.18149150911E+04  0.19434231613E+04  0.69496531999E+03 0.  0.
        4    1    3    3  502    0 -0.19339075934E+03  0.24457787152E+03  0.47855139577E+03  0.57116667649E+03  0.12699999809E+01 0. -1.
       -4    1    3    3    0  502  0.19339075934E+03 -0.24457787152E+03  0.13363636954E+04  0.13722564848E+04  0.12699999809E+01 0.  1.
</event>
<event>
 5   0  0.3184443E-02  0.6995400E+03  0.7818609E-02  0.9718019E-01
        2   -1    0    0  501    0  0.00000000000E+00  0.00000000000E+00  0.70183939006E+03  0.70183939006E+03  0.25500000920E-02 0.  1.
       -2   -1    0    0    0  501  0.00000000000E+00  0.00000000000E+00 -0.17431205143E+03  0.17431205145E+03  0.25500000920E-02 0. -1.
    10030    2    1    2    0    0  0.00000000000E+00  0.00000000000E+00  0.52752733863E+03  0.87615144151E+03  0.69954003136E+03 0.  0.
        3    1    3    3  502    0 -0.21991353723E+03  0.11204586798E+02 -0.76602515274E+02  0.23314257906E+03  0.10100000352E+00 0. -1.
       -3    1    3    3    0  502  0.21991353723E+03 -0.11204586798E+02  0.60412985390E+03  0.64300886246E+03  0.10100000352E+00 0.  1.
</event>
<event>
 5   0  0.3290656E-02  0.7032137E+03  0.7818609E-02  0.9711752E-01
        2   -1    0    0  501    0  0.00000000000E+00  0.00000000000E+00  0.40902562875E+03  0.40902562875E+03  0.25500000920E-02 0.  1.
       -2   -1    0    0    0  501  0.00000000000E+00  0.00000000000E+00 -0.30224846755E+03  0.30224846756E+03  0.25500000920E-02 0. -1.
    10030    2    1    2    0    0  0.00000000000E+00  0.00000000000E+00  0.10677716119E+03  0.71127409632E+03  0.70321367872E+03 0.  0.
        1    1    3    3  502    0 -0.15931798118E+02  0.32900330917E+03  0.17780407058E+03  0.37431442288E+03  0.50400001928E-02 0.  1.
       -1    1    3    3    0  502  0.15931798118E+02 -0.32900330917E+03 -0.71026909384E+02  0.33695967343E+03  0.50400001928E-02 0. -1.
</event>
<event>
 5   0  0.3183963E-02  0.6962073E+03  0.7818609E-02  0.9723740E-01
        2   -1    0    0  501    0  0.00000000000E+00  0.00000000000E+00  0.86914486905E+03  0.86914486906E+03  0.25500000920E-02 0. -1.
       -2   -1    0    0    0  501  0.00000000000E+00  0.00000000000E+00 -0.13941996952E+03  0.13941996954E+03  0.25500000920E-02 0.  1.
    10030    2    1    2    0    0  0.00000000000E+00  0.00000000000E+00  0.72972489953E+03  0.10085648386E+04  0.69620730006E+03 0.  0.
        4    1    3    3  502    0  0.39644880440E+01  0.25203085262E+03  0.17066525631E+02  0.25264233025E+03  0.12699999809E+01 0.  1.
       -4    1    3    3    0  502 -0.39644880440E+01 -0.25203085262E+03  0.71265837390E+03  0.75592250835E+03  0.12699999809E+01 0. -1.
</event>
<event>
 5   0  0.1884172E-02  0.7148271E+03  0.7818609E-02  0.9692207E-01
       -1   -1    0    0    0  501  0.00000000000E+00  0.00000000000E+00  0.18764357786E+03  0.18764357792E+03  0.50400001928E-02 0.  1.
        1   -1    0    0  501    0  0.00000000000E+00  0.00000000000E+00 -0.68078237585E+03  0.68078237587E+03  0.50400001928E-02 0. -1.
    10030    2    1    2    0    0  0.00000000000E+00  0.00000000000E+00 -0.49313879799E+03  0.86842595379E+03  0.71482708618E+03 0.  0.
        3    1    3    3  502    0 -0.17896081142E+03 -0.28252913330E+03 -0.93404725644E+02  0.34723786683E+03  0.10100000352E+00 0.  1.
       -3    1    3    3    0  502  0.17896081142E+03  0.28252913330E+03 -0.39973407235E+03  0.52118808696E+03  0.10100000352E+00 0. -1.
</event>
<event>
 5   0  0.3184443E-02  0.7044282E+03  0.7818609E-02  0.9709689E-01
        2   -1    0    0  501    0  0.00000000000E+00  0.00000000000E+00  0.43625467769E+03  0.43625467770E+03  0.25500000920E-02 0.  1.
       -2   -1    0    0    0  501  0.00000000000E+00  0.00000000000E+00 -0.28436319983E+03  0.28436319984E+03  0.25500000920E-02 0. -1.
    10030    2    1    2    0    0  0.00000000000E+00  0.00000000000E+00  0.15189147786E+03  0.72061787754E+03  0.70442821095E+03 0.  0.
        3    1    3    3  502    0 -0.22020203514E+03  0.10699769861E+03 -0.18308778850E+03  0.30570998068E+03  0.10100000352E+00 0. -1.
       -3    1    3    3    0  502  0.22020203514E+03 -0.10699769861E+03  0.33497926636E+03  0.41490789686E+03  0.10100000352E+00 0.  1.
</event>
<event>
 5   0  0.1969818E-02  0.7031321E+03  0.7818609E-02  0.9711891E-01
        1   -1    0    0  501    0  0.00000000000E+00  0.00000000000E+00  0.17042597087E+04  0.17042597087E+04  0.50400001928E-02 0.  1.
       -1   -1    0    0    0  501  0.00000000000E+00  0.00000000000E+00 -0.72523391348E+02  0.72523391523E+02  0.50400001928E-02 0. -1.
    10030    2    1    2    0    0  0.00000000000E+00  0.00000000000E+00  0.16317363174E+04  0.17767831002E+04  0.70313211838E+03 0.  0.
        1    1    3    3  502    0 -0.21753419696E+03  0.43422007389E+02  0.12664338900E+03  0.25543129326E+03  0.50400001928E-02 0. -1.
       -1    1    3    3    0  502  0.21753419696E+03 -0.43422007389E+02  0.15050929284E+04  0.15213518070E+04  0.50400001928E-02 0.  1.
</event>
<event>
 5   0  0.3183963E-02  0.6973137E+03  0.7818609E-02  0.9721837E-01
       -2   -1    0    0    0  501  0.00000000000E+00  0.00000000000E+00  0.77008727912E+02  0.77008727955E+02  0.25500000920E-02 0.  1.
        2   -1    0    0  501    0  0.00000000000E+00  0.00000000000E+00 -0.15785429523E+04  0.15785429523E+04  0.25500000920E-02 0. -1.
    10030    2    1    2    0    0  0.00000000000E+00  0.00000000000E+00 -0.15015342244E+04  0.16555516803E+04  0.69731365898E+03 0.  0.
        4    1    3    3  502    0 -0.63043759597E+02 -0.56239256876E+02 -0.15538686922E+04  0.15561641607E+04  0.12699999809E+01 0. -1.
       -4    1    3    3    0  502  0.63043759597E+02  0.56239256876E+02  0.52334467742E+02  0.99387519598E+02  0.12699999809E+01 0.  1.
</event>
<event>
 5   0  0.2933851E-02  0.6965578E+03  0.7818609E-02  0.9723137E-01
        2   -1    0    0  501    0  0.00000000000E+00  0.00000000000E+00  0.46021835789E+03  0.46021835790E+03  0.25500000920E-02 0.  1.
       -2   -1    0    0    0  501  0.00000000000E+00  0.00000000000E+00 -0.26356663204E+03  0.26356663206E+03  0.25500000920E-02 0. -1.
    10030    2    1    2    0    0  0.00000000000E+00  0.00000000000E+00  0.19665172585E+03  0.72378498995E+03  0.69655782991E+03 0.  0.
        2    1    3    3  502    0  0.33627491394E+03  0.45650863108E+02  0.16948716700E+02  0.33978239809E+03  0.25500000920E-02 0. -1.
       -2    1    3    3    0  502 -0.33627491394E+03 -0.45650863108E+02  0.17970300915E+03  0.38400259186E+03  0.25500000920E-02 0.  1.
</event>
<event>
 5   0  0.3290656E-02  0.7043894E+03  0.7818609E-02  0.9709755E-01
        2   -1    0    0  501    0  0.00000000000E+00  0.00000000000E+00  0.14377641159E+04  0.14377641159E+04  0.25500000920E-02 0. -1.
       -2   -1    0    0    0  501  0.00000000000E+00  0.00000000000E+00 -0.86273624684E+02  0.86273624721E+02  0.25500000920E-02 0.  1.
    10030    2    1    2    0    0  0.00000000000E+00  0.00000000000E+00  0.13514904913E+04  0.15240377407E+04  0.70438944272E+03 0.  0.
        1    1    3    3  502    0 -0.37623330023E+02  0.10836453229E+03  0.13962134979E+04  0.14009177416E+04  0.50400001928E-02 0. -1.
       -1    1    3    3    0  502  0.37623330023E+02 -0.10836453229E+03 -0.44723006687E+02  0.12311999908E+03  0.50400001928E-02 0.  1.
</event>
<event>
 5   0  0.3184443E-02  0.7048880E+03  0.7818609E-02  0.9708909E-01
       -2   -1    0    0    0  501  0.00000000000E+00  0.00000000000E+00  0.29798645530E+03  0.29798645531E+03  0.25500000920E-02 0.  1.
        2   -1    0    0  501    0  0.00000000000E+00  0.00000000000E+00 -0.41685372944E+03  0.41685372945E+03  0.25500000920E-02 0. -1.
    10030    2    1    2    0    0  0.00000000000E+00  0.00000000000E+00 -0.11886727414E+03  0.71484018477E+03  0.70488797755E+03 0.  0.
        3    1    3    3  502    0 -0.25862610591E+03 -0.57262267551E+02 -0.29520334754E+03  0.39662508310E+03  0.10100000352E+00 0. -1.
       -3    1    3    3    0  502  0.25862610591E+03  0.57262267551E+02  0.17633607340E+03  0.31821510167E+03  0.10100000352E+00 0.  1.
</event>
<event>
 5   0  0.1233912E-02  0.7055992E+03  0.7818609E-02  0.9707704E-01
       -3   -1    0    0    0  501  0.00000000000E+00  0.00000000000E+00  0.26712706519E+03  0.26712708428E+03  0.10100000352E+00 0. -1.
        3   -1    0    0  501    0  0.00000000000E+00  0.00000000000E+00 -0.46594887192E+03  0.46594888287E+03  0.10100000352E+00 0.  1.
    10030    2    1    2    0    0  0.00000000000E+00  0.00000000000E+00 -0.19882180673E+03  0.73307596715E+03  0.70559922249E+03 0.  0.
        1    1    3    3  502    0  0.31596517779E+03 -0.69355530578E+02  0.46867350864E+02  0.32686500547E+03  0.50400001928E-02 0. -1.
       -1    1    3    3    0  502 -0.31596517779E+03  0.69355530578E+02 -0.24568915760E+03  0.40621096168E+03  0.50400001928E-02 0.  1.
</event>
<event>
 5   0  0.2933851E-02  0.6810910E+03  0.7818609E-02  0.9750127E-01
        2   -1    0    0  501    0  0.00000000000E+00  0.00000000000E+00  0.60807136229E+03  0.60807136230E+03  0.25500000920E-02 0. -1.
       -2   -1    0    0    0  501  0.00000000000E+00  0.00000000000E+00 -0.19071977738E+03  0.19071977739E+03  0.25500000920E-02 0.  1.
    10030    2    1    2    0    0  0.00000000000E+00  0.00000000000E+00  0.41735158492E+03  0.79879113969E+03  0.68109099203E+03 0.  0.
        2    1    3    3  502    0  0.12043050660E+03 -0.88014678198E+02 -0.15036756295E+03  0.21180296148E+03  0.25500000920E-02 0.  1.
       -2    1    3    3    0  502 -0.12043050660E+03  0.88014678198E+02  0.56771914787E+03  0.58698817821E+03  0.25500000920E-02 0. -1.
</event>
<event>
 5   0  0.1858013E-02  0.6991942E+03  0.7818609E-02  0.9718611E-01
       -1   -1    0    0    0  501  0.00000000000E+00  0.00000000000E+00  0.95584813485E+02  0.95584813618E+02  0.50400001928E-02 0. -1.
        1   -1    0    0  501    0  0.00000000000E+00  0.00000000000E+00 -0.12786356332E+04  0.12786356332E+04  0.50400001928E-02 0.  1.
    10030    2    1    2    0    0  0.00000000000E+00  0.00000000000E+00 -0.11830508197E+04  0.13742204468E+04  0.69919424657E+03 0.  0.
        2    1    3    3  502    0 -0.29700751780E+03 -0.16109739575E+03 -0.76789303160E+03  0.83894311161E+03  0.25500000920E-02 0.  1.
       -2    1    3    3    0  502  0.29700751780E+03  0.16109739575E+03 -0.41515778809E+03  0.53527733519E+03  0.25500000920E-02 0. -1.
</event>
<event>
 5   0  0.1858013E-02  0.6940755E+03  0.7818609E-02  0.9727418E-01
       -1   -1    0    0    0  501  0.00000000000E+00  0.00000000000E+00  0.23734175948E+03  0.23734175954E+03  0.50400001928E-02 0.  1.
        1   -1    0    0  501    0  0.00000000000E+00  0.00000000000E+00 -0.50743373491E+03  0.50743373493E+03  0.50400001928E-02 0. -1.
    10030    2    1    2    0    0  0.00000000000E+00  0.00000000000E+00 -0.27009197542E+03  0.74477549447E+03  0.69407554486E+03 0.  0.
        2    1    3    3  502    0  0.63645418287E+02 -0.32524344486E+03 -0.24552904788E+03  0.41245430178E+03  0.25500000920E-02 0. -1.
       -2    1    3    3    0  502 -0.63645418287E+02  0.32524344486E+03 -0.24562927545E+02  0.33232119269E+03  0.25500000920E-02 0.  1.
</event>
<event>
 5   0  0.1951465E-02  0.6899582E+03  0.7818609E-02  0.9734561E-01
        1   -1    0    0  501    0  0.00000000000E+00  0.00000000000E+00  0.20245663704E+03  0.20245663711E+03  0.50400001928E-02 0. -1.
       -1   -1    0    0    0  501  0.00000000000E+00  0.00000000000E+00 -0.58783246940E+03  0.58783246942E+03  0.50400001928E-02 0.  1.
    10030    2    1    2    0    0  0.00000000000E+00  0.00000000000E+00 -0.38537583236E+03  0.79028910653E+03  0.68995821593E+03 0.  0.
        4    1    3    3  502    0  0.10756025635E+03  0.20845779912E+03 -0.48242405157E+03  0.53643120826E+03  0.12699999809E+01 0.  1.
       -4    1    3    3    0  502 -0.10756025635E+03 -0.20845779912E+03  0.97048219211E+02  0.25385789827E+03  0.12699999809E+01 0. -1.
</event>
<event>
 5   0  0.1839038E-02  0.7024908E+03  0.7818609E-02  0.9712982E-01
        1   -1    0    0  501    0  0.00000000000E+00  0.00000000000E+00  0.58626885838E+03  0.58626885840E+03  0.50400001928E-02 0.  1.
       -1   -1    0    0    0  501  0.00000000000E+00  0.00000000000E+00 -0.21043816809E+03  0.21043816815E+03  0.50400001928E-02 0. -1.
    10030    2    1    2    0    0  0.00000000000E+00  0.00000000000E+00  0.37583069029E+03  0.79670702655E+03  0.70249083865E+03 0.  0.
        5    1    3    3  502    0 -0.21448918453E+03  0.27808756539E+03  0.19199663849E+03  0.40027878222E+03  0.46999998093E+01 0. -1.
       -5    1    3    3    0  502  0.21448918453E+03 -0.27808756539E+03  0.18383405180E+03  0.39642824433E+03  0.46999998093E+01 0.  1.
</event>
<event>
 5   0  0.1839038E-02  0.7038415E+03  0.7818609E-02  0.9710685E-01
        1   -1    0    0  501    0  0.00000000000E+00  0.00000000000E+00  0.76292441483E+03  0.76292441485E+03  0.50400001928E-02 0.  1.
       -1   -1    0    0    0  501  0.00000000000E+00  0.00000000000E+00 -0.16233352606E+03  0.16233352614E+03  0.50400001928E-02 0. -1.
    10030    2    1    2    0    0  0.00000000000E+00  0.00000000000E+00  0.60059088877E+03  0.92525794099E+03  0.70384148903E+03 0.  0.
        5    1    3    3  502    0  0.27337987674E+03 -0.21828103648E+03  0.35023147061E+03  0.49504276674E+03  0.46999998093E+01 0. -1.
       -5    1    3    3    0  502 -0.27337987674E+03  0.21828103648E+03  0.25035941817E+03  0.43021517425E+03  0.46999998093E+01 0.  1.
</event>
<event>
 5   0  0.3184443E-02  0.6981968E+03  0.7818609E-02  0.9720321E-01
       -2   -1    0    0    0  501  0.00000000000E+00  0.00000000000E+00  0.43352885449E+02  0.43352885524E+02  0.25500000920E-02 0.  1.
        2   -1    0    0  501    0  0.00000000000E+00  0.00000000000E+00 -0.28111092947E+04  0.28111092947E+04  0.25500000920E-02 0. -1.
    10030    2    1    2    0    0  0.00000000000E+00  0.00000000000E+00 -0.27677564093E+04  0.28544621803E+04  0.69819681852E+03 0.  0.
        3    1    3    3  502    0  0.25382114744E+03 -0.21896678137E+03 -0.98543727126E+03  0.10408930070E+04  0.10100000352E+00 0.  1.
       -3    1    3    3    0  502 -0.25382114744E+03  0.21896678137E+03 -0.17823191380E+04  0.18135691733E+04  0.10100000352E+00 0. -1.
</event>
<event>
 5   0  0.3184443E-02  0.6996991E+03  0.7818609E-02  0.9717747E-01
       -2   -1    0    0    0  501  0.00000000000E+00  0.00000000000E+00  0.34548995460E+03  0.34548995461E+03  0.25500000920E-02 0.  1.
        2   -1    0    0  501    0  0.00000000000E+00  0.00000000000E+00 -0.35426411246E+03  0.35426411247E+03  0.25500000920E-02 0. -1.
    10030    2    1    2    0    0  0.00000000000E+00  0.00000000000E+00 -0.87741578606E+01  0.69975406709E+03  0.69969905571E+03 0.  0.
        3    1    3    3  502    0  0.33323890918E+03  0.67241837435E+02  0.78233256798E+02  0.34884106405E+03  0.10100000352E+00 0.  1.
       -3    1    3    3    0  502 -0.33323890918E+03 -0.67241837435E+02 -0.87007414659E+02  0.35091300304E+03  0.10100000352E+00 0. -1.
</event>
<event>
 5   0  0.1839038E-02  0.7017643E+03  0.7818609E-02  0.9714220E-01
        1   -1    0    0  501    0  0.00000000000E+00  0.00000000000E+00  0.42686503769E+03  0.42686503772E+03  0.50400001928E-02 0. -1.
       -1   -1    0    0    0  501  0.00000000000E+00  0.00000000000E+00 -0.28842435387E+03  0.28842435391E+03  0.50400001928E-02 0.  1.
    10030    2    1    2    0    0  0.00000000000E+00  0.00000000000E+00  0.13844068382E+03  0.71528939163E+03  0.70176427014E+03 0.  0.
        5    1    3    3  502    0 -0.20575805467E+03 -0.28187373938E+03  0.10606957395E+03  0.36477668036E+03  0.46999998093E+01 0.  1.
       -5    1    3    3    0  502  0.20575805467E+03  0.28187373938E+03  0.32371109871E+02  0.35051271128E+03  0.46999998093E+01 0. -1.
</event>
<event>
 5   0  0.3290656E-02  0.7011812E+03  0.7818609E-02  0.9715214E-01
        2   -1    0    0  501    0  0.00000000000E+00  0.00000000000E+00  0.16000798745E+04  0.16000798745E+04  0.25500000920E-02 0.  1.
       -2   -1    0    0    0  501  0.00000000000E+00  0.00000000000E+00 -0.76817279190E+02  0.76817279232E+02  0.25500000920E-02 0. -1.
    10030    2    1    2    0    0  0.00000000000E+00  0.00000000000E+00  0.15232625953E+04  0.16768971537E+04  0.70118123900E+03 0.  0.
        1    1    3    3  502    0 -0.63632999543E+02 -0.24997304187E+03  0.13294783376E+04  0.13542704052E+04  0.50400001928E-02 0.  1.
       -1    1    3    3    0  502  0.63632999543E+02  0.24997304187E+03  0.19378425772E+03  0.32262674852E+03  0.50400001928E-02 0. -1.
</event>
<event>
 5   0  0.1858013E-02  0.6598054E+03  0.7818609E-02  0.9788552E-01
       -1   -1    0    0    0  501  0.00000000000E+00  0.00000000000E+00  0.15250308301E+03  0.15250308310E+03  0.50400001928E-02 0. -1.
        1   -1    0    0  501    0  0.00000000000E+00  0.00000000000E+00 -0.71366298869E+03  0.71366298871E+03  0.50400001928E-02 0.  1.
    10030    2    1    2    0    0  0.00000000000E+00  0.00000000000E+00 -0.56115990568E+03  0.86616607180E+03  0.65980544421E+03 0.  0.
        2    1    3    3  502    0 -0.70474757217E+02  0.54606757964E+02 -0.69754854539E+03  0.70322298214E+03  0.25500000920E-02 0.  1.
       -2    1    3    3    0  502  0.70474757217E+02 -0.54606757964E+02  0.13638863972E+03  0.16294308967E+03  0.25500000920E-02 0. -1.
</event>
<event>
 5   0  0.3184443E-02  0.7003436E+03  0.7818609E-02  0.9716645E-01
       -2   -1    0    0    0  501  0.00000000000E+00  0.00000000000E+00  0.23665060075E+03  0.23665060076E+03  0.25500000920E-02 0.  1.
        2   -1    0    0  501    0  0.00000000000E+00  0.00000000000E+00 -0.51814910809E+03  0.51814910809E+03  0.25500000920E-02 0. -1.
    10030    2    1    2    0    0  0.00000000000E+00  0.00000000000E+00 -0.28149850734E+03  0.75479970885E+03  0.70034362341E+03 0.  0.
        3    1    3    3  502    0 -0.21562297360E+03  0.15990376992E+03 -0.38308342114E+03  0.46777708380E+03  0.10100000352E+00 0. -1.
       -3    1    3    3    0  502  0.21562297360E+03 -0.15990376992E+03  0.10158491379E+03  0.28702262505E+03  0.10100000352E+00 0.  1.
</event>
<event>
 5   0  0.3183963E-02  0.7030257E+03  0.7818609E-02  0.9712072E-01
        2   -1    0    0  501    0  0.00000000000E+00  0.00000000000E+00  0.53671673842E+03  0.53671673843E+03  0.25500000920E-02 0.  1.
       -2   -1    0    0    0  501  0.00000000000E+00  0.00000000000E+00 -0.23021691393E+03  0.23021691394E+03  0.25500000920E-02 0. -1.
    10030    2    1    2    0    0  0.00000000000E+00  0.00000000000E+00  0.30649982449E+03  0.76693365236E+03  0.70302566434E+03 0.  0.
        4    1    3    3  502    0 -0.78150817965E+02 -0.26565595528E+03 -0.82947906994E+02  0.28907197218E+03  0.12699999809E+01 0. -1.
       -4    1    3    3    0  502  0.78150817965E+02  0.26565595528E+03  0.38944773149E+03  0.47786168018E+03  0.12699999809E+01 0.  1.
</event>
<event>
 5   0  0.3113940E-02  0.7268873E+03  0.7818609E-02  0.9672325E-01
        2   -1    0    0  501    0  0.00000000000E+00  0.00000000000E+00  0.59060735399E+03  0.59060735399E+03  0.25500000920E-02 0.  1.
       -2   -1    0    0    0  501  0.00000000000E+00  0.00000000000E+00 -0.22365328516E+03  0.22365328517E+03  0.25500000920E-02 0. -1.
    10030    2    1    2    0    0  0.00000000000E+00  0.00000000000E+00  0.36695406883E+03  0.81426063916E+03  0.72688726764E+03 0.  0.
        5    1    3    3  502    0  0.31757758473E+03  0.16079793745E+03  0.26547158823E+03  0.44408192168E+03  0.46999998093E+01 0.  1.
       -5    1    3    3    0  502 -0.31757758473E+03 -0.16079793745E+03  0.10148248061E+03  0.37017871748E+03  0.46999998093E+01 0. -1.
</event>
<event>
 5   0  0.1969818E-02  0.6928195E+03  0.7818609E-02  0.9729591E-01
        1   -1    0    0  501    0  0.00000000000E+00  0.00000000000E+00  0.15459436141E+03  0.15459436149E+03  0.50400001928E-02 0. -1.
       -1   -1    0    0    0  501  0.00000000000E+00  0.00000000000E+00 -0.77622302222E+03  0.77622302223E+03  0.50400001928E-02 0.  1.
    10030    2    1    2    0    0  0.00000000000E+00  0.00000000000E+00 -0.62162866081E+03  0.93081738373E+03  0.69281946415E+03 0.  0.
        1    1    3    3  502    0 -0.15836245713E+02  0.34512868632E+03 -0.34467280540E+03  0.48802042950E+03  0.50400001928E-02 0. -1.
       -1    1    3    3    0  502  0.15836245713E+02 -0.34512868632E+03 -0.27695585541E+03  0.44279695423E+03  0.50400001928E-02 0.  1.
</event>
<event>
 5   0  0.1884172E-02  0.7030571E+03  0.7818609E-02  0.9712018E-01
        1   -1    0    0  501    0  0.00000000000E+00  0.00000000000E+00  0.36953419873E+03  0.36953419876E+03  0.50400001928E-02 0. -1.
       -1   -1    0    0    0  501  0.00000000000E+00  0.00000000000E+00 -0.33440020225E+03  0.33440020229E+03  0.50400001928E-02 0.  1.
    10030    2    1    2    0    0  0.00000000000E+00  0.00000000000E+00  0.35133996478E+02  0.70393440105E+03  0.70305706972E+03 0.  0.
        3    1    3    3  502    0  0.51598381141E+02 -0.75980365373E+02  0.35730870198E+03  0.36892401327E+03  0.10100000352E+00 0. -1.
       -3    1    3    3    0  502 -0.51598381141E+02  0.75980365373E+02 -0.32217470550E+03  0.33501038778E+03  0.10100000352E+00 0.  1.
</event>
<event>
 5   0  0.1951465E-02  0.6988751E+03  0.7818609E-02  0.9719158E-01
       -1   -1    0    0    0  501  0.00000000000E+00  0.00000000000E+00  0.63898282796E+03  0.63898282798E+03  0.50400001928E-02 0.  1.
        1   -1    0    0  501    0  0.00000000000E+00  0.00000000000E+00 -0.19109526813E+03  0.19109526819E+03  0.50400001928E-02 0. -1.
    10030    2    1    2    0    0  0.00000000000E+00  0.00000000000E+00  0.44788755983E+03  0.83007809617E+03  0.69887508146E+03 0.  0.
        4    1    3    3  502    0  0.44645560751E+02 -0.16773737915E+03  0.58415437775E+03  0.60939888776E+03  0.12699999809E+01 0.  1.
       -4    1    3    3    0  502 -0.44645560751E+02  0.16773737915E+03 -0.13626681792E+03  0.22067920841E+03  0.12699999809E+01 0. -1.
</event>
<event>
 5   0  0.1839038E-02  0.6937956E+03  0.7818609E-02  0.9727902E-01
        1   -1    0    0  501    0  0.00000000000E+00  0.00000000000E+00  0.43864476219E+03  0.43864476222E+03  0.50400001928E-02 0.  1.
       -1   -1    0    0    0  501  0.00000000000E+00  0.00000000000E+00 -0.27434061783E+03  0.27434061787E+03  0.50400001928E-02 0. -1.
    10030    2    1    2    0    0  0.00000000000E+00  0.00000000000E+00  0.16430414437E+03  0.71298538009E+03  0.69379557535E+03 0.  0.
        5    1    3    3  502    0 -0.10157472682E+03 -0.91170387399E+02 -0.24555121073E+03  0.28097500201E+03  0.46999998093E+01 0. -1.
       -5    1    3    3    0  502  0.10157472682E+03  0.91170387399E+02  0.40985535510E+03  0.43201037808E+03  0.46999998093E+01 0.  1.
</event>
<event>
 5   0  0.3184443E-02  0.7006701E+03  0.7818609E-02  0.9716087E-01
       -2   -1    0    0    0  501  0.00000000000E+00  0.00000000000E+00  0.45294904710E+03  0.45294904711E+03  0.25500000920E-02 0. -1.
        2   -1    0    0  501    0  0.00000000000E+00  0.00000000000E+00 -0.27096790810E+03  0.27096790811E+03  0.25500000920E-02 0.  1.
    10030    2    1    2    0    0  0.00000000000E+00  0.00000000000E+00  0.18198113900E+03  0.72391695522E+03  0.70067012431E+03 0.  0.
        3    1    3    3  502    0  0.27797386884E+03 -0.14582003047E+03  0.25172096674E+03  0.40236352760E+03  0.10100000352E+00 0.  1.
       -3    1    3    3    0  502 -0.27797386884E+03  0.14582003047E+03 -0.69739827737E+02  0.32155342762E+03  0.10100000352E+00 0. -1.
</event>
<event>
 5   0  0.1858013E-02  0.6892455E+03  0.7818609E-02  0.9735803E-01
       -1   -1    0    0    0  501  0.00000000000E+00  0.00000000000E+00  0.12030585123E+03  0.12030585134E+03  0.50400001928E-02 0. -1.
        1   -1    0    0  501    0  0.00000000000E+00  0.00000000000E+00 -0.98719076441E+03  0.98719076442E+03  0.50400001928E-02 0.  1.
    10030    2    1    2    0    0  0.00000000000E+00  0.00000000000E+00 -0.86688491317E+03  0.11074966158E+04  0.68924545789E+03 0.  0.
        2    1    3    3  502    0  0.14169877032E+02 -0.31670039192E+03 -0.65060112197E+03  0.72372767225E+03  0.25500000920E-02 0.  1.
       -2    1    3    3    0  502 -0.14169877032E+02  0.31670039192E+03 -0.21628379120E+03  0.38376894351E+03  0.25500000920E-02 0. -1.
</event>
<event>
 5   0  0.1951465E-02  0.7032963E+03  0.7818609E-02  0.9711612E-01
        1   -1    0    0  501    0  0.00000000000E+00  0.00000000000E+00  0.24567460664E+03  0.24567460669E+03  0.50400001928E-02 0. -1.
       -1   -1    0    0    0  501  0.00000000000E+00  0.00000000000E+00 -0.50333413431E+03  0.50333413433E+03  0.50400001928E-02 0.  1.
    10030    2    1    2    0    0  0.00000000000E+00  0.00000000000E+00 -0.25765952767E+03  0.74900874103E+03  0.70329628318E+03 0.  0.
        4    1    3    3  502    0  0.25063435627E+03  0.23834132933E+03 -0.61215989477E+02  0.35124518513E+03  0.12699999809E+01 0. -1.
       -4    1    3    3    0  502 -0.25063435627E+03 -0.23834132933E+03 -0.19644353819E+03  0.39776355590E+03  0.12699999809E+01 0.  1.
</event>
<event>
 5   0  0.1884172E-02  0.7709320E+03  0.7818609E-02  0.9603072E-01
       -1   -1    0    0    0  501  0.00000000000E+00  0.00000000000E+00  0.18103758879E+03  0.18103758886E+03  0.50400001928E-02 0. -1.
        1   -1    0    0  501    0  0.00000000000E+00  0.00000000000E+00 -0.82073583482E+03  0.82073583483E+03  0.50400001928E-02 0.  1.
    10030    2    1    2    0    0  0.00000000000E+00  0.00000000000E+00 -0.63969824603E+03  0.10017734237E+04  0.77093199860E+03 0.  0.
        3    1    3    3  502    0  0.29595987191E+03  0.24107043399E+03 -0.38954551047E+03  0.54539244115E+03  0.10100000352E+00 0. -1.
       -3    1    3    3    0  502 -0.29595987191E+03 -0.24107043399E+03 -0.25015273555E+03  0.45638098255E+03  0.10100000352E+00 0.  1.
</event>
<event>
 5   0  0.1951465E-02  0.6977317E+03  0.7818609E-02  0.9721119E-01
        1   -1    0    0  501    0  0.00000000000E+00  0.00000000000E+00  0.40787707295E+03  0.40787707298E+03  0.50400001928E-02 0.  1.
       -1   -1    0    0    0  501  0.00000000000E+00  0.00000000000E+00 -0.29839229081E+03  0.29839229085E+03  0.50400001928E-02 0. -1.
    10030    2    1    2    0    0  0.00000000000E+00  0.00000000000E+00  0.10948478214E+03  0.70626936383E+03  0.69773167964E+03 0.  0.
        4    1    3    3  502    0  0.15454888309E+03  0.19617422904E+03  0.30131301651E+03  0.39135767811E+03  0.12699999809E+01 0.  1.
       -4    1    3    3    0  502 -0.15454888309E+03 -0.19617422904E+03 -0.19182823436E+03  0.31491168572E+03  0.12699999809E+01 0. -1.
</event>
<event>
 5   0  0.2933851E-02  0.7084662E+03  0.7818609E-02  0.9702862E-01
        2   -1    0    0  501    0  0.00000000000E+00  0.00000000000E+00  0.14125677487E+03  0.14125677490E+03  0.25500000920E-02 0. -1.
       -2   -1    0    0    0  501  0.00000000000E+00  0.00000000000E+00 -0.88831910945E+03  0.88831910945E+03  0.25500000920E-02 0.  1.
    10030    2    1    2    0    0  0.00000000000E+00  0.00000000000E+00 -0.74706233458E+03  0.10295758844E+04  0.70846620942E+03 0.  0.
        2    1    3    3  502    0 -0.19566565779E+03  0.19976231727E+03 -0.68956148081E+03  0.74410017395E+03  0.25500000920E-02 0.  1.
       -2    1    3    3    0  502  0.19566565779E+03 -0.19976231727E+03 -0.57500853761E+02  0.28547571040E+03  0.25500000920E-02 0. -1.
</event>
<event>
 5   0  0.3113940E-02  0.6999883E+03  0.7818609E-02  0.9717252E-01
        2   -1    0    0  501    0  0.00000000000E+00  0.00000000000E+00  0.47148956806E+03  0.47148956807E+03  0.25500000920E-02 0.  1.
       -2   -1    0    0    0  501  0.00000000000E+00  0.00000000000E+00 -0.25980619673E+03  0.25980619674E+03  0.25500000920E-02 0. -1.
    10030    2    1    2    0    0  0.00000000000E+00  0.00000000000E+00  0.21168337133E+03  0.73129576481E+03  0.69998831842E+03 0.  0.
        5    1    3    3  502    0 -0.26133999855E+03  0.35468996008E+02 -0.13448422656E+03  0.29608232252E+03  0.46999998093E+01 0. -1.
       -5    1    3    3    0  502  0.26133999855E+03 -0.35468996008E+02  0.34616759789E+03  0.43521344229E+03  0.46999998093E+01 0.  1.
</event>
<event>
 5   0  0.3184443E-02  0.6975312E+03  0.7818609E-02  0.9721463E-01
        2   -1    0    0  501    0  0.00000000000E+00  0.00000000000E+00  0.12213689728E+04  0.12213689728E+04  0.25500000920E-02 0. -1.
       -2   -1    0    0    0  501  0.00000000000E+00  0.00000000000E+00 -0.99591074460E+02  0.99591074493E+02  0.25500000920E-02 0.  1.
    10030    2    1    2    0    0  0.00000000000E+00  0.00000000000E+00  0.11217778984E+04  0.13209600473E+04  0.69753121318E+03 0.  0.
        3    1    3    3  502    0 -0.17520830608E+03 -0.21521464027E+03  0.96092696440E+03  0.10001979469E+04  0.10100000352E+00 0. -1.
       -3    1    3    3    0  502  0.17520830608E+03  0.21521464027E+03  0.16085093398E+03  0.32076210042E+03  0.10100000352E+00 0.  1.
</event>
<event>
 5   0  0.3113940E-02  0.7064489E+03  0.7818609E-02  0.9706267E-01
        2   -1    0    0  501    0  0.00000000000E+00  0.00000000000E+00  0.89938650074E+03  0.89938650074E+03  0.25500000920E-02 0.  1.
       -2   -1    0    0    0  501  0.00000000000E+00  0.00000000000E+00 -0.13872512989E+03  0.13872512991E+03  0.25500000920E-02 0. -1.
    10030    2    1    2    0    0  0.00000000000E+00  0.00000000000E+00  0.76066137085E+03  0.10381116307E+04  0.70644889171E+03 0.  0.
        5    1    3    3  502    0 -0.12070763982E+03 -0.25198505386E+03  0.69781501992E+03  0.75168789648E+03  0.46999998093E+01 0.  1.
       -5    1    3    3    0  502  0.12070763982E+03  0.25198505386E+03  0.62846350924E+02  0.28642373418E+03  0.46999998093E+01 0. -1.
</event>
<event>
 5   0  0.1951465E-02  0.6957458E+03  0.7818609E-02  0.9724535E-01
       -1   -1    0    0    0  501  0.00000000000E+00  0.00000000000E+00  0.71176869093E+03  0.71176869095E+03  0.50400001928E-02 0.  1.
        1   -1    0    0  501    0  0.00000000000E+00  0.00000000000E+00 -0.17002089565E+03  0.17002089573E+03  0.50400001928E-02 0. -1.
    10030    2    1    2    0    0  0.00000000000E+00  0.00000000000E+00  0.54174779527E+03  0.88178958668E+03  0.69574578797E+03 0.  0.
        4    1    3    3  502    0  0.45331603977E+02 -0.75704923029E+02  0.69734618394E+03  0.70290789073E+03  0.12699999809E+01 0.  1.
       -4    1    3    3    0  502 -0.45331603977E+02  0.75704923029E+02 -0.15559838867E+03  0.17888169595E+03  0.12699999809E+01 0. -1.
</event>
<event>
 5   0  0.1884172E-02  0.7035408E+03  0.7818609E-02  0.9711196E-01
       -1   -1    0    0    0  501  0.00000000000E+00  0.00000000000E+00  0.26076817125E+03  0.26076817130E+03  0.50400001928E-02 0.  1.
        1   -1    0    0  501    0  0.00000000000E+00  0.00000000000E+00 -0.47453038002E+03  0.47453038005E+03  0.50400001928E-02 0. -1.
    10030    2    1    2    0    0  0.00000000000E+00  0.00000000000E+00 -0.21376220877E+03  0.73529855134E+03  0.70354081453E+03 0.  0.
        3    1    3    3  502    0  0.18500757064E+03  0.24396830979E+03 -0.28788675250E+03  0.42027030569E+03  0.10100000352E+00 0. -1.
       -3    1    3    3    0  502 -0.18500757064E+03 -0.24396830979E+03  0.74124543731E+02  0.31502824566E+03  0.10100000352E+00 0.  1.
</event>
<event>
 5   0  0.1884172E-02  0.6843138E+03  0.7818609E-02  0.9744440E-01
       -1   -1    0    0    0  501  0.00000000000E+00  0.00000000000E+00  0.48976611697E+02  0.48976611956E+02  0.50400001928E-02 0.  1.
        1   -1    0    0  501    0  0.00000000000E+00  0.00000000000E+00 -0.23903520732E+04  0.23903520732E+04  0.50400001928E-02 0. -1.
    10030    2    1    2    0    0  0.00000000000E+00  0.00000000000E+00 -0.23413754615E+04  0.24393286852E+04  0.68431380413E+03 0.  0.
        3    1    3    3  502    0  0.64530778894E+02  0.24497250089E+03 -0.35085595713E+03  0.43275357939E+03  0.10100000352E+00 0.  1.
       -3    1    3    3    0  502 -0.64530778894E+02 -0.24497250089E+03 -0.19905195044E+04  0.20065751058E+04  0.10100000352E+00 0. -1.
</event>
<event>
 5   0  0.1839038E-02  0.6857885E+03  0.7818609E-02  0.9741849E-01
       -1   -1    0    0    0  501  0.00000000000E+00  0.00000000000E+00  0.22362111841E+03  0.22362111846E+03  0.50400001928E-02 0. -1.
        1   -1    0    0  501    0  0.00000000000E+00  0.00000000000E+00 -0.52578429335E+03  0.52578429337E+03  0.50400001928E-02 0.  1.
    10030    2    1    2    0    0  0.00000000000E+00  0.00000000000E+00 -0.30216317494E+03  0.74940541183E+03  0.68578851477E+03 0.  0.
        5    1    3    3  502    0 -0.92394442420E+02 -0.18708746670E+03  0.14621451351E+03  0.25483176243E+03  0.46999998093E+01 0. -1.
       -5    1    3    3    0  502  0.92394442420E+02  0.18708746670E+03 -0.44837768845E+03  0.49457364940E+03  0.46999998093E+01 0.  1.
</event>
<event>
 5   0  0.2933851E-02  0.7044803E+03  0.7818609E-02  0.9709601E-01
       -2   -1    0    0    0  501  0.00000000000E+00  0.00000000000E+00  0.12046293458E+03  0.12046293461E+03  0.25500000920E-02 0. -1.
        2   -1    0    0  501    0  0.00000000000E+00  0.00000000000E+00 -0.10299693464E+04  0.10299693464E+04  0.25500000920E-02 0.  1.
    10030    2    1    2    0    0  0.00000000000E+00  0.00000000000E+00 -0.90950641183E+03  0.11504322810E+04  0.70448031914E+03 0.  0.
        2    1    3    3  502    0  0.35039281607E+03  0.21923198761E+02 -0.50144102804E+03  0.61212650393E+03  0.25500000920E-02 0. -1.
       -2    1    3    3    0  502 -0.35039281607E+03 -0.21923198761E+02 -0.40806538379E+03  0.53830577709E+03  0.25500000920E-02 0.  1.
</event>
<event>
 5   0  0.3184443E-02  0.6899902E+03  0.7818609E-02  0.9734505E-01
       -2   -1    0    0    0  501  0.00000000000E+00  0.00000000000E+00  0.90274993285E+03  0.90274993285E+03  0.25500000920E-02 0.  1.
        2   -1    0    0  501    0  0.00000000000E+00  0.00000000000E+00 -0.13184341190E+03  0.13184341192E+03  0.25500000920E-02 0. -1.
    10030    2    1    2    0    0  0.00000000000E+00  0.00000000000E+00  0.77090652095E+03  0.10345933448E+04  0.68999023544E+03 0.  0.
        3    1    3    3  502    0 -0.31058080937E+03  0.11573279323E+03  0.52901634432E+03  0.62426983055E+03  0.10100000352E+00 0.  1.
       -3    1    3    3    0  502  0.31058080937E+03 -0.11573279323E+03  0.24189017663E+03  0.41032351422E+03  0.10100000352E+00 0. -1.
</event>
<event>
 5   0  0.3184443E-02  0.7457747E+03  0.7818609E-02  0.9642003E-01
       -2   -1    0    0    0  501  0.00000000000E+00  0.00000000000E+00  0.48760620527E+03  0.48760620527E+03  0.25500000920E-02 0.  1.
        2   -1    0    0  501    0  0.00000000000E+00  0.00000000000E+00 -0.28515836584E+03  0.28515836585E+03  0.25500000920E-02 0. -1.
    10030    2    1    2    0    0  0.00000000000E+00  0.00000000000E+00  0.20244783943E+03  0.77276457112E+03  0.74577473455E+03 0.  0.
        3    1    3    3  502    0  0.68344163082E+02 -0.20447353456E+02 -0.27802168524E+03  0.28702802399E+03  0.10100000352E+00 0. -1.
       -3    1    3    3    0  502 -0.68344163082E+02  0.20447353456E+02  0.48046952467E+03  0.48573654714E+03  0.10100000352E+00 0.  1.
</event>
<event>
 5   0  0.1858013E-02  0.7074297E+03  0.7818609E-02  0.9704610E-01
       -1   -1    0    0    0  501  0.00000000000E+00  0.00000000000E+00  0.54572112427E+03  0.54572112429E+03  0.50400001928E-02 0. -1.
        1   -1    0    0  501    0  0.00000000000E+00  0.00000000000E+00 -0.22926399361E+03  0.22926399367E+03  0.50400001928E-02 0.  1.
    10030    2    1    2    0    0  0.00000000000E+00  0.00000000000E+00  0.31645713065E+03  0.77498511796E+03  0.70742972620E+03 0.  0.
        2    1    3    3  502    0  0.35323326186E+03 -0.26215219352E+01  0.13821983022E+03  0.37932219963E+03  0.25500000920E-02 0. -1.
       -2    1    3    3    0  502 -0.35323326186E+03  0.26215219352E+01  0.17823730044E+03  0.39566291832E+03  0.25500000920E-02 0.  1.
</event>
<event>
 5   0  0.3183963E-02  0.6998209E+03  0.7818609E-02  0.9717538E-01
        2   -1    0    0  501    0  0.00000000000E+00  0.00000000000E+00  0.88111555400E+03  0.88111555400E+03  0.25500000920E-02 0. -1.
       -2   -1    0    0    0  501  0.00000000000E+00  0.00000000000E+00 -0.13895717994E+03  0.13895717996E+03  0.25500000920E-02 0.  1.
    10030    2    1    2    0    0  0.00000000000E+00  0.00000000000E+00  0.74215837406E+03  0.10200727340E+04  0.69982092737E+03 0.  0.
        4    1    3    3  502    0  0.10663624881E+03  0.14201035898E+03  0.81053999992E+03  0.82976800130E+03  0.12699999809E+01 0. -1.
       -4    1    3    3    0  502 -0.10663624881E+03 -0.14201035898E+03 -0.68381625857E+02  0.19030473266E+03  0.12699999809E+01 0.  1.
</event>
<event>
 5   0  0.3184443E-02  0.6923282E+03  0.7818609E-02  0.9730443E-01
       -2   -1    0    0    0  501  0.00000000000E+00  0.00000000000E+00  0.13412074696E+03  0.13412074698E+03  0.25500000920E-02 0. -1.
        2   -1    0    0  501    0  0.00000000000E+00  0.00000000000E+00 -0.89344553157E+03  0.89344553158E+03  0.25500000920E-02 0.  1.
    10030    2    1    2    0    0  0.00000000000E+00  0.00000000000E+00 -0.75932478462E+03  0.10275662786E+04  0.69232819407E+03 0.  0.
        3    1    3    3  502    0  0.13962467403E+03 -0.92167595141E+02 -0.82945566067E+03  0.84615992484E+03  0.10100000352E+00 0.  1.
       -3    1    3    3    0  502 -0.13962467403E+03  0.92167595141E+02  0.70130876051E+02  0.18140635372E+03  0.10100000352E+00 0. -1.
</event>
<event>
 5   0  0.3184443E-02  0.7019063E+03  0.7818609E-02  0.9713978E-01
        2   -1    0    0  501    0  0.00000000000E+00  0.00000000000E+00  0.78182273048E+03  0.78182273049E+03  0.25500000920E-02 0.  1.
       -2   -1    0    0    0  501  0.00000000000E+00  0.00000000000E+00 -0.15753969047E+03  0.15753969049E+03  0.25500000920E-02 0. -1.
    10030    2    1    2    0    0  0.00000000000E+00  0.00000000000E+00  0.62428304001E+03  0.93936242097E+03  0.70190629281E+03 0.  0.
        3    1    3    3  502    0  0.14789224088E+03  0.29777442935E+03  0.16176037421E+03  0.36974065851E+03  0.10100000352E+00 0. -1.
       -3    1    3    3    0  502 -0.14789224088E+03 -0.29777442935E+03  0.46252266581E+03  0.56962176247E+03  0.10100000352E+00 0.  1.
</event>
<event>
 5   0  0.1233912E-02  0.6944009E+03  0.7818609E-02  0.9726856E-01
       -3   -1    0    0    0  501  0.00000000000E+00  0.00000000000E+00  0.15580334622E+03  0.15580337895E+03  0.10100000352E+00 0.  1.
        3   -1    0    0  501    0  0.00000000000E+00  0.00000000000E+00 -0.77371986697E+03  0.77371987356E+03  0.10100000352E+00 0. -1.
    10030    2    1    2    0    0  0.00000000000E+00  0.00000000000E+00 -0.61791652075E+03  0.92952325251E+03  0.69440092911E+03 0.  0.
        3    1    3    3  502    0  0.23522905486E+03  0.16972082091E+03 -0.53534075150E+02  0.29496401934E+03  0.10100000352E+00 0.  1.
       -3    1    3    3    0  502 -0.23522905486E+03 -0.16972082091E+03 -0.56438244560E+03  0.63455923317E+03  0.10100000352E+00 0. -1.
</event>
<event>
 5   0  0.3184443E-02  0.6928624E+03  0.7818609E-02  0.9729517E-01
       -2   -1    0    0    0  501  0.00000000000E+00  0.00000000000E+00  0.84116276350E+02  0.84116276388E+02  0.25500000920E-02 0.  1.
        2   -1    0    0  501    0  0.00000000000E+00  0.00000000000E+00 -0.14267698827E+04  0.14267698827E+04  0.25500000920E-02 0. -1.
    10030    2    1    2    0    0  0.00000000000E+00  0.00000000000E+00 -0.13426536064E+04  0.15108861591E+04  0.69286238107E+03 0.  0.
        3    1    3    3  502    0  0.26827606582E+03 -0.15345782751E+03 -0.33004935604E+03  0.45216583235E+03  0.10100000352E+00 0.  1.
       -3    1    3    3    0  502 -0.26827606582E+03  0.15345782751E+03 -0.10126042503E+04  0.10587203268E+04  0.10100000352E+00 0. -1.
</event>
<event>
 5   0  0.3113940E-02  0.7085583E+03  0.7818609E-02  0.9702707E-01
       -2   -1    0    0    0  501  0.00000000000E+00  0.00000000000E+00  0.49183424310E+03  0.49183424311E+03  0.25500000920E-02 0.  1.
        2   -1    0    0  501    0  0.00000000000E+00  0.00000000000E+00 -0.25519519083E+03  0.25519519085E+03  0.25500000920E-02 0. -1.
    10030    2    1    2    0    0  0.00000000000E+00  0.00000000000E+00  0.23663905227E+03  0.74702943396E+03  0.70855834914E+03 0.  0.
        5    1    3    3  502    0 -0.12048874070E+03  0.11298997812E+03  0.44871503738E+03  0.47817522579E+03  0.46999998093E+01 0.  1.
       -5    1    3    3    0  502  0.12048874070E+03 -0.11298997812E+03 -0.21207598511E+03  0.26885420817E+03  0.46999998093E+01 0. -1.
</event>
<event>
 5   0  0.1884172E-02  0.7145669E+03  0.7818609E-02  0.9692640E-01
        1   -1    0    0  501    0  0.00000000000E+00  0.00000000000E+00  0.12658082598E+04  0.12658082598E+04  0.50400001928E-02 0. -1.
       -1   -1    0    0    0  501  0.00000000000E+00  0.00000000000E+00 -0.10084581316E+03  0.10084581328E+03  0.50400001928E-02 0.  1.
    10030    2    1    2    0    0  0.00000000000E+00  0.00000000000E+00  0.11649624467E+04  0.13666540731E+04  0.71456689920E+03 0.  0.
        3    1    3    3  502    0  0.10326398772E+03  0.14297971398E+02  0.12360729996E+04  0.12404613472E+04  0.10100000352E+00 0. -1.
       -3    1    3    3    0  502 -0.10326398772E+03 -0.14297971398E+02 -0.71110552962E+02  0.12619272598E+03  0.10100000352E+00 0.  1.
</event>
<event>
 5   0  0.1233912E-02  0.7035031E+03  0.7818609E-02  0.9711260E-01
        3   -1    0    0  501    0  0.00000000000E+00  0.00000000000E+00  0.14490915649E+04  0.14490915684E+04  0.10100000352E+00 0. -1.
       -3   -1    0    0    0  501  0.00000000000E+00  0.00000000000E+00 -0.85383913798E+02  0.85383973534E+02  0.10100000352E+00 0.  1.
    10030    2    1    2    0    0  0.00000000000E+00  0.00000000000E+00  0.13637076511E+04  0.15344755420E+04  0.70350311384E+03 0.  0.
        1    1    3    3  502    0 -0.86869919161E+02  0.33827598761E+03  0.77315518581E+03  0.84837843444E+03  0.50400001928E-02 0. -1.
       -1    1    3    3    0  502  0.86869919161E+02 -0.33827598761E+03  0.59055246529E+03  0.68609710751E+03  0.50400001928E-02 0.  1.
</event>
<event>
 5   0  0.1858013E-02  0.6982536E+03  0.7818609E-02  0.9720223E-01
        1   -1    0    0  501    0  0.00000000000E+00  0.00000000000E+00  0.16916528372E+04  0.16916528372E+04  0.50400001928E-02 0. -1.
       -1   -1    0    0    0  501  0.00000000000E+00  0.00000000000E+00 -0.72053517982E+02  0.72053518158E+02  0.50400001928E-02 0.  1.
    10030    2    1    2    0    0  0.00000000000E+00  0.00000000000E+00  0.16195993192E+04  0.17637063553E+04  0.69825364527E+03 0.  0.
        2    1    3    3  502    0  0.57366032780E+02 -0.27550816166E+03  0.13317102772E+04  0.13611200796E+04  0.25500000920E-02 0. -1.
       -2    1    3    3    0  502 -0.57366032780E+02  0.27550816166E+03  0.28788904201E+03  0.40258627569E+03  0.25500000920E-02 0.  1.
</event>
<event>
 5   0  0.1951465E-02  0.6835212E+03  0.7818609E-02  0.9745836E-01
       -1   -1    0    0    0  501  0.00000000000E+00  0.00000000000E+00  0.20987578864E+03  0.20987578870E+03  0.50400001928E-02 0.  1.
        1   -1    0    0  501    0  0.00000000000E+00  0.00000000000E+00 -0.55652105497E+03  0.55652105499E+03  0.50400001928E-02 0. -1.
    10030    2    1    2    0    0  0.00000000000E+00  0.00000000000E+00 -0.34664526633E+03  0.76639684369E+03  0.68352116379E+03 0.  0.
        4    1    3    3  502    0  0.17589412500E+03 -0.23466078954E+03 -0.37008252661E+03  0.47219394189E+03  0.12699999809E+01 0.  1.
       -4    1    3    3    0  502 -0.17589412500E+03  0.23466078954E+03  0.23437260288E+02  0.29420290180E+03  0.12699999809E+01 0. -1.
</event>
<event>
 5   0  0.3184443E-02  0.6873069E+03  0.7818609E-02  0.9739189E-01
       -2   -1    0    0    0  501  0.00000000000E+00  0.00000000000E+00  0.12798751589E+04  0.12798751589E+04  0.25500000920E-02 0.  1.
        2   -1    0    0  501    0  0.00000000000E+00  0.00000000000E+00 -0.92272834305E+02  0.92272834340E+02  0.25500000920E-02 0. -1.
    10030    2    1    2    0    0  0.00000000000E+00  0.00000000000E+00  0.11876023246E+04  0.13721479932E+04  0.68730694305E+03 0.  0.
        3    1    3    3  502    0  0.28792380968E+03  0.11961536119E+03  0.88234830436E+03  0.93581328011E+03  0.10100000352E+00 0.  1.
       -3    1    3    3    0  502 -0.28792380968E+03 -0.11961536119E+03  0.30525402021E+03  0.43633471312E+03  0.10100000352E+00 0. -1.
</event>
<event>
 5   0  0.3184443E-02  0.7057640E+03  0.7818609E-02  0.9707425E-01
        2   -1    0    0  501    0  0.00000000000E+00  0.00000000000E+00  0.15362278554E+03  0.15362278556E+03  0.25500000920E-02 0.  1.
       -2   -1    0    0    0  501  0.00000000000E+00  0.00000000000E+00 -0.81059392769E+03  0.81059392770E+03  0.25500000920E-02 0. -1.
    10030    2    1    2    0    0  0.00000000000E+00  0.00000000000E+00 -0.65697114215E+03  0.96421671326E+03  0.70576397507E+03 0.  0.
        3    1    3    3  502    0 -0.19434178280E+02  0.35114336006E+03 -0.36823104551E+03  0.50918902156E+03  0.10100000352E+00 0. -1.
       -3    1    3    3    0  502  0.19434178280E+02 -0.35114336006E+03 -0.28874009664E+03  0.45502769170E+03  0.10100000352E+00 0.  1.
</event>
<event>
 5   0  0.3290656E-02  0.7039014E+03  0.7818609E-02  0.9710583E-01
       -2   -1    0    0    0  501  0.00000000000E+00  0.00000000000E+00  0.87868048116E+02  0.87868048153E+02  0.25500000920E-02 0. -1.
        2   -1    0    0  501    0  0.00000000000E+00  0.00000000000E+00 -0.14097193479E+04  0.14097193479E+04  0.25500000920E-02 0.  1.
    10030    2    1    2    0    0  0.00000000000E+00  0.00000000000E+00 -0.13218512998E+04  0.14975873961E+04  0.70390137811E+03 0.  0.
        1    1    3    3  502    0 -0.27754405154E+01 -0.56621446399E+02  0.78090783609E+02  0.96497988437E+02  0.50400001928E-02 0. -1.
       -1    1    3    3    0  502  0.27754405154E+01  0.56621446399E+02 -0.13999420834E+04  0.14010894077E+04  0.50400001928E-02 0.  1.
</event>
<event>
 5   0  0.1969818E-02  0.7229883E+03  0.7818609E-02  0.9678707E-01
       -1   -1    0    0    0  501  0.00000000000E+00  0.00000000000E+00  0.21201542485E+03  0.21201542491E+03  0.50400001928E-02 0. -1.
        1   -1    0    0  501    0  0.00000000000E+00  0.00000000000E+00 -0.61636093449E+03  0.61636093451E+03  0.50400001928E-02 0.  1.
    10030    2    1    2    0    0  0.00000000000E+00  0.00000000000E+00 -0.40434550964E+03  0.82837635943E+03  0.72298831366E+03 0.  0.
        1    1    3    3  502    0 -0.73282753854E+02 -0.27893196403E+03 -0.45189909702E+03  0.53608413191E+03  0.50400001928E-02 0.  1.
       -1    1    3    3    0  502  0.73282753854E+02  0.27893196403E+03  0.47553587382E+02  0.29229222752E+03  0.50400001928E-02 0. -1.
</event>
<event>
 5   0  0.2933851E-02  0.6922119E+03  0.7818609E-02  0.9730644E-01
       -2   -1    0    0    0  501  0.00000000000E+00  0.00000000000E+00  0.55272470614E+03  0.55272470615E+03  0.25500000920E-02 0.  1.
        2   -1    0    0  501    0  0.00000000000E+00  0.00000000000E+00 -0.21672513746E+03  0.21672513748E+03  0.25500000920E-02 0. -1.
    10030    2    1    2    0    0  0.00000000000E+00  0.00000000000E+00  0.33599956868E+03  0.76944984362E+03  0.69221192687E+03 0.  0.
        2    1    3    3  502    0 -0.20824946557E+03  0.55105460852E+02  0.46912321546E+03  0.51621801888E+03  0.25500000920E-02 0.  1.
       -2    1    3    3    0  502  0.20824946557E+03 -0.55105460852E+02 -0.13312364678E+03  0.25323182475E+03  0.25500000920E-02 0. -1.
</event>
<event>
 5   0  0.3184443E-02  0.6927945E+03  0.7818609E-02  0.9729635E-01
        2   -1    0    0  501    0  0.00000000000E+00  0.00000000000E+00  0.90506894489E+03  0.90506894489E+03  0.25500000920E-02 0.  1.
       -2   -1    0    0    0  501  0.00000000000E+00  0.00000000000E+00 -0.13257669064E+03  0.13257669067E+03  0.25500000920E-02 0. -1.
    10030    2    1    2    0    0  0.00000000000E+00  0.00000000000E+00  0.77249225425E+03  0.10376456356E+04  0.69279447322E+03 0.  0.
        3    1    3    3  502    0  0.10220825173E+03 -0.58068741272E+02 -0.10178860677E+03  0.15549738295E+03  0.10100000352E+00 0. -1.
       -3    1    3    3    0  502 -0.10220825173E+03  0.58068741272E+02  0.87428086102E+03  0.88214825261E+03  0.10100000352E+00 0.  1.
</event>
<event>
 5   0  0.1969818E-02  0.6885214E+03  0.7818609E-02  0.9737066E-01
       -1   -1    0    0    0  501  0.00000000000E+00  0.00000000000E+00  0.46931303543E+03  0.46931303545E+03  0.50400001928E-02 0.  1.
        1   -1    0    0  501    0  0.00000000000E+00  0.00000000000E+00 -0.25252959054E+03  0.25252959059E+03  0.50400001928E-02 0. -1.
    10030    2    1    2    0    0  0.00000000000E+00  0.00000000000E+00  0.21678344488E+03  0.72184262604E+03  0.68852139749E+03 0.  0.
        1    1    3    3  502    0 -0.10002764058E+03 -0.48040788814E+00  0.45374159661E+03  0.46463662812E+03  0.50400001928E-02 0.  1.
       -1    1    3    3    0  502  0.10002764058E+03  0.48040788814E+00 -0.23695815173E+03  0.25720599792E+03  0.50400001928E-02 0. -1.
</event>
<event>
 5   0  0.3183963E-02  0.6940416E+03  0.7818609E-02  0.9727476E-01
       -2   -1    0    0    0  501  0.00000000000E+00  0.00000000000E+00  0.10317149504E+03  0.10317149507E+03  0.25500000920E-02 0.  1.
        2   -1    0    0  501    0  0.00000000000E+00  0.00000000000E+00 -0.11672160786E+04  0.11672160786E+04  0.25500000920E-02 0. -1.
    10030    2    1    2    0    0  0.00000000000E+00  0.00000000000E+00 -0.10640445835E+04  0.12703875737E+04  0.69404157767E+03 0.  0.
        4    1    3    3  502    0  0.11793747688E+03 -0.29693463944E+03 -0.77992351406E+03  0.84282959679E+03  0.12699999809E+01 0. -1.
       -4    1    3    3    0  502 -0.11793747688E+03  0.29693463944E+03 -0.28412106948E+03  0.42755797686E+03  0.12699999809E+01 0.  1.
</event>
<event>
 5   0  0.1839038E-02  0.6970848E+03  0.7818609E-02  0.9722231E-01
        1   -1    0    0  501    0  0.00000000000E+00  0.00000000000E+00  0.63302291383E+03  0.63302291385E+03  0.50400001928E-02 0.  1.
       -1   -1    0    0    0  501  0.00000000000E+00  0.00000000000E+00 -0.19190745546E+03  0.19190745553E+03  0.50400001928E-02 0. -1.
    10030    2    1    2    0    0  0.00000000000E+00  0.00000000000E+00  0.44111545837E+03  0.82493036938E+03  0.69708483466E+03 0.  0.
        5    1    3    3  502    0 -0.18233823981E+03 -0.28797509723E+03  0.30657095522E+03  0.45845908313E+03  0.46999998093E+01 0.  1.
       -5    1    3    3    0  502  0.18233823981E+03  0.28797509723E+03  0.13454450316E+03  0.36647128626E+03  0.46999998093E+01 0. -1.
</event>
<event>
 5   0  0.3113940E-02  0.7027091E+03  0.7818609E-02  0.9712610E-01
        2   -1    0    0  501    0  0.00000000000E+00  0.00000000000E+00  0.16931349289E+04  0.16931349289E+04  0.25500000920E-02 0. -1.
       -2   -1    0    0    0  501  0.00000000000E+00  0.00000000000E+00 -0.72912093741E+02  0.72912093785E+02  0.25500000920E-02 0.  1.
    10030    2    1    2    0    0  0.00000000000E+00  0.00000000000E+00  0.16202228351E+04  0.17660470227E+04  0.70270907975E+03 0.  0.
        5    1    3    3  502    0 -0.13014125830E+03  0.10363685954E+03  0.32437743363E+02  0.16956309433E+03  0.46999998093E+01 0.  1.
       -5    1    3    3    0  502  0.13014125830E+03 -0.10363685954E+03  0.15877850918E+04  0.15964839283E+04  0.46999998093E+01 0. -1.
</event>
<event>
 5   0  0.2933851E-02  0.6975820E+03  0.7818609E-02  0.9721376E-01
       -2   -1    0    0    0  501  0.00000000000E+00  0.00000000000E+00  0.39727082757E+03  0.39727082758E+03  0.25500000920E-02 0.  1.
        2   -1    0    0  501    0  0.00000000000E+00  0.00000000000E+00 -0.30622726907E+03  0.30622726908E+03  0.25500000920E-02 0. -1.
    10030    2    1    2    0    0  0.00000000000E+00  0.00000000000E+00  0.91043558496E+02  0.70349809666E+03  0.69758199694E+03 0.  0.
        2    1    3    3  502    0 -0.33248014032E+03  0.74730261289E+02 -0.29455941298E+02  0.34204576908E+03  0.25500000920E-02 0. -1.
       -2    1    3    3    0  502  0.33248014032E+03 -0.74730261289E+02  0.12049949979E+03  0.36145232758E+03  0.25500000920E-02 0.  1.
</event>
<event>
 5   0  0.3184443E-02  0.6962753E+03  0.7818609E-02  0.9723623E-01
        2   -1    0    0  501    0  0.00000000000E+00  0.00000000000E+00  0.71494567815E+03  0.71494567815E+03  0.25500000920E-02 0. -1.
       -2   -1    0    0    0  501  0.00000000000E+00  0.00000000000E+00 -0.16952310861E+03  0.16952310863E+03  0.25500000920E-02 0.  1.
    10030    2    1    2    0    0  0.00000000000E+00  0.00000000000E+00  0.54542256954E+03  0.88446878678E+03  0.69627527274E+03 0.  0.
        3    1    3    3  502    0 -0.34521162354E+03 -0.10161659015E+02  0.21697077094E+03  0.40786106701E+03  0.10100000352E+00 0.  1.
       -3    1    3    3    0  502  0.34521162354E+03  0.10161659015E+02  0.32845179860E+03  0.47660771977E+03  0.10100000352E+00 0. -1.
</event>
<event>
 5   0  0.3184443E-02  0.6913008E+03  0.7818609E-02  0.9732226E-01
        2   -1    0    0  501    0  0.00000000000E+00  0.00000000000E+00  0.13653512949E+04  0.13653512949E+04  0.25500000920E-02 0.  1.
       -2   -1    0    0    0  501  0.00000000000E+00  0.00000000000E+00 -0.87504365883E+02  0.87504365920E+02  0.25500000920E-02 0. -1.
    10030    2    1    2    0    0  0.00000000000E+00  0.00000000000E+00  0.12778469290E+04  0.14528556609E+04  0.69130080081E+03 0.  0.
        3    1    3    3  502    0  0.12921752296E+02  0.26653602455E+03  0.17720737679E+03  0.32032934404E+03  0.10100000352E+00 0. -1.
       -3    1    3    3    0  502 -0.12921752296E+02 -0.26653602455E+03  0.11006395523E+04  0.11325263168E+04  0.10100000352E+00 0.  1.
</event>
<event>
 5   0  0.2933851E-02  0.6992323E+03  0.7818609E-02  0.9718546E-01
        2   -1    0    0  501    0  0.00000000000E+00  0.00000000000E+00  0.30876946455E+03  0.30876946456E+03  0.25500000920E-02 0. -1.
       -2   -1    0    0    0  501  0.00000000000E+00  0.00000000000E+00 -0.39586635864E+03  0.39586635865E+03  0.25500000920E-02 0.  1.
    10030    2    1    2    0    0  0.00000000000E+00  0.00000000000E+00 -0.87096894087E+02  0.70463582321E+03  0.69923227500E+03 0.  0.
        2    1    3    3  502    0  0.62746910488E+02  0.33597804525E+03  0.30593356408E+02  0.34315357367E+03  0.25500000920E-02 0. -1.
       -2    1    3    3    0  502 -0.62746910488E+02 -0.33597804525E+03 -0.11769025050E+03  0.36148224954E+03  0.25500000920E-02 0.  1.
</event>
<event>
 5   0  0.3184443E-02  0.6485022E+03  0.7818609E-02  0.9809594E-01
       -2   -1    0    0    0  501  0.00000000000E+00  0.00000000000E+00  0.84210425988E+03  0.84210425988E+03  0.25500000920E-02 0. -1.
        2   -1    0    0  501    0  0.00000000000E+00  0.00000000000E+00 -0.12485245441E+03  0.12485245444E+03  0.25500000920E-02 0.  1.
    10030    2    1    2    0    0  0.00000000000E+00  0.00000000000E+00  0.71725180546E+03  0.96695671432E+03  0.64850222430E+03 0.  0.
        3    1    3    3  502    0 -0.19862766798E+03 -0.24484226517E+03  0.47157406632E+03  0.56725901979E+03  0.10100000352E+00 0. -1.
       -3    1    3    3    0  502  0.19862766798E+03  0.24484226517E+03  0.24567773914E+03  0.39969769453E+03  0.10100000352E+00 0.  1.
</event>
<event>
 5   0  0.1233912E-02  0.6967988E+03  0.7818609E-02  0.9722722E-01
        3   -1    0    0  501    0  0.00000000000E+00  0.00000000000E+00  0.52930041165E+03  0.52930042129E+03  0.10100000352E+00 0.  1.
       -3   -1    0    0    0  501  0.00000000000E+00  0.00000000000E+00 -0.22932561245E+03  0.22932563470E+03  0.10100000352E+00 0. -1.
    10030    2    1    2    0    0  0.00000000000E+00  0.00000000000E+00  0.29997479920E+03  0.75862605598E+03  0.69679883228E+03 0.  0.
        1    1    3    3  502    0 -0.11968931818E+03  0.19230955852E+03 -0.13821508656E+03  0.26535242483E+03  0.50400001928E-02 0. -1.
       -1    1    3    3    0  502  0.11968931818E+03 -0.19230955852E+03  0.43818988576E+03  0.49327363115E+03  0.50400001928E-02 0.  1.
</event>
<event>
 5   0  0.1839038E-02  0.7045584E+03  0.7818609E-02  0.9709468E-01
        1   -1    0    0  501    0  0.00000000000E+00  0.00000000000E+00  0.17445881958E+03  0.17445881965E+03  0.50400001928E-02 0. -1.
       -1   -1    0    0    0  501  0.00000000000E+00  0.00000000000E+00 -0.71134639060E+03  0.71134639062E+03  0.50400001928E-02 0.  1.
    10030    2    1    2    0    0  0.00000000000E+00  0.00000000000E+00 -0.53688757102E+03  0.88580521027E+03  0.70455844798E+03 0.  0.
        5    1    3    3  502    0 -0.40159072870E+02 -0.29254714488E+03 -0.50989439679E+03  0.58924610223E+03  0.46999998093E+01 0.  1.
       -5    1    3    3    0  502  0.40159072870E+02  0.29254714488E+03 -0.26993174230E+02  0.29655910804E+03  0.46999998093E+01 0. -1.
</event>
<event>
 5   0  0.3290656E-02  0.6997083E+03  0.7818609E-02  0.9717731E-01
        2   -1    0    0  501    0  0.00000000000E+00  0.00000000000E+00  0.40891639769E+03  0.40891639770E+03  0.25500000920E-02 0.  1.
       -2   -1    0    0    0  501  0.00000000000E+00  0.00000000000E+00 -0.29932261036E+03  0.29932261037E+03  0.25500000920E-02 0. -1.
    10030    2    1    2    0    0  0.00000000000E+00  0.00000000000E+00  0.10959378733E+03  0.70823900807E+03  0.69970829231E+03 0.  0.
        1    1    3    3  502    0  0.21806949736E+03 -0.62027833741E+02  0.32449647320E+03  0.39585315331E+03  0.50400001928E-02 0.  1.
       -1    1    3    3    0  502 -0.21806949736E+03  0.62027833741E+02 -0.21490268587E+03  0.31238585476E+03  0.50400001928E-02 0. -1.
</event>
<event>
 5   0  0.1969818E-02  0.6702752E+03  0.7818609E-02  0.9769461E-01
       -1   -1    0    0    0  501  0.00000000000E+00  0.00000000000E+00  0.74744700236E+03  0.74744700237E+03  0.50400001928E-02 0. -1.
        1   -1    0    0  501    0  0.00000000000E+00  0.00000000000E+00 -0.15026778422E+03  0.15026778430E+03  0.50400001928E-02 0.  1.
    10030    2    1    2    0    0  0.00000000000E+00  0.00000000000E+00  0.59717921814E+03  0.89771478668E+03  0.67027518203E+03 0.  0.
        1    1    3    3  502    0  0.24306207203E+03 -0.22999909868E+03  0.27395012440E+03  0.43246667726E+03  0.50400001928E-02 0. -1.
       -1    1    3    3    0  502 -0.24306207203E+03  0.22999909868E+03  0.32322909374E+03  0.46524810942E+03  0.50400001928E-02 0.  1.
</event>
<event>
 5   0  0.3183963E-02  0.7077039E+03  0.7818609E-02  0.9704147E-01
        2   -1    0    0  501    0  0.00000000000E+00  0.00000000000E+00  0.79309914217E+03  0.79309914217E+03  0.25500000920E-02 0. -1.
       -2   -1    0    0    0  501  0.00000000000E+00  0.00000000000E+00 -0.15787584367E+03  0.15787584369E+03  0.25500000920E-02 0.  1.
    10030    2    1    2    0    0  0.00000000000E+00  0.00000000000E+00  0.63522329850E+03  0.95097498586E+03  0.70770388213E+03 0.  0.
        4    1    3    3  502    0 -0.84167440026E+02 -0.33772609877E+03  0.40330128696E+03  0.53272564864E+03  0.12699999809E+01 0.  1.
       -4    1    3    3    0  502  0.84167440026E+02  0.33772609877E+03  0.23192201154E+03  0.41824933722E+03  0.12699999809E+01 0. -1.
</event>
<event>
 5   0  0.3183963E-02  0.6969128E+03  0.7818609E-02  0.9722526E-01
       -2   -1    0    0    0  501  0.00000000000E+00  0.00000000000E+00  0.28925897203E+03  0.28925897204E+03  0.25500000920E-02 0. -1.
        2   -1    0    0  501    0  0.00000000000E+00  0.00000000000E+00 -0.41976870107E+03  0.41976870108E+03  0.25500000920E-02 0.  1.
    10030    2    1    2    0    0  0.00000000000E+00  0.00000000000E+00 -0.13050972904E+03  0.70902767313E+03  0.69691280077E+03 0.  0.
        4    1    3    3  502    0 -0.32080147386E+03  0.16181569464E+01  0.73139400650E+02  0.32903979834E+03  0.12699999809E+01 0. -1.
       -4    1    3    3    0  502  0.32080147386E+03 -0.16181569464E+01 -0.20364912969E+03  0.37998787479E+03  0.12699999809E+01 0.  1.
</event>
<event>
 5   0  0.1233912E-02  0.7078405E+03  0.7818609E-02  0.9703917E-01
       -3   -1    0    0    0  501  0.00000000000E+00  0.00000000000E+00  0.21693662597E+03  0.21693664948E+03  0.10100000352E+00 0. -1.
        3   -1    0    0  501    0  0.00000000000E+00  0.00000000000E+00 -0.57740156398E+03  0.57740157282E+03  0.10100000352E+00 0.  1.
    10030    2    1    2    0    0  0.00000000000E+00  0.00000000000E+00 -0.36046493802E+03  0.79433822229E+03  0.70784054691E+03 0.  0.
        2    1    3    3  502    0 -0.12143499204E+03 -0.36078513019E+02 -0.55108743420E+03  0.56546041111E+03  0.25500000920E-02 0.  1.
       -2    1    3    3    0  502  0.12143499204E+03  0.36078513019E+02  0.19062249619E+03  0.22887781118E+03  0.25500000920E-02 0. -1.
</event>
<event>
 5   0  0.3183963E-02  0.7133642E+03  0.7818609E-02  0.9694647E-01
       -2   -1    0    0    0  501  0.00000000000E+00  0.00000000000E+00  0.15774548076E+03  0.15774548078E+03  0.25500000920E-02 0.  1.
        2   -1    0    0  501    0  0.00000000000E+00  0.00000000000E+00 -0.80650241216E+03  0.80650241216E+03  0.25500000920E-02 0. -1.
    10030    2    1    2    0    0  0.00000000000E+00  0.00000000000E+00 -0.64875693140E+03  0.96424789294E+03  0.71336417278E+03 0.  0.
        4    1    3    3  502    0  0.15524270690E+03  0.24045411087E+03 -0.36680898122E+02  0.28855775620E+03  0.12699999809E+01 0. -1.
       -4    1    3    3    0  502 -0.15524270690E+03 -0.24045411087E+03 -0.61207603327E+03  0.67569013674E+03  0.12699999809E+01 0.  1.
</event>
<event>
 5   0  0.3290656E-02  0.7080899E+03  0.7818609E-02  0.9703497E-01
       -2   -1    0    0    0  501  0.00000000000E+00  0.00000000000E+00  0.10778914565E+03  0.10778914568E+03  0.25500000920E-02 0.  1.
        2   -1    0    0  501    0  0.00000000000E+00  0.00000000000E+00 -0.11628983707E+04  0.11628983707E+04  0.25500000920E-02 0. -1.
    10030    2    1    2    0    0  0.00000000000E+00  0.00000000000E+00 -0.10551092250E+04  0.12706875164E+04  0.70808988659E+03 0.  0.
        1    1    3    3  502    0  0.32984598564E+03  0.12587634078E+03 -0.57518893338E+03  0.67489668581E+03  0.50400001928E-02 0. -1.
       -1    1    3    3    0  502 -0.32984598564E+03 -0.12587634078E+03 -0.47992029164E+03  0.59579083055E+03  0.50400001928E-02 0.  1.
</event>
<event>
 5   0  0.1951465E-02  0.7006067E+03  0.7818609E-02  0.9716195E-01
       -1   -1    0    0    0  501  0.00000000000E+00  0.00000000000E+00  0.53648368101E+03  0.53648368104E+03  0.50400001928E-02 0.  1.
        1   -1    0    0  501    0  0.00000000000E+00  0.00000000000E+00 -0.22873472758E+03  0.22873472764E+03  0.50400001928E-02 0. -1.
    10030    2    1    2    0    0  0.00000000000E+00  0.00000000000E+00  0.30774895343E+03  0.76521840867E+03  0.70060673322E+03 0.  0.
        4    1    3    3  502    0  0.14081522279E+02 -0.27803837487E+03  0.38610267251E+03  0.47600474135E+03  0.12699999809E+01 0.  1.
       -4    1    3    3    0  502 -0.14081522279E+02  0.27803837487E+03 -0.78353719079E+02  0.28921366732E+03  0.12699999809E+01 0. -1.
</event>
<event>
 5   0  0.1233912E-02  0.6932934E+03  0.7818609E-02  0.9728771E-01
       -3   -1    0    0    0  501  0.00000000000E+00  0.00000000000E+00  0.73468090909E+03  0.73468091603E+03  0.10100000352E+00 0. -1.
        3   -1    0    0  501    0  0.00000000000E+00  0.00000000000E+00 -0.16355933400E+03  0.16355936518E+03  0.10100000352E+00 0.  1.
    10030    2    1    2    0    0  0.00000000000E+00  0.00000000000E+00  0.57112157510E+03  0.89824028121E+03  0.69329340777E+03 0.  0.
        4    1    3    3  502    0 -0.25441227067E+03  0.14200409290E+03  0.42235199636E+02  0.29440820446E+03  0.12699999809E+01 0.  1.
       -4    1    3    3    0  502  0.25441227067E+03 -0.14200409290E+03  0.52888637546E+03  0.60383207675E+03  0.12699999809E+01 0. -1.
</event>
<event>
 5   0  0.1839038E-02  0.6964236E+03  0.7818609E-02  0.9723368E-01
       -1   -1    0    0    0  501  0.00000000000E+00  0.00000000000E+00  0.41261460906E+03  0.41261460909E+03  0.50400001928E-02 0. -1.
        1   -1    0    0  501    0  0.00000000000E+00  0.00000000000E+00 -0.29386125780E+03  0.29386125785E+03  0.50400001928E-02 0.  1.
    10030    2    1    2    0    0  0.00000000000E+00  0.00000000000E+00  0.11875335126E+03  0.70647586694E+03  0.69642357235E+03 0.  0.
        5    1    3    3  502    0  0.26680688456E+02 -0.27108315333E+03  0.27937426773E+03  0.39021789634E+03  0.46999998093E+01 0. -1.
       -5    1    3    3    0  502 -0.26680688456E+02  0.27108315333E+03 -0.16062091648E+03  0.31625797059E+03  0.46999998093E+01 0.  1.
</event>
<event>
 5   0  0.3183963E-02  0.7042561E+03  0.7818609E-02  0.9709981E-01
       -2   -1    0    0    0  501  0.00000000000E+00  0.00000000000E+00  0.10181981977E+03  0.10181981980E+03  0.25500000920E-02 0. -1.
        2   -1    0    0  501    0  0.00000000000E+00  0.00000000000E+00 -0.12177802004E+04  0.12177802004E+04  0.25500000920E-02 0.  1.
    10030    2    1    2    0    0  0.00000000000E+00  0.00000000000E+00 -0.11159603807E+04  0.13196000202E+04  0.70425609136E+03 0.  0.
        4    1    3    3  502    0  0.43736504110E+02 -0.31706520531E+03 -0.83304086330E+03  0.89241353589E+03  0.12699999809E+01 0.  1.
       -4    1    3    3    0  502 -0.43736504110E+02  0.31706520531E+03 -0.28291951736E+03  0.42718648435E+03  0.12699999809E+01 0. -1.
</event>
<event>
 5   0  0.3290656E-02  0.7013058E+03  0.7818609E-02  0.9715002E-01
       -2   -1    0    0    0  501  0.00000000000E+00  0.00000000000E+00  0.16254908270E+03  0.16254908272E+03  0.25500000920E-02 0.  1.
        2   -1    0    0  501    0  0.00000000000E+00  0.00000000000E+00 -0.75643287858E+03  0.75643287859E+03  0.25500000920E-02 0. -1.
    10030    2    1    2    0    0  0.00000000000E+00  0.00000000000E+00 -0.59388379589E+03  0.91898196131E+03  0.70130584069E+03 0.  0.
        1    1    3    3  502    0  0.12032178172E+03  0.31210294459E+03 -0.15905898862E+03  0.37038539531E+03  0.50400001928E-02 0.  1.
       -1    1    3    3    0  502 -0.12032178172E+03 -0.31210294459E+03 -0.43482480727E+03  0.54859656599E+03  0.50400001928E-02 0. -1.
</event>
<event>
 5   0  0.2933851E-02  0.6959423E+03  0.7818609E-02  0.9724197E-01
       -2   -1    0    0    0  501  0.00000000000E+00  0.00000000000E+00  0.16387822152E+03  0.16387822154E+03  0.25500000920E-02 0.  1.
        2   -1    0    0  501    0  0.00000000000E+00  0.00000000000E+00 -0.73886525637E+03  0.73886525637E+03  0.25500000920E-02 0. -1.
    10030    2    1    2    0    0  0.00000000000E+00  0.00000000000E+00 -0.57498703485E+03  0.90274347791E+03  0.69594230843E+03 0.  0.
        2    1    3    3  502    0  0.22018457754E+03 -0.19118031287E+03 -0.41195791173E+02  0.29449661022E+03  0.25500000920E-02 0.  1.
       -2    1    3    3    0  502 -0.22018457754E+03  0.19118031287E+03 -0.53379124368E+03  0.60824686769E+03  0.25500000920E-02 0. -1.
</event>
<event>
 5   0  0.3113940E-02  0.7003215E+03  0.7818609E-02  0.9716683E-01
       -2   -1    0    0    0  501  0.00000000000E+00  0.00000000000E+00  0.14023279292E+03  0.14023279295E+03  0.25500000920E-02 0. -1.
        2   -1    0    0  501    0  0.00000000000E+00  0.00000000000E+00 -0.87434994082E+03  0.87434994082E+03  0.25500000920E-02 0.  1.
    10030    2    1    2    0    0  0.00000000000E+00  0.00000000000E+00 -0.73411714789E+03  0.10145827338E+04  0.70032145250E+03 0.  0.
        5    1    3    3  502    0 -0.17084964131E+03 -0.16525634772E+03  0.53861296047E+01  0.23780319759E+03  0.46999998093E+01 0. -1.
       -5    1    3    3    0  502  0.17084964131E+03  0.16525634772E+03 -0.73950327750E+03  0.77677953618E+03  0.46999998093E+01 0.  1.
</event>
<event>
 5   0  0.2933851E-02  0.7033530E+03  0.7818609E-02  0.9711515E-01
       -2   -1    0    0    0  501  0.00000000000E+00  0.00000000000E+00  0.21256270837E+03  0.21256270839E+03  0.25500000920E-02 0.  1.
        2   -1    0    0  501    0  0.00000000000E+00  0.00000000000E+00 -0.58183473593E+03  0.58183473594E+03  0.25500000920E-02 0. -1.
    10030    2    1    2    0    0  0.00000000000E+00  0.00000000000E+00 -0.36927202756E+03  0.79439744433E+03  0.70335301891E+03 0.  0.
        2    1    3    3  502    0  0.37806703269E+02 -0.32823869018E+03 -0.48603084992E+02  0.33396443587E+03  0.25500000920E-02 0.  1.
       -2    1    3    3    0  502 -0.37806703269E+02  0.32823869018E+03 -0.32066894257E+03  0.46043300846E+03  0.25500000920E-02 0. -1.
</event>
<event>
 5   0  0.1884172E-02  0.7099640E+03  0.7818609E-02  0.9700343E-01
       -1   -1    0    0    0  501  0.00000000000E+00  0.00000000000E+00  0.22213738967E+03  0.22213738972E+03  0.50400001928E-02 0.  1.
        1   -1    0    0  501    0  0.00000000000E+00  0.00000000000E+00 -0.56727153894E+03  0.56727153896E+03  0.50400001928E-02 0. -1.
    10030    2    1    2    0    0  0.00000000000E+00  0.00000000000E+00 -0.34513414927E+03  0.78940892868E+03  0.70996399605E+03 0.  0.
        3    1    3    3  502    0  0.29150251863E+03 -0.17874162494E+03 -0.66557331021E+02  0.34835639131E+03  0.10100000352E+00 0.  1.
       -3    1    3    3    0  502 -0.29150251863E+03  0.17874162494E+03 -0.27857681825E+03  0.44105253737E+03  0.10100000352E+00 0. -1.
</event>
<event>
 5   0  0.3290656E-02  0.6967623E+03  0.7818609E-02  0.9722785E-01
        2   -1    0    0  501    0  0.00000000000E+00  0.00000000000E+00  0.18100993614E+04  0.18100993615E+04  0.25500000920E-02 0. -1.
       -2   -1    0    0    0  501  0.00000000000E+00  0.00000000000E+00 -0.67051253072E+02  0.67051253120E+02  0.25500000920E-02 0.  1.
    10030    2    1    2    0    0  0.00000000000E+00  0.00000000000E+00  0.17430481084E+04  0.18771506146E+04  0.69676231361E+03 0.  0.
        1    1    3    3  502    0  0.17986031049E+02  0.57166416530E+02 -0.53060072433E+02  0.80042912265E+02  0.50400001928E-02 0.  1.
       -1    1    3    3    0  502 -0.17986031049E+02 -0.57166416530E+02  0.17961081808E+04  0.17971077023E+04  0.50400001928E-02 0. -1.
</event>
<event>
 5   0  0.1858013E-02  0.7037703E+03  0.7818609E-02  0.9710806E-01
        1   -1    0    0  501    0  0.00000000000E+00  0.00000000000E+00  0.43929860792E+03  0.43929860795E+03  0.50400001928E-02 0.  1.
       -1   -1    0    0    0  501  0.00000000000E+00  0.00000000000E+00 -0.28186557305E+03  0.28186557309E+03  0.50400001928E-02 0. -1.
    10030    2    1    2    0    0  0.00000000000E+00  0.00000000000E+00  0.15743303487E+03  0.72116418104E+03  0.70377028606E+03 0.  0.
        2    1    3    3  502    0 -0.15564460537E+02 -0.33116591841E+03  0.19957227565E+03  0.38696538755E+03  0.25500000920E-02 0.  1.
       -2    1    3    3    0  502  0.15564460537E+02  0.33116591841E+03 -0.42139240780E+02  0.33419879349E+03  0.25500000920E-02 0. -1.
</event>
<event>
 5   0  0.1951465E-02  0.6991288E+03  0.7818609E-02  0.9718723E-01
       -1   -1    0    0    0  501  0.00000000000E+00  0.00000000000E+00  0.65308504054E+03  0.65308504056E+03  0.50400001928E-02 0.  1.
        1   -1    0    0  501    0  0.00000000000E+00  0.00000000000E+00 -0.18710469522E+03  0.18710469529E+03  0.50400001928E-02 0. -1.
    10030    2    1    2    0    0  0.00000000000E+00  0.00000000000E+00  0.46598034532E+03  0.84018973584E+03  0.69912882218E+03 0.  0.
        4    1    3    3  502    0  0.30762227378E+03  0.12616514212E+03  0.10330758352E+03  0.34817118796E+03  0.12699999809E+01 0.  1.
       -4    1    3    3    0  502 -0.30762227378E+03 -0.12616514212E+03  0.36267276180E+03  0.49201854789E+03  0.12699999809E+01 0. -1.
</event>
<event>
 5   0  0.3184443E-02  0.7272513E+03  0.7818609E-02  0.9671731E-01
       -2   -1    0    0    0  501  0.00000000000E+00  0.00000000000E+00  0.91420157217E+02  0.91420157252E+02  0.25500000920E-02 0. -1.
        2   -1    0    0  501    0  0.00000000000E+00  0.00000000000E+00 -0.14463289949E+04  0.14463289949E+04  0.25500000920E-02 0.  1.
    10030    2    1    2    0    0  0.00000000000E+00  0.00000000000E+00 -0.13549088377E+04  0.15377491522E+04  0.72725132968E+03 0.  0.
        3    1    3    3  502    0 -0.34662376538E+03  0.98919184936E+02 -0.57625613663E+03  0.67970889731E+03  0.10100000352E+00 0. -1.
       -3    1    3    3    0  502  0.34662376538E+03 -0.98919184936E+02 -0.77865270106E+03  0.85804025485E+03  0.10100000352E+00 0.  1.
</event>
<event>
 5   0  0.3113940E-02  0.6909413E+03  0.7818609E-02  0.9732850E-01
       -2   -1    0    0    0  501  0.00000000000E+00  0.00000000000E+00  0.20297434191E+03  0.20297434192E+03  0.25500000920E-02 0. -1.
        2   -1    0    0  501    0  0.00000000000E+00  0.00000000000E+00 -0.58800523217E+03  0.58800523217E+03  0.25500000920E-02 0.  1.
    10030    2    1    2    0    0  0.00000000000E+00  0.00000000000E+00 -0.38503089026E+03  0.79097957410E+03  0.69094131457E+03 0.  0.
        5    1    3    3  502    0  0.27968486300E+03 -0.87741923621E+02  0.16719325576E+02  0.29363905325E+03  0.46999998093E+01 0. -1.
       -5    1    3    3    0  502 -0.27968486300E+03  0.87741923621E+02 -0.40175021583E+03  0.49734052084E+03  0.46999998093E+01 0.  1.
</event>
<event>
 5   0  0.1233912E-02  0.6983468E+03  0.7818609E-02  0.9720064E-01
       -3   -1    0    0    0  501  0.00000000000E+00  0.00000000000E+00  0.42337078577E+03  0.42337079782E+03  0.10100000352E+00 0. -1.
        3   -1    0    0  501    0  0.00000000000E+00  0.00000000000E+00 -0.28797933102E+03  0.28797934873E+03  0.10100000352E+00 0.  1.
    10030    2    1    2    0    0  0.00000000000E+00  0.00000000000E+00  0.13539145475E+03  0.71135014655E+03  0.69834675125E+03 0.  0.
        3    1    3    3  502    0  0.21082381253E+03 -0.96418519291E+02  0.33366842929E+03  0.40629772544E+03  0.10100000352E+00 0.  1.
       -3    1    3    3    0  502 -0.21082381253E+03  0.96418519291E+02 -0.19827697454E+03  0.30505242111E+03  0.10100000352E+00 0. -1.
</event>
<event>
 5   0  0.1233912E-02  0.6992622E+03  0.7818609E-02  0.9718495E-01
       -3   -1    0    0    0  501  0.00000000000E+00  0.00000000000E+00  0.14770400720E+04  0.14770400754E+04  0.10100000352E+00 0. -1.
        3   -1    0    0  501    0  0.00000000000E+00  0.00000000000E+00 -0.82761370577E+02  0.82761432206E+02  0.10100000352E+00 0.  1.
    10030    2    1    2    0    0  0.00000000000E+00  0.00000000000E+00  0.13942787014E+04  0.15598015076E+04  0.69926221551E+03 0.  0.
        4    1    3    3  502    0 -0.26344943896E+03 -0.22843890265E+03  0.75402543104E+03  0.83075020475E+03  0.12699999809E+01 0. -1.
       -4    1    3    3    0  502  0.26344943896E+03  0.22843890265E+03  0.64025327035E+03  0.72905130288E+03  0.12699999809E+01 0.  1.
</event>
<event>
 5   0  0.3113940E-02  0.7021936E+03  0.7818609E-02  0.9713488E-01
       -2   -1    0    0    0  501  0.00000000000E+00  0.00000000000E+00  0.20386430072E+03  0.20386430074E+03  0.25500000920E-02 0. -1.
        2   -1    0    0  501    0  0.00000000000E+00  0.00000000000E+00 -0.60466178076E+03  0.60466178077E+03  0.25500000920E-02 0.  1.
    10030    2    1    2    0    0  0.00000000000E+00  0.00000000000E+00 -0.40079748004E+03  0.80852608150E+03  0.70219356624E+03 0.  0.
        5    1    3    3  502    0  0.58522250265E+02 -0.31184487111E+03 -0.27397591246E+02  0.31850399592E+03  0.46999998093E+01 0. -1.
       -5    1    3    3    0  502 -0.58522250265E+02  0.31184487111E+03 -0.37339988880E+03  0.49002208559E+03  0.46999998093E+01 0.  1.
</event>
<event>
 5   0  0.3290656E-02  0.7004617E+03  0.7818609E-02  0.9716443E-01
       -2   -1    0    0    0  501  0.00000000000E+00  0.00000000000E+00  0.14882302645E+03  0.14882302647E+03  0.25500000920E-02 0. -1.
        2   -1    0    0  501    0  0.00000000000E+00  0.00000000000E+00 -0.82421141143E+03  0.82421141144E+03  0.25500000920E-02 0.  1.
    10030    2    1    2    0    0  0.00000000000E+00  0.00000000000E+00 -0.67538838498E+03  0.97303443791E+03  0.70046166690E+03 0.  0.
        1    1    3    3  502    0 -0.34905658317E+02  0.17468449851E+03  0.81190016814E+02  0.19576745862E+03  0.50400001928E-02 0. -1.
       -1    1    3    3    0  502  0.34905658317E+02 -0.17468449851E+03 -0.75657840179E+03  0.77726697929E+03  0.50400001928E-02 0.  1.
</event>
<event>
 5   0  0.1951465E-02  0.7011707E+03  0.7818609E-02  0.9715232E-01
        1   -1    0    0  501    0  0.00000000000E+00  0.00000000000E+00  0.16030971571E+03  0.16030971579E+03  0.50400001928E-02 0. -1.
       -1   -1    0    0    0  501  0.00000000000E+00  0.00000000000E+00 -0.76670396325E+03  0.76670396327E+03  0.50400001928E-02 0.  1.
    10030    2    1    2    0    0  0.00000000000E+00  0.00000000000E+00 -0.60639424754E+03  0.92701367905E+03  0.70117071937E+03 0.  0.
        4    1    3    3  502    0 -0.16955178737E+02 -0.32745764445E+03 -0.13916954478E+03  0.35621027791E+03  0.12699999809E+01 0. -1.
       -4    1    3    3    0  502  0.16955178737E+02  0.32745764445E+03 -0.46722470276E+03  0.57080340115E+03  0.12699999809E+01 0.  1.
</event>
<event>
 5   0  0.1839038E-02  0.7105850E+03  0.7818609E-02  0.9699300E-01
       -1   -1    0    0    0  501  0.00000000000E+00  0.00000000000E+00  0.30353323017E+03  0.30353323021E+03  0.50400001928E-02 0. -1.
        1   -1    0    0  501    0  0.00000000000E+00  0.00000000000E+00 -0.41587791908E+03  0.41587791911E+03  0.50400001928E-02 0.  1.
    10030    2    1    2    0    0  0.00000000000E+00  0.00000000000E+00 -0.11234468890E+03  0.71941114932E+03  0.71058502140E+03 0.  0.
        5    1    3    3  502    0 -0.13173438146E+03  0.18090981453E+03 -0.33551314975E+03  0.40332799544E+03  0.46999998093E+01 0.  1.
       -5    1    3    3    0  502  0.13173438146E+03 -0.18090981453E+03  0.22316846085E+03  0.31608315388E+03  0.46999998093E+01 0. -1.
</event>
<event>
 5   0  0.3113940E-02  0.7001985E+03  0.7818609E-02  0.9716893E-01
       -2   -1    0    0    0  501  0.00000000000E+00  0.00000000000E+00  0.11583110628E+03  0.11583110631E+03  0.25500000920E-02 0.  1.
        2   -1    0    0  501    0  0.00000000000E+00  0.00000000000E+00 -0.10581741375E+04  0.10581741375E+04  0.25500000920E-02 0. -1.
    10030    2    1    2    0    0  0.00000000000E+00  0.00000000000E+00 -0.94234303124E+03  0.11740052438E+04  0.70019848901E+03 0.  0.
        5    1    3    3  502    0 -0.22848303757E+03 -0.35108564198E+02 -0.30393223585E+02  0.23320151753E+03  0.46999998093E+01 0.  1.
       -5    1    3    3    0  502  0.22848303757E+03  0.35108564198E+02 -0.91194980766E+03  0.94080372630E+03  0.46999998093E+01 0. -1.
</event>
<event>
 5   0  0.2933851E-02  0.7028609E+03  0.7818609E-02  0.9712352E-01
        2   -1    0    0  501    0  0.00000000000E+00  0.00000000000E+00  0.82436144446E+03  0.82436144447E+03  0.25500000920E-02 0.  1.
       -2   -1    0    0    0  501  0.00000000000E+00  0.00000000000E+00 -0.14981698901E+03  0.14981698904E+03  0.25500000920E-02 0. -1.
    10030    2    1    2    0    0  0.00000000000E+00  0.00000000000E+00  0.67454445545E+03  0.97417843350E+03  0.70286086669E+03 0.  0.
        2    1    3    3  502    0 -0.20884321926E+02 -0.33088143135E+03  0.17572714577E+03  0.37523153689E+03  0.25500000920E-02 0. -1.
       -2    1    3    3    0  502  0.20884321926E+02  0.33088143135E+03  0.49881730968E+03  0.59894689661E+03  0.25500000920E-02 0.  1.
</event>
<event>
 5   0  0.3184443E-02  0.6880761E+03  0.7818609E-02  0.9737844E-01
        2   -1    0    0  501    0  0.00000000000E+00  0.00000000000E+00  0.59762464753E+03  0.59762464754E+03  0.25500000920E-02 0.  1.
       -2   -1    0    0    0  501  0.00000000000E+00  0.00000000000E+00 -0.19805438252E+03  0.19805438254E+03  0.25500000920E-02 0. -1.
    10030    2    1    2    0    0  0.00000000000E+00  0.00000000000E+00  0.39957026501E+03  0.79567903008E+03  0.68807610206E+03 0.  0.
        3    1    3    3  502    0 -0.10768172649E+03  0.14134286582E+03 -0.14088480147E+03  0.22676352755E+03  0.10100000352E+00 0. -1.
       -3    1    3    3    0  502  0.10768172649E+03 -0.14134286582E+03  0.54045506648E+03  0.56891550253E+03  0.10100000352E+00 0.  1.
</event>
<event>
 5   0  0.1969818E-02  0.7054126E+03  0.7818609E-02  0.9708020E-01
        1   -1    0    0  501    0  0.00000000000E+00  0.00000000000E+00  0.41885346756E+03  0.41885346759E+03  0.50400001928E-02 0.  1.
       -1   -1    0    0    0  501  0.00000000000E+00  0.00000000000E+00 -0.29700537306E+03  0.29700537310E+03  0.50400001928E-02 0. -1.
    10030    2    1    2    0    0  0.00000000000E+00  0.00000000000E+00  0.12184809450E+03  0.71585884069E+03  0.70541258967E+03 0.  0.
        1    1    3    3  502    0 -0.21441497293E+03  0.11580090274E+03 -0.19783844526E+03  0.31388481986E+03  0.50400001928E-02 0. -1.
       -1    1    3    3    0  502  0.21441497293E+03 -0.11580090274E+03  0.31968653976E+03  0.40197402083E+03  0.50400001928E-02 0.  1.
</event>
<event>
 5   0  0.3184443E-02  0.6968935E+03  0.7818609E-02  0.9722560E-01
       -2   -1    0    0    0  501  0.00000000000E+00  0.00000000000E+00  0.72625006060E+02  0.72625006105E+02  0.25500000920E-02 0. -1.
        2   -1    0    0  501    0  0.00000000000E+00  0.00000000000E+00 -0.16718089430E+04  0.16718089430E+04  0.25500000920E-02 0.  1.
    10030    2    1    2    0    0  0.00000000000E+00  0.00000000000E+00 -0.15991839370E+04  0.17444339491E+04  0.69689349160E+03 0.  0.
        3    1    3    3  502    0 -0.29873506046E+03  0.94127674476E+02 -0.11817845538E+04  0.12225863558E+04  0.10100000352E+00 0.  1.
       -3    1    3    3    0  502  0.29873506046E+03 -0.94127674476E+02 -0.41739938312E+03  0.52184759334E+03  0.10100000352E+00 0. -1.
</event>
<event>
 5   0  0.3113940E-02  0.6994384E+03  0.7818609E-02  0.9718193E-01
        2   -1    0    0  501    0  0.00000000000E+00  0.00000000000E+00  0.27514156710E+04  0.27514156710E+04  0.25500000920E-02 0. -1.
       -2   -1    0    0    0  501  0.00000000000E+00  0.00000000000E+00 -0.44451129528E+02  0.44451129601E+02  0.25500000920E-02 0.  1.
    10030    2    1    2    0    0  0.00000000000E+00  0.00000000000E+00  0.27069645414E+04  0.27958668006E+04  0.69943844470E+03 0.  0.
        5    1    3    3  502    0  0.20040477031E+03  0.16624415380E+03  0.22865099121E+04  0.23012928668E+04  0.46999998093E+01 0. -1.
       -5    1    3    3    0  502 -0.20040477031E+03 -0.16624415380E+03  0.42045462933E+03  0.49457393376E+03  0.46999998093E+01 0.  1.
</event>
<event>
 5   0  0.1969818E-02  0.7022253E+03  0.7818609E-02  0.9713434E-01
       -1   -1    0    0    0  501  0.00000000000E+00  0.00000000000E+00  0.78854724149E+02  0.78854724310E+02  0.50400001928E-02 0.  1.
        1   -1    0    0  501    0  0.00000000000E+00  0.00000000000E+00 -0.15633826300E+04  0.15633826300E+04  0.50400001928E-02 0. -1.
    10030    2    1    2    0    0  0.00000000000E+00  0.00000000000E+00 -0.14845279059E+04  0.16422373543E+04  0.70222533753E+03 0.  0.
        1    1    3    3  502    0 -0.21890704701E+03 -0.12529096917E+03 -0.13134903603E+04  0.13374883359E+04  0.50400001928E-02 0. -1.
       -1    1    3    3    0  502  0.21890704701E+03  0.12529096917E+03 -0.17103754556E+03  0.30474901838E+03  0.50400001928E-02 0.  1.
</event>
<event>
 5   0  0.1858013E-02  0.7294089E+03  0.7818609E-02  0.9668220E-01
        1   -1    0    0  501    0  0.00000000000E+00  0.00000000000E+00  0.72083761162E+03  0.72083761163E+03  0.50400001928E-02 0.  1.
       -1   -1    0    0    0  501  0.00000000000E+00  0.00000000000E+00 -0.18452054225E+03  0.18452054232E+03  0.50400001928E-02 0. -1.
    10030    2    1    2    0    0  0.00000000000E+00  0.00000000000E+00  0.53631706937E+03  0.90535815395E+03  0.72940893059E+03 0.  0.
        2    1    3    3  502    0 -0.15792379586E+03  0.10781713488E+03 -0.11731001124E+03  0.22433479137E+03  0.25500000920E-02 0. -1.
       -2    1    3    3    0  502  0.15792379586E+03 -0.10781713488E+03  0.65362708061E+03  0.68102336258E+03  0.25500000920E-02 0.  1.
</event>
<event>
 5   0  0.3183963E-02  0.7000681E+03  0.7818609E-02  0.9717116E-01
        2   -1    0    0  501    0  0.00000000000E+00  0.00000000000E+00  0.12045765443E+04  0.12045765443E+04  0.25500000920E-02 0. -1.
       -2   -1    0    0    0  501  0.00000000000E+00  0.00000000000E+00 -0.10171527142E+03  0.10171527146E+03  0.25500000920E-02 0.  1.
    10030    2    1    2    0    0  0.00000000000E+00  0.00000000000E+00  0.11028612729E+04  0.13062918158E+04  0.70006808292E+03 0.  0.
        4    1    3    3  502    0 -0.12415302462E+03 -0.23176240161E+03  0.12026125058E+03  0.28912309768E+03  0.12699999809E+01 0.  1.
       -4    1    3    3    0  502  0.12415302462E+03  0.23176240161E+03  0.98260002230E+03  0.10171687181E+04  0.12699999809E+01 0. -1.
</event>
<event>
 5   0  0.3183963E-02  0.6903684E+03  0.7818609E-02  0.9733847E-01
        2   -1    0    0  501    0  0.00000000000E+00  0.00000000000E+00  0.16091224020E+04  0.16091224020E+04  0.25500000920E-02 0. -1.
       -2   -1    0    0    0  501  0.00000000000E+00  0.00000000000E+00 -0.74047907261E+02  0.74047907305E+02  0.25500000920E-02 0.  1.
    10030    2    1    2    0    0  0.00000000000E+00  0.00000000000E+00  0.15350744948E+04  0.16831703093E+04  0.69036844202E+03 0.  0.
        4    1    3    3  502    0  0.93856728184E+02  0.14695803441E+02 -0.41541961255E+02  0.10369377758E+03  0.12699999809E+01 0.  1.
       -4    1    3    3    0  502 -0.93856728184E+02 -0.14695803441E+02  0.15766164560E+04  0.15794765317E+04  0.12699999809E+01 0. -1.
</event>
<event>
 5   0  0.2933851E-02  0.6978761E+03  0.7818609E-02  0.9720871E-01
       -2   -1    0    0    0  501  0.00000000000E+00  0.00000000000E+00  0.95120500990E+02  0.95120501025E+02  0.25500000920E-02 0.  1.
        2   -1    0    0  501    0  0.00000000000E+00  0.00000000000E+00 -0.12800369705E+04  0.12800369705E+04  0.25500000920E-02 0. -1.
    10030    2    1    2    0    0  0.00000000000E+00  0.00000000000E+00 -0.11849164695E+04  0.13751574715E+04  0.69787608626E+03 0.  0.
        2    1    3    3  502    0 -0.33940150326E+03 -0.63747283369E+02 -0.69099573939E+03  0.77248443895E+03  0.25500000920E-02 0. -1.
       -2    1    3    3    0  502  0.33940150326E+03  0.63747283369E+02 -0.49392073010E+03  0.60267303257E+03  0.25500000920E-02 0.  1.
</event>
<event>
 5   0  0.3290656E-02  0.7040541E+03  0.7818609E-02  0.9710324E-01
       -2   -1    0    0    0  501  0.00000000000E+00  0.00000000000E+00  0.33429491563E+03  0.33429491564E+03  0.25500000920E-02 0.  1.
        2   -1    0    0  501    0  0.00000000000E+00  0.00000000000E+00 -0.37069979533E+03  0.37069979534E+03  0.25500000920E-02 0. -1.
    10030    2    1    2    0    0  0.00000000000E+00  0.00000000000E+00 -0.36404879702E+02  0.70499471098E+03  0.70405413658E+03 0.  0.
        1    1    3    3  502    0 -0.73903769671E+02 -0.33568981150E+03 -0.94288423117E+02  0.35642632265E+03  0.50400001928E-02 0.  1.
       -1    1    3    3    0  502  0.73903769671E+02  0.33568981150E+03  0.57883543414E+02  0.34856838833E+03  0.50400001928E-02 0. -1.
</event>
<event>
 5   0  0.3183963E-02  0.7028267E+03  0.7818609E-02  0.9712410E-01
        2   -1    0    0  501    0  0.00000000000E+00  0.00000000000E+00  0.60787871035E+03  0.60787871035E+03  0.25500000920E-02 0.  1.
       -2   -1    0    0    0  501  0.00000000000E+00  0.00000000000E+00 -0.20315129112E+03  0.20315129114E+03  0.25500000920E-02 0. -1.
    10030    2    1    2    0    0  0.00000000000E+00  0.00000000000E+00  0.40472741923E+03  0.81103000149E+03  0.70282670655E+03 0.  0.
        4    1    3    3  502    0 -0.29461905185E+03 -0.16327437522E+03  0.86790550853E+02  0.34784065307E+03  0.12699999809E+01 0. -1.
       -4    1    3    3    0  502  0.29461905185E+03  0.16327437522E+03  0.31793686838E+03  0.46318934842E+03  0.12699999809E+01 0.  1.
</event>
<event>
 5   0  0.3113940E-02  0.7263984E+03  0.7818609E-02  0.9673123E-01
       -2   -1    0    0    0  501  0.00000000000E+00  0.00000000000E+00  0.12843132344E+03  0.12843132347E+03  0.25500000920E-02 0. -1.
        2   -1    0    0  501    0  0.00000000000E+00  0.00000000000E+00 -0.10271144098E+04  0.10271144098E+04  0.25500000920E-02 0.  1.
    10030    2    1    2    0    0  0.00000000000E+00  0.00000000000E+00 -0.89868308632E+03  0.11555457332E+04  0.72639841130E+03 0.  0.
        5    1    3    3  502    0  0.11976206078E+03 -0.10929034958E+03  0.67613686306E+02  0.17572999826E+03  0.46999998093E+01 0. -1.
       -5    1    3    3    0  502 -0.11976206078E+03  0.10929034958E+03 -0.96629677262E+03  0.97981573497E+03  0.46999998093E+01 0.  1.
</event>
<event>
 5   0  0.1969818E-02  0.6892427E+03  0.7818609E-02  0.9735808E-01
       -1   -1    0    0    0  501  0.00000000000E+00  0.00000000000E+00  0.11167219485E+03  0.11167219497E+03  0.50400001928E-02 0. -1.
        1   -1    0    0  501    0  0.00000000000E+00  0.00000000000E+00 -0.10635042875E+04  0.10635042875E+04  0.50400001928E-02 0.  1.
    10030    2    1    2    0    0  0.00000000000E+00  0.00000000000E+00 -0.95183209260E+03  0.11751764824E+04  0.68924265129E+03 0.  0.
        1    1    3    3  502    0  0.30119094281E+03  0.89193116324E+02 -0.23423225471E+03  0.39183688596E+03  0.50400001928E-02 0.  1.
       -1    1    3    3    0  502 -0.30119094281E+03 -0.89193116324E+02 -0.71759983790E+03  0.78333959647E+03  0.50400001928E-02 0. -1.
</event>
<event>
 5   0  0.1884172E-02  0.6999709E+03  0.7818609E-02  0.9717282E-01
        1   -1    0    0  501    0  0.00000000000E+00  0.00000000000E+00  0.76930433023E+03  0.76930433024E+03  0.50400001928E-02 0. -1.
       -1   -1    0    0    0  501  0.00000000000E+00  0.00000000000E+00 -0.15922153686E+03  0.15922153694E+03  0.50400001928E-02 0.  1.
    10030    2    1    2    0    0  0.00000000000E+00  0.00000000000E+00  0.61008279337E+03  0.92852586718E+03  0.69997090743E+03 0.  0.
        3    1    3    3  502    0 -0.21913496934E+03  0.27071871991E+03  0.35062909883E+03  0.49421608153E+03  0.10100000352E+00 0. -1.
       -3    1    3    3    0  502  0.21913496934E+03 -0.27071871991E+03  0.25945369454E+03  0.43430978565E+03  0.10100000352E+00 0.  1.
</event>
<event>
 5   0  0.1951465E-02  0.6890470E+03  0.7818609E-02  0.9736149E-01
       -1   -1    0    0    0  501  0.00000000000E+00  0.00000000000E+00  0.21679886055E+03  0.21679886061E+03  0.50400001928E-02 0. -1.
        1   -1    0    0  501    0  0.00000000000E+00  0.00000000000E+00 -0.54749563187E+03  0.54749563190E+03  0.50400001928E-02 0.  1.
    10030    2    1    2    0    0  0.00000000000E+00  0.00000000000E+00 -0.33069677132E+03  0.76429449251E+03  0.68904696263E+03 0.  0.
        4    1    3    3  502    0  0.94934398059E+02 -0.32228677054E+03 -0.24992129374E+03  0.41874045465E+03  0.12699999809E+01 0.  1.
       -4    1    3    3    0  502 -0.94934398059E+02  0.32228677054E+03 -0.80775477581E+02  0.34555403785E+03  0.12699999809E+01 0. -1.
</event>
<event>
 5   0  0.1969818E-02  0.6913994E+03  0.7818609E-02  0.9732054E-01
        1   -1    0    0  501    0  0.00000000000E+00  0.00000000000E+00  0.16174833401E+04  0.16174833401E+04  0.50400001928E-02 0. -1.
       -1   -1    0    0    0  501  0.00000000000E+00  0.00000000000E+00 -0.73885326837E+02  0.73885327009E+02  0.50400001928E-02 0.  1.
    10030    2    1    2    0    0  0.00000000000E+00  0.00000000000E+00  0.15435980133E+04  0.16913686671E+04  0.69139940813E+03 0.  0.
        1    1    3    3  502    0 -0.13736446457E+03  0.28544721057E+03  0.43319060675E+03  0.53665930342E+03  0.50400001928E-02 0.  1.
       -1    1    3    3    0  502  0.13736446457E+03 -0.28544721057E+03  0.11104074065E+04  0.11547093637E+04  0.50400001928E-02 0. -1.
</event>
<event>
 5   0  0.3290656E-02  0.7103206E+03  0.7818609E-02  0.9699744E-01
        2   -1    0    0  501    0  0.00000000000E+00  0.00000000000E+00  0.12107731944E+04  0.12107731944E+04  0.25500000920E-02 0. -1.
       -2   -1    0    0    0  501  0.00000000000E+00  0.00000000000E+00 -0.10418041690E+03  0.10418041693E+03  0.25500000920E-02 0.  1.
    10030    2    1    2    0    0  0.00000000000E+00  0.00000000000E+00  0.11065927775E+04  0.13149536113E+04  0.71032064925E+03 0.  0.
        1    1    3    3  502    0 -0.33053148808E+03  0.12756736745E+03  0.50741179808E+03  0.61886285291E+03  0.50400001928E-02 0.  1.
       -1    1    3    3    0  502  0.33053148808E+03 -0.12756736745E+03  0.59918097941E+03  0.69609075843E+03  0.50400001928E-02 0. -1.
</event>
<event>
 5   0  0.3183963E-02  0.6984523E+03  0.7818609E-02  0.9719883E-01
        2   -1    0    0  501    0  0.00000000000E+00  0.00000000000E+00  0.66800688764E+03  0.66800688765E+03  0.25500000920E-02 0. -1.
       -2   -1    0    0    0  501  0.00000000000E+00  0.00000000000E+00 -0.18257130530E+03  0.18257130532E+03  0.25500000920E-02 0.  1.
    10030    2    1    2    0    0  0.00000000000E+00  0.00000000000E+00  0.48543558234E+03  0.85057819296E+03  0.69845225874E+03 0.  0.
        4    1    3    3  502    0 -0.16010537933E+03 -0.30480542864E+03  0.17152887497E+03  0.38466069421E+03  0.12699999809E+01 0. -1.
       -4    1    3    3    0  502  0.16010537933E+03  0.30480542864E+03  0.31390670737E+03  0.46591749876E+03  0.12699999809E+01 0.  1.
</event>
<event>
 5   0  0.2933851E-02  0.6981003E+03  0.7818609E-02  0.9720486E-01
       -2   -1    0    0    0  501  0.00000000000E+00  0.00000000000E+00  0.60278374493E+02  0.60278374547E+02  0.25500000920E-02 0. -1.
        2   -1    0    0  501    0  0.00000000000E+00  0.00000000000E+00 -0.20212225919E+04  0.20212225919E+04  0.25500000920E-02 0.  1.
    10030    2    1    2    0    0  0.00000000000E+00  0.00000000000E+00 -0.19609442174E+04  0.20815009665E+04  0.69810031482E+03 0.  0.
        2    1    3    3  502    0  0.50058482485E+02  0.34498051339E+03 -0.92725076646E+03  0.99061162430E+03  0.25500000920E-02 0. -1.
       -2    1    3    3    0  502 -0.50058482485E+02 -0.34498051339E+03 -0.10336934510E+04  0.10908893422E+04  0.25500000920E-02 0.  1.
</event>
<event>
 5   0  0.1839038E-02  0.6570709E+03  0.7818609E-02  0.9793601E-01
        1   -1    0    0  501    0  0.00000000000E+00  0.00000000000E+00  0.89179600047E+03  0.89179600048E+03  0.50400001928E-02 0.  1.
       -1   -1    0    0    0  501  0.00000000000E+00  0.00000000000E+00 -0.12103164219E+03  0.12103164229E+03  0.50400001928E-02 0. -1.
    10030    2    1    2    0    0  0.00000000000E+00  0.00000000000E+00  0.77076435828E+03  0.10128276428E+04  0.65707087743E+03 0.  0.
        5    1    3    3  502    0  0.18403918240E+03 -0.37817058998E+02 -0.29983108697E+02  0.19031980301E+03  0.46999998093E+01 0. -1.
       -5    1    3    3    0  502 -0.18403918240E+03  0.37817058998E+02  0.80074746698E+03  0.82250783977E+03  0.46999998093E+01 0.  1.
</event>
<event>
 5   0  0.1884172E-02  0.7009510E+03  0.7818609E-02  0.9715607E-01
       -1   -1    0    0    0  501  0.00000000000E+00  0.00000000000E+00  0.63363758362E+03  0.63363758364E+03  0.50400001928E-02 0.  1.
        1   -1    0    0  501    0  0.00000000000E+00  0.00000000000E+00 -0.19385386237E+03  0.19385386244E+03  0.50400001928E-02 0. -1.
    10030    2    1    2    0    0  0.00000000000E+00  0.00000000000E+00  0.43978372125E+03  0.82749144608E+03  0.70095104811E+03 0.  0.
        3    1    3    3  502    0  0.46487351680E+02  0.71297141149E+02  0.62125137560E+03  0.62705473293E+03  0.10100000352E+00 0.  1.
       -3    1    3    3    0  502 -0.46487351680E+02 -0.71297141149E+02 -0.18146765435E+03  0.20043671315E+03  0.10100000352E+00 0. -1.
</event>
<event>
 5   0  0.3290656E-02  0.8203145E+03  0.7818609E-02  0.9531069E-01
       -2   -1    0    0    0  501  0.00000000000E+00  0.00000000000E+00  0.13578252873E+03  0.13578252875E+03  0.25500000920E-02 0.  1.
        2   -1    0    0  501    0  0.00000000000E+00  0.00000000000E+00 -0.12389590115E+04  0.12389590115E+04  0.25500000920E-02 0. -1.
    10030    2    1    2    0    0  0.00000000000E+00  0.00000000000E+00 -0.11031764828E+04  0.13747415402E+04  0.82031454354E+03 0.  0.
        1    1    3    3  502    0 -0.77898328782E+02 -0.31065655496E+03 -0.98099518840E+03  0.10319531019E+04  0.50400001928E-02 0. -1.
       -1    1    3    3    0  502  0.77898328782E+02  0.31065655496E+03 -0.12218129436E+03  0.34278843837E+03  0.50400001928E-02 0.  1.
</event>
<event>
 5   0  0.1951465E-02  0.6518953E+03  0.7818609E-02  0.9803229E-01
        1   -1    0    0  501    0  0.00000000000E+00  0.00000000000E+00  0.14881795561E+03  0.14881795570E+03  0.50400001928E-02 0. -1.
       -1   -1    0    0    0  501  0.00000000000E+00  0.00000000000E+00 -0.71390482875E+03  0.71390482877E+03  0.50400001928E-02 0.  1.
    10030    2    1    2    0    0  0.00000000000E+00  0.00000000000E+00 -0.56508687314E+03  0.86272278447E+03  0.65189525896E+03 0.  0.
        4    1    3    3  502    0  0.12204764069E+03 -0.27574376982E+03 -0.44629328777E+03  0.53861819947E+03  0.12699999809E+01 0.  1.
       -4    1    3    3    0  502 -0.12204764069E+03  0.27574376982E+03 -0.11879358537E+03  0.32410458500E+03  0.12699999809E+01 0. -1.
</event>
<event>
 5   0  0.1884172E-02  0.6899216E+03  0.7818609E-02  0.9734625E-01
        1   -1    0    0  501    0  0.00000000000E+00  0.00000000000E+00  0.88459899686E+03  0.88459899688E+03  0.50400001928E-02 0.  1.
       -1   -1    0    0    0  501  0.00000000000E+00  0.00000000000E+00 -0.13452190068E+03  0.13452190078E+03  0.50400001928E-02 0. -1.
    10030    2    1    2    0    0  0.00000000000E+00  0.00000000000E+00  0.75007709618E+03  0.10191208977E+04  0.68992155628E+03 0.  0.
        3    1    3    3  502    0  0.10197031713E+03 -0.11931396289E+03 -0.78724925732E+02  0.17558869967E+03  0.10100000352E+00 0. -1.
       -3    1    3    3    0  502 -0.10197031713E+03  0.11931396289E+03  0.82880202191E+03  0.84353219799E+03  0.10100000352E+00 0.  1.
</event>
<event>
 5   0  0.1969818E-02  0.6999109E+03  0.7818609E-02  0.9717385E-01
        1   -1    0    0  501    0  0.00000000000E+00  0.00000000000E+00  0.31638168017E+03  0.31638168022E+03  0.50400001928E-02 0. -1.
       -1   -1    0    0    0  501  0.00000000000E+00  0.00000000000E+00 -0.38709202353E+03  0.38709202357E+03  0.50400001928E-02 0.  1.
    10030    2    1    2    0    0  0.00000000000E+00  0.00000000000E+00 -0.70710343358E+02  0.70347370378E+03  0.69991092237E+03 0.  0.
        1    1    3    3  502    0 -0.10275493389E+03  0.25680666840E+03  0.18012031161E+03  0.33007812417E+03  0.50400001928E-02 0. -1.
       -1    1    3    3    0  502  0.10275493389E+03 -0.25680666840E+03 -0.25083065497E+03  0.37339557961E+03  0.50400001928E-02 0.  1.
</event>
<event>
 5   0  0.1233912E-02  0.6963889E+03  0.7818609E-02  0.9723428E-01
        3   -1    0    0  501    0  0.00000000000E+00  0.00000000000E+00  0.88420962858E+03  0.88420963435E+03  0.10100000352E+00 0.  1.
       -3   -1    0    0    0  501  0.00000000000E+00  0.00000000000E+00 -0.13711608323E+03  0.13711612043E+03  0.10100000352E+00 0. -1.
    10030    2    1    2    0    0  0.00000000000E+00  0.00000000000E+00  0.74709354535E+03  0.10213257548E+04  0.69638892286E+03 0.  0.
        3    1    3    3  502    0 -0.28624990556E+03 -0.59692566958E+02  0.65079734952E+03  0.71346997927E+03  0.10100000352E+00 0.  1.
       -3    1    3    3    0  502  0.28624990556E+03  0.59692566958E+02  0.96296195831E+02  0.30785577551E+03  0.10100000352E+00 0. -1.
</event>
<event>
 5   0  0.1839038E-02  0.6967888E+03  0.7818609E-02  0.9722740E-01
       -1   -1    0    0    0  501  0.00000000000E+00  0.00000000000E+00  0.19414016586E+03  0.19414016593E+03  0.50400001928E-02 0. -1.
        1   -1    0    0  501    0  0.00000000000E+00  0.00000000000E+00 -0.62521149923E+03  0.62521149925E+03  0.50400001928E-02 0.  1.
    10030    2    1    2    0    0  0.00000000000E+00  0.00000000000E+00 -0.43107133337E+03  0.81935166518E+03  0.69678881792E+03 0.  0.
        5    1    3    3  502    0  0.27037458876E+03 -0.30951037167E+02  0.40194665788E+02  0.27513285173E+03  0.46999998093E+01 0. -1.
       -5    1    3    3    0  502 -0.27037458876E+03  0.30951037167E+02 -0.47126599916E+03  0.54421881344E+03  0.46999998093E+01 0.  1.
</event>
<event>
 5   0  0.1884172E-02  0.7018776E+03  0.7818609E-02  0.9714027E-01
        1   -1    0    0  501    0  0.00000000000E+00  0.00000000000E+00  0.56226404823E+03  0.56226404825E+03  0.50400001928E-02 0. -1.
       -1   -1    0    0    0  501  0.00000000000E+00  0.00000000000E+00 -0.21903948862E+03  0.21903948868E+03  0.50400001928E-02 0.  1.
    10030    2    1    2    0    0  0.00000000000E+00  0.00000000000E+00  0.34322455961E+03  0.78130353693E+03  0.70187756661E+03 0.  0.
        3    1    3    3  502    0 -0.66167717893E+02 -0.31743218685E+03  0.32102774849E+03  0.45628958529E+03  0.10100000352E+00 0. -1.
       -3    1    3    3    0  502  0.66167717893E+02  0.31743218685E+03  0.22196811115E+02  0.32501395164E+03  0.10100000352E+00 0.  1.
</event>
<event>
 5   0  0.3183963E-02  0.7007191E+03  0.7818609E-02  0.9716003E-01
        2   -1    0    0  501    0  0.00000000000E+00  0.00000000000E+00  0.42885844781E+03  0.42885844782E+03  0.25500000920E-02 0. -1.
       -2   -1    0    0    0  501  0.00000000000E+00  0.00000000000E+00 -0.28622920798E+03  0.28622920799E+03  0.25500000920E-02 0.  1.
    10030    2    1    2    0    0  0.00000000000E+00  0.00000000000E+00  0.14262923984E+03  0.71508765581E+03  0.70071909881E+03 0.  0.
        4    1    3    3  502    0 -0.43134843033E+02 -0.12305967683E+02  0.42591368307E+03  0.42827109388E+03  0.12699999809E+01 0. -1.
       -4    1    3    3    0  502  0.43134843033E+02  0.12305967683E+02 -0.28328444323E+03  0.28681656193E+03  0.12699999809E+01 0.  1.
</event>
<event>
 5   0  0.3290656E-02  0.6984040E+03  0.7818609E-02  0.9719965E-01
        2   -1    0    0  501    0  0.00000000000E+00  0.00000000000E+00  0.53044761681E+03  0.53044761682E+03  0.25500000920E-02 0.  1.
       -2   -1    0    0    0  501  0.00000000000E+00  0.00000000000E+00 -0.22988515971E+03  0.22988515972E+03  0.25500000920E-02 0. -1.
    10030    2    1    2    0    0  0.00000000000E+00  0.00000000000E+00  0.30056245711E+03  0.76033277654E+03  0.69840399516E+03 0.  0.
        1    1    3    3  502    0 -0.10620354950E+03 -0.16630079704E+03 -0.16337510279E+03  0.25617683982E+03  0.50400001928E-02 0. -1.
       -1    1    3    3    0  502  0.10620354950E+03  0.16630079704E+03  0.46393755990E+03  0.50415593672E+03  0.50400001928E-02 0.  1.
</event>
<event>
 5   0  0.1951465E-02  0.6969607E+03  0.7818609E-02  0.9722444E-01
        1   -1    0    0  501    0  0.00000000000E+00  0.00000000000E+00  0.56004945314E+03  0.56004945316E+03  0.50400001928E-02 0. -1.
       -1   -1    0    0    0  501  0.00000000000E+00  0.00000000000E+00 -0.21683543094E+03  0.21683543100E+03  0.50400001928E-02 0.  1.
    10030    2    1    2    0    0  0.00000000000E+00  0.00000000000E+00  0.34321402220E+03  0.77688488416E+03  0.69696072931E+03 0.  0.
        4    1    3    3  502    0  0.77241671325E+02 -0.27457899159E+03  0.39475668372E+03  0.48702602667E+03  0.12699999809E+01 0. -1.
       -4    1    3    3    0  502 -0.77241671325E+02  0.27457899159E+03 -0.51542661521E+02  0.28985885749E+03  0.12699999809E+01 0.  1.
</event>
<event>
 5   0  0.3113940E-02  0.7027535E+03  0.7818609E-02  0.9712535E-01
       -2   -1    0    0    0  501  0.00000000000E+00  0.00000000000E+00  0.11633039157E+03  0.11633039160E+03  0.25500000920E-02 0. -1.
        2   -1    0    0  501    0  0.00000000000E+00  0.00000000000E+00 -0.10613358652E+04  0.10613358652E+04  0.25500000920E-02 0.  1.
    10030    2    1    2    0    0  0.00000000000E+00  0.00000000000E+00 -0.94500547364E+03  0.11776662568E+04  0.70275348965E+03 0.  0.
        5    1    3    3  502    0 -0.32272971860E+03 -0.12501968047E+02 -0.24070564067E+03  0.40283007077E+03  0.46999998093E+01 0. -1.
       -5    1    3    3    0  502  0.32272971860E+03  0.12501968047E+02 -0.70429983297E+03  0.77483618603E+03  0.46999998093E+01 0.  1.
</event>
<event>
 5   0  0.1951465E-02  0.7130054E+03  0.7818609E-02  0.9695246E-01
       -1   -1    0    0    0  501  0.00000000000E+00  0.00000000000E+00  0.85286308738E+02  0.85286308887E+02  0.50400001928E-02 0.  1.
        1   -1    0    0  501    0  0.00000000000E+00  0.00000000000E+00 -0.14902060312E+04  0.14902060312E+04  0.50400001928E-02 0. -1.
    10030    2    1    2    0    0  0.00000000000E+00  0.00000000000E+00 -0.14049197224E+04  0.15754923401E+04  0.71300539067E+03 0.  0.
        4    1    3    3  502    0  0.30985755240E+03 -0.16259161403E+02 -0.10903556895E+04  0.11336459789E+04  0.12699999809E+01 0. -1.
       -4    1    3    3    0  502 -0.30985755240E+03  0.16259161403E+02 -0.31456403297E+03  0.44184636113E+03  0.12699999809E+01 0.  1.
</event>
<event>
 5   0  0.1969818E-02  0.6904600E+03  0.7818609E-02  0.9733687E-01
        1   -1    0    0  501    0  0.00000000000E+00  0.00000000000E+00  0.14817967010E+04  0.14817967010E+04  0.50400001928E-02 0. -1.
       -1   -1    0    0    0  501  0.00000000000E+00  0.00000000000E+00 -0.80431923533E+02  0.80431923691E+02  0.50400001928E-02 0.  1.
    10030    2    1    2    0    0  0.00000000000E+00  0.00000000000E+00  0.14013647774E+04  0.15622286247E+04  0.69046001788E+03 0.  0.
        1    1    3    3  502    0  0.21896560796E+02 -0.34408992497E+03  0.66107585060E+03  0.74558608900E+03  0.50400001928E-02 0.  1.
       -1    1    3    3    0  502 -0.21896560796E+02  0.34408992497E+03  0.74028892682E+03  0.81664253566E+03  0.50400001928E-02 0. -1.
</event>
<event>
 5   0  0.1969818E-02  0.6724448E+03  0.7818609E-02  0.9765551E-01
       -1   -1    0    0    0  501  0.00000000000E+00  0.00000000000E+00  0.12328778230E+03  0.12328778240E+03  0.50400001928E-02 0.  1.
        1   -1    0    0  501    0  0.00000000000E+00  0.00000000000E+00 -0.91692373126E+03  0.91692373127E+03  0.50400001928E-02 0. -1.
    10030    2    1    2    0    0  0.00000000000E+00  0.00000000000E+00 -0.79363594896E+03  0.10402115137E+04  0.67244477372E+03 0.  0.
        1    1    3    3  502    0 -0.15164492873E+03  0.70869792829E+02  0.54250945450E+02  0.17595987342E+03  0.50400001928E-02 0.  1.
       -1    1    3    3    0  502  0.15164492873E+03 -0.70869792829E+02 -0.84788689441E+03  0.86425164026E+03  0.50400001928E-02 0. -1.
</event>
<event>
 5   0  0.1884172E-02  0.6992079E+03  0.7818609E-02  0.9718588E-01
       -1   -1    0    0    0  501  0.00000000000E+00  0.00000000000E+00  0.25664891994E+03  0.25664891999E+03  0.50400001928E-02 0. -1.
        1   -1    0    0  501    0  0.00000000000E+00  0.00000000000E+00 -0.47622615513E+03  0.47622615516E+03  0.50400001928E-02 0.  1.
    10030    2    1    2    0    0  0.00000000000E+00  0.00000000000E+00 -0.21957723519E+03  0.73287507515E+03  0.69920791869E+03 0.  0.
        3    1    3    3  502    0 -0.19037132781E+03 -0.27690550791E+03 -0.21089583593E+03  0.39673034492E+03  0.10100000352E+00 0. -1.
       -3    1    3    3    0  502  0.19037132781E+03  0.27690550791E+03 -0.86813992616E+01  0.33614473023E+03  0.10100000352E+00 0.  1.
</event>
<event>
 5   0  0.3113940E-02  0.7029903E+03  0.7818609E-02  0.9712132E-01
        2   -1    0    0  501    0  0.00000000000E+00  0.00000000000E+00  0.19526637090E+04  0.19526637090E+04  0.25500000920E-02 0. -1.
       -2   -1    0    0    0  501  0.00000000000E+00  0.00000000000E+00 -0.63271945637E+02  0.63271945689E+02  0.25500000920E-02 0.  1.
    10030    2    1    2    0    0  0.00000000000E+00  0.00000000000E+00  0.18893917634E+04  0.20159356547E+04  0.70299027617E+03 0.  0.
        5    1    3    3  502    0 -0.64068569868E+02 -0.25788413573E+03  0.28502401414E+03  0.38970474432E+03  0.46999998093E+01 0.  1.
       -5    1    3    3    0  502  0.64068569868E+02  0.25788413573E+03  0.16043677492E+04  0.16262309104E+04  0.46999998093E+01 0. -1.
</event>
<event>
 5   0  0.3290656E-02  0.7149400E+03  0.7818609E-02  0.9692018E-01
       -2   -1    0    0    0  501  0.00000000000E+00  0.00000000000E+00  0.10470783921E+03  0.10470783924E+03  0.25500000920E-02 0. -1.
        2   -1    0    0  501    0  0.00000000000E+00  0.00000000000E+00 -0.12203939571E+04  0.12203939571E+04  0.25500000920E-02 0.  1.
    10030    2    1    2    0    0  0.00000000000E+00  0.00000000000E+00 -0.11156861179E+04  0.13251017964E+04  0.71494003736E+03 0.  0.
        1    1    3    3  502    0 -0.27754956161E+03  0.16465839369E+03 -0.27287831710E+03  0.42262125093E+03  0.50400001928E-02 0. -1.
       -1    1    3    3    0  502  0.27754956161E+03 -0.16465839369E+03 -0.84280780079E+03  0.90248054542E+03  0.50400001928E-02 0.  1.
</event>
<event>
 5   0  0.1951465E-02  0.6973133E+03  0.7818609E-02  0.9721838E-01
        1   -1    0    0  501    0  0.00000000000E+00  0.00000000000E+00  0.23489915140E+03  0.23489915145E+03  0.50400001928E-02 0. -1.
       -1   -1    0    0    0  501  0.00000000000E+00  0.00000000000E+00 -0.51750492610E+03  0.51750492613E+03  0.50400001928E-02 0.  1.
    10030    2    1    2    0    0  0.00000000000E+00  0.00000000000E+00 -0.28260577471E+03  0.75240407758E+03  0.69731332416E+03 0.  0.
        4    1    3    3  502    0  0.31087209964E+03  0.15671045343E+03 -0.12082377885E+03  0.36851000934E+03  0.12699999809E+01 0. -1.
       -4    1    3    3    0  502 -0.31087209964E+03 -0.15671045343E+03 -0.16178199585E+03  0.38389406824E+03  0.12699999809E+01 0.  1.
</event>
<event>
 5   0  0.1884172E-02  0.7105048E+03  0.7818609E-02  0.9699434E-01
        1   -1    0    0  501    0  0.00000000000E+00  0.00000000000E+00  0.87013761337E+03  0.87013761338E+03  0.50400001928E-02 0.  1.
       -1   -1    0    0    0  501  0.00000000000E+00  0.00000000000E+00 -0.14503942850E+03  0.14503942858E+03  0.50400001928E-02 0. -1.
    10030    2    1    2    0    0  0.00000000000E+00  0.00000000000E+00  0.72509818487E+03  0.10151770420E+04  0.71050478452E+03 0.  0.
        3    1    3    3  502    0 -0.29632691924E+03  0.57204782513E+02  0.94776716881E+02  0.31632999617E+03  0.10100000352E+00 0. -1.
       -3    1    3    3    0  502  0.29632691924E+03 -0.57204782513E+02  0.63032146799E+03  0.69884704580E+03  0.10100000352E+00 0.  1.
</event>
<event>
 5   0  0.3113940E-02  0.7338834E+03  0.7818609E-02  0.9660980E-01
       -2   -1    0    0    0  501  0.00000000000E+00  0.00000000000E+00  0.60913699719E+03  0.60913699719E+03  0.25500000920E-02 0. -1.
        2   -1    0    0  501    0  0.00000000000E+00  0.00000000000E+00 -0.22104421553E+03  0.22104421554E+03  0.25500000920E-02 0.  1.
    10030    2    1    2    0    0  0.00000000000E+00  0.00000000000E+00  0.38809278166E+03  0.83018121274E+03  0.73388339592E+03 0.  0.
        5    1    3    3  502    0  0.12852366267E+01 -0.10166658850E+03  0.59284863688E+03  0.60152252102E+03  0.46999998093E+01 0. -1.
       -5    1    3    3    0  502 -0.12852366267E+01  0.10166658850E+03 -0.20475585522E+03  0.22865869171E+03  0.46999998093E+01 0.  1.
</event>
<event>
 5   0  0.1884172E-02  0.7069485E+03  0.7818609E-02  0.9705423E-01
       -1   -1    0    0    0  501  0.00000000000E+00  0.00000000000E+00  0.12587195589E+03  0.12587195599E+03  0.50400001928E-02 0. -1.
        1   -1    0    0  501    0  0.00000000000E+00  0.00000000000E+00 -0.99262805011E+03  0.99262805012E+03  0.50400001928E-02 0.  1.
    10030    2    1    2    0    0  0.00000000000E+00  0.00000000000E+00 -0.86675609422E+03  0.11185000061E+04  0.70694846828E+03 0.  0.
        3    1    3    3  502    0  0.16017716087E+03 -0.82007212748E+02  0.47976274408E+02  0.18623543947E+03  0.10100000352E+00 0. -1.
       -3    1    3    3    0  502 -0.16017716087E+03  0.82007212748E+02 -0.91473236862E+03  0.93226456664E+03  0.10100000352E+00 0.  1.
</event>
<event>
 5   0  0.1884172E-02  0.6937372E+03  0.7818609E-02  0.9728003E-01
        1   -1    0    0  501    0  0.00000000000E+00  0.00000000000E+00  0.50202133327E+03  0.50202133330E+03  0.50400001928E-02 0.  1.
       -1   -1    0    0    0  501  0.00000000000E+00  0.00000000000E+00 -0.23966672660E+03  0.23966672666E+03  0.50400001928E-02 0. -1.
    10030    2    1    2    0    0  0.00000000000E+00  0.00000000000E+00  0.26235460667E+03  0.74168805996E+03  0.69373715386E+03 0.  0.
        3    1    3    3  502    0 -0.28187960479E+03 -0.87715611450E+02  0.32588528084E+03  0.43971737123E+03  0.10100000352E+00 0.  1.
       -3    1    3    3    0  502  0.28187960479E+03  0.87715611450E+02 -0.63530674169E+02  0.30197068873E+03  0.10100000352E+00 0. -1.
</event>
<event>
 5   0  0.3183963E-02  0.7078928E+03  0.7818609E-02  0.9703829E-01
        2   -1    0    0  501    0  0.00000000000E+00  0.00000000000E+00  0.89827553117E+03  0.89827553117E+03  0.25500000920E-02 0.  1.
       -2   -1    0    0    0  501  0.00000000000E+00  0.00000000000E+00 -0.13946507229E+03  0.13946507231E+03  0.25500000920E-02 0. -1.
    10030    2    1    2    0    0  0.00000000000E+00  0.00000000000E+00  0.75881045888E+03  0.10377406035E+04  0.70789282213E+03 0.  0.
        4    1    3    3  502    0  0.23959054078E+03  0.86241299249E+02  0.73979005701E+03  0.78238873348E+03  0.12699999809E+01 0.  1.
       -4    1    3    3    0  502 -0.23959054078E+03 -0.86241299249E+02  0.19020401869E+02  0.25535187001E+03  0.12699999809E+01 0. -1.
</event>
<event>
 5   0  0.2933851E-02  0.6982770E+03  0.7818609E-02  0.9720183E-01
       -2   -1    0    0    0  501  0.00000000000E+00  0.00000000000E+00  0.14232953682E+03  0.14232953685E+03  0.25500000920E-02 0.  1.
        2   -1    0    0  501    0  0.00000000000E+00  0.00000000000E+00 -0.85644683647E+03  0.85644683647E+03  0.25500000920E-02 0. -1.
    10030    2    1    2    0    0  0.00000000000E+00  0.00000000000E+00 -0.71411729964E+03  0.99877637332E+03  0.69827696958E+03 0.  0.
        2    1    3    3  502    0  0.26017080604E+03  0.16085096414E+03 -0.11628537182E+03  0.32723717497E+03  0.25500000920E-02 0.  1.
       -2    1    3    3    0  502 -0.26017080604E+03 -0.16085096414E+03 -0.59783192783E+03  0.67153919835E+03  0.25500000920E-02 0. -1.
</event>
<event>
 5   0  0.1858013E-02  0.6895804E+03  0.7818609E-02  0.9735219E-01
        1   -1    0    0  501    0  0.00000000000E+00  0.00000000000E+00  0.12925182270E+04  0.12925182270E+04  0.50400001928E-02 0.  1.
       -1   -1    0    0    0  501  0.00000000000E+00  0.00000000000E+00 -0.91975718636E+02  0.91975718774E+02  0.50400001928E-02 0. -1.
    10030    2    1    2    0    0  0.00000000000E+00  0.00000000000E+00  0.12005425084E+04  0.13844939458E+04  0.68958043152E+03 0.  0.
        2    1    3    3  502    0 -0.19303307992E+03  0.19929354013E+03  0.10112470958E+04  0.10486183166E+04  0.25500000920E-02 0.  1.
       -2    1    3    3    0  502  0.19303307992E+03 -0.19929354013E+03  0.18929541259E+03  0.33587562924E+03  0.25500000920E-02 0. -1.
</event>
<event>
 5   0  0.2933851E-02  0.6898955E+03  0.7818609E-02  0.9734670E-01
       -2   -1    0    0    0  501  0.00000000000E+00  0.00000000000E+00  0.54334147457E+02  0.54334147517E+02  0.25500000920E-02 0. -1.
        2   -1    0    0  501    0  0.00000000000E+00  0.00000000000E+00 -0.21899480986E+04  0.21899480986E+04  0.25500000920E-02 0.  1.
    10030    2    1    2    0    0  0.00000000000E+00  0.00000000000E+00 -0.21356139511E+04  0.22442822461E+04  0.68989553697E+03 0.  0.
        2    1    3    3  502    0 -0.26930204150E+03 -0.15222946544E+03 -0.57133646469E+03  0.64970974720E+03  0.25500000920E-02 0. -1.
       -2    1    3    3    0  502  0.26930204150E+03  0.15222946544E+03 -0.15642774864E+04  0.15945724989E+04  0.25500000920E-02 0.  1.
</event>
<event>
 5   0  0.1858013E-02  0.7180454E+03  0.7818609E-02  0.9686860E-01
       -1   -1    0    0    0  501  0.00000000000E+00  0.00000000000E+00  0.22895183163E+03  0.22895183168E+03  0.50400001928E-02 0. -1.
        1   -1    0    0  501    0  0.00000000000E+00  0.00000000000E+00 -0.56298865882E+03  0.56298865884E+03  0.50400001928E-02 0.  1.
    10030    2    1    2    0    0  0.00000000000E+00  0.00000000000E+00 -0.33403682719E+03  0.79194049052E+03  0.71804535972E+03 0.  0.
        2    1    3    3  502    0  0.23297999020E+03  0.94188700791E+02 -0.44981597350E+03  0.51525294488E+03  0.25500000920E-02 0.  1.
       -2    1    3    3    0  502 -0.23297999020E+03 -0.94188700791E+02  0.11577914630E+03  0.27668754564E+03  0.25500000920E-02 0. -1.
</event>
<event>
 5   0  0.1233912E-02  0.6783622E+03  0.7818609E-02  0.9754968E-01
        3   -1    0    0  501    0  0.00000000000E+00  0.00000000000E+00  0.15112525935E+03  0.15112529310E+03  0.10100000352E+00 0.  1.
       -3   -1    0    0    0  501  0.00000000000E+00  0.00000000000E+00 -0.76124808162E+03  0.76124808833E+03  0.10100000352E+00 0. -1.
    10030    2    1    2    0    0  0.00000000000E+00  0.00000000000E+00 -0.61012282228E+03  0.91237338142E+03  0.67836224015E+03 0.  0.
        2    1    3    3  502    0 -0.35044401976E+02 -0.30787192086E+03 -0.11952155782E+03  0.33211237940E+03  0.25500000920E-02 0.  1.
       -2    1    3    3    0  502  0.35044401976E+02  0.30787192086E+03 -0.49060126446E+03  0.58026100202E+03  0.25500000920E-02 0. -1.
</event>
<event>
 5   0  0.1969818E-02  0.7341744E+03  0.7818609E-02  0.9660511E-01
        1   -1    0    0  501    0  0.00000000000E+00  0.00000000000E+00  0.53491048003E+03  0.53491048006E+03  0.50400001928E-02 0. -1.
       -1   -1    0    0    0  501  0.00000000000E+00  0.00000000000E+00 -0.25191691519E+03  0.25191691525E+03  0.50400001928E-02 0.  1.
    10030    2    1    2    0    0  0.00000000000E+00  0.00000000000E+00  0.28299356484E+03  0.78682739530E+03  0.73417436094E+03 0.  0.
        1    1    3    3  502    0  0.37489072387E+02 -0.15794031705E+03 -0.21136104431E+03  0.26650340594E+03  0.50400001928E-02 0.  1.
       -1    1    3    3    0  502 -0.37489072387E+02  0.15794031705E+03  0.49435460915E+03  0.52032398937E+03  0.50400001928E-02 0. -1.
</event>
<event>
 5   0  0.2933851E-02  0.7125919E+03  0.7818609E-02  0.9695937E-01
       -2   -1    0    0    0  501  0.00000000000E+00  0.00000000000E+00  0.11967274599E+04  0.11967274599E+04  0.25500000920E-02 0. -1.
        2   -1    0    0  501    0  0.00000000000E+00  0.00000000000E+00 -0.10607829330E+03  0.10607829333E+03  0.25500000920E-02 0.  1.
    10030    2    1    2    0    0  0.00000000000E+00  0.00000000000E+00  0.10906491666E+04  0.13028057532E+04  0.71259190708E+03 0.  0.
        2    1    3    3  502    0  0.26131971655E+02  0.27043539028E+03  0.96673287362E+03  0.10041865510E+04  0.25500000920E-02 0. -1.
       -2    1    3    3    0  502 -0.26131971655E+02 -0.27043539028E+03  0.12391629294E+03  0.29861920220E+03  0.25500000920E-02 0.  1.
</event>
<event>
 5   0  0.3183963E-02  0.7073778E+03  0.7818609E-02  0.9704698E-01
       -2   -1    0    0    0  501  0.00000000000E+00  0.00000000000E+00  0.15006441880E+03  0.15006441882E+03  0.25500000920E-02 0.  1.
        2   -1    0    0  501    0  0.00000000000E+00  0.00000000000E+00 -0.83361435164E+03  0.83361435165E+03  0.25500000920E-02 0. -1.
    10030    2    1    2    0    0  0.00000000000E+00  0.00000000000E+00 -0.68354993284E+03  0.98367877047E+03  0.70737784302E+03 0.  0.
        4    1    3    3  502    0 -0.71376652574E+02  0.83206005911E+02  0.12583933352E+03  0.16689822262E+03  0.12699999809E+01 0.  1.
       -4    1    3    3    0  502  0.71376652574E+02 -0.83206005911E+02 -0.80938926636E+03  0.81678054785E+03  0.12699999809E+01 0. -1.
</event>
<event>
 5   0  0.3290656E-02  0.6864174E+03  0.7818609E-02  0.9740746E-01
        2   -1    0    0  501    0  0.00000000000E+00  0.00000000000E+00  0.51094254039E+03  0.51094254039E+03  0.25500000920E-02 0. -1.
       -2   -1    0    0    0  501  0.00000000000E+00  0.00000000000E+00 -0.23053906462E+03  0.23053906463E+03  0.25500000920E-02 0.  1.
    10030    2    1    2    0    0  0.00000000000E+00  0.00000000000E+00  0.28040347577E+03  0.74148160503E+03  0.68641741045E+03 0.  0.
        1    1    3    3  502    0 -0.14748634439E+03 -0.23932271513E+03 -0.72479863219E+02  0.29031175373E+03  0.50400001928E-02 0.  1.
       -1    1    3    3    0  502  0.14748634439E+03  0.23932271513E+03  0.35288333899E+03  0.45116985129E+03  0.50400001928E-02 0. -1.
</event>
<event>
 5   0  0.3290656E-02  0.7025180E+03  0.7818609E-02  0.9712936E-01
        2   -1    0    0  501    0  0.00000000000E+00  0.00000000000E+00  0.74889334348E+03  0.74889334348E+03  0.25500000920E-02 0.  1.
       -2   -1    0    0    0  501  0.00000000000E+00  0.00000000000E+00 -0.16475363411E+03  0.16475363413E+03  0.25500000920E-02 0. -1.
    10030    2    1    2    0    0  0.00000000000E+00  0.00000000000E+00  0.58413970936E+03  0.91364697761E+03  0.70251804222E+03 0.  0.
        1    1    3    3  502    0  0.31455253185E+03  0.12863801260E+03  0.40760411796E+03  0.53069025861E+03  0.50400001928E-02 0.  1.
       -1    1    3    3    0  502 -0.31455253185E+03 -0.12863801260E+03  0.17653559140E+03  0.38295671901E+03  0.50400001928E-02 0. -1.
</event>
<event>
 5   0  0.1858013E-02  0.6725351E+03  0.7818609E-02  0.9765389E-01
       -1   -1    0    0    0  501  0.00000000000E+00  0.00000000000E+00  0.79363460725E+02  0.79363460885E+02  0.50400001928E-02 0. -1.
        1   -1    0    0  501    0  0.00000000000E+00  0.00000000000E+00 -0.14247849192E+04  0.14247849192E+04  0.50400001928E-02 0.  1.
    10030    2    1    2    0    0  0.00000000000E+00  0.00000000000E+00 -0.13454214584E+04  0.15041483801E+04  0.67253509083E+03 0.  0.
        2    1    3    3  502    0 -0.14755688655E+02  0.30662465452E+03 -0.36573087522E+03  0.47748872469E+03  0.25500000920E-02 0. -1.
       -2    1    3    3    0  502  0.14755688655E+02 -0.30662465452E+03 -0.97969058321E+03  0.10266596554E+04  0.25500000920E-02 0.  1.
</event>
<event>
 5   0  0.1233912E-02  0.7071043E+03  0.7818609E-02  0.9705160E-01
        4   -1    0    0  501    0  0.00000000000E+00  0.00000000000E+00  0.57479898554E+03  0.57480038855E+03  0.12699999809E+01 0.  1.
       -4   -1    0    0    0  501  0.00000000000E+00  0.00000000000E+00 -0.21746225202E+03  0.21746596045E+03  0.12699999809E+01 0. -1.
    10030    2    1    2    0    0  0.00000000000E+00  0.00000000000E+00  0.35733673351E+03  0.79226634900E+03  0.70710425443E+03 0.  0.
        1    1    3    3  502    0  0.28532357830E+03 -0.32106632775E+02  0.40981207227E+03  0.50038616569E+03  0.50400001928E-02 0.  1.
       -1    1    3    3    0  502 -0.28532357830E+03  0.32106632775E+02 -0.52475338761E+02  0.29188018331E+03  0.50400001928E-02 0. -1.
</event>
<event>
 5   0  0.3290656E-02  0.6996919E+03  0.7818609E-02  0.9717759E-01
        2   -1    0    0  501    0  0.00000000000E+00  0.00000000000E+00  0.11931911629E+04  0.11931911629E+04  0.25500000920E-02 0. -1.
       -2   -1    0    0    0  501  0.00000000000E+00  0.00000000000E+00 -0.10257550706E+03  0.10257550709E+03  0.25500000920E-02 0.  1.
    10030    2    1    2    0    0  0.00000000000E+00  0.00000000000E+00  0.10906156558E+04  0.12957666700E+04  0.69969189954E+03 0.  0.
        1    1    3    3  502    0  0.27017459572E+03 -0.16256052833E+03  0.26462302497E+03  0.41163768403E+03  0.50400001928E-02 0.  1.
       -1    1    3    3    0  502 -0.27017459572E+03  0.16256052833E+03  0.82599263083E+03  0.88412898593E+03  0.50400001928E-02 0. -1.
</event>
<event>
 5   0  0.3113940E-02  0.7002764E+03  0.7818609E-02  0.9716760E-01
       -2   -1    0    0    0  501  0.00000000000E+00  0.00000000000E+00  0.37505005446E+03  0.37505005447E+03  0.25500000920E-02 0.  1.
        2   -1    0    0  501    0  0.00000000000E+00  0.00000000000E+00 -0.32688101486E+03  0.32688101487E+03  0.25500000920E-02 0. -1.
    10030    2    1    2    0    0  0.00000000000E+00  0.00000000000E+00  0.48169039602E+02  0.70193106933E+03  0.70027635239E+03 0.  0.
        5    1    3    3  502    0  0.82607693659E+02 -0.21038786937E+03 -0.24391885299E+03  0.33257417739E+03  0.46999998093E+01 0. -1.
       -5    1    3    3    0  502 -0.82607693659E+02  0.21038786937E+03  0.29208789259E+03  0.36935689194E+03  0.46999998093E+01 0.  1.
</event>
<event>
 5   0  0.3183963E-02  0.7014263E+03  0.7818609E-02  0.9714796E-01
        2   -1    0    0  501    0  0.00000000000E+00  0.00000000000E+00  0.10992919993E+04  0.10992919993E+04  0.25500000920E-02 0. -1.
       -2   -1    0    0    0  501  0.00000000000E+00  0.00000000000E+00 -0.11188993689E+03  0.11188993692E+03  0.25500000920E-02 0.  1.
    10030    2    1    2    0    0  0.00000000000E+00  0.00000000000E+00  0.98740206246E+03  0.12111819363E+04  0.70142629676E+03 0.  0.
        4    1    3    3  502    0 -0.29668935772E+03  0.18564311294E+03  0.53270243104E+03  0.63738640816E+03  0.12699999809E+01 0. -1.
       -4    1    3    3    0  502  0.29668935772E+03 -0.18564311294E+03  0.45469963142E+03  0.57379552811E+03  0.12699999809E+01 0.  1.
</event>
<event>
 5   0  0.1969818E-02  0.7130595E+03  0.7818609E-02  0.9695156E-01
       -1   -1    0    0    0  501  0.00000000000E+00  0.00000000000E+00  0.27317282721E+03  0.27317282726E+03  0.50400001928E-02 0.  1.
        1   -1    0    0  501    0  0.00000000000E+00  0.00000000000E+00 -0.46532251648E+03  0.46532251651E+03  0.50400001928E-02 0. -1.
    10030    2    1    2    0    0  0.00000000000E+00  0.00000000000E+00 -0.19214968927E+03  0.73849534377E+03  0.71305951342E+03 0.  0.
        1    1    3    3  502    0  0.17508270958E+03 -0.76115508799E+02  0.21577395080E+03  0.28810748644E+03  0.50400001928E-02 0.  1.
       -1    1    3    3    0  502 -0.17508270958E+03  0.76115508799E+02 -0.40792364007E+03  0.45038785732E+03  0.50400001928E-02 0. -1.
</event>
<event>
 5   0  0.3184443E-02  0.6951464E+03  0.7818609E-02  0.9725569E-01
       -2   -1    0    0    0  501  0.00000000000E+00  0.00000000000E+00  0.52078111413E+03  0.52078111414E+03  0.25500000920E-02 0.  1.
        2   -1    0    0  501    0  0.00000000000E+00  0.00000000000E+00 -0.23197294105E+03  0.23197294107E+03  0.25500000920E-02 0. -1.
    10030    2    1    2    0    0  0.00000000000E+00  0.00000000000E+00  0.28880817308E+03  0.75275405520E+03  0.69514639235E+03 0.  0.
        3    1    3    3  502    0 -0.22062232572E+03  0.26613488333E+03  0.18352452173E+03  0.39138631429E+03  0.10100000352E+00 0.  1.
       -3    1    3    3    0  502  0.22062232572E+03 -0.26613488333E+03  0.10528365134E+03  0.36136774092E+03  0.10100000352E+00 0. -1.
</event>
<event>
 5   0  0.3290656E-02  0.7050002E+03  0.7818609E-02  0.9708719E-01
       -2   -1    0    0    0  501  0.00000000000E+00  0.00000000000E+00  0.16175822144E+03  0.16175822146E+03  0.25500000920E-02 0. -1.
        2   -1    0    0  501    0  0.00000000000E+00  0.00000000000E+00 -0.76816085084E+03  0.76816085085E+03  0.25500000920E-02 0.  1.
    10030    2    1    2    0    0  0.00000000000E+00  0.00000000000E+00 -0.60640262940E+03  0.92991907231E+03  0.70500023553E+03 0.  0.
        1    1    3    3  502    0  0.16214970706E+03 -0.22058338512E+03 -0.59609445126E+03  0.65595590717E+03  0.50400001928E-02 0.  1.
       -1    1    3    3    0  502 -0.16214970706E+03  0.22058338512E+03 -0.10308178138E+02  0.27396316514E+03  0.50400001928E-02 0. -1.
</event>
<event>
 5   0  0.1951465E-02  0.6940834E+03  0.7818609E-02  0.9727404E-01
        1   -1    0    0  501    0  0.00000000000E+00  0.00000000000E+00  0.51191627035E+03  0.51191627037E+03  0.50400001928E-02 0.  1.
       -1   -1    0    0    0  501  0.00000000000E+00  0.00000000000E+00 -0.23526885387E+03  0.23526885392E+03  0.50400001928E-02 0. -1.
    10030    2    1    2    0    0  0.00000000000E+00  0.00000000000E+00  0.27664741648E+03  0.74718512429E+03  0.69408343657E+03 0.  0.
        4    1    3    3  502    0  0.63685924678E+02 -0.10414085782E+02  0.50539810284E+03  0.50950290032E+03  0.12699999809E+01 0.  1.
       -4    1    3    3    0  502 -0.63685924678E+02  0.10414085782E+02 -0.22875068636E+03  0.23768222397E+03  0.12699999809E+01 0. -1.
</event>
<event>
 5   0  0.3184443E-02  0.7050880E+03  0.7818609E-02  0.9708570E-01
        2   -1    0    0  501    0  0.00000000000E+00  0.00000000000E+00  0.17823604101E+03  0.17823604103E+03  0.25500000920E-02 0. -1.
       -2   -1    0    0    0  501  0.00000000000E+00  0.00000000000E+00 -0.69731832206E+03  0.69731832206E+03  0.25500000920E-02 0.  1.
    10030    2    1    2    0    0  0.00000000000E+00  0.00000000000E+00 -0.51908228104E+03  0.87555436309E+03  0.70508795780E+03 0.  0.
        3    1    3    3  502    0  0.25518064492E+03 -0.85550937237E+01 -0.56141266870E+03  0.61674512236E+03  0.10100000352E+00 0.  1.
       -3    1    3    3    0  502 -0.25518064492E+03  0.85550937237E+01  0.42330387659E+02  0.25880924074E+03  0.10100000352E+00 0. -1.
</event>
<event>
 5   0  0.3290656E-02  0.6967087E+03  0.7818609E-02  0.9722877E-01
        2   -1    0    0  501    0  0.00000000000E+00  0.00000000000E+00  0.16563686836E+04  0.16563686836E+04  0.25500000920E-02 0. -1.
       -2   -1    0    0    0  501  0.00000000000E+00  0.00000000000E+00 -0.73263122724E+02  0.73263122769E+02  0.25500000920E-02 0.  1.
    10030    2    1    2    0    0  0.00000000000E+00  0.00000000000E+00  0.15831055609E+04  0.17296318064E+04  0.69670866848E+03 0.  0.
        1    1    3    3  502    0  0.26239904629E+03 -0.11637694291E+03  0.12815322291E+04  0.13132866049E+04  0.50400001928E-02 0. -1.
       -1    1    3    3    0  502 -0.26239904629E+03  0.11637694291E+03  0.30157333179E+03  0.41634520149E+03  0.50400001928E-02 0.  1.
</event>
<event>
 5   0  0.1858013E-02  0.6985319E+03  0.7818609E-02  0.9719746E-01
        1   -1    0    0  501    0  0.00000000000E+00  0.00000000000E+00  0.19973345703E+03  0.19973345710E+03  0.50400001928E-02 0. -1.
       -1   -1    0    0    0  501  0.00000000000E+00  0.00000000000E+00 -0.61074755726E+03  0.61074755728E+03  0.50400001928E-02 0.  1.
    10030    2    1    2    0    0  0.00000000000E+00  0.00000000000E+00 -0.41101410022E+03  0.81048101437E+03  0.69853194922E+03 0.  0.
        2    1    3    3  502    0  0.14650073052E+03  0.17496815435E+03  0.10127325206E+03  0.24966495683E+03  0.25500000920E-02 0. -1.
       -2    1    3    3    0  502 -0.14650073052E+03 -0.17496815435E+03 -0.51228735229E+03  0.56081605754E+03  0.25500000920E-02 0.  1.
</event>
<event>
 5   0  0.3113940E-02  0.6970011E+03  0.7818609E-02  0.9722374E-01
       -2   -1    0    0    0  501  0.00000000000E+00  0.00000000000E+00  0.63823808593E+03  0.63823808593E+03  0.25500000920E-02 0.  1.
        2   -1    0    0  501    0  0.00000000000E+00  0.00000000000E+00 -0.19029364161E+03  0.19029364162E+03  0.25500000920E-02 0. -1.
    10030    2    1    2    0    0  0.00000000000E+00  0.00000000000E+00  0.44794444432E+03  0.82853172756E+03  0.69700114660E+03 0.  0.
        5    1    3    3  502    0 -0.17808166323E+03 -0.71727199840E+02  0.56966533119E+03  0.60116432823E+03  0.46999998093E+01 0.  1.
       -5    1    3    3    0  502  0.17808166323E+03  0.71727199840E+02 -0.12172088687E+03  0.22736739932E+03  0.46999998093E+01 0. -1.
</event>
<event>
 5   0  0.1969818E-02  0.7001849E+03  0.7818609E-02  0.9716916E-01
       -1   -1    0    0    0  501  0.00000000000E+00  0.00000000000E+00  0.68519570422E+02  0.68519570608E+02  0.50400001928E-02 0.  1.
        1   -1    0    0  501    0  0.00000000000E+00  0.00000000000E+00 -0.17887549226E+04  0.17887549226E+04  0.50400001928E-02 0. -1.
    10030    2    1    2    0    0  0.00000000000E+00  0.00000000000E+00 -0.17202353521E+04  0.18572744932E+04  0.70018488719E+03 0.  0.
        1    1    3    3  502    0  0.23468235495E+03  0.25275098368E+03 -0.10193998902E+04  0.10761668104E+04  0.50400001928E-02 0. -1.
       -1    1    3    3    0  502 -0.23468235495E+03 -0.25275098368E+03 -0.70083546190E+03  0.78110768282E+03  0.50400001928E-02 0.  1.
</event>
<event>
 5   0  0.3290656E-02  0.6650842E+03  0.7818609E-02  0.9778879E-01
        2   -1    0    0  501    0  0.00000000000E+00  0.00000000000E+00  0.45859920703E+03  0.45859920704E+03  0.25500000920E-02 0.  1.
       -2   -1    0    0    0  501  0.00000000000E+00  0.00000000000E+00 -0.24113487263E+03  0.24113487264E+03  0.25500000920E-02 0. -1.
    10030    2    1    2    0    0  0.00000000000E+00  0.00000000000E+00  0.21746433440E+03  0.69973407968E+03  0.66508423943E+03 0.  0.
        1    1    3    3  502    0 -0.92035690395E+02  0.29948616452E+03  0.22599149974E+03  0.38630905895E+03  0.50400001928E-02 0.  1.
       -1    1    3    3    0  502  0.92035690395E+02 -0.29948616452E+03 -0.85271653398E+01  0.31342502073E+03  0.50400001928E-02 0. -1.
</event>
<event>
 5   0  0.2933851E-02  0.6998045E+03  0.7818609E-02  0.9717567E-01
       -2   -1    0    0    0  501  0.00000000000E+00  0.00000000000E+00  0.18879772337E+03  0.18879772339E+03  0.25500000920E-02 0.  1.
        2   -1    0    0  501    0  0.00000000000E+00  0.00000000000E+00 -0.64848014035E+03  0.64848014036E+03  0.25500000920E-02 0. -1.
    10030    2    1    2    0    0  0.00000000000E+00  0.00000000000E+00 -0.45968241698E+03  0.83727786375E+03  0.69980447029E+03 0.  0.
        2    1    3    3  502    0  0.92375115750E+02  0.24435080857E+02  0.17288548653E+03  0.19753386202E+03  0.25500000920E-02 0.  1.
       -2    1    3    3    0  502 -0.92375115750E+02 -0.24435080857E+02 -0.63256790351E+03  0.63974400173E+03  0.25500000920E-02 0. -1.
</event>
<event>
 5   0  0.1839038E-02  0.7066589E+03  0.7818609E-02  0.9705912E-01
        1   -1    0    0  501    0  0.00000000000E+00  0.00000000000E+00  0.36546623924E+03  0.36546623928E+03  0.50400001928E-02 0.  1.
       -1   -1    0    0    0  501  0.00000000000E+00  0.00000000000E+00 -0.34159568666E+03  0.34159568670E+03  0.50400001928E-02 0. -1.
    10030    2    1    2    0    0  0.00000000000E+00  0.00000000000E+00  0.23870552581E+02  0.70706192598E+03  0.70665887378E+03 0.  0.
        5    1    3    3  502    0  0.33871746575E+02  0.14059842198E+03  0.33446116637E+03  0.36441950179E+03  0.46999998093E+01 0.  1.
       -5    1    3    3    0  502 -0.33871746575E+02 -0.14059842198E+03 -0.31059061379E+03  0.34264242418E+03  0.46999998093E+01 0. -1.
</event>
<event>
 5   0  0.1884172E-02  0.6994128E+03  0.7818609E-02  0.9718237E-01
        1   -1    0    0  501    0  0.00000000000E+00  0.00000000000E+00  0.50612558806E+03  0.50612558809E+03  0.50400001928E-02 0. -1.
       -1   -1    0    0    0  501  0.00000000000E+00  0.00000000000E+00 -0.24162890698E+03  0.24162890704E+03  0.50400001928E-02 0.  1.
    10030    2    1    2    0    0  0.00000000000E+00  0.00000000000E+00  0.26449668108E+03  0.74775449513E+03  0.69941281850E+03 0.  0.
        3    1    3    3  502    0 -0.93481269550E+02 -0.15327418859E+03 -0.18859886307E+03  0.26038676233E+03  0.10100000352E+00 0.  1.
       -3    1    3    3    0  502  0.93481269550E+02  0.15327418859E+03  0.45309554415E+03  0.48736773280E+03  0.10100000352E+00 0. -1.
</event>
<event>
 5   0  0.3184443E-02  0.7050253E+03  0.7818609E-02  0.9708677E-01
       -2   -1    0    0    0  501  0.00000000000E+00  0.00000000000E+00  0.60956000866E+03  0.60956000866E+03  0.25500000920E-02 0.  1.
        2   -1    0    0  501    0  0.00000000000E+00  0.00000000000E+00 -0.20386041926E+03  0.20386041927E+03  0.25500000920E-02 0. -1.
    10030    2    1    2    0    0  0.00000000000E+00  0.00000000000E+00  0.40569958940E+03  0.81342042793E+03  0.70502527312E+03 0.  0.
        3    1    3    3  502    0 -0.32917982313E+02  0.16850946555E+03 -0.15235821600E+03  0.22954753260E+03  0.10100000352E+00 0. -1.
       -3    1    3    3    0  502  0.32917982313E+02 -0.16850946555E+03  0.55805780540E+03  0.58387289533E+03  0.10100000352E+00 0.  1.
</event>
<event>
 5   0  0.3113940E-02  0.6982364E+03  0.7818609E-02  0.9720253E-01
       -2   -1    0    0    0  501  0.00000000000E+00  0.00000000000E+00  0.59091251905E+02  0.59091251960E+02  0.25500000920E-02 0. -1.
        2   -1    0    0  501    0  0.00000000000E+00  0.00000000000E+00 -0.20626320992E+04  0.20626320992E+04  0.25500000920E-02 0.  1.
    10030    2    1    2    0    0  0.00000000000E+00  0.00000000000E+00 -0.20035408472E+04  0.21217233511E+04  0.69823638696E+03 0.  0.
        5    1    3    3  502    0  0.31098411561E+03 -0.57909375430E+02 -0.14503946466E+04  0.14844969979E+04  0.46999998093E+01 0. -1.
       -5    1    3    3    0  502 -0.31098411561E+03  0.57909375430E+02 -0.55314620064E+03  0.63722635319E+03  0.46999998093E+01 0.  1.
</event>
<event>
 5   0  0.1839038E-02  0.7003378E+03  0.7818609E-02  0.9716655E-01
       -1   -1    0    0    0  501  0.00000000000E+00  0.00000000000E+00  0.12201581686E+03  0.12201581696E+03  0.50400001928E-02 0.  1.
        1   -1    0    0  501    0  0.00000000000E+00  0.00000000000E+00 -0.10049375105E+04  0.10049375105E+04  0.50400001928E-02 0. -1.
    10030    2    1    2    0    0  0.00000000000E+00  0.00000000000E+00 -0.88292169363E+03  0.11269533275E+04  0.70033783648E+03 0.  0.
        5    1    3    3  502    0  0.58380842095E+02 -0.25914335127E+03 -0.74401718463E+02  0.27590089696E+03  0.46999998093E+01 0.  1.
       -5    1    3    3    0  502 -0.58380842095E+02  0.25914335127E+03 -0.80851997516E+03  0.85105243051E+03  0.46999998093E+01 0. -1.
</event>
<event>
 5   0  0.3290656E-02  0.6465611E+03  0.7818609E-02  0.9813254E-01
        2   -1    0    0  501    0  0.00000000000E+00  0.00000000000E+00  0.19025918122E+04  0.19025918122E+04  0.25500000920E-02 0.  1.
       -2   -1    0    0    0  501  0.00000000000E+00  0.00000000000E+00 -0.54930491017E+02  0.54930491076E+02  0.25500000920E-02 0. -1.
    10030    2    1    2    0    0  0.00000000000E+00  0.00000000000E+00  0.18476613212E+04  0.19575223033E+04  0.64656106443E+03 0.  0.
        1    1    3    3  502    0  0.16515597059E+03  0.23617364317E+03  0.48035508044E+03  0.56017451537E+03  0.50400001928E-02 0.  1.
       -1    1    3    3    0  502 -0.16515597059E+03 -0.23617364317E+03  0.13673062408E+04  0.13973477879E+04  0.50400001928E-02 0. -1.
</event>
<event>
 5   0  0.1969818E-02  0.7024551E+03  0.7818609E-02  0.9713043E-01
       -1   -1    0    0    0  501  0.00000000000E+00  0.00000000000E+00  0.19518697041E+03  0.19518697047E+03  0.50400001928E-02 0. -1.
        1   -1    0    0  501    0  0.00000000000E+00  0.00000000000E+00 -0.63201341773E+03  0.63201341775E+03  0.50400001928E-02 0.  1.
    10030    2    1    2    0    0  0.00000000000E+00  0.00000000000E+00 -0.43682644732E+03  0.82720038822E+03  0.70245507841E+03 0.  0.
        1    1    3    3  502    0  0.33672337014E+03  0.50843147188E+02 -0.11716058178E+03  0.36013088672E+03  0.50400001928E-02 0. -1.
       -1    1    3    3    0  502 -0.33672337014E+03 -0.50843147188E+02 -0.31966586554E+03  0.46706950150E+03  0.50400001928E-02 0.  1.
</event>
<event>
 5   0  0.3184443E-02  0.6947248E+03  0.7818609E-02  0.9726296E-01
       -2   -1    0    0    0  501  0.00000000000E+00  0.00000000000E+00  0.20274629634E+03  0.20274629636E+03  0.25500000920E-02 0. -1.
        2   -1    0    0  501    0  0.00000000000E+00  0.00000000000E+00 -0.59513120677E+03  0.59513120677E+03  0.25500000920E-02 0.  1.
    10030    2    1    2    0    0  0.00000000000E+00  0.00000000000E+00 -0.39238491043E+03  0.79787750313E+03  0.69472483191E+03 0.  0.
        3    1    3    3  502    0  0.72304155181E+02 -0.33456104961E+03 -0.26415346604E+03  0.43236101882E+03  0.10100000352E+00 0.  1.
       -3    1    3    3    0  502 -0.72304155181E+02  0.33456104961E+03 -0.12823144438E+03  0.36551648431E+03  0.10100000352E+00 0. -1.
</event>
<event>
 5   0  0.3183963E-02  0.6993230E+03  0.7818609E-02  0.9718391E-01
       -2   -1    0    0    0  501  0.00000000000E+00  0.00000000000E+00  0.58288669309E+02  0.58288669365E+02  0.25500000920E-02 0. -1.
        2   -1    0    0  501    0  0.00000000000E+00  0.00000000000E+00 -0.20975461554E+04  0.20975461554E+04  0.25500000920E-02 0.  1.
    10030    2    1    2    0    0  0.00000000000E+00  0.00000000000E+00 -0.20392574861E+04  0.21558348248E+04  0.69932302772E+03 0.  0.
        4    1    3    3  502    0  0.20106830662E+03 -0.25336211583E+02 -0.18980282111E+04  0.19088171967E+04  0.12699999809E+01 0.  1.
       -4    1    3    3    0  502 -0.20106830662E+03  0.25336211583E+02 -0.14122927502E+03  0.24701762805E+03  0.12699999809E+01 0. -1.
</event>
<event>
 5   0  0.2933851E-02  0.7148113E+03  0.7818609E-02  0.9692233E-01
       -2   -1    0    0    0  501  0.00000000000E+00  0.00000000000E+00  0.10309934990E+03  0.10309934993E+03  0.25500000920E-02 0.  1.
        2   -1    0    0  501    0  0.00000000000E+00  0.00000000000E+00 -0.12389875613E+04  0.12389875613E+04  0.25500000920E-02 0. -1.
    10030    2    1    2    0    0  0.00000000000E+00  0.00000000000E+00 -0.11358882114E+04  0.13420869112E+04  0.71481133770E+03 0.  0.
        2    1    3    3  502    0 -0.23935939317E+03  0.13845163622E+03 -0.99310241514E+03  0.10308802945E+04  0.25500000920E-02 0. -1.
       -2    1    3    3    0  502  0.23935939317E+03 -0.13845163622E+03 -0.14278579628E+03  0.31120661672E+03  0.25500000920E-02 0.  1.
</event>
<event>
 5   0  0.2933851E-02  0.6262642E+03  0.7818609E-02  0.9852366E-01
        2   -1    0    0  501    0  0.00000000000E+00  0.00000000000E+00  0.51745207915E+03  0.51745207916E+03  0.25500000920E-02 0.  1.
       -2   -1    0    0    0  501  0.00000000000E+00  0.00000000000E+00 -0.18948943180E+03  0.18948943182E+03  0.25500000920E-02 0. -1.
    10030    2    1    2    0    0  0.00000000000E+00  0.00000000000E+00  0.32796264736E+03  0.70694151098E+03  0.62626416302E+03 0.  0.
        2    1    3    3  502    0  0.11527435894E+03 -0.27912595526E+03  0.70539417206E+02  0.31012140544E+03  0.25500000920E-02 0. -1.
       -2    1    3    3    0  502 -0.11527435894E+03  0.27912595526E+03  0.25742323015E+03  0.39682010553E+03  0.25500000920E-02 0.  1.
</event>
<event>
 5   0  0.3290656E-02  0.6793854E+03  0.7818609E-02  0.9753150E-01
        2   -1    0    0  501    0  0.00000000000E+00  0.00000000000E+00  0.71592208922E+03  0.71592208923E+03  0.25500000920E-02 0.  1.
       -2   -1    0    0    0  501  0.00000000000E+00  0.00000000000E+00 -0.16117832135E+03  0.16117832137E+03  0.25500000920E-02 0. -1.
    10030    2    1    2    0    0  0.00000000000E+00  0.00000000000E+00  0.55474376787E+03  0.87710041060E+03  0.67938537097E+03 0.  0.
        1    1    3    3  502    0  0.17791404634E+03  0.57274436698E+02 -0.88826134206E+02  0.20693924501E+03  0.50400001928E-02 0. -1.
       -1    1    3    3    0  502 -0.17791404634E+03 -0.57274436698E+02  0.64356990207E+03  0.67016116559E+03  0.50400001928E-02 0.  1.
</event>
<event>
 5   0  0.1839038E-02  0.7031629E+03  0.7818609E-02  0.9711838E-01
        1   -1    0    0  501    0  0.00000000000E+00  0.00000000000E+00  0.80091601912E+03  0.80091601914E+03  0.50400001928E-02 0. -1.
       -1   -1    0    0    0  501  0.00000000000E+00  0.00000000000E+00 -0.15433517723E+03  0.15433517731E+03  0.50400001928E-02 0.  1.
    10030    2    1    2    0    0  0.00000000000E+00  0.00000000000E+00  0.64658084189E+03  0.95525119645E+03  0.70316289949E+03 0.  0.
        5    1    3    3  502    0  0.92767945863E+02 -0.19402348757E+01 -0.13735693395E+03  0.16582724021E+03  0.46999998093E+01 0.  1.
       -5    1    3    3    0  502 -0.92767945863E+02  0.19402348757E+01  0.78393777585E+03  0.78942395624E+03  0.46999998093E+01 0. -1.
</event>
<event>
 5   0  0.1969818E-02  0.7118528E+03  0.7818609E-02  0.9697174E-01
        1   -1    0    0  501    0  0.00000000000E+00  0.00000000000E+00  0.54517991879E+03  0.54517991881E+03  0.50400001928E-02 0.  1.
       -1   -1    0    0    0  501  0.00000000000E+00  0.00000000000E+00 -0.23237026750E+03  0.23237026755E+03  0.50400001928E-02 0. -1.
    10030    2    1    2    0    0  0.00000000000E+00  0.00000000000E+00  0.31280965129E+03  0.77755018636E+03  0.71185280387E+03 0.  0.
        1    1    3    3  502    0 -0.95577439874E+02 -0.10937056345E+03  0.51133482424E+03  0.53156398455E+03  0.50400001928E-02 0.  1.
       -1    1    3    3    0  502  0.95577439874E+02  0.10937056345E+03 -0.19852517295E+03  0.24598620181E+03  0.50400001928E-02 0. -1.
</event>
<event>
 5   0  0.3290656E-02  0.6958269E+03  0.7818609E-02  0.9724395E-01
       -2   -1    0    0    0  501  0.00000000000E+00  0.00000000000E+00  0.32105496210E+03  0.32105496211E+03  0.25500000920E-02 0. -1.
        2   -1    0    0  501    0  0.00000000000E+00  0.00000000000E+00 -0.37701886612E+03  0.37701886613E+03  0.25500000920E-02 0.  1.
    10030    2    1    2    0    0  0.00000000000E+00  0.00000000000E+00 -0.55963904020E+02  0.69807382825E+03  0.69582692613E+03 0.  0.
        1    1    3    3  502    0  0.13128459415E+02  0.21190574131E+03 -0.30449376797E+03  0.37120459912E+03  0.50400001928E-02 0.  1.
       -1    1    3    3    0  502 -0.13128459415E+02 -0.21190574131E+03  0.24852986395E+03  0.32686922913E+03  0.50400001928E-02 0. -1.
</event>
<event>
 5   0  0.1858013E-02  0.6920483E+03  0.7818609E-02  0.9730928E-01
        1   -1    0    0  501    0  0.00000000000E+00  0.00000000000E+00  0.48509209557E+03  0.48509209560E+03  0.50400001928E-02 0. -1.
       -1   -1    0    0    0  501  0.00000000000E+00  0.00000000000E+00 -0.24682470337E+03  0.24682470342E+03  0.50400001928E-02 0.  1.
    10030    2    1    2    0    0  0.00000000000E+00  0.00000000000E+00  0.23826739221E+03  0.73191679902E+03  0.69204830069E+03 0.  0.
        2    1    3    3  502    0 -0.25377063895E+02 -0.23333118643E+03  0.38803549107E+03  0.45349639499E+03  0.25500000920E-02 0. -1.
       -2    1    3    3    0  502  0.25377063895E+02  0.23333118643E+03 -0.14976809886E+03  0.27842040403E+03  0.25500000920E-02 0.  1.
</event>
<event>
 5   0  0.1884172E-02  0.6963198E+03  0.7818609E-02  0.9723547E-01
        1   -1    0    0  501    0  0.00000000000E+00  0.00000000000E+00  0.24375519230E+03  0.24375519236E+03  0.50400001928E-02 0. -1.
       -1   -1    0    0    0  501  0.00000000000E+00  0.00000000000E+00 -0.49728303594E+03  0.49728303597E+03  0.50400001928E-02 0.  1.
    10030    2    1    2    0    0  0.00000000000E+00  0.00000000000E+00 -0.25352784364E+03  0.74103822832E+03  0.69631981757E+03 0.  0.
        3    1    3    3  502    0 -0.26080151761E+03 -0.20441474869E+03 -0.13073971239E+02  0.33162291838E+03  0.10100000352E+00 0. -1.
       -3    1    3    3    0  502  0.26080151761E+03  0.20441474869E+03 -0.24045387240E+03  0.40941530995E+03  0.10100000352E+00 0.  1.
</event>
<event>
 5   0  0.1951465E-02  0.6394962E+03  0.7818609E-02  0.9826691E-01
       -1   -1    0    0    0  501  0.00000000000E+00  0.00000000000E+00  0.69463014623E+03  0.69463014625E+03  0.50400001928E-02 0.  1.
        1   -1    0    0  501    0  0.00000000000E+00  0.00000000000E+00 -0.14718460264E+03  0.14718460273E+03  0.50400001928E-02 0. -1.
    10030    2    1    2    0    0  0.00000000000E+00  0.00000000000E+00  0.54744554359E+03  0.84181474897E+03  0.63949624580E+03 0.  0.
        4    1    3    3  502    0 -0.74293215643E+01 -0.25163685621E+03  0.53322149236E+03  0.58966352697E+03  0.12699999809E+01 0.  1.
       -4    1    3    3    0  502  0.74293215643E+01  0.25163685621E+03  0.14224051225E+02  0.25215122200E+03  0.12699999809E+01 0. -1.
</event>
<event>
 5   0  0.3290656E-02  0.6968895E+03  0.7818609E-02  0.9722566E-01
        2   -1    0    0  501    0  0.00000000000E+00  0.00000000000E+00  0.96379914786E+03  0.96379914786E+03  0.25500000920E-02 0. -1.
       -2   -1    0    0    0  501  0.00000000000E+00  0.00000000000E+00 -0.12597410385E+03  0.12597410388E+03  0.25500000920E-02 0.  1.
    10030    2    1    2    0    0  0.00000000000E+00  0.00000000000E+00  0.83782504401E+03  0.10897732517E+04  0.69688947175E+03 0.  0.
        1    1    3    3  502    0  0.64738255408E+02  0.31482449556E+03  0.20848127338E+03  0.38310565918E+03  0.50400001928E-02 0. -1.
       -1    1    3    3    0  502 -0.64738255408E+02 -0.31482449556E+03  0.62934377063E+03  0.70666759256E+03  0.50400001928E-02 0.  1.
</event>
<event>
 5   0  0.1858013E-02  0.7415420E+03  0.7818609E-02  0.9648714E-01
        1   -1    0    0  501    0  0.00000000000E+00  0.00000000000E+00  0.28532719246E+04  0.28532719246E+04  0.50400001928E-02 0.  1.
       -1   -1    0    0    0  501  0.00000000000E+00  0.00000000000E+00 -0.48180177199E+02  0.48180177462E+02  0.50400001928E-02 0. -1.
    10030    2    1    2    0    0  0.00000000000E+00  0.00000000000E+00  0.28050917474E+04  0.29014521020E+04  0.74154203471E+03 0.  0.
        2    1    3    3  502    0 -0.12664367645E+03  0.26000309780E+03  0.49473471901E+03  0.57306428422E+03  0.25500000920E-02 0. -1.
       -2    1    3    3    0  502  0.12664367645E+03 -0.26000309780E+03  0.23103570284E+04  0.23283878178E+04  0.25500000920E-02 0.  1.
</event>
<event>
 5   0  0.1884172E-02  0.7020506E+03  0.7818609E-02  0.9713732E-01
        1   -1    0    0  501    0  0.00000000000E+00  0.00000000000E+00  0.12265549878E+04  0.12265549878E+04  0.50400001928E-02 0. -1.
       -1   -1    0    0    0  501  0.00000000000E+00  0.00000000000E+00 -0.10045923351E+03  0.10045923363E+03  0.50400001928E-02 0.  1.
    10030    2    1    2    0    0  0.00000000000E+00  0.00000000000E+00  0.11260957543E+04  0.13270142214E+04  0.70205063640E+03 0.  0.
        3    1    3    3  502    0 -0.28876566685E+03 -0.18909390313E+03  0.68373441083E+03  0.76592092889E+03  0.10100000352E+00 0.  1.
       -3    1    3    3    0  502  0.28876566685E+03  0.18909390313E+03  0.44236134345E+03  0.56109329254E+03  0.10100000352E+00 0. -1.
</event>
<event>
 5   0  0.1839038E-02  0.7032111E+03  0.7818609E-02  0.9711756E-01
       -1   -1    0    0    0  501  0.00000000000E+00  0.00000000000E+00  0.24178745909E+03  0.24178745914E+03  0.50400001928E-02 0. -1.
        1   -1    0    0  501    0  0.00000000000E+00  0.00000000000E+00 -0.51130222164E+03  0.51130222166E+03  0.50400001928E-02 0.  1.
    10030    2    1    2    0    0  0.00000000000E+00  0.00000000000E+00 -0.26951476255E+03  0.75308968080E+03  0.70321110635E+03 0.  0.
        5    1    3    3  502    0 -0.30756375422E+03 -0.11827988893E+03 -0.26600103224E+03  0.42351414874E+03  0.46999998093E+01 0.  1.
       -5    1    3    3    0  502  0.30756375422E+03  0.11827988893E+03 -0.35137303179E+01  0.32957553206E+03  0.46999998093E+01 0. -1.
</event>
<event>
 5   0  0.3290656E-02  0.7022010E+03  0.7818609E-02  0.9713476E-01
       -2   -1    0    0    0  501  0.00000000000E+00  0.00000000000E+00  0.10233689269E+03  0.10233689272E+03  0.25500000920E-02 0.  1.
        2   -1    0    0  501    0  0.00000000000E+00  0.00000000000E+00 -0.12045663470E+04  0.12045663470E+04  0.25500000920E-02 0. -1.
    10030    2    1    2    0    0  0.00000000000E+00  0.00000000000E+00 -0.11022294543E+04  0.13069032397E+04  0.70220104533E+03 0.  0.
        1    1    3    3  502    0 -0.28372529876E+03  0.24069596215E+02 -0.93340916408E+03  0.97587502183E+03  0.50400001928E-02 0. -1.
       -1    1    3    3    0  502  0.28372529876E+03 -0.24069596215E+02 -0.16882029020E+03  0.33102821787E+03  0.50400001928E-02 0.  1.
</event>
<event>
 5   0  0.1233912E-02  0.6971746E+03  0.7818609E-02  0.9722076E-01
        3   -1    0    0  501    0  0.00000000000E+00  0.00000000000E+00  0.19849807721E+03  0.19849810290E+03  0.10100000352E+00 0.  1.
       -3   -1    0    0    0  501  0.00000000000E+00  0.00000000000E+00 -0.61216253191E+03  0.61216254024E+03  0.10100000352E+00 0. -1.
    10030    2    1    2    0    0  0.00000000000E+00  0.00000000000E+00 -0.41366445471E+03  0.81066064314E+03  0.69717458162E+03 0.  0.
        1    1    3    3  502    0 -0.16632847538E+03  0.12234161575E+03  0.11974227950E+03  0.23868566398E+03  0.50400001928E-02 0.  1.
       -1    1    3    3    0  502  0.16632847538E+03 -0.12234161575E+03 -0.53340673420E+03  0.57197497916E+03  0.50400001928E-02 0. -1.
</event>
<event>
 5   0  0.1839038E-02  0.7007923E+03  0.7818609E-02  0.9715878E-01
       -1   -1    0    0    0  501  0.00000000000E+00  0.00000000000E+00  0.12463686315E+03  0.12463686325E+03  0.50400001928E-02 0. -1.
        1   -1    0    0  501    0  0.00000000000E+00  0.00000000000E+00 -0.98508157265E+03  0.98508157266E+03  0.50400001928E-02 0.  1.
    10030    2    1    2    0    0  0.00000000000E+00  0.00000000000E+00 -0.86044470950E+03  0.11097184359E+04  0.70079234363E+03 0.  0.
        5    1    3    3  502    0  0.24802873426E+03  0.48114978147E+02 -0.45840835673E+02  0.25682051389E+03  0.46999998093E+01 0. -1.
       -5    1    3    3    0  502 -0.24802873426E+03 -0.48114978147E+02 -0.81460387383E+03  0.85289792202E+03  0.46999998093E+01 0.  1.
</event>
<event>
 5   0  0.1233912E-02  0.7019238E+03  0.7818609E-02  0.9713948E-01
        3   -1    0    0  501    0  0.00000000000E+00  0.00000000000E+00  0.46106243465E+03  0.46106244571E+03  0.10100000352E+00 0.  1.
       -3   -1    0    0    0  501  0.00000000000E+00  0.00000000000E+00 -0.26715303518E+03  0.26715305427E+03  0.10100000352E+00 0. -1.
    10030    2    1    2    0    0  0.00000000000E+00  0.00000000000E+00  0.19390939947E+03  0.72821549998E+03  0.70192375598E+03 0.  0.
        5    1    3    3  502    0 -0.14323583415E+03 -0.27368881809E+03 -0.75806221508E+02  0.31810493010E+03  0.46999998093E+01 0. -1.
       -5    1    3    3    0  502  0.14323583415E+03  0.27368881809E+03  0.26971562098E+03  0.41011056989E+03  0.46999998093E+01 0.  1.
</event>
<event>
 5   0  0.2933851E-02  0.6998193E+03  0.7818609E-02  0.9717541E-01
        2   -1    0    0  501    0  0.00000000000E+00  0.00000000000E+00  0.13204004354E+04  0.13204004354E+04  0.25500000920E-02 0.  1.
       -2   -1    0    0    0  501  0.00000000000E+00  0.00000000000E+00 -0.92726996231E+02  0.92726996266E+02  0.25500000920E-02 0. -1.
    10030    2    1    2    0    0  0.00000000000E+00  0.00000000000E+00  0.12276734391E+04  0.14131274316E+04  0.69981930873E+03 0.  0.
        2    1    3    3  502    0 -0.28072101722E+02  0.29876877470E+03  0.25044612973E+03  0.39086325938E+03  0.25500000920E-02 0.  1.
       -2    1    3    3    0  502  0.28072101722E+02 -0.29876877470E+03  0.97722730940E+03  0.10222641723E+04  0.25500000920E-02 0. -1.
</event>
<event>
 5   0  0.1858013E-02  0.7076720E+03  0.7818609E-02  0.9704201E-01
       -1   -1    0    0    0  501  0.00000000000E+00  0.00000000000E+00  0.30145939210E+03  0.30145939214E+03  0.50400001928E-02 0. -1.
        1   -1    0    0  501    0  0.00000000000E+00  0.00000000000E+00 -0.41531274835E+03  0.41531274838E+03  0.50400001928E-02 0.  1.
    10030    2    1    2    0    0  0.00000000000E+00  0.00000000000E+00 -0.11385335624E+03  0.71677214052E+03  0.70767203894E+03 0.  0.
        2    1    3    3  502    0  0.22138405565E+03  0.24686041376E+03  0.68147961370E+02  0.33851899301E+03  0.25500000920E-02 0.  1.
       -2    1    3    3    0  502 -0.22138405565E+03 -0.24686041376E+03 -0.18200131761E+03  0.37825314751E+03  0.25500000920E-02 0. -1.
</event>
<event>
 5   0  0.3113940E-02  0.6882463E+03  0.7818609E-02  0.9737546E-01
       -2   -1    0    0    0  501  0.00000000000E+00  0.00000000000E+00  0.49926415072E+02  0.49926415137E+02  0.25500000920E-02 0. -1.
        2   -1    0    0  501    0  0.00000000000E+00  0.00000000000E+00 -0.23719056516E+04  0.23719056516E+04  0.25500000920E-02 0.  1.
    10030    2    1    2    0    0  0.00000000000E+00  0.00000000000E+00 -0.23219792365E+04  0.24218320667E+04  0.68824631100E+03 0.  0.
        5    1    3    3  502    0 -0.28084293916E+03 -0.85107968293E+02 -0.17932324842E+04  0.18170913447E+04  0.46999998093E+01 0.  1.
       -5    1    3    3    0  502  0.28084293916E+03  0.85107968293E+02 -0.52874675232E+03  0.60474072199E+03  0.46999998093E+01 0. -1.
</event>
<event>
 5   0  0.3183963E-02  0.7024662E+03  0.7818609E-02  0.9713024E-01
        2   -1    0    0  501    0  0.00000000000E+00  0.00000000000E+00  0.88516867596E+03  0.88516867597E+03  0.25500000920E-02 0.  1.
       -2   -1    0    0    0  501  0.00000000000E+00  0.00000000000E+00 -0.13936856588E+03  0.13936856591E+03  0.25500000920E-02 0. -1.
    10030    2    1    2    0    0  0.00000000000E+00  0.00000000000E+00  0.74580011008E+03  0.10245372419E+04  0.70246619548E+03 0.  0.
        4    1    3    3  502    0 -0.12780556611E+03  0.13327414376E+03  0.80866003468E+03  0.82947508987E+03  0.12699999809E+01 0.  1.
       -4    1    3    3    0  502  0.12780556611E+03 -0.13327414376E+03 -0.62859924603E+02  0.19506215200E+03  0.12699999809E+01 0. -1.
</event>
<event>
 5   0  0.3183963E-02  0.6932016E+03  0.7818609E-02  0.9728929E-01
       -2   -1    0    0    0  501  0.00000000000E+00  0.00000000000E+00  0.21190712197E+03  0.21190712199E+03  0.25500000920E-02 0. -1.
        2   -1    0    0  501    0  0.00000000000E+00  0.00000000000E+00 -0.56690930261E+03  0.56690930262E+03  0.25500000920E-02 0.  1.
    10030    2    1    2    0    0  0.00000000000E+00  0.00000000000E+00 -0.35500218064E+03  0.77881642461E+03  0.69320161207E+03 0.  0.
        4    1    3    3  502    0 -0.73441785409E+02  0.12771698109E+03  0.17497418038E+03  0.22874199396E+03  0.12699999809E+01 0. -1.
       -4    1    3    3    0  502  0.73441785409E+02 -0.12771698109E+03 -0.52997636102E+03  0.55007443064E+03  0.12699999809E+01 0.  1.
</event>
<event>
 5   0  0.1839038E-02  0.6865676E+03  0.7818609E-02  0.9740483E-01
        1   -1    0    0  501    0  0.00000000000E+00  0.00000000000E+00  0.24876580900E+03  0.24876580906E+03  0.50400001928E-02 0. -1.
       -1   -1    0    0    0  501  0.00000000000E+00  0.00000000000E+00 -0.47371369255E+03  0.47371369258E+03  0.50400001928E-02 0.  1.
    10030    2    1    2    0    0  0.00000000000E+00  0.00000000000E+00 -0.22494788355E+03  0.72247950164E+03  0.68656760772E+03 0.  0.
        5    1    3    3  502    0 -0.30509285696E+02  0.20122403690E+03  0.17838886466E+03  0.27067804967E+03  0.46999998093E+01 0. -1.
       -5    1    3    3    0  502  0.30509285696E+02 -0.20122403690E+03 -0.40333674821E+03  0.45180145196E+03  0.46999998093E+01 0.  1.
</event>
<event>
 5   0  0.1839038E-02  0.7048048E+03  0.7818609E-02  0.9709050E-01
        1   -1    0    0  501    0  0.00000000000E+00  0.00000000000E+00  0.23719818751E+03  0.23719818756E+03  0.50400001928E-02 0.  1.
       -1   -1    0    0    0  501  0.00000000000E+00  0.00000000000E+00 -0.52355986014E+03  0.52355986017E+03  0.50400001928E-02 0. -1.
    10030    2    1    2    0    0  0.00000000000E+00  0.00000000000E+00 -0.28636167264E+03  0.76075804773E+03  0.70480479541E+03 0.  0.
        5    1    3    3  502    0 -0.11546061600E+03 -0.12587360187E+03  0.18949154409E+03  0.25515574219E+03  0.46999998093E+01 0.  1.
       -5    1    3    3    0  502  0.11546061600E+03  0.12587360187E+03 -0.47585321673E+03  0.50560230553E+03  0.46999998093E+01 0. -1.
</event>
<event>
 5   0  0.1839038E-02  0.7085582E+03  0.7818609E-02  0.9702707E-01
       -1   -1    0    0    0  501  0.00000000000E+00  0.00000000000E+00  0.13343996569E+03  0.13343996579E+03  0.50400001928E-02 0. -1.
        1   -1    0    0  501    0  0.00000000000E+00  0.00000000000E+00 -0.94060041831E+03  0.94060041832E+03  0.50400001928E-02 0.  1.
    10030    2    1    2    0    0  0.00000000000E+00  0.00000000000E+00 -0.80716045262E+03  0.10740403841E+04  0.70855821950E+03 0.  0.
        5    1    3    3  502    0  0.37045690864E+02 -0.29020050233E+02  0.12863364479E+03  0.13705200143E+03  0.46999998093E+01 0. -1.
       -5    1    3    3    0  502 -0.37045690864E+02  0.29020050233E+02 -0.93579409741E+03  0.93698838268E+03  0.46999998093E+01 0.  1.
</event>
<event>
 5   0  0.3183963E-02  0.7003225E+03  0.7818609E-02  0.9716681E-01
        2   -1    0    0  501    0  0.00000000000E+00  0.00000000000E+00  0.37338002385E+03  0.37338002386E+03  0.25500000920E-02 0.  1.
       -2   -1    0    0    0  501  0.00000000000E+00  0.00000000000E+00 -0.32838635230E+03  0.32838635231E+03  0.25500000920E-02 0. -1.
    10030    2    1    2    0    0  0.00000000000E+00  0.00000000000E+00  0.44993671558E+02  0.70176637617E+03  0.70032250874E+03 0.  0.
        4    1    3    3  502    0  0.13489847484E+03  0.32222349752E+03 -0.17545130639E+01  0.34932831561E+03  0.12699999809E+01 0. -1.
       -4    1    3    3    0  502 -0.13489847484E+03 -0.32222349752E+03  0.46748184622E+02  0.35243806056E+03  0.12699999809E+01 0.  1.
</event>
<event>
 5   0  0.3113940E-02  0.6991296E+03  0.7818609E-02  0.9718722E-01
       -2   -1    0    0    0  501  0.00000000000E+00  0.00000000000E+00  0.10242244151E+03  0.10242244154E+03  0.25500000920E-02 0. -1.
        2   -1    0    0  501    0  0.00000000000E+00  0.00000000000E+00 -0.11930543204E+04  0.11930543204E+04  0.25500000920E-02 0.  1.
    10030    2    1    2    0    0  0.00000000000E+00  0.00000000000E+00 -0.10906318789E+04  0.12954767620E+04  0.69912956273E+03 0.  0.
        5    1    3    3  502    0 -0.23842195684E+03  0.88130587774E+01 -0.71985206329E+02  0.24925220047E+03  0.46999998093E+01 0. -1.
       -5    1    3    3    0  502  0.23842195684E+03 -0.88130587774E+01 -0.10186466726E+04  0.10462245615E+04  0.46999998093E+01 0.  1.
</event>
<event>
 5   0  0.1884172E-02  0.6735138E+03  0.7818609E-02  0.9763631E-01
       -1   -1    0    0    0  501  0.00000000000E+00  0.00000000000E+00  0.26914714965E+03  0.26914714970E+03  0.50400001928E-02 0.  1.
        1   -1    0    0  501    0  0.00000000000E+00  0.00000000000E+00 -0.42135026797E+03  0.42135026800E+03  0.50400001928E-02 0. -1.
    10030    2    1    2    0    0  0.00000000000E+00  0.00000000000E+00 -0.15220311832E+03  0.69049741770E+03  0.67351384145E+03 0.  0.
        3    1    3    3  502    0 -0.17897125644E+03  0.14575321092E+03  0.17529709974E+03  0.28983407754E+03  0.10100000352E+00 0. -1.
       -3    1    3    3    0  502  0.17897125644E+03 -0.14575321092E+03 -0.32750021806E+03  0.40066334016E+03  0.10100000352E+00 0.  1.
</event>
<event>
 5   0  0.3183963E-02  0.6713423E+03  0.7818609E-02  0.9767536E-01
        2   -1    0    0  501    0  0.00000000000E+00  0.00000000000E+00  0.14071934093E+04  0.14071934093E+04  0.25500000920E-02 0. -1.
       -2   -1    0    0    0  501  0.00000000000E+00  0.00000000000E+00 -0.80070804341E+02  0.80070804382E+02  0.25500000920E-02 0.  1.
    10030    2    1    2    0    0  0.00000000000E+00  0.00000000000E+00  0.13271226050E+04  0.14872642137E+04  0.67134226198E+03 0.  0.
        4    1    3    3  502    0 -0.17551189664E+03  0.52463716657E+02  0.12866903904E+04  0.12996655882E+04  0.12699999809E+01 0. -1.
       -4    1    3    3    0  502  0.17551189664E+03 -0.52463716657E+02  0.40432214583E+02  0.18759862554E+03  0.12699999809E+01 0.  1.
</event>
<event>
 5   0  0.3290656E-02  0.6890766E+03  0.7818609E-02  0.9736097E-01
       -2   -1    0    0    0  501  0.00000000000E+00  0.00000000000E+00  0.26700757393E+03  0.26700757394E+03  0.25500000920E-02 0. -1.
        2   -1    0    0  501    0  0.00000000000E+00  0.00000000000E+00 -0.44458155624E+03  0.44458155625E+03  0.25500000920E-02 0.  1.
    10030    2    1    2    0    0  0.00000000000E+00  0.00000000000E+00 -0.17757398231E+03  0.71158913019E+03  0.68907660751E+03 0.  0.
        1    1    3    3  502    0  0.87370305263E+02 -0.16725457605E+03 -0.38647383608E+03  0.43008102661E+03  0.50400001928E-02 0.  1.
       -1    1    3    3    0  502 -0.87370305263E+02  0.16725457605E+03  0.20889985377E+03  0.28150810358E+03  0.50400001928E-02 0. -1.
</event>
<event>
 5   0  0.1233912E-02  0.7017813E+03  0.7818609E-02  0.9714191E-01
        3   -1    0    0  501    0  0.00000000000E+00  0.00000000000E+00  0.18394065126E+03  0.18394067899E+03  0.10100000352E+00 0. -1.
       -3   -1    0    0    0  501  0.00000000000E+00  0.00000000000E+00 -0.66936943683E+03  0.66936944445E+03  0.10100000352E+00 0.  1.
    10030    2    1    2    0    0  0.00000000000E+00  0.00000000000E+00 -0.48542878556E+03  0.85331012344E+03  0.70178134836E+03 0.  0.
        5    1    3    3  502    0  0.62947732627E+01 -0.13531550425E+03  0.15082371070E+03  0.20278015575E+03  0.46999998093E+01 0. -1.
       -5    1    3    3    0  502 -0.62947732627E+01  0.13531550425E+03 -0.63625249626E+03  0.65052996768E+03  0.46999998093E+01 0.  1.
</event>
<event>
 5   0  0.1969818E-02  0.7071545E+03  0.7818609E-02  0.9705075E-01
        1   -1    0    0  501    0  0.00000000000E+00  0.00000000000E+00  0.89480386644E+03  0.89480386646E+03  0.50400001928E-02 0. -1.
       -1   -1    0    0    0  501  0.00000000000E+00  0.00000000000E+00 -0.13971427152E+03  0.13971427161E+03  0.50400001928E-02 0.  1.
    10030    2    1    2    0    0  0.00000000000E+00  0.00000000000E+00  0.75508959492E+03  0.10345181381E+04  0.70715449629E+03 0.  0.
        1    1    3    3  502    0  0.11256383488E+03 -0.63810804463E+02  0.85892338122E+03  0.86861488044E+03  0.50400001928E-02 0. -1.
       -1    1    3    3    0  502 -0.11256383488E+03  0.63810804463E+02 -0.10383378630E+03  0.16590325762E+03  0.50400001928E-02 0.  1.
</event>
<event>
 5   0  0.3184443E-02  0.7006270E+03  0.7818609E-02  0.9716160E-01
       -2   -1    0    0    0  501  0.00000000000E+00  0.00000000000E+00  0.82103727473E+02  0.82103727512E+02  0.25500000920E-02 0.  1.
        2   -1    0    0  501    0  0.00000000000E+00  0.00000000000E+00 -0.14946892345E+04  0.14946892345E+04  0.25500000920E-02 0. -1.
    10030    2    1    2    0    0  0.00000000000E+00  0.00000000000E+00 -0.14125855070E+04  0.15767929620E+04  0.70062702659E+03 0.  0.
        3    1    3    3  502    0  0.47140224498E+02 -0.23390026078E+03 -0.12904642832E+03  0.27126467448E+03  0.10100000352E+00 0.  1.
       -3    1    3    3    0  502 -0.47140224498E+02  0.23390026078E+03 -0.12835390787E+04  0.13055282875E+04  0.10100000352E+00 0. -1.
</event>
<event>
 5   0  0.1884172E-02  0.6818004E+03  0.7818609E-02  0.9748872E-01
        1   -1    0    0  501    0  0.00000000000E+00  0.00000000000E+00  0.21720726216E+03  0.21720726222E+03  0.50400001928E-02 0. -1.
       -1   -1    0    0    0  501  0.00000000000E+00  0.00000000000E+00 -0.53503247481E+03  0.53503247483E+03  0.50400001928E-02 0.  1.
    10030    2    1    2    0    0  0.00000000000E+00  0.00000000000E+00 -0.31782521265E+03  0.75223973705E+03  0.68180037856E+03 0.  0.
        3    1    3    3  502    0  0.78148177662E+02 -0.15904285816E+03  0.16239835097E+03  0.24036431308E+03  0.10100000352E+00 0. -1.
       -3    1    3    3    0  502 -0.78148177662E+02  0.15904285816E+03 -0.48022356362E+03  0.51187542397E+03  0.10100000352E+00 0.  1.
</event>
<event>
 5   0  0.1839038E-02  0.6999704E+03  0.7818609E-02  0.9717283E-01
       -1   -1    0    0    0  501  0.00000000000E+00  0.00000000000E+00  0.18606154077E+03  0.18606154084E+03  0.50400001928E-02 0. -1.
        1   -1    0    0  501    0  0.00000000000E+00  0.00000000000E+00 -0.65832864852E+03  0.65832864853E+03  0.50400001928E-02 0.  1.
    10030    2    1    2    0    0  0.00000000000E+00  0.00000000000E+00 -0.47226710774E+03  0.84439018937E+03  0.69997040713E+03 0.  0.
        5    1    3    3  502    0 -0.23401369775E+03  0.21903005288E+02  0.76640124596E+02  0.24726089677E+03  0.46999998093E+01 0. -1.
       -5    1    3    3    0  502  0.23401369775E+03 -0.21903005288E+02 -0.54890723234E+03  0.59712929261E+03  0.46999998093E+01 0.  1.
</event>
<event>
 5   0  0.1233912E-02  0.7002303E+03  0.7818609E-02  0.9716838E-01
       -3   -1    0    0    0  501  0.00000000000E+00  0.00000000000E+00  0.32422269078E+03  0.32422270651E+03  0.10100000352E+00 0.  1.
        3   -1    0    0  501    0  0.00000000000E+00  0.00000000000E+00 -0.37807539878E+03  0.37807541227E+03  0.10100000352E+00 0. -1.
    10030    2    1    2    0    0  0.00000000000E+00  0.00000000000E+00 -0.53852708003E+02  0.70229811878E+03  0.70023034317E+03 0.  0.
        5    1    3    3  502    0  0.23205200934E+03  0.18270557376E+03  0.16158901094E+03  0.33669357015E+03  0.46999998093E+01 0.  1.
       -5    1    3    3    0  502 -0.23205200934E+03 -0.18270557376E+03 -0.21544171895E+03  0.36560454864E+03  0.46999998093E+01 0. -1.
</event>
<event>
 5   0  0.1969818E-02  0.6901382E+03  0.7818609E-02  0.9734247E-01
        1   -1    0    0  501    0  0.00000000000E+00  0.00000000000E+00  0.17178720373E+03  0.17178720380E+03  0.50400001928E-02 0.  1.
       -1   -1    0    0    0  501  0.00000000000E+00  0.00000000000E+00 -0.69314050087E+03  0.69314050089E+03  0.50400001928E-02 0. -1.
    10030    2    1    2    0    0  0.00000000000E+00  0.00000000000E+00 -0.52135329715E+03  0.86492770469E+03  0.69013815566E+03 0.  0.
        1    1    3    3  502    0  0.89525047747E+02 -0.80399778228E+01 -0.67821092893E+03  0.68414138858E+03  0.50400001928E-02 0. -1.
       -1    1    3    3    0  502 -0.89525047747E+02  0.80399778228E+01  0.15685763179E+03  0.18078631611E+03  0.50400001928E-02 0.  1.
</event>
<event>
 5   0  0.1969818E-02  0.7051913E+03  0.7818609E-02  0.9708395E-01
       -1   -1    0    0    0  501  0.00000000000E+00  0.00000000000E+00  0.18798582536E+03  0.18798582542E+03  0.50400001928E-02 0. -1.
        1   -1    0    0  501    0  0.00000000000E+00  0.00000000000E+00 -0.66134602659E+03  0.66134602661E+03  0.50400001928E-02 0.  1.
    10030    2    1    2    0    0  0.00000000000E+00  0.00000000000E+00 -0.47336020124E+03  0.84933185204E+03  0.70519126113E+03 0.  0.
        1    1    3    3  502    0 -0.34154089914E+03  0.34634050705E+02 -0.33358729328E+03  0.47867544905E+03  0.50400001928E-02 0.  1.
       -1    1    3    3    0  502  0.34154089914E+03 -0.34634050705E+02 -0.13977290795E+03  0.37065640299E+03  0.50400001928E-02 0. -1.
</event>
<event>
 5   0  0.1233912E-02  0.7018765E+03  0.7818609E-02  0.9714028E-01
        3   -1    0    0  501    0  0.00000000000E+00  0.00000000000E+00  0.11905529273E+03  0.11905533558E+03  0.10100000352E+00 0.  1.
       -3   -1    0    0    0  501  0.00000000000E+00  0.00000000000E+00 -0.10344574668E+04  0.10344574717E+04  0.10100000352E+00 0. -1.
    10030    2    1    2    0    0  0.00000000000E+00  0.00000000000E+00 -0.91540217403E+03  0.11535128073E+04  0.70187652498E+03 0.  0.
        5    1    3    3  502    0  0.57245335653E+02 -0.34009879261E+03 -0.35130172475E+03  0.49232023013E+03  0.46999998093E+01 0. -1.
       -5    1    3    3    0  502 -0.57245335653E+02  0.34009879261E+03 -0.56410044928E+03  0.66119257714E+03  0.46999998093E+01 0.  1.
</event>
<event>
 5   0  0.3184443E-02  0.7024981E+03  0.7818609E-02  0.9712970E-01
       -2   -1    0    0    0  501  0.00000000000E+00  0.00000000000E+00  0.10437381969E+03  0.10437381972E+03  0.25500000920E-02 0.  1.
        2   -1    0    0  501    0  0.00000000000E+00  0.00000000000E+00 -0.11820578857E+04  0.11820578857E+04  0.25500000920E-02 0. -1.
    10030    2    1    2    0    0  0.00000000000E+00  0.00000000000E+00 -0.10776840660E+04  0.12864317054E+04  0.70249810432E+03 0.  0.
        3    1    3    3  502    0  0.32974680795E+03  0.31439417737E+02 -0.32485899269E+03  0.46395556864E+03  0.10100000352E+00 0.  1.
       -3    1    3    3    0  502 -0.32974680795E+03 -0.31439417737E+02 -0.75282507332E+03  0.82247613677E+03  0.10100000352E+00 0. -1.
</event>
<event>
 5   0  0.1969818E-02  0.7058887E+03  0.7818609E-02  0.9707214E-01
        1   -1    0    0  501    0  0.00000000000E+00  0.00000000000E+00  0.35545001892E+03  0.35545001896E+03  0.50400001928E-02 0.  1.
       -1   -1    0    0    0  501  0.00000000000E+00  0.00000000000E+00 -0.35045636979E+03  0.35045636982E+03  0.50400001928E-02 0. -1.
    10030    2    1    2    0    0  0.00000000000E+00  0.00000000000E+00  0.49936491380E+01  0.70590638878E+03  0.70588872578E+03 0.  0.
        1    1    3    3  502    0  0.10480660142E+03 -0.63048512225E+02  0.33357939759E+03  0.35529530410E+03  0.50400001928E-02 0.  1.
       -1    1    3    3    0  502 -0.10480660142E+03  0.63048512225E+02 -0.32858574845E+03  0.35061108468E+03  0.50400001928E-02 0. -1.
</event>
<event>
 5   0  0.1858013E-02  0.6981936E+03  0.7818609E-02  0.9720326E-01
       -1   -1    0    0    0  501  0.00000000000E+00  0.00000000000E+00  0.10470595541E+03  0.10470595553E+03  0.50400001928E-02 0.  1.
        1   -1    0    0  501    0  0.00000000000E+00  0.00000000000E+00 -0.11639125007E+04  0.11639125007E+04  0.50400001928E-02 0. -1.
    10030    2    1    2    0    0  0.00000000000E+00  0.00000000000E+00 -0.10592065453E+04  0.12686184562E+04  0.69819358485E+03 0.  0.
        2    1    3    3  502    0  0.19690075345E+03  0.16028759519E+03 -0.96495061467E+03  0.99779341982E+03  0.25500000920E-02 0. -1.
       -2    1    3    3    0  502 -0.19690075345E+03 -0.16028759519E+03 -0.94255930593E+02  0.27082503639E+03  0.25500000920E-02 0.  1.
</event>
<event>
 5   0  0.1839038E-02  0.6994819E+03  0.7818609E-02  0.9718119E-01
       -1   -1    0    0    0  501  0.00000000000E+00  0.00000000000E+00  0.17187819054E+03  0.17187819061E+03  0.50400001928E-02 0. -1.
        1   -1    0    0  501    0  0.00000000000E+00  0.00000000000E+00 -0.71165935128E+03  0.71165935130E+03  0.50400001928E-02 0.  1.
    10030    2    1    2    0    0  0.00000000000E+00  0.00000000000E+00 -0.53978116074E+03  0.88353754191E+03  0.69948187001E+03 0.  0.
        5    1    3    3  502    0  0.23363963174E+03  0.23978853731E+03 -0.14225421728E+03  0.36379166081E+03  0.46999998093E+01 0.  1.
       -5    1    3    3    0  502 -0.23363963174E+03 -0.23978853731E+03 -0.39752694346E+03  0.51974588110E+03  0.46999998093E+01 0. -1.
</event>
<event>
 5   0  0.3183963E-02  0.7013165E+03  0.7818609E-02  0.9714983E-01
        2   -1    0    0  501    0  0.00000000000E+00  0.00000000000E+00  0.12778278169E+03  0.12778278171E+03  0.25500000920E-02 0.  1.
       -2   -1    0    0    0  501  0.00000000000E+00  0.00000000000E+00 -0.96226740687E+03  0.96226740687E+03  0.25500000920E-02 0. -1.
    10030    2    1    2    0    0  0.00000000000E+00  0.00000000000E+00 -0.83448462518E+03  0.10900501886E+04  0.70131649344E+03 0.  0.
        4    1    3    3  502    0 -0.34591385076E+03  0.31398531399E+02 -0.34242076602E+03  0.48774568560E+03  0.12699999809E+01 0.  1.
       -4    1    3    3    0  502  0.34591385076E+03 -0.31398531399E+02 -0.49206385916E+03  0.60230450298E+03  0.12699999809E+01 0. -1.
</event>
<event>
 5   0  0.3184443E-02  0.6879621E+03  0.7818609E-02  0.9738043E-01
       -2   -1    0    0    0  501  0.00000000000E+00  0.00000000000E+00  0.75305368983E+02  0.75305369026E+02  0.25500000920E-02 0. -1.
        2   -1    0    0  501    0  0.00000000000E+00  0.00000000000E+00 -0.15712421878E+04  0.15712421878E+04  0.25500000920E-02 0.  1.
    10030    2    1    2    0    0  0.00000000000E+00  0.00000000000E+00 -0.14959368188E+04  0.16465475568E+04  0.68796212904E+03 0.  0.
        3    1    3    3  502    0  0.13097436536E+03 -0.20196747300E+03 -0.13360647188E+04  0.13575765495E+04  0.10100000352E+00 0.  1.
       -3    1    3    3    0  502 -0.13097436536E+03  0.20196747300E+03 -0.15987209994E+03  0.28897100732E+03  0.10100000352E+00 0. -1.
</event>
<event>
 5   0  0.1951465E-02  0.6915472E+03  0.7818609E-02  0.9731798E-01
        1   -1    0    0  501    0  0.00000000000E+00  0.00000000000E+00  0.34620637497E+03  0.34620637501E+03  0.50400001928E-02 0. -1.
       -1   -1    0    0    0  501  0.00000000000E+00  0.00000000000E+00 -0.34534133197E+03  0.34534133201E+03  0.50400001928E-02 0.  1.
    10030    2    1    2    0    0  0.00000000000E+00  0.00000000000E+00  0.86504299815E+00  0.69154770702E+03  0.69154716598E+03 0.  0.
        4    1    3    3  502    0  0.76675488819E+02  0.31699954014E+03  0.11527998293E+03  0.34591751387E+03  0.12699999809E+01 0.  1.
       -4    1    3    3    0  502 -0.76675488819E+02 -0.31699954014E+03 -0.11441493993E+03  0.34563019315E+03  0.12699999809E+01 0. -1.
</event>
<event>
 5   0  0.1858013E-02  0.6833787E+03  0.7818609E-02  0.9746087E-01
        1   -1    0    0  501    0  0.00000000000E+00  0.00000000000E+00  0.99568273206E+03  0.99568273208E+03  0.50400001928E-02 0.  1.
       -1   -1    0    0    0  501  0.00000000000E+00  0.00000000000E+00 -0.11725785487E+03  0.11725785498E+03  0.50400001928E-02 0. -1.
    10030    2    1    2    0    0  0.00000000000E+00  0.00000000000E+00  0.87842487720E+03  0.11129405871E+04  0.68337872767E+03 0.  0.
        2    1    3    3  502    0 -0.16757582947E+03 -0.13255044728E+03  0.87346897947E+03  0.89922151764E+03  0.25500000920E-02 0.  1.
       -2    1    3    3    0  502  0.16757582947E+03  0.13255044728E+03  0.49558977297E+01  0.21371906941E+03  0.25500000920E-02 0. -1.
</event>
<event>
 5   0  0.1951465E-02  0.7063149E+03  0.7818609E-02  0.9706493E-01
        1   -1    0    0  501    0  0.00000000000E+00  0.00000000000E+00  0.37983461171E+03  0.37983461174E+03  0.50400001928E-02 0.  1.
       -1   -1    0    0    0  501  0.00000000000E+00  0.00000000000E+00 -0.32835388209E+03  0.32835388212E+03  0.50400001928E-02 0. -1.
    10030    2    1    2    0    0  0.00000000000E+00  0.00000000000E+00  0.51480729619E+02  0.70818849386E+03  0.70631485707E+03 0.  0.
        4    1    3    3  502    0  0.28638882812E+00  0.27333807649E+03  0.24995101772E+03  0.37039291332E+03  0.12699999809E+01 0.  1.
       -4    1    3    3    0  502 -0.28638882812E+00 -0.27333807649E+03 -0.19847028811E+03  0.33779558054E+03  0.12699999809E+01 0. -1.
</event>
<event>
 5   0  0.1969818E-02  0.6894749E+03  0.7818609E-02  0.9735403E-01
        1   -1    0    0  501    0  0.00000000000E+00  0.00000000000E+00  0.85725459445E+03  0.85725459447E+03  0.50400001928E-02 0. -1.
       -1   -1    0    0    0  501  0.00000000000E+00  0.00000000000E+00 -0.13863315205E+03  0.13863315214E+03  0.50400001928E-02 0.  1.
    10030    2    1    2    0    0  0.00000000000E+00  0.00000000000E+00  0.71862144240E+03  0.99588774661E+03  0.68947489176E+03 0.  0.
        1    1    3    3  502    0 -0.25449397603E+03 -0.13026683385E+03  0.81069504766E+02  0.29716812828E+03  0.50400001928E-02 0.  1.
       -1    1    3    3    0  502  0.25449397603E+03  0.13026683385E+03  0.63755193764E+03  0.69871961833E+03  0.50400001928E-02 0. -1.
</event>
<event>
 5   0  0.1233912E-02  0.7007315E+03  0.7818609E-02  0.9715982E-01
        3   -1    0    0  501    0  0.00000000000E+00  0.00000000000E+00  0.27225534396E+03  0.27225536270E+03  0.10100000352E+00 0.  1.
       -3   -1    0    0    0  501  0.00000000000E+00  0.00000000000E+00 -0.45088603920E+03  0.45088605052E+03  0.10100000352E+00 0. -1.
    10030    2    1    2    0    0  0.00000000000E+00  0.00000000000E+00 -0.17863069524E+03  0.72314141321E+03  0.70073145942E+03 0.  0.
        4    1    3    3  502    0 -0.83070307575E+02 -0.33806399259E+03 -0.48469336662E+02  0.35148090785E+03  0.12699999809E+01 0. -1.
       -4    1    3    3    0  502  0.83070307575E+02  0.33806399259E+03 -0.13016135858E+03  0.37166050537E+03  0.12699999809E+01 0.  1.
</event>
<event>
 5   0  0.1951465E-02  0.6639994E+03  0.7818609E-02  0.9780859E-01
        1   -1    0    0  501    0  0.00000000000E+00  0.00000000000E+00  0.40416759524E+03  0.40416759527E+03  0.50400001928E-02 0.  1.
       -1   -1    0    0    0  501  0.00000000000E+00  0.00000000000E+00 -0.27271806270E+03  0.27271806274E+03  0.50400001928E-02 0. -1.
    10030    2    1    2    0    0  0.00000000000E+00  0.00000000000E+00  0.13144953254E+03  0.67688565801E+03  0.66399940845E+03 0.  0.
        4    1    3    3  502    0  0.79139707641E+02  0.21939875155E+03  0.30657957158E+03  0.38521624073E+03  0.12699999809E+01 0.  1.
       -4    1    3    3    0  502 -0.79139707641E+02 -0.21939875155E+03 -0.17513003904E+03  0.29166941729E+03  0.12699999809E+01 0. -1.
</event>
<event>
 5   0  0.3183963E-02  0.6931335E+03  0.7818609E-02  0.9729047E-01
        2   -1    0    0  501    0  0.00000000000E+00  0.00000000000E+00  0.64260243678E+03  0.64260243678E+03  0.25500000920E-02 0.  1.
       -2   -1    0    0    0  501  0.00000000000E+00  0.00000000000E+00 -0.18690951196E+03  0.18690951198E+03  0.25500000920E-02 0. -1.
    10030    2    1    2    0    0  0.00000000000E+00  0.00000000000E+00  0.45569292482E+03  0.82951194876E+03  0.69313348743E+03 0.  0.
        4    1    3    3  502    0  0.29597320936E+03  0.17677386635E+03  0.18540369447E+03  0.39144001240E+03  0.12699999809E+01 0. -1.
       -4    1    3    3    0  502 -0.29597320936E+03 -0.17677386635E+03  0.27028923035E+03  0.43807193636E+03  0.12699999809E+01 0.  1.
</event>
<event>
 5   0  0.1233912E-02  0.6996783E+03  0.7818609E-02  0.9717783E-01
        3   -1    0    0  501    0  0.00000000000E+00  0.00000000000E+00  0.15012557310E+03  0.15012560708E+03  0.10100000352E+00 0. -1.
       -3   -1    0    0    0  501  0.00000000000E+00  0.00000000000E+00 -0.81523349249E+03  0.81523349874E+03  0.10100000352E+00 0.  1.
    10030    2    1    2    0    0  0.00000000000E+00  0.00000000000E+00 -0.66510791938E+03  0.96535910582E+03  0.69967825375E+03 0.  0.
        1    1    3    3  502    0  0.23049289114E+03  0.67384952608E+02  0.18447403004E+02  0.24084852378E+03  0.50400001928E-02 0. -1.
       -1    1    3    3    0  502 -0.23049289114E+03 -0.67384952608E+02 -0.68355532239E+03  0.72451058204E+03  0.50400001928E-02 0.  1.
</event>
<event>
 5   0  0.3183963E-02  0.6714134E+03  0.7818609E-02  0.9767408E-01
        2   -1    0    0  501    0  0.00000000000E+00  0.00000000000E+00  0.31508356029E+03  0.31508356030E+03  0.25500000920E-02 0. -1.
       -2   -1    0    0    0  501  0.00000000000E+00  0.00000000000E+00 -0.35767973067E+03  0.35767973068E+03  0.25500000920E-02 0.  1.
    10030    2    1    2    0    0  0.00000000000E+00  0.00000000000E+00 -0.42596170378E+02  0.67276329098E+03  0.67141344339E+03 0.  0.
        4    1    3    3  502    0  0.18347800574E+03  0.26992692685E+03  0.57426182746E+02  0.33139719944E+03  0.12699999809E+01 0. -1.
       -4    1    3    3    0  502 -0.18347800574E+03 -0.26992692685E+03 -0.10002235312E+03  0.34136609154E+03  0.12699999809E+01 0.  1.
</event>
<event>
 5   0  0.1969818E-02  0.7043635E+03  0.7818609E-02  0.9709799E-01
        1   -1    0    0  501    0  0.00000000000E+00  0.00000000000E+00  0.64076892620E+03  0.64076892622E+03  0.50400001928E-02 0. -1.
       -1   -1    0    0    0  501  0.00000000000E+00  0.00000000000E+00 -0.19356743480E+03  0.19356743486E+03  0.50400001928E-02 0.  1.
    10030    2    1    2    0    0  0.00000000000E+00  0.00000000000E+00  0.44720149141E+03  0.83433636108E+03  0.70436353505E+03 0.  0.
        1    1    3    3  502    0 -0.15542246241E+03 -0.24816601175E+03  0.45538507771E+03  0.54140380516E+03  0.50400001928E-02 0. -1.
       -1    1    3    3    0  502  0.15542246241E+03  0.24816601175E+03 -0.81835863061E+01  0.29293255593E+03  0.50400001928E-02 0.  1.
</event>
<event>
 5   0  0.1951465E-02  0.6944093E+03  0.7818609E-02  0.9726841E-01
        1   -1    0    0  501    0  0.00000000000E+00  0.00000000000E+00  0.51655308374E+03  0.51655308376E+03  0.50400001928E-02 0.  1.
       -1   -1    0    0    0  501  0.00000000000E+00  0.00000000000E+00 -0.23337595839E+03  0.23337595845E+03  0.50400001928E-02 0. -1.
    10030    2    1    2    0    0  0.00000000000E+00  0.00000000000E+00  0.28317712534E+03  0.74992904221E+03  0.69440930584E+03 0.  0.
        4    1    3    3  502    0  0.28513129318E+03  0.18878944456E+03  0.76718114995E+02  0.35046910106E+03  0.12699999809E+01 0. -1.
       -4    1    3    3    0  502 -0.28513129318E+03 -0.18878944456E+03  0.20645901035E+03  0.39945994115E+03  0.12699999809E+01 0.  1.
</event>
<event>
 5   0  0.3183963E-02  0.6411209E+03  0.7818609E-02  0.9823584E-01
       -2   -1    0    0    0  501  0.00000000000E+00  0.00000000000E+00  0.32045384988E+03  0.32045384989E+03  0.25500000920E-02 0. -1.
        2   -1    0    0  501    0  0.00000000000E+00  0.00000000000E+00 -0.32066705717E+03  0.32066705718E+03  0.25500000920E-02 0.  1.
    10030    2    1    2    0    0  0.00000000000E+00  0.00000000000E+00 -0.21320729014E+00  0.64112090707E+03  0.64112087162E+03 0.  0.
        4    1    3    3  502    0 -0.26789641351E+02  0.20649964691E+03  0.24360961990E+03  0.32047940474E+03  0.12699999809E+01 0. -1.
       -4    1    3    3    0  502  0.26789641351E+02 -0.20649964691E+03 -0.24382282719E+03  0.32064150233E+03  0.12699999809E+01 0.  1.
</event>
<event>
 5   0  0.3183963E-02  0.7000771E+03  0.7818609E-02  0.9717100E-01
        2   -1    0    0  501    0  0.00000000000E+00  0.00000000000E+00  0.88860922212E+03  0.88860922212E+03  0.25500000920E-02 0. -1.
       -2   -1    0    0    0  501  0.00000000000E+00  0.00000000000E+00 -0.13788623648E+03  0.13788623650E+03  0.25500000920E-02 0.  1.
    10030    2    1    2    0    0  0.00000000000E+00  0.00000000000E+00  0.75072298564E+03  0.10264954586E+04  0.70007708533E+03 0.  0.
        4    1    3    3  502    0  0.10189052623E+03  0.73568294065E+02 -0.10366249618E+03  0.16291562000E+03  0.12699999809E+01 0.  1.
       -4    1    3    3    0  502 -0.10189052623E+03 -0.73568294065E+02  0.85438548182E+03  0.86357983862E+03  0.12699999809E+01 0. -1.
</event>
<event>
 5   0  0.3113940E-02  0.6972170E+03  0.7818609E-02  0.9722003E-01
        2   -1    0    0  501    0  0.00000000000E+00  0.00000000000E+00  0.22811774507E+04  0.22811774507E+04  0.25500000920E-02 0. -1.
       -2   -1    0    0    0  501  0.00000000000E+00  0.00000000000E+00 -0.53274193905E+02  0.53274193966E+02  0.25500000920E-02 0.  1.
    10030    2    1    2    0    0  0.00000000000E+00  0.00000000000E+00  0.22279032568E+04  0.23344516446E+04  0.69721701044E+03 0.  0.
        5    1    3    3  502    0 -0.15869292961E+03  0.22823419382E+03  0.18181301514E+04  0.18392644265E+04  0.46999998093E+01 0. -1.
       -5    1    3    3    0  502  0.15869292961E+03 -0.22823419382E+03  0.40977310539E+03  0.49518721817E+03  0.46999998093E+01 0.  1.
</event>
<event>
 5   0  0.3290656E-02  0.6938951E+03  0.7818609E-02  0.9727730E-01
       -2   -1    0    0    0  501  0.00000000000E+00  0.00000000000E+00  0.88623485067E+02  0.88623485104E+02  0.25500000920E-02 0. -1.
        2   -1    0    0  501    0  0.00000000000E+00  0.00000000000E+00 -0.13582470868E+04  0.13582470868E+04  0.25500000920E-02 0.  1.
    10030    2    1    2    0    0  0.00000000000E+00  0.00000000000E+00 -0.12696236017E+04  0.14468705719E+04  0.69389506539E+03 0.  0.
        1    1    3    3  502    0  0.29494037162E+03 -0.81782406358E+02 -0.29413229227E+03  0.42449027101E+03  0.50400001928E-02 0. -1.
       -1    1    3    3    0  502 -0.29494037162E+03  0.81782406358E+02 -0.97549130946E+03  0.10223803009E+04  0.50400001928E-02 0.  1.
</event>
<event>
 5   0  0.1839038E-02  0.7040172E+03  0.7818609E-02  0.9710387E-01
       -1   -1    0    0    0  501  0.00000000000E+00  0.00000000000E+00  0.49900975517E+03  0.49900975520E+03  0.50400001928E-02 0. -1.
        1   -1    0    0  501    0  0.00000000000E+00  0.00000000000E+00 -0.24831189769E+03  0.24831189775E+03  0.50400001928E-02 0.  1.
    10030    2    1    2    0    0  0.00000000000E+00  0.00000000000E+00  0.25069785748E+03  0.74732165294E+03  0.70401721372E+03 0.  0.
        5    1    3    3  502    0 -0.19275241050E+03 -0.61166688749E+02 -0.18045658884E+03  0.27107476094E+03  0.46999998093E+01 0.  1.
       -5    1    3    3    0  502  0.19275241050E+03  0.61166688749E+02  0.43115444631E+03  0.47624689200E+03  0.46999998093E+01 0. -1.
</event>
<event>
 5   0  0.3113940E-02  0.6965704E+03  0.7818609E-02  0.9723115E-01
        2   -1    0    0  501    0  0.00000000000E+00  0.00000000000E+00  0.24415553849E+04  0.24415553849E+04  0.25500000920E-02 0.  1.
       -2   -1    0    0    0  501  0.00000000000E+00  0.00000000000E+00 -0.49682503067E+02  0.49682503133E+02  0.25500000920E-02 0. -1.
    10030    2    1    2    0    0  0.00000000000E+00  0.00000000000E+00  0.23918728818E+04  0.24912378880E+04  0.69657040701E+03 0.  0.
        5    1    3    3  502    0  0.66425541186E+02  0.20891232518E+03  0.21637155767E+04  0.21747974386E+04  0.46999998093E+01 0.  1.
       -5    1    3    3    0  502 -0.66425541186E+02 -0.20891232518E+03  0.22815730506E+03  0.31644044935E+03  0.46999998093E+01 0. -1.
</event>
<event>
 5   0  0.1233912E-02  0.7007985E+03  0.7818609E-02  0.9715868E-01
        4   -1    0    0  501    0  0.00000000000E+00  0.00000000000E+00  0.12127157768E+04  0.12127164418E+04  0.12699999809E+01 0.  1.
       -4   -1    0    0    0  501  0.00000000000E+00  0.00000000000E+00 -0.10123887338E+03  0.10124683888E+03  0.12699999809E+01 0. -1.
    10030    2    1    2    0    0  0.00000000000E+00  0.00000000000E+00  0.11114769034E+04  0.13139632807E+04  0.70079854177E+03 0.  0.
        5    1    3    3  502    0 -0.19131502182E+03 -0.17737401076E+03  0.99423097461E+03  0.10279009184E+04  0.46999998093E+01 0.  1.
       -5    1    3    3    0  502  0.19131502182E+03  0.17737401076E+03  0.11724592880E+03  0.28606236223E+03  0.46999998093E+01 0. -1.
</event>
<event>
 5   0  0.3113940E-02  0.7017953E+03  0.7818609E-02  0.9714167E-01
        2   -1    0    0  501    0  0.00000000000E+00  0.00000000000E+00  0.10552009069E+04  0.10552009069E+04  0.25500000920E-02 0.  1.
       -2   -1    0    0    0  501  0.00000000000E+00  0.00000000000E+00 -0.11668789803E+03  0.11668789806E+03  0.25500000920E-02 0. -1.
    10030    2    1    2    0    0  0.00000000000E+00  0.00000000000E+00  0.93851300887E+03  0.11718888050E+04  0.70179534295E+03 0.  0.
        5    1    3    3  502    0  0.34137654979E+03  0.29853409568E+02  0.59508245369E+03  0.68671274307E+03  0.46999998093E+01 0.  1.
       -5    1    3    3    0  502 -0.34137654979E+03 -0.29853409568E+02  0.34343055518E+03  0.48517606190E+03  0.46999998093E+01 0. -1.
</event>
<event>
 5   0  0.1884172E-02  0.7017435E+03  0.7818609E-02  0.9714255E-01
        1   -1    0    0  501    0  0.00000000000E+00  0.00000000000E+00  0.57159059154E+03  0.57159059156E+03  0.50400001928E-02 0. -1.
       -1   -1    0    0    0  501  0.00000000000E+00  0.00000000000E+00 -0.21538316078E+03  0.21538316084E+03  0.50400001928E-02 0.  1.
    10030    2    1    2    0    0  0.00000000000E+00  0.00000000000E+00  0.35620743075E+03  0.78697375240E+03  0.70174350958E+03 0.  0.
        3    1    3    3  502    0 -0.73397725882E+02  0.29949450507E+02  0.56141627624E+03  0.56698539767E+03  0.10100000352E+00 0. -1.
       -3    1    3    3    0  502  0.73397725882E+02 -0.29949450507E+02 -0.20520884548E+03  0.21998835473E+03  0.10100000352E+00 0.  1.
</event>
<event>
 5   0  0.1951465E-02  0.6957342E+03  0.7818609E-02  0.9724555E-01
        1   -1    0    0  501    0  0.00000000000E+00  0.00000000000E+00  0.11222709607E+04  0.11222709607E+04  0.50400001928E-02 0. -1.
       -1   -1    0    0    0  501  0.00000000000E+00  0.00000000000E+00 -0.10782736802E+03  0.10782736814E+03  0.50400001928E-02 0.  1.
    10030    2    1    2    0    0  0.00000000000E+00  0.00000000000E+00  0.10144435927E+04  0.12300983289E+04  0.69573421357E+03 0.  0.
        4    1    3    3  502    0 -0.14140710213E+03  0.74718348412E+02 -0.38965327379E+02  0.16461685746E+03  0.12699999809E+01 0.  1.
       -4    1    3    3    0  502  0.14140710213E+03 -0.74718348412E+02  0.10534089201E+04  0.10654814714E+04  0.12699999809E+01 0. -1.
</event>
<event>
 5   0  0.1884172E-02  0.7222378E+03  0.7818609E-02  0.9679941E-01
       -1   -1    0    0    0  501  0.00000000000E+00  0.00000000000E+00  0.23300496365E+03  0.23300496371E+03  0.50400001928E-02 0.  1.
        1   -1    0    0  501    0  0.00000000000E+00  0.00000000000E+00 -0.55967414314E+03  0.55967414316E+03  0.50400001928E-02 0. -1.
    10030    2    1    2    0    0  0.00000000000E+00  0.00000000000E+00 -0.32666917949E+03  0.79267910687E+03  0.72223778193E+03 0.  0.
        3    1    3    3  502    0  0.16853404833E+03 -0.28475611641E+03 -0.46014331738E+01  0.33092439418E+03  0.10100000352E+00 0.  1.
       -3    1    3    3    0  502 -0.16853404833E+03  0.28475611641E+03 -0.32206774631E+03  0.46175471269E+03  0.10100000352E+00 0. -1.
</event>
<event>
 5   0  0.1884172E-02  0.7040147E+03  0.7818609E-02  0.9710391E-01
        1   -1    0    0  501    0  0.00000000000E+00  0.00000000000E+00  0.50193015220E+03  0.50193015222E+03  0.50400001928E-02 0.  1.
       -1   -1    0    0    0  501  0.00000000000E+00  0.00000000000E+00 -0.24686535848E+03  0.24686535853E+03  0.50400001928E-02 0. -1.
    10030    2    1    2    0    0  0.00000000000E+00  0.00000000000E+00  0.25506479372E+03  0.74879551075E+03  0.70401467877E+03 0.  0.
        3    1    3    3  502    0  0.15510433705E+03 -0.25966012040E+03  0.31906575989E+03  0.43964042448E+03  0.10100000352E+00 0.  1.
       -3    1    3    3    0  502 -0.15510433705E+03  0.25966012040E+03 -0.64000966166E+02  0.30915508628E+03  0.10100000352E+00 0. -1.
</event>
<event>
 5   0  0.2933851E-02  0.7110789E+03  0.7818609E-02  0.9698471E-01
        2   -1    0    0  501    0  0.00000000000E+00  0.00000000000E+00  0.86286160676E+03  0.86286160677E+03  0.25500000920E-02 0. -1.
       -2   -1    0    0    0  501  0.00000000000E+00  0.00000000000E+00 -0.14649894266E+03  0.14649894268E+03  0.25500000920E-02 0.  1.
    10030    2    1    2    0    0  0.00000000000E+00  0.00000000000E+00  0.71636266410E+03  0.10093605495E+04  0.71107893533E+03 0.  0.
        2    1    3    3  502    0  0.39252251033E+02  0.41121755291E+02  0.85636854379E+03  0.85825335465E+03  0.25500000920E-02 0. -1.
       -2    1    3    3    0  502 -0.39252251033E+02 -0.41121755291E+02 -0.14000587968E+03  0.15110719480E+03  0.25500000920E-02 0.  1.
</event>
<event>
 5   0  0.1839038E-02  0.7068909E+03  0.7818609E-02  0.9705520E-01
        1   -1    0    0  501    0  0.00000000000E+00  0.00000000000E+00  0.54104539765E+03  0.54104539767E+03  0.50400001928E-02 0.  1.
       -1   -1    0    0    0  501  0.00000000000E+00  0.00000000000E+00 -0.23089317746E+03  0.23089317752E+03  0.50400001928E-02 0. -1.
    10030    2    1    2    0    0  0.00000000000E+00  0.00000000000E+00  0.31015222018E+03  0.77193857519E+03  0.70689091392E+03 0.  0.
        5    1    3    3  502    0  0.81506021814E+00 -0.59753289529E+02  0.53545403455E+03  0.53879887996E+03  0.46999998093E+01 0.  1.
       -5    1    3    3    0  502 -0.81506021814E+00  0.59753289529E+02 -0.22530181437E+03  0.23313969523E+03  0.46999998093E+01 0. -1.
</event>
<event>
 5   0  0.1858013E-02  0.6963417E+03  0.7818609E-02  0.9723509E-01
        1   -1    0    0  501    0  0.00000000000E+00  0.00000000000E+00  0.30167207825E+03  0.30167207829E+03  0.50400001928E-02 0. -1.
       -1   -1    0    0    0  501  0.00000000000E+00  0.00000000000E+00 -0.40183680852E+03  0.40183680855E+03  0.50400001928E-02 0.  1.
    10030    2    1    2    0    0  0.00000000000E+00  0.00000000000E+00 -0.10016473027E+03  0.70350888684E+03  0.69634171257E+03 0.  0.
        2    1    3    3  502    0 -0.67441184545E+01  0.33768789573E+03 -0.13547657998E+03  0.36391276673E+03  0.25500000920E-02 0.  1.
       -2    1    3    3    0  502  0.67441184545E+01 -0.33768789573E+03  0.35311849716E+02  0.33959612011E+03  0.25500000920E-02 0. -1.
</event>
<event>
 5   0  0.1884172E-02  0.6919728E+03  0.7818609E-02  0.9731059E-01
        1   -1    0    0  501    0  0.00000000000E+00  0.00000000000E+00  0.27886836327E+03  0.27886836331E+03  0.50400001928E-02 0. -1.
       -1   -1    0    0    0  501  0.00000000000E+00  0.00000000000E+00 -0.42925843479E+03  0.42925843482E+03  0.50400001928E-02 0.  1.
    10030    2    1    2    0    0  0.00000000000E+00  0.00000000000E+00 -0.15039007153E+03  0.70812679813E+03  0.69197282361E+03 0.  0.
        3    1    3    3  502    0  0.27692595076E+03  0.10765151939E+03 -0.25661809680E+03  0.39259354253E+03  0.10100000352E+00 0.  1.
       -3    1    3    3    0  502 -0.27692595076E+03 -0.10765151939E+03  0.10622802527E+03  0.31553325560E+03  0.10100000352E+00 0. -1.
</event>
<event>
 5   0  0.3290656E-02  0.6985649E+03  0.7818609E-02  0.9719689E-01
        2   -1    0    0  501    0  0.00000000000E+00  0.00000000000E+00  0.21540291455E+04  0.21540291455E+04  0.25500000920E-02 0.  1.
       -2   -1    0    0    0  501  0.00000000000E+00  0.00000000000E+00 -0.56637231194E+02  0.56637231251E+02  0.25500000920E-02 0. -1.
    10030    2    1    2    0    0  0.00000000000E+00  0.00000000000E+00  0.20973919143E+04  0.22106663767E+04  0.69856494838E+03 0.  0.
        1    1    3    3  502    0  0.26273135025E+03 -0.22517157796E+03  0.89797925603E+03  0.96233920538E+03  0.50400001928E-02 0. -1.
       -1    1    3    3    0  502 -0.26273135025E+03  0.22517157796E+03  0.11994126583E+04  0.12483271714E+04  0.50400001928E-02 0.  1.
</event>
<event>
 5   0  0.2933851E-02  0.6988795E+03  0.7818609E-02  0.9719150E-01
       -2   -1    0    0    0  501  0.00000000000E+00  0.00000000000E+00  0.16492715920E+03  0.16492715922E+03  0.25500000920E-02 0. -1.
        2   -1    0    0  501    0  0.00000000000E+00  0.00000000000E+00 -0.74037625121E+03  0.74037625121E+03  0.25500000920E-02 0.  1.
    10030    2    1    2    0    0  0.00000000000E+00  0.00000000000E+00 -0.57544909201E+03  0.90530341043E+03  0.69887953715E+03 0.  0.
        2    1    3    3  502    0  0.20649231970E+03  0.18071401155E+03 -0.56798911792E+03  0.63079970684E+03  0.25500000920E-02 0.  1.
       -2    1    3    3    0  502 -0.20649231970E+03 -0.18071401155E+03 -0.74599740890E+01  0.27450370359E+03  0.25500000920E-02 0. -1.
</event>
<event>
 5   0  0.1884172E-02  0.6998624E+03  0.7818609E-02  0.9717467E-01
        1   -1    0    0  501    0  0.00000000000E+00  0.00000000000E+00  0.18498134047E+04  0.18498134048E+04  0.50400001928E-02 0.  1.
       -1   -1    0    0    0  501  0.00000000000E+00  0.00000000000E+00 -0.66196869981E+02  0.66196870173E+02  0.50400001928E-02 0. -1.
    10030    2    1    2    0    0  0.00000000000E+00  0.00000000000E+00  0.17836165348E+04  0.19160102749E+04  0.69986243686E+03 0.  0.
        3    1    3    3  502    0 -0.15700816694E+03 -0.21080521838E+03  0.25939797247E+03  0.36929354571E+03  0.10100000352E+00 0. -1.
       -3    1    3    3    0  502  0.15700816694E+03  0.21080521838E+03  0.15242185623E+04  0.15467167292E+04  0.10100000352E+00 0.  1.
</event>
<event>
 5   0  0.3290656E-02  0.6831994E+03  0.7818609E-02  0.9746403E-01
        2   -1    0    0  501    0  0.00000000000E+00  0.00000000000E+00  0.12693274568E+04  0.12693274568E+04  0.25500000920E-02 0.  1.
       -2   -1    0    0    0  501  0.00000000000E+00  0.00000000000E+00 -0.91930843869E+02  0.91930843904E+02  0.25500000920E-02 0. -1.
    10030    2    1    2    0    0  0.00000000000E+00  0.00000000000E+00  0.11773966129E+04  0.13612583007E+04  0.68319936849E+03 0.  0.
        1    1    3    3  502    0  0.83006272282E+01  0.68814284376E+02 -0.77772349517E+02  0.10417698653E+03  0.50400001928E-02 0. -1.
       -1    1    3    3    0  502 -0.83006272282E+01 -0.68814284376E+02  0.12551689624E+04  0.12570813142E+04  0.50400001928E-02 0.  1.
</event>
<event>
 5   0  0.1969818E-02  0.6964405E+03  0.7818609E-02  0.9723339E-01
       -1   -1    0    0    0  501  0.00000000000E+00  0.00000000000E+00  0.58880981738E+02  0.58880981954E+02  0.50400001928E-02 0. -1.
        1   -1    0    0  501    0  0.00000000000E+00  0.00000000000E+00 -0.20593634116E+04  0.20593634116E+04  0.50400001928E-02 0.  1.
    10030    2    1    2    0    0  0.00000000000E+00  0.00000000000E+00 -0.20004824299E+04  0.21182443936E+04  0.69644049184E+03 0.  0.
        1    1    3    3  502    0  0.43927722109E+02  0.18533482900E+03 -0.18868807315E+04  0.18964697568E+04  0.50400001928E-02 0.  1.
       -1    1    3    3    0  502 -0.43927722109E+02 -0.18533482900E+03 -0.11360169840E+03  0.22177463677E+03  0.50400001928E-02 0. -1.
</event>
<event>
 5   0  0.1884172E-02  0.6422283E+03  0.7818609E-02  0.9821472E-01
       -1   -1    0    0    0  501  0.00000000000E+00  0.00000000000E+00  0.83170235893E+02  0.83170236045E+02  0.50400001928E-02 0.  1.
        1   -1    0    0  501    0  0.00000000000E+00  0.00000000000E+00 -0.12397981638E+04  0.12397981638E+04  0.50400001928E-02 0. -1.
    10030    2    1    2    0    0  0.00000000000E+00  0.00000000000E+00 -0.11566279279E+04  0.13229683999E+04  0.64222832654E+03 0.  0.
        3    1    3    3  502    0 -0.31968268821E+03 -0.29995871484E+02 -0.56969104400E+03  0.65394546353E+03  0.10100000352E+00 0.  1.
       -3    1    3    3    0  502  0.31968268821E+03  0.29995871484E+02 -0.58693688392E+03  0.66902293635E+03  0.10100000352E+00 0. -1.
</event>
<event>
 5   0  0.3183963E-02  0.7100978E+03  0.7818609E-02  0.9700118E-01
        2   -1    0    0  501    0  0.00000000000E+00  0.00000000000E+00  0.18620919957E+04  0.18620919957E+04  0.25500000920E-02 0.  1.
       -2   -1    0    0    0  501  0.00000000000E+00  0.00000000000E+00 -0.67697908111E+02  0.67697908159E+02  0.25500000920E-02 0. -1.
    10030    2    1    2    0    0  0.00000000000E+00  0.00000000000E+00  0.17943940876E+04  0.19297899039E+04  0.71009783233E+03 0.  0.
        4    1    3    3  502    0  0.29929051041E+03 -0.17022969562E+02  0.38017708656E+03  0.48414958552E+03  0.12699999809E+01 0. -1.
       -4    1    3    3    0  502 -0.29929051041E+03  0.17022969562E+02  0.14142170011E+04  0.14456403184E+04  0.12699999809E+01 0.  1.
</event>
<event>
 5   0  0.1233912E-02  0.6994444E+03  0.7818609E-02  0.9718183E-01
        4   -1    0    0  501    0  0.00000000000E+00  0.00000000000E+00  0.26630835672E+03  0.26631138496E+03  0.12699999809E+01 0. -1.
       -4   -1    0    0    0  501  0.00000000000E+00  0.00000000000E+00 -0.45925659070E+03  0.45925834669E+03  0.12699999809E+01 0.  1.
    10030    2    1    2    0    0  0.00000000000E+00  0.00000000000E+00 -0.19294823398E+03  0.72556973164E+03  0.69944436125E+03 0.  0.
        4    1    3    3  502    0  0.21984491509E+03 -0.16833888070E+03 -0.31807491742E+03  0.42171439558E+03  0.12699999809E+01 0.  1.
       -4    1    3    3    0  502 -0.21984491509E+03  0.16833888070E+03  0.12512668344E+03  0.30385533607E+03  0.12699999809E+01 0. -1.
</event>
<event>
 5   0  0.1233912E-02  0.6968711E+03  0.7818609E-02  0.9722598E-01
       -3   -1    0    0    0  501  0.00000000000E+00  0.00000000000E+00  0.57609618543E+03  0.57609619429E+03  0.10100000352E+00 0. -1.
        3   -1    0    0  501    0  0.00000000000E+00  0.00000000000E+00 -0.21074139670E+03  0.21074142090E+03  0.10100000352E+00 0.  1.
    10030    2    1    2    0    0  0.00000000000E+00  0.00000000000E+00  0.36535478874E+03  0.78683761519E+03  0.69687108637E+03 0.  0.
        4    1    3    3  502    0  0.16261988350E+03  0.29156846468E+03  0.29529531743E+03  0.44571104260E+03  0.12699999809E+01 0. -1.
       -4    1    3    3    0  502 -0.16261988350E+03 -0.29156846468E+03  0.70059471310E+02  0.34112657259E+03  0.12699999809E+01 0.  1.
</event>
<event>
 5   0  0.3290656E-02  0.6962432E+03  0.7818609E-02  0.9723679E-01
        2   -1    0    0  501    0  0.00000000000E+00  0.00000000000E+00  0.15579621293E+04  0.15579621293E+04  0.25500000920E-02 0. -1.
       -2   -1    0    0    0  501  0.00000000000E+00  0.00000000000E+00 -0.77786638651E+02  0.77786638693E+02  0.25500000920E-02 0.  1.
    10030    2    1    2    0    0  0.00000000000E+00  0.00000000000E+00  0.14801754906E+04  0.16357487680E+04  0.69624316791E+03 0.  0.
        1    1    3    3  502    0 -0.28210941775E+02 -0.49669303451E+01  0.15551886500E+04  0.15554524309E+04  0.50400001928E-02 0. -1.
       -1    1    3    3    0  502  0.28210941775E+02  0.49669303451E+01 -0.75013159412E+02  0.80296337048E+02  0.50400001928E-02 0.  1.
</event>
<event>
 5   0  0.3113940E-02  0.7164296E+03  0.7818609E-02  0.9689541E-01
       -2   -1    0    0    0  501  0.00000000000E+00  0.00000000000E+00  0.14506059775E+03  0.14506059777E+03  0.25500000920E-02 0. -1.
        2   -1    0    0  501    0  0.00000000000E+00  0.00000000000E+00 -0.88458094772E+03  0.88458094772E+03  0.25500000920E-02 0.  1.
    10030    2    1    2    0    0  0.00000000000E+00  0.00000000000E+00 -0.73952034997E+03  0.10296415455E+04  0.71642959471E+03 0.  0.
        5    1    3    3  502    0 -0.74394799518E+02 -0.23560318792E+03 -0.74246594788E+03  0.78250956679E+03  0.46999998093E+01 0.  1.
       -5    1    3    3    0  502  0.74394799518E+02  0.23560318792E+03  0.29455979064E+01  0.24713197871E+03  0.46999998093E+01 0. -1.
</event>
<event>
 5   0  0.3183963E-02  0.7164576E+03  0.7818609E-02  0.9689494E-01
        2   -1    0    0  501    0  0.00000000000E+00  0.00000000000E+00  0.21494348686E+03  0.21494348687E+03  0.25500000920E-02 0.  1.
       -2   -1    0    0    0  501  0.00000000000E+00  0.00000000000E+00 -0.59703078784E+03  0.59703078785E+03  0.25500000920E-02 0. -1.
    10030    2    1    2    0    0  0.00000000000E+00  0.00000000000E+00 -0.38208730098E+03  0.81197427472E+03  0.71645761720E+03 0.  0.
        4    1    3    3  502    0 -0.35027304844E+03  0.23537658701E+02 -0.27182812904E+03  0.44400154783E+03  0.12699999809E+01 0. -1.
       -4    1    3    3    0  502  0.35027304844E+03 -0.23537658701E+02 -0.11025917194E+03  0.36797272689E+03  0.12699999809E+01 0.  1.
</event>
<event>
 5   0  0.1884172E-02  0.6823579E+03  0.7818609E-02  0.9747887E-01
       -1   -1    0    0    0  501  0.00000000000E+00  0.00000000000E+00  0.11896159252E+03  0.11896159262E+03  0.50400001928E-02 0. -1.
        1   -1    0    0  501    0  0.00000000000E+00  0.00000000000E+00 -0.97849304430E+03  0.97849304431E+03  0.50400001928E-02 0.  1.
    10030    2    1    2    0    0  0.00000000000E+00  0.00000000000E+00 -0.85953145178E+03  0.10974546369E+04  0.68235794384E+03 0.  0.
        3    1    3    3  502    0 -0.29364166317E+03  0.16938510721E+03 -0.49177167763E+03  0.59729066124E+03  0.10100000352E+00 0.  1.
       -3    1    3    3    0  502  0.29364166317E+03 -0.16938510721E+03 -0.36775977415E+03  0.50016397569E+03  0.10100000352E+00 0. -1.
</event>
<event>
 5   0  0.1884172E-02  0.7230946E+03  0.7818609E-02  0.9678533E-01
        1   -1    0    0  501    0  0.00000000000E+00  0.00000000000E+00  0.36828167623E+03  0.36828167627E+03  0.50400001928E-02 0. -1.
       -1   -1    0    0    0  501  0.00000000000E+00  0.00000000000E+00 -0.35493602799E+03  0.35493602803E+03  0.50400001928E-02 0.  1.
    10030    2    1    2    0    0  0.00000000000E+00  0.00000000000E+00  0.13345648243E+02  0.72321770429E+03  0.72309455915E+03 0.  0.
        3    1    3    3  502    0 -0.16324920842E+03  0.24489839151E+03  0.21668691378E+03  0.36548427465E+03  0.10100000352E+00 0.  1.
       -3    1    3    3    0  502  0.16324920842E+03 -0.24489839151E+03 -0.20334126554E+03  0.35773342964E+03  0.10100000352E+00 0. -1.
</event>
<event>
 5   0  0.3184443E-02  0.6955699E+03  0.7818609E-02  0.9724838E-01
        2   -1    0    0  501    0  0.00000000000E+00  0.00000000000E+00  0.41474067745E+03  0.41474067746E+03  0.25500000920E-02 0.  1.
       -2   -1    0    0    0  501  0.00000000000E+00  0.00000000000E+00 -0.29163858431E+03  0.29163858432E+03  0.25500000920E-02 0. -1.
    10030    2    1    2    0    0  0.00000000000E+00  0.00000000000E+00  0.12310209314E+03  0.70637926178E+03  0.69556993619E+03 0.  0.
        3    1    3    3  502    0  0.78319935626E+02 -0.11470806703E+03  0.38535143205E+03  0.40961895628E+03  0.10100000352E+00 0.  1.
       -3    1    3    3    0  502 -0.78319935626E+02  0.11470806703E+03 -0.26224933891E+03  0.29676030550E+03  0.10100000352E+00 0. -1.
</event>
<event>
 5   0  0.3183963E-02  0.7405703E+03  0.7818609E-02  0.9650261E-01
        2   -1    0    0  501    0  0.00000000000E+00  0.00000000000E+00  0.48996438455E+03  0.48996438456E+03  0.25500000920E-02 0.  1.
       -2   -1    0    0    0  501  0.00000000000E+00  0.00000000000E+00 -0.27983886750E+03  0.27983886752E+03  0.25500000920E-02 0. -1.
    10030    2    1    2    0    0  0.00000000000E+00  0.00000000000E+00  0.21012551705E+03  0.76980325208E+03  0.74057026270E+03 0.  0.
        4    1    3    3  502    0  0.84219913746E+02 -0.16509590926E+03 -0.22815268685E+03  0.29394712882E+03  0.12699999809E+01 0. -1.
       -4    1    3    3    0  502 -0.84219913746E+02  0.16509590926E+03  0.43827820390E+03  0.47585612325E+03  0.12699999809E+01 0.  1.
</event>
<event>
 5   0  0.1858013E-02  0.6961491E+03  0.7818609E-02  0.9723841E-01
        1   -1    0    0  501    0  0.00000000000E+00  0.00000000000E+00  0.99203648696E+03  0.99203648697E+03  0.50400001928E-02 0.  1.
       -1   -1    0    0    0  501  0.00000000000E+00  0.00000000000E+00 -0.12212846003E+03  0.12212846013E+03  0.50400001928E-02 0. -1.
    10030    2    1    2    0    0  0.00000000000E+00  0.00000000000E+00  0.86990802693E+03  0.11141649471E+04  0.69614908894E+03 0.  0.
        2    1    3    3  502    0  0.18961453096E+03  0.23138493976E+03  0.71974407181E+03  0.77943838090E+03  0.25500000920E-02 0.  1.
       -2    1    3    3    0  502 -0.18961453096E+03 -0.23138493976E+03  0.15016395512E+03  0.33472656620E+03  0.25500000920E-02 0. -1.
</event>
<event>
 5   0  0.1969818E-02  0.7040011E+03  0.7818609E-02  0.9710414E-01
        1   -1    0    0  501    0  0.00000000000E+00  0.00000000000E+00  0.48536405878E+03  0.48536405880E+03  0.50400001928E-02 0.  1.
       -1   -1    0    0    0  501  0.00000000000E+00  0.00000000000E+00 -0.25528137012E+03  0.25528137017E+03  0.50400001928E-02 0. -1.
    10030    2    1    2    0    0  0.00000000000E+00  0.00000000000E+00  0.23008268866E+03  0.74064542897E+03  0.70400114193E+03 0.  0.
        1    1    3    3  502    0 -0.37843555193E+02 -0.15379716092E+03  0.44575836937E+03  0.47306048796E+03  0.50400001928E-02 0.  1.
       -1    1    3    3    0  502  0.37843555193E+02  0.15379716092E+03 -0.21567568072E+03  0.26758494101E+03  0.50400001928E-02 0. -1.
</event>
<event>
 5   0  0.1858013E-02  0.6658483E+03  0.7818609E-02  0.9777487E-01
        1   -1    0    0  501    0  0.00000000000E+00  0.00000000000E+00  0.77983559410E+03  0.77983559411E+03  0.50400001928E-02 0. -1.
       -1   -1    0    0    0  501  0.00000000000E+00  0.00000000000E+00 -0.14213058975E+03  0.14213058984E+03  0.50400001928E-02 0.  1.
    10030    2    1    2    0    0  0.00000000000E+00  0.00000000000E+00  0.63770500435E+03  0.92196618395E+03  0.66584830989E+03 0.  0.
        2    1    3    3  502    0 -0.17369854923E+03 -0.75482091082E+02  0.69797779020E+03  0.72321623855E+03  0.25500000920E-02 0. -1.
       -2    1    3    3    0  502  0.17369854923E+03  0.75482091082E+02 -0.60272785853E+02  0.19874994541E+03  0.25500000920E-02 0.  1.
</event>
<event>
 5   0  0.1233912E-02  0.7058615E+03  0.7818609E-02  0.9707260E-01
        3   -1    0    0  501    0  0.00000000000E+00  0.00000000000E+00  0.65039354055E+03  0.65039354839E+03  0.10100000352E+00 0.  1.
       -3   -1    0    0    0  501  0.00000000000E+00  0.00000000000E+00 -0.19151495137E+03  0.19151497800E+03  0.10100000352E+00 0. -1.
    10030    2    1    2    0    0  0.00000000000E+00  0.00000000000E+00  0.45887858918E+03  0.84190852639E+03  0.70586146460E+03 0.  0.
        1    1    3    3  502    0  0.33139551628E+03 -0.67138347823E+02  0.35007443197E+03  0.48670592137E+03  0.50400001928E-02 0. -1.
       -1    1    3    3    0  502 -0.33139551628E+03  0.67138347823E+02  0.10880415722E+03  0.35520260502E+03  0.50400001928E-02 0.  1.
</event>
<event>
 5   0  0.3183963E-02  0.7027278E+03  0.7818609E-02  0.9712579E-01
       -2   -1    0    0    0  501  0.00000000000E+00  0.00000000000E+00  0.14671071871E+03  0.14671071874E+03  0.25500000920E-02 0.  1.
        2   -1    0    0  501    0  0.00000000000E+00  0.00000000000E+00 -0.84149670504E+03  0.84149670504E+03  0.25500000920E-02 0. -1.
    10030    2    1    2    0    0  0.00000000000E+00  0.00000000000E+00 -0.69478598633E+03  0.98820742378E+03  0.70272778913E+03 0.  0.
        4    1    3    3  502    0 -0.28808343070E+03 -0.52770249402E+02 -0.62035746386E+03  0.68601877389E+03  0.12699999809E+01 0. -1.
       -4    1    3    3    0  502  0.28808343070E+03  0.52770249402E+02 -0.74428522467E+02  0.30218864989E+03  0.12699999809E+01 0.  1.
</event>
<event>
 5   0  0.3183963E-02  0.6652635E+03  0.7818609E-02  0.9778552E-01
        2   -1    0    0  501    0  0.00000000000E+00  0.00000000000E+00  0.14061346750E+04  0.14061346750E+04  0.25500000920E-02 0. -1.
       -2   -1    0    0    0  501  0.00000000000E+00  0.00000000000E+00 -0.78686550260E+02  0.78686550301E+02  0.25500000920E-02 0.  1.
    10030    2    1    2    0    0  0.00000000000E+00  0.00000000000E+00  0.13274481248E+04  0.14848212253E+04  0.66526351715E+03 0.  0.
        4    1    3    3  502    0  0.23270473986E+03  0.19916006754E+03  0.95323934151E+03  0.10012407720E+04  0.12699999809E+01 0. -1.
       -4    1    3    3    0  502 -0.23270473986E+03 -0.19916006754E+03  0.37420878327E+03  0.48358045332E+03  0.12699999809E+01 0.  1.
</event>
<event>
 5   0  0.3113940E-02  0.7092358E+03  0.7818609E-02  0.9701567E-01
       -2   -1    0    0    0  501  0.00000000000E+00  0.00000000000E+00  0.21984795627E+03  0.21984795629E+03  0.25500000920E-02 0.  1.
        2   -1    0    0  501    0  0.00000000000E+00  0.00000000000E+00 -0.57200374648E+03  0.57200374649E+03  0.25500000920E-02 0. -1.
    10030    2    1    2    0    0  0.00000000000E+00  0.00000000000E+00 -0.35215579021E+03  0.79185170278E+03  0.70923579902E+03 0.  0.
        5    1    3    3  502    0 -0.88417915962E+02 -0.27407475221E+03 -0.40705036024E+03  0.49864494726E+03  0.46999998093E+01 0. -1.
       -5    1    3    3    0  502  0.88417915962E+02  0.27407475221E+03  0.54894570027E+02  0.29320675552E+03  0.46999998093E+01 0.  1.
</event>
<event>
 5   0  0.1233912E-02  0.7075730E+03  0.7818609E-02  0.9704368E-01
        3   -1    0    0  501    0  0.00000000000E+00  0.00000000000E+00  0.27957875119E+03  0.27957876943E+03  0.10100000352E+00 0.  1.
       -3   -1    0    0    0  501  0.00000000000E+00  0.00000000000E+00 -0.44769100841E+03  0.44769101981E+03  0.10100000352E+00 0. -1.
    10030    2    1    2    0    0  0.00000000000E+00  0.00000000000E+00 -0.16811225722E+03  0.72726978924E+03  0.70757304592E+03 0.  0.
        5    1    3    3  502    0 -0.37025894500E+02  0.29412365188E+03  0.11435416102E+03  0.31777130708E+03  0.46999998093E+01 0.  1.
       -5    1    3    3    0  502  0.37025894500E+02 -0.29412365188E+03 -0.28246641824E+03  0.40949848216E+03  0.46999998093E+01 0. -1.
</event>
<event>
 5   0  0.1884172E-02  0.7009722E+03  0.7818609E-02  0.9715571E-01
        1   -1    0    0  501    0  0.00000000000E+00  0.00000000000E+00  0.55824459091E+03  0.55824459093E+03  0.50400001928E-02 0.  1.
       -1   -1    0    0    0  501  0.00000000000E+00  0.00000000000E+00 -0.22004783202E+03  0.22004783207E+03  0.50400001928E-02 0. -1.
    10030    2    1    2    0    0  0.00000000000E+00  0.00000000000E+00  0.33819675889E+03  0.77829242301E+03  0.70097221627E+03 0.  0.
        3    1    3    3  502    0  0.32506986866E+03  0.10453331755E+03  0.25682553884E+03  0.42726689738E+03  0.10100000352E+00 0. -1.
       -3    1    3    3    0  502 -0.32506986866E+03 -0.10453331755E+03  0.81371220051E+02  0.35102552563E+03  0.10100000352E+00 0.  1.
</event>
<event>
 5   0  0.1858013E-02  0.6968036E+03  0.7818609E-02  0.9722714E-01
        1   -1    0    0  501    0  0.00000000000E+00  0.00000000000E+00  0.49213381311E+03  0.49213381314E+03  0.50400001928E-02 0.  1.
       -1   -1    0    0    0  501  0.00000000000E+00  0.00000000000E+00 -0.24664801674E+03  0.24664801679E+03  0.50400001928E-02 0. -1.
    10030    2    1    2    0    0  0.00000000000E+00  0.00000000000E+00  0.24548579637E+03  0.73878182993E+03  0.69680364237E+03 0.  0.
        2    1    3    3  502    0  0.64554109050E+02  0.15246028106E+03 -0.20227411008E+03  0.26139278091E+03  0.25500000920E-02 0. -1.
       -2    1    3    3    0  502 -0.64554109050E+02 -0.15246028106E+03  0.44775990645E+03  0.47738904902E+03  0.25500000920E-02 0.  1.
</event>
<event>
 5   0  0.3290656E-02  0.7027798E+03  0.7818609E-02  0.9712490E-01
       -2   -1    0    0    0  501  0.00000000000E+00  0.00000000000E+00  0.59940895146E+03  0.59940895146E+03  0.25500000920E-02 0.  1.
        2   -1    0    0  501    0  0.00000000000E+00  0.00000000000E+00 -0.20599435788E+03  0.20599435789E+03  0.25500000920E-02 0. -1.
    10030    2    1    2    0    0  0.00000000000E+00  0.00000000000E+00  0.39341459358E+03  0.80540330936E+03  0.70277980071E+03 0.  0.
        1    1    3    3  502    0  0.67787198309E+02 -0.29526797049E+03 -0.73256796397E+01  0.30303785945E+03  0.50400001928E-02 0. -1.
       -1    1    3    3    0  502 -0.67787198309E+02  0.29526797049E+03  0.40074027322E+03  0.50236544991E+03  0.50400001928E-02 0.  1.
</event>
<event>
 5   0  0.1951465E-02  0.7076224E+03  0.7818609E-02  0.9704285E-01
       -1   -1    0    0    0  501  0.00000000000E+00  0.00000000000E+00  0.25493967730E+03  0.25493967735E+03  0.50400001928E-02 0.  1.
        1   -1    0    0  501    0  0.00000000000E+00  0.00000000000E+00 -0.49102743909E+03  0.49102743911E+03  0.50400001928E-02 0. -1.
    10030    2    1    2    0    0  0.00000000000E+00  0.00000000000E+00 -0.23608776179E+03  0.74596711646E+03  0.70762243292E+03 0.  0.
        4    1    3    3  502    0  0.32444848956E+03 -0.73053761400E+02  0.92341659310E+01  0.33270190434E+03  0.12699999809E+01 0.  1.
       -4    1    3    3    0  502 -0.32444848956E+03  0.73053761400E+02 -0.24532192772E+03  0.41326521212E+03  0.12699999809E+01 0. -1.
</event>
<event>
 5   0  0.3183963E-02  0.7028068E+03  0.7818609E-02  0.9712444E-01
        2   -1    0    0  501    0  0.00000000000E+00  0.00000000000E+00  0.16591397717E+04  0.16591397717E+04  0.25500000920E-02 0. -1.
       -2   -1    0    0    0  501  0.00000000000E+00  0.00000000000E+00 -0.74426738023E+02  0.74426738067E+02  0.25500000920E-02 0.  1.
    10030    2    1    2    0    0  0.00000000000E+00  0.00000000000E+00  0.15847130336E+04  0.17335665097E+04  0.70280683312E+03 0.  0.
        4    1    3    3  502    0  0.26481903819E+03 -0.10191924311E+03  0.28106631991E+03  0.39939522305E+03  0.12699999809E+01 0.  1.
       -4    1    3    3    0  502 -0.26481903819E+03  0.10191924311E+03  0.13036467137E+04  0.13341712867E+04  0.12699999809E+01 0. -1.
</event>
<event>
 5   0  0.1233912E-02  0.6895422E+03  0.7818609E-02  0.9735285E-01
       -3   -1    0    0    0  501  0.00000000000E+00  0.00000000000E+00  0.14520782747E+03  0.14520786259E+03  0.10100000352E+00 0.  1.
        3   -1    0    0  501    0  0.00000000000E+00  0.00000000000E+00 -0.81859976267E+03  0.81859976890E+03  0.10100000352E+00 0. -1.
    10030    2    1    2    0    0  0.00000000000E+00  0.00000000000E+00 -0.67339193520E+03  0.96380763149E+03  0.68954220475E+03 0.  0.
        4    1    3    3  502    0 -0.26185738151E+03  0.11842276276E+03 -0.70490591259E+02  0.29591176953E+03  0.12699999809E+01 0.  1.
       -4    1    3    3    0  502  0.26185738151E+03 -0.11842276276E+03 -0.60290134394E+03  0.66789586196E+03  0.12699999809E+01 0. -1.
</event>
<event>
 5   0  0.2933851E-02  0.6970123E+03  0.7818609E-02  0.9722355E-01
        2   -1    0    0  501    0  0.00000000000E+00  0.00000000000E+00  0.92632247104E+03  0.92632247104E+03  0.25500000920E-02 0. -1.
       -2   -1    0    0    0  501  0.00000000000E+00  0.00000000000E+00 -0.13111692422E+03  0.13111692424E+03  0.25500000920E-02 0.  1.
    10030    2    1    2    0    0  0.00000000000E+00  0.00000000000E+00  0.79520554682E+03  0.10574393953E+04  0.69701234781E+03 0.  0.
        2    1    3    3  502    0  0.65706308914E+02 -0.92926955933E+02  0.89733518596E+03  0.90452372779E+03  0.25500000920E-02 0. -1.
       -2    1    3    3    0  502 -0.65706308914E+02  0.92926955933E+02 -0.10212963913E+03  0.15291566750E+03  0.25500000920E-02 0.  1.
</event>
<event>
 5   0  0.1951465E-02  0.6957469E+03  0.7818609E-02  0.9724533E-01
       -1   -1    0    0    0  501  0.00000000000E+00  0.00000000000E+00  0.19057629986E+03  0.19057629993E+03  0.50400001928E-02 0. -1.
        1   -1    0    0  501    0  0.00000000000E+00  0.00000000000E+00 -0.63499992393E+03  0.63499992395E+03  0.50400001928E-02 0.  1.
    10030    2    1    2    0    0  0.00000000000E+00  0.00000000000E+00 -0.44442362407E+03  0.82557622388E+03  0.69574689637E+03 0.  0.
        4    1    3    3  502    0  0.10798222851E+03 -0.17635661879E+03 -0.55414832101E+03  0.59147594477E+03  0.12699999809E+01 0.  1.
       -4    1    3    3    0  502 -0.10798222851E+03  0.17635661879E+03  0.10972469693E+03  0.23410027911E+03  0.12699999809E+01 0. -1.
</event>
<event>
 5   0  0.3183963E-02  0.7539779E+03  0.7818609E-02  0.9629130E-01
       -2   -1    0    0    0  501  0.00000000000E+00  0.00000000000E+00  0.27127270883E+03  0.27127270884E+03  0.25500000920E-02 0. -1.
        2   -1    0    0  501    0  0.00000000000E+00  0.00000000000E+00 -0.52390335757E+03  0.52390335758E+03  0.25500000920E-02 0.  1.
    10030    2    1    2    0    0  0.00000000000E+00  0.00000000000E+00 -0.25263064874E+03  0.79517606642E+03  0.75397793861E+03 0.  0.
        4    1    3    3  502    0  0.27201797972E+03  0.26098370185E+03 -0.12254269280E+03  0.39638945292E+03  0.12699999809E+01 0. -1.
       -4    1    3    3    0  502 -0.27201797972E+03 -0.26098370185E+03 -0.13008795594E+03  0.39878661350E+03  0.12699999809E+01 0.  1.
</event>
<event>
 5   0  0.1884172E-02  0.6998775E+03  0.7818609E-02  0.9717442E-01
        1   -1    0    0  501    0  0.00000000000E+00  0.00000000000E+00  0.68406025891E+03  0.68406025892E+03  0.50400001928E-02 0. -1.
       -1   -1    0    0    0  501  0.00000000000E+00  0.00000000000E+00 -0.17901509382E+03  0.17901509389E+03  0.50400001928E-02 0.  1.
    10030    2    1    2    0    0  0.00000000000E+00  0.00000000000E+00  0.50504516508E+03  0.86307535282E+03  0.69987745060E+03 0.  0.
        3    1    3    3  502    0  0.34732305748E+03  0.34502410689E+02  0.28355805982E+03  0.44969868367E+03  0.10100000352E+00 0. -1.
       -3    1    3    3    0  502 -0.34732305748E+03 -0.34502410689E+02  0.22148710526E+03  0.41337666915E+03  0.10100000352E+00 0.  1.
</event>
<event>
 5   0  0.3113940E-02  0.6716475E+03  0.7818609E-02  0.9766986E-01
       -2   -1    0    0    0  501  0.00000000000E+00  0.00000000000E+00  0.34917068801E+03  0.34917068802E+03  0.25500000920E-02 0.  1.
        2   -1    0    0  501    0  0.00000000000E+00  0.00000000000E+00 -0.32298699399E+03  0.32298699400E+03  0.25500000920E-02 0. -1.
    10030    2    1    2    0    0  0.00000000000E+00  0.00000000000E+00  0.26183694019E+02  0.67215768202E+03  0.67164749956E+03 0.  0.
        5    1    3    3  502    0 -0.17921692575E+03 -0.16776441378E+03  0.24237697896E+03  0.34501057221E+03  0.46999998093E+01 0.  1.
       -5    1    3    3    0  502  0.17921692575E+03  0.16776441378E+03 -0.21619328495E+03  0.32714710981E+03  0.46999998093E+01 0. -1.
</event>
<event>
 5   0  0.3113940E-02  0.7041510E+03  0.7818609E-02  0.9710160E-01
       -2   -1    0    0    0  501  0.00000000000E+00  0.00000000000E+00  0.93616754508E+02  0.93616754542E+02  0.25500000920E-02 0. -1.
        2   -1    0    0  501    0  0.00000000000E+00  0.00000000000E+00 -0.13240915630E+04  0.13240915631E+04  0.25500000920E-02 0.  1.
    10030    2    1    2    0    0  0.00000000000E+00  0.00000000000E+00 -0.12304748085E+04  0.14177083176E+04  0.70415099185E+03 0.  0.
        5    1    3    3  502    0  0.20852661941E+03 -0.27548652285E+01 -0.44195134495E+02  0.21322814119E+03  0.46999998093E+01 0. -1.
       -5    1    3    3    0  502 -0.20852661941E+03  0.27548652285E+01 -0.11862796740E+04  0.12044801764E+04  0.46999998093E+01 0.  1.
</event>
<event>
 5   0  0.3290656E-02  0.6983349E+03  0.7818609E-02  0.9720084E-01
       -2   -1    0    0    0  501  0.00000000000E+00  0.00000000000E+00  0.23839902564E+03  0.23839902565E+03  0.25500000920E-02 0. -1.
        2   -1    0    0  501    0  0.00000000000E+00  0.00000000000E+00 -0.51140276860E+03  0.51140276861E+03  0.25500000920E-02 0.  1.
    10030    2    1    2    0    0  0.00000000000E+00  0.00000000000E+00 -0.27300374297E+03  0.74980179426E+03  0.69833493898E+03 0.  0.
        1    1    3    3  502    0 -0.59080920509E+02  0.33611216372E+03 -0.57193489933E+02  0.34602461919E+03  0.50400001928E-02 0. -1.
       -1    1    3    3    0  502  0.59080920509E+02 -0.33611216372E+03 -0.21581025303E+03  0.40377717507E+03  0.50400001928E-02 0.  1.
</event>
<event>
 5   0  0.1858013E-02  0.7078891E+03  0.7818609E-02  0.9703835E-01
       -1   -1    0    0    0  501  0.00000000000E+00  0.00000000000E+00  0.11152553443E+03  0.11152553454E+03  0.50400001928E-02 0.  1.
        1   -1    0    0  501    0  0.00000000000E+00  0.00000000000E+00 -0.11233010186E+04  0.11233010187E+04  0.50400001928E-02 0. -1.
    10030    2    1    2    0    0  0.00000000000E+00  0.00000000000E+00 -0.10117754842E+04  0.12348265532E+04  0.70788910575E+03 0.  0.
        2    1    3    3  502    0 -0.12183985903E+03 -0.26882987590E+03 -0.16512040357E+03  0.33819994250E+03  0.25500000920E-02 0.  1.
       -2    1    3    3    0  502  0.12183985903E+03  0.26882987590E+03 -0.84665508065E+03  0.89662661070E+03  0.25500000920E-02 0. -1.
</event>
<event>
 5   0  0.1884172E-02  0.6754857E+03  0.7818609E-02  0.9760098E-01
       -1   -1    0    0    0  501  0.00000000000E+00  0.00000000000E+00  0.51002596529E+03  0.51002596531E+03  0.50400001928E-02 0. -1.
        1   -1    0    0  501    0  0.00000000000E+00  0.00000000000E+00 -0.22365570714E+03  0.22365570720E+03  0.50400001928E-02 0.  1.
    10030    2    1    2    0    0  0.00000000000E+00  0.00000000000E+00  0.28637025815E+03  0.73368167251E+03  0.67548565627E+03 0.  0.
        3    1    3    3  502    0  0.12458623506E+03 -0.60648212901E+02  0.47773172262E+03  0.49742089290E+03  0.10100000352E+00 0. -1.
       -3    1    3    3    0  502 -0.12458623506E+03  0.60648212901E+02 -0.19136146448E+03  0.23626077961E+03  0.10100000352E+00 0.  1.
</event>
<event>
 5   0  0.1969818E-02  0.6970730E+03  0.7818609E-02  0.9722251E-01
       -1   -1    0    0    0  501  0.00000000000E+00  0.00000000000E+00  0.16390008028E+03  0.16390008036E+03  0.50400001928E-02 0.  1.
        1   -1    0    0  501    0  0.00000000000E+00  0.00000000000E+00 -0.74116918850E+03  0.74116918851E+03  0.50400001928E-02 0. -1.
    10030    2    1    2    0    0  0.00000000000E+00  0.00000000000E+00 -0.57726910821E+03  0.90506926888E+03  0.69707299343E+03 0.  0.
        1    1    3    3  502    0 -0.15448629284E+03 -0.14745263807E+02 -0.69383528959E+03  0.71097879475E+03  0.50400001928E-02 0. -1.
       -1    1    3    3    0  502  0.15448629284E+03  0.14745263807E+02  0.11656618138E+03  0.19409047413E+03  0.50400001928E-02 0.  1.
</event>
<event>
 5   0  0.3183963E-02  0.7005144E+03  0.7818609E-02  0.9716353E-01
       -2   -1    0    0    0  501  0.00000000000E+00  0.00000000000E+00  0.87332900863E+02  0.87332900901E+02  0.25500000920E-02 0. -1.
        2   -1    0    0  501    0  0.00000000000E+00  0.00000000000E+00 -0.14047408191E+04  0.14047408191E+04  0.25500000920E-02 0.  1.
    10030    2    1    2    0    0  0.00000000000E+00  0.00000000000E+00 -0.13174079182E+04  0.14920737200E+04  0.70051435594E+03 0.  0.
        4    1    3    3  502    0 -0.23532042582E+03  0.21203223388E+03 -0.97709765389E+03  0.10271586095E+04  0.12699999809E+01 0.  1.
       -4    1    3    3    0  502  0.23532042582E+03 -0.21203223388E+03 -0.34031026431E+03  0.46491511043E+03  0.12699999809E+01 0. -1.
</event>
<event>
 5   0  0.1839038E-02  0.6995526E+03  0.7818609E-02  0.9717998E-01
        1   -1    0    0  501    0  0.00000000000E+00  0.00000000000E+00  0.94704907359E+03  0.94704907361E+03  0.50400001928E-02 0. -1.
       -1   -1    0    0    0  501  0.00000000000E+00  0.00000000000E+00 -0.12918386783E+03  0.12918386792E+03  0.50400001928E-02 0.  1.
    10030    2    1    2    0    0  0.00000000000E+00  0.00000000000E+00  0.81786520577E+03  0.10762329415E+04  0.69955260676E+03 0.  0.
        5    1    3    3  502    0 -0.19266784903E+02 -0.10321458954E+03  0.92218083111E+03  0.92815086907E+03  0.46999998093E+01 0. -1.
       -5    1    3    3    0  502  0.19266784903E+02  0.10321458954E+03 -0.10431562534E+03  0.14808207246E+03  0.46999998093E+01 0.  1.
</event>
<event>
 5   0  0.1951465E-02  0.6965140E+03  0.7818609E-02  0.9723212E-01
        1   -1    0    0  501    0  0.00000000000E+00  0.00000000000E+00  0.21699860181E+04  0.21699860181E+04  0.50400001928E-02 0. -1.
       -1   -1    0    0    0  501  0.00000000000E+00  0.00000000000E+00 -0.55891122583E+02  0.55891122810E+02  0.50400001928E-02 0.  1.
    10030    2    1    2    0    0  0.00000000000E+00  0.00000000000E+00  0.21140948955E+04  0.22258771409E+04  0.69651404810E+03 0.  0.
        4    1    3    3  502    0 -0.30142151540E+03  0.12970375884E+03  0.68431757952E+03  0.75892697774E+03  0.12699999809E+01 0.  1.
       -4    1    3    3    0  502  0.30142151540E+03 -0.12970375884E+03  0.14297773160E+04  0.14669501632E+04  0.12699999809E+01 0. -1.
</event>
<event>
 5   0  0.1858013E-02  0.7003721E+03  0.7818609E-02  0.9716596E-01
       -1   -1    0    0    0  501  0.00000000000E+00  0.00000000000E+00  0.35144721901E+03  0.35144721905E+03  0.50400001928E-02 0. -1.
        1   -1    0    0  501    0  0.00000000000E+00  0.00000000000E+00 -0.34892940448E+03  0.34892940451E+03  0.50400001928E-02 0.  1.
    10030    2    1    2    0    0  0.00000000000E+00  0.00000000000E+00  0.25178145347E+01  0.70037662356E+03  0.70037209785E+03 0.  0.
        2    1    3    3  502    0  0.25402750784E+03 -0.64744426393E+02 -0.23092453328E+03  0.34935362538E+03  0.25500000920E-02 0.  1.
       -2    1    3    3    0  502 -0.25402750784E+03  0.64744426393E+02  0.23344234782E+03  0.35102299818E+03  0.25500000920E-02 0. -1.
</event>
<event>
 5   0  0.3184443E-02  0.7019917E+03  0.7818609E-02  0.9713832E-01
        2   -1    0    0  501    0  0.00000000000E+00  0.00000000000E+00  0.20616078164E+04  0.20616078164E+04  0.25500000920E-02 0.  1.
       -2   -1    0    0    0  501  0.00000000000E+00  0.00000000000E+00 -0.59758257526E+02  0.59758257580E+02  0.25500000920E-02 0. -1.
    10030    2    1    2    0    0  0.00000000000E+00  0.00000000000E+00  0.20018495588E+04  0.21213660740E+04  0.70199171182E+03 0.  0.
        3    1    3    3  502    0 -0.26690298395E+03  0.22510146038E+03  0.11094707976E+04  0.11631136364E+04  0.10100000352E+00 0.  1.
       -3    1    3    3    0  502  0.26690298395E+03 -0.22510146038E+03  0.89237876128E+03  0.95825243756E+03  0.10100000352E+00 0. -1.
</event>
<event>
 5   0  0.3183963E-02  0.6962522E+03  0.7818609E-02  0.9723663E-01
        2   -1    0    0  501    0  0.00000000000E+00  0.00000000000E+00  0.20483007633E+04  0.20483007633E+04  0.25500000920E-02 0. -1.
       -2   -1    0    0    0  501  0.00000000000E+00  0.00000000000E+00 -0.59166980120E+02  0.59166980175E+02  0.25500000920E-02 0.  1.
    10030    2    1    2    0    0  0.00000000000E+00  0.00000000000E+00  0.19891337832E+04  0.21074677435E+04  0.69625216869E+03 0.  0.
        4    1    3    3  502    0 -0.95913098213E+02  0.25833461533E+03  0.35065987430E+03  0.44598212546E+03  0.12699999809E+01 0.  1.
       -4    1    3    3    0  502  0.95913098213E+02 -0.25833461533E+03  0.16384739089E+04  0.16614856180E+04  0.12699999809E+01 0. -1.
</event>
<event>
 5   0  0.3290656E-02  0.6977522E+03  0.7818609E-02  0.9721084E-01
        2   -1    0    0  501    0  0.00000000000E+00  0.00000000000E+00  0.10957255330E+04  0.10957255330E+04  0.25500000920E-02 0. -1.
       -2   -1    0    0    0  501  0.00000000000E+00  0.00000000000E+00 -0.11108121050E+03  0.11108121053E+03  0.25500000920E-02 0.  1.
    10030    2    1    2    0    0  0.00000000000E+00  0.00000000000E+00  0.98464432253E+03  0.12068067436E+04  0.69775215832E+03 0.  0.
        1    1    3    3  502    0 -0.73577912856E+02  0.18500242852E+03 -0.31756602112E+01  0.19912230579E+03  0.50400001928E-02 0.  1.
       -1    1    3    3    0  502  0.73577912856E+02 -0.18500242852E+03  0.98781998274E+03  0.10076844378E+04  0.50400001928E-02 0. -1.
</event>
<event>
 5   0  0.3184443E-02  0.6802795E+03  0.7818609E-02  0.9751564E-01
        2   -1    0    0  501    0  0.00000000000E+00  0.00000000000E+00  0.78481846133E+03  0.78481846133E+03  0.25500000920E-02 0.  1.
       -2   -1    0    0    0  501  0.00000000000E+00  0.00000000000E+00 -0.14741633906E+03  0.14741633908E+03  0.25500000920E-02 0. -1.
    10030    2    1    2    0    0  0.00000000000E+00  0.00000000000E+00  0.63740212227E+03  0.93223480041E+03  0.68027954373E+03 0.  0.
        3    1    3    3  502    0 -0.12965005522E+03  0.39474753536E+02  0.74622067392E+03  0.75842777993E+03  0.10100000352E+00 0.  1.
       -3    1    3    3    0  502  0.12965005522E+03 -0.39474753536E+02 -0.10881855165E+03  0.17380702048E+03  0.10100000352E+00 0. -1.
</event>
<event>
 5   0  0.1839038E-02  0.7079961E+03  0.7818609E-02  0.9703655E-01
        1   -1    0    0  501    0  0.00000000000E+00  0.00000000000E+00  0.21943344952E+03  0.21943344958E+03  0.50400001928E-02 0. -1.
       -1   -1    0    0    0  501  0.00000000000E+00  0.00000000000E+00 -0.57108258650E+03  0.57108258652E+03  0.50400001928E-02 0.  1.
    10030    2    1    2    0    0  0.00000000000E+00  0.00000000000E+00 -0.35164913698E+03  0.79051603610E+03  0.70799610719E+03 0.  0.
        5    1    3    3  502    0  0.51413522442E+02  0.11807093893E+03  0.19231409928E+03  0.23149708355E+03  0.46999998093E+01 0. -1.
       -5    1    3    3    0  502 -0.51413522442E+02 -0.11807093893E+03 -0.54396323627E+03  0.55901895255E+03  0.46999998093E+01 0.  1.
</event>
<event>
 5   0  0.1951465E-02  0.6493994E+03  0.7818609E-02  0.9807907E-01
       -1   -1    0    0    0  501  0.00000000000E+00  0.00000000000E+00  0.13146567087E+03  0.13146567097E+03  0.50400001928E-02 0.  1.
        1   -1    0    0  501    0  0.00000000000E+00  0.00000000000E+00 -0.80195771735E+03  0.80195771737E+03  0.50400001928E-02 0. -1.
    10030    2    1    2    0    0  0.00000000000E+00  0.00000000000E+00 -0.67049204648E+03  0.93342338834E+03  0.64939944372E+03 0.  0.
        4    1    3    3  502    0 -0.24197442530E+03  0.19325981081E+03 -0.19494781291E+03  0.36593338141E+03  0.12699999809E+01 0.  1.
       -4    1    3    3    0  502  0.24197442530E+03 -0.19325981081E+03 -0.47554423357E+03  0.56749000692E+03  0.12699999809E+01 0. -1.
</event>
<event>
 5   0  0.1839038E-02  0.7864157E+03  0.7818609E-02  0.9579891E-01
       -1   -1    0    0    0  501  0.00000000000E+00  0.00000000000E+00  0.71043145740E+03  0.71043145742E+03  0.50400001928E-02 0.  1.
        1   -1    0    0  501    0  0.00000000000E+00  0.00000000000E+00 -0.21763168947E+03  0.21763168953E+03  0.50400001928E-02 0. -1.
    10030    2    1    2    0    0  0.00000000000E+00  0.00000000000E+00  0.49279976793E+03  0.92806314694E+03  0.78641566200E+03 0.  0.
        5    1    3    3  502    0  0.50995250470E+02 -0.11924420034E+03 -0.19162992804E+03  0.23143857545E+03  0.46999998093E+01 0. -1.
       -5    1    3    3    0  502 -0.50995250470E+02  0.11924420034E+03  0.68442969597E+03  0.69662457150E+03  0.46999998093E+01 0.  1.
</event>
<event>
 5   0  0.1969818E-02  0.7038850E+03  0.7818609E-02  0.9710611E-01
        1   -1    0    0  501    0  0.00000000000E+00  0.00000000000E+00  0.88609517781E+03  0.88609517782E+03  0.50400001928E-02 0.  1.
       -1   -1    0    0    0  501  0.00000000000E+00  0.00000000000E+00 -0.13978579067E+03  0.13978579076E+03  0.50400001928E-02 0. -1.
    10030    2    1    2    0    0  0.00000000000E+00  0.00000000000E+00  0.74630938714E+03  0.10258809686E+04  0.70388497665E+03 0.  0.
        1    1    3    3  502    0 -0.17249636704E+03  0.27038760041E+03  0.16195404600E+03  0.35929592836E+03  0.50400001928E-02 0. -1.
       -1    1    3    3    0  502  0.17249636704E+03 -0.27038760041E+03  0.58435534114E+03  0.66658504022E+03  0.50400001928E-02 0.  1.
</event>
<event>
 5   0  0.3183963E-02  0.6336924E+03  0.7818609E-02  0.9837870E-01
        2   -1    0    0  501    0  0.00000000000E+00  0.00000000000E+00  0.65213623118E+03  0.65213623118E+03  0.25500000920E-02 0. -1.
       -2   -1    0    0    0  501  0.00000000000E+00  0.00000000000E+00 -0.15394252935E+03  0.15394252937E+03  0.25500000920E-02 0.  1.
    10030    2    1    2    0    0  0.00000000000E+00  0.00000000000E+00  0.49819370182E+03  0.80607876055E+03  0.63369235728E+03 0.  0.
        4    1    3    3  502    0 -0.21952631008E+03 -0.22683970953E+03  0.21445092322E+03  0.38162660548E+03  0.12699999809E+01 0. -1.
       -4    1    3    3    0  502  0.21952631008E+03  0.22683970953E+03  0.28374277861E+03  0.42445215508E+03  0.12699999809E+01 0.  1.
</event>
<event>
 5   0  0.3290656E-02  0.7028451E+03  0.7818609E-02  0.9712379E-01
        2   -1    0    0  501    0  0.00000000000E+00  0.00000000000E+00  0.21117721309E+03  0.21117721311E+03  0.25500000920E-02 0. -1.
       -2   -1    0    0    0  501  0.00000000000E+00  0.00000000000E+00 -0.58480644880E+03  0.58480644881E+03  0.25500000920E-02 0.  1.
    10030    2    1    2    0    0  0.00000000000E+00  0.00000000000E+00 -0.37362923571E+03  0.79598366191E+03  0.70284506419E+03 0.  0.
        1    1    3    3  502    0  0.22045129852E+00  0.35214600184E+02  0.20917393202E+03  0.21211753941E+03  0.50400001928E-02 0. -1.
       -1    1    3    3    0  502 -0.22045129852E+00 -0.35214600184E+02 -0.58280316773E+03  0.58386612250E+03  0.50400001928E-02 0.  1.
</event>
<event>
 5   0  0.2933851E-02  0.7012015E+03  0.7818609E-02  0.9715180E-01
        2   -1    0    0  501    0  0.00000000000E+00  0.00000000000E+00  0.32875903136E+03  0.32875903137E+03  0.25500000920E-02 0. -1.
       -2   -1    0    0    0  501  0.00000000000E+00  0.00000000000E+00 -0.37389354590E+03  0.37389354590E+03  0.25500000920E-02 0.  1.
    10030    2    1    2    0    0  0.00000000000E+00  0.00000000000E+00 -0.45134514531E+02  0.70265257728E+03  0.70120148314E+03 0.  0.
        2    1    3    3  502    0  0.38296106783E+02  0.30376546893E+03  0.14861022071E+03  0.34033079440E+03  0.25500000920E-02 0. -1.
       -2    1    3    3    0  502 -0.38296106783E+02 -0.30376546893E+03 -0.19374473524E+03  0.36232178288E+03  0.25500000920E-02 0.  1.
</event>
<event>
 5   0  0.1884172E-02  0.6878443E+03  0.7818609E-02  0.9738249E-01
       -1   -1    0    0    0  501  0.00000000000E+00  0.00000000000E+00  0.12426804924E+03  0.12426804934E+03  0.50400001928E-02 0. -1.
        1   -1    0    0  501    0  0.00000000000E+00  0.00000000000E+00 -0.95183303877E+03  0.95183303878E+03  0.50400001928E-02 0.  1.
    10030    2    1    2    0    0  0.00000000000E+00  0.00000000000E+00 -0.82756498953E+03  0.10761010881E+04  0.68784427013E+03 0.  0.
        3    1    3    3  502    0 -0.24438226417E+02 -0.93385974396E+02  0.10263979493E+03  0.14090104623E+03  0.10100000352E+00 0. -1.
       -3    1    3    3    0  502  0.24438226417E+02  0.93385974396E+02 -0.93020478446E+03  0.93520004189E+03  0.10100000352E+00 0.  1.
</event>
<event>
 5   0  0.3184443E-02  0.7015546E+03  0.7818609E-02  0.9714577E-01
        2   -1    0    0  501    0  0.00000000000E+00  0.00000000000E+00  0.37938161622E+03  0.37938161623E+03  0.25500000920E-02 0.  1.
       -2   -1    0    0    0  501  0.00000000000E+00  0.00000000000E+00 -0.32432969460E+03  0.32432969461E+03  0.25500000920E-02 0. -1.
    10030    2    1    2    0    0  0.00000000000E+00  0.00000000000E+00  0.55051921613E+02  0.70371131084E+03  0.70155462719E+03 0.  0.
        3    1    3    3  502    0  0.63290791795E+02 -0.41887838555E+02  0.37104685692E+03  0.37872958107E+03  0.10100000352E+00 0.  1.
       -3    1    3    3    0  502 -0.63290791795E+02  0.41887838555E+02 -0.31599493531E+03  0.32498172977E+03  0.10100000352E+00 0. -1.
</event>
<event>
 5   0  0.3113940E-02  0.7146304E+03  0.7818609E-02  0.9692534E-01
        2   -1    0    0  501    0  0.00000000000E+00  0.00000000000E+00  0.20141251403E+03  0.20141251405E+03  0.25500000920E-02 0.  1.
       -2   -1    0    0    0  501  0.00000000000E+00  0.00000000000E+00 -0.63389391107E+03  0.63389391107E+03  0.25500000920E-02 0. -1.
    10030    2    1    2    0    0  0.00000000000E+00  0.00000000000E+00 -0.43248139704E+03  0.83530642512E+03  0.71463043950E+03 0.  0.
        5    1    3    3  502    0  0.27142033958E+03 -0.22970526252E+03 -0.25704342442E+03  0.43877889695E+03  0.46999998093E+01 0.  1.
       -5    1    3    3    0  502 -0.27142033958E+03  0.22970526252E+03 -0.17543797261E+03  0.39652752817E+03  0.46999998093E+01 0. -1.
</event>
<event>
 5   0  0.3290656E-02  0.6924016E+03  0.7818609E-02  0.9730315E-01
       -2   -1    0    0    0  501  0.00000000000E+00  0.00000000000E+00  0.92152504567E+03  0.92152504567E+03  0.25500000920E-02 0. -1.
        2   -1    0    0  501    0  0.00000000000E+00  0.00000000000E+00 -0.13006157334E+03  0.13006157337E+03  0.25500000920E-02 0.  1.
    10030    2    1    2    0    0  0.00000000000E+00  0.00000000000E+00  0.79146347233E+03  0.10515866190E+04  0.69240160985E+03 0.  0.
        1    1    3    3  502    0 -0.45095928468E+02  0.12001441474E+03 -0.92678580304E+02  0.15819741396E+03  0.50400001928E-02 0.  1.
       -1    1    3    3    0  502  0.45095928468E+02 -0.12001441474E+03  0.88414205263E+03  0.89338920509E+03  0.50400001928E-02 0. -1.
</event>
<event>
 5   0  0.1884172E-02  0.7025721E+03  0.7818609E-02  0.9712844E-01
       -1   -1    0    0    0  501  0.00000000000E+00  0.00000000000E+00  0.13561085944E+03  0.13561085953E+03  0.50400001928E-02 0. -1.
        1   -1    0    0  501    0  0.00000000000E+00  0.00000000000E+00 -0.90997053350E+03  0.90997053351E+03  0.50400001928E-02 0.  1.
    10030    2    1    2    0    0  0.00000000000E+00  0.00000000000E+00 -0.77435967406E+03  0.10455813930E+04  0.70257209216E+03 0.  0.
        3    1    3    3  502    0  0.19465462447E+02  0.31543298955E+03 -0.61544086843E+03  0.69184127360E+03  0.10100000352E+00 0. -1.
       -3    1    3    3    0  502 -0.19465462447E+02 -0.31543298955E+03 -0.15891880563E+03  0.35374011945E+03  0.10100000352E+00 0.  1.
</event>
<event>
 5   0  0.1951465E-02  0.6751754E+03  0.7818609E-02  0.9760653E-01
       -1   -1    0    0    0  501  0.00000000000E+00  0.00000000000E+00  0.49325752854E+02  0.49325753111E+02  0.50400001928E-02 0. -1.
        1   -1    0    0  501    0  0.00000000000E+00  0.00000000000E+00 -0.23104656843E+04  0.23104656843E+04  0.50400001928E-02 0.  1.
    10030    2    1    2    0    0  0.00000000000E+00  0.00000000000E+00 -0.22611399315E+04  0.23597914375E+04  0.67517541316E+03 0.  0.
        4    1    3    3  502    0  0.69704027263E+02 -0.19089334780E+03 -0.18842134396E+03  0.27713378973E+03  0.12699999809E+01 0. -1.
       -4    1    3    3    0  502 -0.69704027263E+02  0.19089334780E+03 -0.20727185875E+04  0.20826576477E+04  0.12699999809E+01 0.  1.
</event>
<event>
 5   0  0.1884172E-02  0.6352232E+03  0.7818609E-02  0.9834909E-01
        1   -1    0    0  501    0  0.00000000000E+00  0.00000000000E+00  0.72970984691E+03  0.72970984693E+03  0.50400001928E-02 0. -1.
       -1   -1    0    0    0  501  0.00000000000E+00  0.00000000000E+00 -0.13824279897E+03  0.13824279907E+03  0.50400001928E-02 0.  1.
    10030    2    1    2    0    0  0.00000000000E+00  0.00000000000E+00  0.59146704794E+03  0.86795264600E+03  0.63522321029E+03 0.  0.
        3    1    3    3  502    0 -0.59602304981E+02  0.11492647413E+02 -0.13024360899E+03  0.14369385369E+03  0.10100000352E+00 0.  1.
       -3    1    3    3    0  502  0.59602304981E+02 -0.11492647413E+02  0.72171065693E+03  0.72425879231E+03  0.10100000352E+00 0. -1.
</event>
<event>
 5   0  0.3183963E-02  0.6988722E+03  0.7818609E-02  0.9719163E-01
        2   -1    0    0  501    0  0.00000000000E+00  0.00000000000E+00  0.10215590896E+04  0.10215590896E+04  0.25500000920E-02 0. -1.
       -2   -1    0    0    0  501  0.00000000000E+00  0.00000000000E+00 -0.11952865026E+03  0.11952865029E+03  0.25500000920E-02 0.  1.
    10030    2    1    2    0    0  0.00000000000E+00  0.00000000000E+00  0.90203043936E+03  0.11410877399E+04  0.69887217476E+03 0.  0.
        4    1    3    3  502    0  0.26733516070E+02  0.19313502237E+03 -0.22450657455E+02  0.19626885303E+03  0.12699999809E+01 0.  1.
       -4    1    3    3    0  502 -0.26733516070E+02 -0.19313502237E+03  0.92448109682E+03  0.94481888689E+03  0.12699999809E+01 0. -1.
</event>
<event>
 5   0  0.3113940E-02  0.6942321E+03  0.7818609E-02  0.9727147E-01
        2   -1    0    0  501    0  0.00000000000E+00  0.00000000000E+00  0.37430528732E+03  0.37430528733E+03  0.25500000920E-02 0. -1.
       -2   -1    0    0    0  501  0.00000000000E+00  0.00000000000E+00 -0.32190183383E+03  0.32190183384E+03  0.25500000920E-02 0.  1.
    10030    2    1    2    0    0  0.00000000000E+00  0.00000000000E+00  0.52403453499E+02  0.69620712117E+03  0.69423211797E+03 0.  0.
        5    1    3    3  502    0  0.35843705107E+02 -0.26939307665E+03 -0.19030611208E+03  0.33180703313E+03  0.46999998093E+01 0.  1.
       -5    1    3    3    0  502 -0.35843705107E+02  0.26939307665E+03  0.24270956557E+03  0.36440008804E+03  0.46999998093E+01 0. -1.
</event>
<event>
 5   0  0.2933851E-02  0.7051246E+03  0.7818609E-02  0.9708508E-01
       -2   -1    0    0    0  501  0.00000000000E+00  0.00000000000E+00  0.12078588678E+03  0.12078588681E+03  0.25500000920E-02 0. -1.
        2   -1    0    0  501    0  0.00000000000E+00  0.00000000000E+00 -0.10290951790E+04  0.10290951790E+04  0.25500000920E-02 0.  1.
    10030    2    1    2    0    0  0.00000000000E+00  0.00000000000E+00 -0.90830929224E+03  0.11498810658E+04  0.70512459551E+03 0.  0.
        2    1    3    3  502    0 -0.12457846845E+03  0.25732014342E+03 -0.11770338015E+03  0.30917234145E+03  0.25500000920E-02 0. -1.
       -2    1    3    3    0  502  0.12457846845E+03 -0.25732014342E+03 -0.79060591210E+03  0.84070872439E+03  0.25500000920E-02 0.  1.
</event>
<event>
 5   0  0.3184443E-02  0.6973214E+03  0.7818609E-02  0.9721824E-01
        2   -1    0    0  501    0  0.00000000000E+00  0.00000000000E+00  0.94409168962E+03  0.94409168962E+03  0.25500000920E-02 0.  1.
       -2   -1    0    0    0  501  0.00000000000E+00  0.00000000000E+00 -0.12876320986E+03  0.12876320989E+03  0.25500000920E-02 0. -1.
    10030    2    1    2    0    0  0.00000000000E+00  0.00000000000E+00  0.81532847976E+03  0.10728548995E+04  0.69732137892E+03 0.  0.
        3    1    3    3  502    0 -0.34596978520E+03 -0.40578601659E+02  0.38471212169E+03  0.51898472228E+03  0.10100000352E+00 0. -1.
       -3    1    3    3    0  502  0.34596978520E+03  0.40578601659E+02  0.43061635807E+03  0.55387017723E+03  0.10100000352E+00 0.  1.
</event>
<event>
 5   0  0.2933851E-02  0.7038746E+03  0.7818609E-02  0.9710629E-01
       -2   -1    0    0    0  501  0.00000000000E+00  0.00000000000E+00  0.14425931714E+03  0.14425931716E+03  0.25500000920E-02 0.  1.
        2   -1    0    0  501    0  0.00000000000E+00  0.00000000000E+00 -0.85859171511E+03  0.85859171512E+03  0.25500000920E-02 0. -1.
    10030    2    1    2    0    0  0.00000000000E+00  0.00000000000E+00 -0.71433239798E+03  0.10028510323E+04  0.70387457557E+03 0.  0.
        2    1    3    3  502    0 -0.75602035548E+02  0.19128512470E+03  0.49711869259E+02  0.21160561585E+03  0.25500000920E-02 0.  1.
       -2    1    3    3    0  502  0.75602035548E+02 -0.19128512470E+03 -0.76404426723E+03  0.79124541642E+03  0.25500000920E-02 0. -1.
</event>
<event>
 5   0  0.3184443E-02  0.6980811E+03  0.7818609E-02  0.9720519E-01
        2   -1    0    0  501    0  0.00000000000E+00  0.00000000000E+00  0.10808136470E+04  0.10808136470E+04  0.25500000920E-02 0.  1.
       -2   -1    0    0    0  501  0.00000000000E+00  0.00000000000E+00 -0.11272000110E+03  0.11272000113E+03  0.25500000920E-02 0. -1.
    10030    2    1    2    0    0  0.00000000000E+00  0.00000000000E+00  0.96809364586E+03  0.11935336481E+04  0.69808112850E+03 0.  0.
        3    1    3    3  502    0  0.22196984860E+03  0.10726582856E+03  0.90650267108E+03  0.93942731200E+03  0.10100000352E+00 0.  1.
       -3    1    3    3    0  502 -0.22196984860E+03 -0.10726582856E+03  0.61590974781E+02  0.25410633609E+03  0.10100000352E+00 0. -1.
</event>
<event>
 5   0  0.3184443E-02  0.6892259E+03  0.7818609E-02  0.9735837E-01
       -2   -1    0    0    0  501  0.00000000000E+00  0.00000000000E+00  0.66228042063E+03  0.66228042063E+03  0.25500000920E-02 0. -1.
        2   -1    0    0  501    0  0.00000000000E+00  0.00000000000E+00 -0.17931692193E+03  0.17931692195E+03  0.25500000920E-02 0.  1.
    10030    2    1    2    0    0  0.00000000000E+00  0.00000000000E+00  0.48296349870E+03  0.84159734258E+03  0.68922590344E+03 0.  0.
        3    1    3    3  502    0  0.25371211114E+02  0.13313488461E+03  0.62837118174E+03  0.64282108560E+03  0.10100000352E+00 0. -1.
       -3    1    3    3    0  502 -0.25371211114E+02 -0.13313488461E+03 -0.14540768304E+03  0.19877625698E+03  0.10100000352E+00 0.  1.
</event>
<event>
 5   0  0.2933851E-02  0.6990129E+03  0.7818609E-02  0.9718922E-01
       -2   -1    0    0    0  501  0.00000000000E+00  0.00000000000E+00  0.33413901682E+03  0.33413901683E+03  0.25500000920E-02 0.  1.
        2   -1    0    0  501    0  0.00000000000E+00  0.00000000000E+00 -0.36558065374E+03  0.36558065375E+03  0.25500000920E-02 0. -1.
    10030    2    1    2    0    0  0.00000000000E+00  0.00000000000E+00 -0.31441636923E+02  0.69971967058E+03  0.69901290464E+03 0.  0.
        2    1    3    3  502    0  0.17492501468E+03 -0.11133224714E+02 -0.31840388133E+03  0.36346078345E+03  0.25500000920E-02 0. -1.
       -2    1    3    3    0  502 -0.17492501468E+03  0.11133224714E+02  0.28696224441E+03  0.33625888713E+03  0.25500000920E-02 0.  1.
</event>
<event>
 5   0  0.1884172E-02  0.7067445E+03  0.7818609E-02  0.9705767E-01
        1   -1    0    0  501    0  0.00000000000E+00  0.00000000000E+00  0.35364607774E+03  0.35364607778E+03  0.50400001928E-02 0. -1.
       -1   -1    0    0    0  501  0.00000000000E+00  0.00000000000E+00 -0.35309859536E+03  0.35309859540E+03  0.50400001928E-02 0.  1.
    10030    2    1    2    0    0  0.00000000000E+00  0.00000000000E+00  0.54748238337E+00  0.70674467318E+03  0.70674446112E+03 0.  0.
        3    1    3    3  502    0 -0.28831919545E+03  0.14979315251E+02  0.20403735349E+03  0.35353018283E+03  0.10100000352E+00 0. -1.
       -3    1    3    3    0  502  0.28831919545E+03 -0.14979315251E+02 -0.20348987110E+03  0.35321449035E+03  0.10100000352E+00 0.  1.
</event>
<event>
 5   0  0.1858013E-02  0.7070698E+03  0.7818609E-02  0.9705218E-01
       -1   -1    0    0    0  501  0.00000000000E+00  0.00000000000E+00  0.82915219342E+03  0.82915219344E+03  0.50400001928E-02 0. -1.
        1   -1    0    0  501    0  0.00000000000E+00  0.00000000000E+00 -0.15074061287E+03  0.15074061295E+03  0.50400001928E-02 0.  1.
    10030    2    1    2    0    0  0.00000000000E+00  0.00000000000E+00  0.67841158056E+03  0.97989280639E+03  0.70706975567E+03 0.  0.
        2    1    3    3  502    0  0.60556866171E+02 -0.20760150252E+03 -0.48390023984E+02  0.22160124620E+03  0.25500000920E-02 0.  1.
       -2    1    3    3    0  502 -0.60556866171E+02  0.20760150252E+03  0.72680160454E+03  0.75829156019E+03  0.25500000920E-02 0. -1.
</event>
<event>
 5   0  0.1858013E-02  0.7049074E+03  0.7818609E-02  0.9708877E-01
       -1   -1    0    0    0  501  0.00000000000E+00  0.00000000000E+00  0.14976566569E+03  0.14976566577E+03  0.50400001928E-02 0.  1.
        1   -1    0    0  501    0  0.00000000000E+00  0.00000000000E+00 -0.82945311341E+03  0.82945311343E+03  0.50400001928E-02 0. -1.
    10030    2    1    2    0    0  0.00000000000E+00  0.00000000000E+00 -0.67968744772E+03  0.97921877920E+03  0.70490736337E+03 0.  0.
        2    1    3    3  502    0 -0.29987319614E+03 -0.10567136347E+03 -0.12856012032E+03  0.34295491739E+03  0.25500000920E-02 0.  1.
       -2    1    3    3    0  502  0.29987319614E+03  0.10567136347E+03 -0.55112732740E+03  0.63626386180E+03  0.25500000920E-02 0. -1.
</event>
<event>
 5   0  0.1884172E-02  0.6994042E+03  0.7818609E-02  0.9718252E-01
       -1   -1    0    0    0  501  0.00000000000E+00  0.00000000000E+00  0.45150430815E+03  0.45150430818E+03  0.50400001928E-02 0. -1.
        1   -1    0    0  501    0  0.00000000000E+00  0.00000000000E+00 -0.27085357727E+03  0.27085357731E+03  0.50400001928E-02 0.  1.
    10030    2    1    2    0    0  0.00000000000E+00  0.00000000000E+00  0.18065073089E+03  0.72235788549E+03  0.69940419513E+03 0.  0.
        3    1    3    3  502    0  0.18648463871E+03  0.29454026727E+03  0.61832713743E+02  0.35405336350E+03  0.10100000352E+00 0. -1.
       -3    1    3    3    0  502 -0.18648463871E+03 -0.29454026727E+03  0.11881801714E+03  0.36830452199E+03  0.10100000352E+00 0.  1.
</event>
<event>
 5   0  0.3290656E-02  0.6951376E+03  0.7818609E-02  0.9725584E-01
       -2   -1    0    0    0  501  0.00000000000E+00  0.00000000000E+00  0.20344706637E+03  0.20344706639E+03  0.25500000920E-02 0. -1.
        2   -1    0    0  501    0  0.00000000000E+00  0.00000000000E+00 -0.59378622739E+03  0.59378622740E+03  0.25500000920E-02 0.  1.
    10030    2    1    2    0    0  0.00000000000E+00  0.00000000000E+00 -0.39033916102E+03  0.79723329379E+03  0.69513758645E+03 0.  0.
        1    1    3    3  502    0  0.53910759729E+02 -0.12460378212E+03  0.17177830314E+03  0.21895263868E+03  0.50400001928E-02 0. -1.
       -1    1    3    3    0  502 -0.53910759729E+02  0.12460378212E+03 -0.56211746416E+03  0.57828065510E+03  0.50400001928E-02 0.  1.
</event>
<event>
 5   0  0.1884172E-02  0.7120255E+03  0.7818609E-02  0.9696885E-01
       -1   -1    0    0    0  501  0.00000000000E+00  0.00000000000E+00  0.22866233164E+03  0.22866233169E+03  0.50400001928E-02 0.  1.
        1   -1    0    0  501    0  0.00000000000E+00  0.00000000000E+00 -0.55428919786E+03  0.55428919789E+03  0.50400001928E-02 0. -1.
    10030    2    1    2    0    0  0.00000000000E+00  0.00000000000E+00 -0.32562686623E+03  0.78295152958E+03  0.71202545015E+03 0.  0.
        3    1    3    3  502    0  0.93292113268E+02  0.65585135059E+02 -0.53366182097E+03  0.54571034231E+03  0.10100000352E+00 0. -1.
       -3    1    3    3    0  502 -0.93292113268E+02 -0.65585135059E+02  0.20803495475E+03  0.23724118727E+03  0.10100000352E+00 0.  1.
</event>
<event>
 5   0  0.3184443E-02  0.6995638E+03  0.7818609E-02  0.9717978E-01
       -2   -1    0    0    0  501  0.00000000000E+00  0.00000000000E+00  0.93471671176E+02  0.93471671211E+02  0.25500000920E-02 0.  1.
        2   -1    0    0  501    0  0.00000000000E+00  0.00000000000E+00 -0.13089247681E+04  0.13089247681E+04  0.25500000920E-02 0. -1.
    10030    2    1    2    0    0  0.00000000000E+00  0.00000000000E+00 -0.12154530969E+04  0.14023964393E+04  0.69956382281E+03 0.  0.
        3    1    3    3  502    0  0.51117087433E+01  0.67108630721E+02  0.80368902513E+02  0.10482780440E+03  0.10100000352E+00 0.  1.
       -3    1    3    3    0  502 -0.51117087433E+01 -0.67108630721E+02 -0.12958219994E+04  0.12975686349E+04  0.10100000352E+00 0. -1.
</event>
<event>
 5   0  0.1969818E-02  0.7561471E+03  0.7818609E-02  0.9625756E-01
        1   -1    0    0  501    0  0.00000000000E+00  0.00000000000E+00  0.16099201673E+03  0.16099201680E+03  0.50400001928E-02 0. -1.
       -1   -1    0    0    0  501  0.00000000000E+00  0.00000000000E+00 -0.88786778579E+03  0.88786778580E+03  0.50400001928E-02 0.  1.
    10030    2    1    2    0    0  0.00000000000E+00  0.00000000000E+00 -0.72687576907E+03  0.10488598026E+04  0.75614714300E+03 0.  0.
        1    1    3    3  502    0 -0.81400361804E+02  0.42944405279E+02  0.14521654935E+03  0.17192465523E+03  0.50400001928E-02 0. -1.
       -1    1    3    3    0  502  0.81400361804E+02 -0.42944405279E+02 -0.87209231841E+03  0.87693514738E+03  0.50400001928E-02 0.  1.
</event>
<event>
 5   0  0.3183963E-02  0.6994278E+03  0.7818609E-02  0.9718211E-01
       -2   -1    0    0    0  501  0.00000000000E+00  0.00000000000E+00  0.25064652143E+03  0.25064652144E+03  0.25500000920E-02 0.  1.
        2   -1    0    0  501    0  0.00000000000E+00  0.00000000000E+00 -0.48793742303E+03  0.48793742304E+03  0.25500000920E-02 0. -1.
    10030    2    1    2    0    0  0.00000000000E+00  0.00000000000E+00 -0.23729090161E+03  0.73858394448E+03  0.69942781690E+03 0.  0.
        4    1    3    3  502    0  0.14263077276E+03 -0.64681677707E+02  0.21154299748E+03  0.26320963024E+03  0.12699999809E+01 0.  1.
       -4    1    3    3    0  502 -0.14263077276E+03  0.64681677707E+02 -0.44883389909E+03  0.47537431424E+03  0.12699999809E+01 0. -1.
</event>
<event>
 5   0  0.3183963E-02  0.6959929E+03  0.7818609E-02  0.9724109E-01
        2   -1    0    0  501    0  0.00000000000E+00  0.00000000000E+00  0.65648263452E+03  0.65648263452E+03  0.25500000920E-02 0.  1.
       -2   -1    0    0    0  501  0.00000000000E+00  0.00000000000E+00 -0.18447028315E+03  0.18447028317E+03  0.25500000920E-02 0. -1.
    10030    2    1    2    0    0  0.00000000000E+00  0.00000000000E+00  0.47201235136E+03  0.84095291769E+03  0.69599292377E+03 0.  0.
        4    1    3    3  502    0  0.10109955892E+03 -0.11601924127E+03  0.61313282175E+03  0.63215113317E+03  0.12699999809E+01 0.  1.
       -4    1    3    3    0  502 -0.10109955892E+03  0.11601924127E+03 -0.14112047038E+03  0.20880178452E+03  0.12699999809E+01 0. -1.
</event>
<event>
 5   0  0.1839038E-02  0.6926386E+03  0.7818609E-02  0.9729905E-01
        1   -1    0    0  501    0  0.00000000000E+00  0.00000000000E+00  0.17925181264E+03  0.17925181271E+03  0.50400001928E-02 0.  1.
       -1   -1    0    0    0  501  0.00000000000E+00  0.00000000000E+00 -0.66909822518E+03  0.66909822520E+03  0.50400001928E-02 0. -1.
    10030    2    1    2    0    0  0.00000000000E+00  0.00000000000E+00 -0.48984641254E+03  0.84835003790E+03  0.69263863517E+03 0.  0.
        5    1    3    3  502    0 -0.87183418804E+02 -0.23981487313E+03  0.41804707082E+02  0.25861524591E+03  0.46999998093E+01 0.  1.
       -5    1    3    3    0  502  0.87183418804E+02  0.23981487313E+03 -0.53165111962E+03  0.58973479199E+03  0.46999998093E+01 0. -1.
</event>
<event>
 5   0  0.1884172E-02  0.7063693E+03  0.7818609E-02  0.9706401E-01
       -1   -1    0    0    0  501  0.00000000000E+00  0.00000000000E+00  0.10395264440E+03  0.10395264452E+03  0.50400001928E-02 0.  1.
        1   -1    0    0  501    0  0.00000000000E+00  0.00000000000E+00 -0.11999637762E+04  0.11999637762E+04  0.50400001928E-02 0. -1.
    10030    2    1    2    0    0  0.00000000000E+00  0.00000000000E+00 -0.10960111318E+04  0.13039164207E+04  0.70636933060E+03 0.  0.
        3    1    3    3  502    0 -0.76546887267E+02 -0.23367496085E+03 -0.10160017242E+04  0.10453338831E+04  0.10100000352E+00 0. -1.
       -3    1    3    3    0  502  0.76546887267E+02  0.23367496085E+03 -0.80009407573E+02  0.25858253765E+03  0.10100000352E+00 0.  1.
</event>
<event>
 5   0  0.1858013E-02  0.6815402E+03  0.7818609E-02  0.9749332E-01
        1   -1    0    0  501    0  0.00000000000E+00  0.00000000000E+00  0.99551395768E+03  0.99551395769E+03  0.50400001928E-02 0.  1.
       -1   -1    0    0    0  501  0.00000000000E+00  0.00000000000E+00 -0.11664756056E+03  0.11664756067E+03  0.50400001928E-02 0. -1.
    10030    2    1    2    0    0  0.00000000000E+00  0.00000000000E+00  0.87886639712E+03  0.11121615184E+04  0.68154024015E+03 0.  0.
        2    1    3    3  502    0  0.15757482334E+03 -0.19166845865E+03  0.58275939054E+02  0.25487782969E+03  0.25500000920E-02 0. -1.
       -2    1    3    3    0  502 -0.15757482334E+03  0.19166845865E+03  0.82059045806E+03  0.85728368867E+03  0.25500000920E-02 0.  1.
</event>
<event>
 5   0  0.3183963E-02  0.6968267E+03  0.7818609E-02  0.9722674E-01
       -2   -1    0    0    0  501  0.00000000000E+00  0.00000000000E+00  0.24781647619E+03  0.24781647620E+03  0.25500000920E-02 0.  1.
        2   -1    0    0  501    0  0.00000000000E+00  0.00000000000E+00 -0.48984586360E+03  0.48984586361E+03  0.25500000920E-02 0. -1.
    10030    2    1    2    0    0  0.00000000000E+00  0.00000000000E+00 -0.24202938742E+03  0.73766233981E+03  0.69682673829E+03 0.  0.
        4    1    3    3  502    0 -0.26695931010E+03 -0.23295297049E+02  0.11470043770E+03  0.29149227678E+03  0.12699999809E+01 0.  1.
       -4    1    3    3    0  502  0.26695931010E+03  0.23295297049E+02 -0.35672982512E+03  0.44617006303E+03  0.12699999809E+01 0. -1.
</event>
<event>
 5   0  0.1884172E-02  0.6889840E+03  0.7818609E-02  0.9736259E-01
       -1   -1    0    0    0  501  0.00000000000E+00  0.00000000000E+00  0.10420438584E+03  0.10420438596E+03  0.50400001928E-02 0.  1.
        1   -1    0    0  501    0  0.00000000000E+00  0.00000000000E+00 -0.11388651623E+04  0.11388651623E+04  0.50400001928E-02 0. -1.
    10030    2    1    2    0    0  0.00000000000E+00  0.00000000000E+00 -0.10346607765E+04  0.12430695483E+04  0.68898401976E+03 0.  0.
        3    1    3    3  502    0 -0.36330640290E+02 -0.33226795649E+03 -0.36688914727E+03  0.49631599503E+03  0.10100000352E+00 0.  1.
       -3    1    3    3    0  502  0.36330640290E+02  0.33226795649E+03 -0.66777162919E+03  0.74675355325E+03  0.10100000352E+00 0. -1.
</event>
<event>
 5   0  0.2933851E-02  0.7374137E+03  0.7818609E-02  0.9655306E-01
        2   -1    0    0  501    0  0.00000000000E+00  0.00000000000E+00  0.72590130071E+03  0.72590130071E+03  0.25500000920E-02 0.  1.
       -2   -1    0    0    0  501  0.00000000000E+00  0.00000000000E+00 -0.18727718657E+03  0.18727718659E+03  0.25500000920E-02 0. -1.
    10030    2    1    2    0    0  0.00000000000E+00  0.00000000000E+00  0.53862411414E+03  0.91317848731E+03  0.73741373282E+03 0.  0.
        2    1    3    3  502    0 -0.10922082013E+03  0.31589118115E+03  0.76556828214E+02  0.34289557278E+03  0.25500000920E-02 0. -1.
       -2    1    3    3    0  502  0.10922082013E+03 -0.31589118115E+03  0.46206728592E+03  0.57028291453E+03  0.25500000920E-02 0.  1.
</event>
<event>
 5   0  0.3183963E-02  0.7013492E+03  0.7818609E-02  0.9714928E-01
        2   -1    0    0  501    0  0.00000000000E+00  0.00000000000E+00  0.45383910683E+03  0.45383910684E+03  0.25500000920E-02 0.  1.
       -2   -1    0    0    0  501  0.00000000000E+00  0.00000000000E+00 -0.27096097814E+03  0.27096097815E+03  0.25500000920E-02 0. -1.
    10030    2    1    2    0    0  0.00000000000E+00  0.00000000000E+00  0.18287812869E+03  0.72480008499E+03  0.70134923771E+03 0.  0.
        4    1    3    3  502    0  0.14050196182E+03 -0.37119242210E+02  0.42125346670E+03  0.44561725227E+03  0.12699999809E+01 0.  1.
       -4    1    3    3    0  502 -0.14050196182E+03  0.37119242210E+02 -0.23837533800E+03  0.27918283272E+03  0.12699999809E+01 0. -1.
</event>
<event>
 5   0  0.1839038E-02  0.7036741E+03  0.7818609E-02  0.9710970E-01
       -1   -1    0    0    0  501  0.00000000000E+00  0.00000000000E+00  0.82495425079E+02  0.82495425233E+02  0.50400001928E-02 0.  1.
        1   -1    0    0  501    0  0.00000000000E+00  0.00000000000E+00 -0.15005595201E+04  0.15005595202E+04  0.50400001928E-02 0. -1.
    10030    2    1    2    0    0  0.00000000000E+00  0.00000000000E+00 -0.14180640951E+04  0.15830549454E+04  0.70367405977E+03 0.  0.
        5    1    3    3  502    0 -0.20655233730E+03  0.20274332112E+03 -0.11589633503E+04  0.11945655527E+04  0.46999998093E+01 0. -1.
       -5    1    3    3    0  502  0.20655233730E+03 -0.20274332112E+03 -0.25910074472E+03  0.38848939267E+03  0.46999998093E+01 0.  1.
</event>
<event>
 5   0  0.1233912E-02  0.7030045E+03  0.7818609E-02  0.9712108E-01
        4   -1    0    0  501    0  0.00000000000E+00  0.00000000000E+00  0.19553459505E+03  0.19553871934E+03  0.12699999809E+01 0.  1.
       -4   -1    0    0    0  501  0.00000000000E+00  0.00000000000E+00 -0.63186571444E+03  0.63186699074E+03  0.12699999809E+01 0. -1.
    10030    2    1    2    0    0  0.00000000000E+00  0.00000000000E+00 -0.43633111939E+03  0.82740571007E+03  0.70300452582E+03 0.  0.
        3    1    3    3  502    0  0.84009737687E+02 -0.27427592555E+03 -0.45726133290E+03  0.53978964063E+03  0.10100000352E+00 0.  1.
       -3    1    3    3    0  502 -0.84009737687E+02  0.27427592555E+03  0.20930213516E+02  0.28761606944E+03  0.10100000352E+00 0. -1.
</event>
<event>
 5   0  0.2933851E-02  0.6961165E+03  0.7818609E-02  0.9723897E-01
        2   -1    0    0  501    0  0.00000000000E+00  0.00000000000E+00  0.12532407924E+04  0.12532407924E+04  0.25500000920E-02 0. -1.
       -2   -1    0    0    0  501  0.00000000000E+00  0.00000000000E+00 -0.96665025162E+02  0.96665025195E+02  0.25500000920E-02 0.  1.
    10030    2    1    2    0    0  0.00000000000E+00  0.00000000000E+00  0.11565757673E+04  0.13499058176E+04  0.69611652116E+03 0.  0.
        2    1    3    3  502    0 -0.10616555615E+03 -0.88511580957E+02 -0.41160174791E+02  0.14422061320E+03  0.25500000920E-02 0.  1.
       -2    1    3    3    0  502  0.10616555615E+03  0.88511580957E+02  0.11977359421E+04  0.12056852044E+04  0.25500000920E-02 0. -1.
</event>
<event>
 5   0  0.3184443E-02  0.6816945E+03  0.7818609E-02  0.9749059E-01
        2   -1    0    0  501    0  0.00000000000E+00  0.00000000000E+00  0.13815544460E+04  0.13815544460E+04  0.25500000920E-02 0. -1.
       -2   -1    0    0    0  501  0.00000000000E+00  0.00000000000E+00 -0.84091398957E+02  0.84091398996E+02  0.25500000920E-02 0.  1.
    10030    2    1    2    0    0  0.00000000000E+00  0.00000000000E+00  0.12974630470E+04  0.14656458450E+04  0.68169449500E+03 0.  0.
        3    1    3    3  502    0  0.12013902526E+03  0.18093778648E+03  0.12135116854E+04  0.12327945850E+04  0.10100000352E+00 0. -1.
       -3    1    3    3    0  502 -0.12013902526E+03 -0.18093778648E+03  0.83951361642E+02  0.23285126001E+03  0.10100000352E+00 0.  1.
</event>
<event>
 5   0  0.3113940E-02  0.6986741E+03  0.7818609E-02  0.9719502E-01
        2   -1    0    0  501    0  0.00000000000E+00  0.00000000000E+00  0.66495997641E+03  0.66495997641E+03  0.25500000920E-02 0. -1.
       -2   -1    0    0    0  501  0.00000000000E+00  0.00000000000E+00 -0.18352441591E+03  0.18352441593E+03  0.25500000920E-02 0.  1.
    10030    2    1    2    0    0  0.00000000000E+00  0.00000000000E+00  0.48143556049E+03  0.84848439234E+03  0.69867414804E+03 0.  0.
        5    1    3    3  502    0 -0.22951090979E+03 -0.25453903362E+03  0.32262525217E+03  0.47071702825E+03  0.46999998093E+01 0.  1.
       -5    1    3    3    0  502  0.22951090979E+03  0.25453903362E+03  0.15881030832E+03  0.37776736410E+03  0.46999998093E+01 0. -1.
</event>
<event>
 5   0  0.1858013E-02  0.7065882E+03  0.7818609E-02  0.9706031E-01
        1   -1    0    0  501    0  0.00000000000E+00  0.00000000000E+00  0.54063699991E+03  0.54063699993E+03  0.50400001928E-02 0.  1.
       -1   -1    0    0    0  501  0.00000000000E+00  0.00000000000E+00 -0.23086970999E+03  0.23086971005E+03  0.50400001928E-02 0. -1.
    10030    2    1    2    0    0  0.00000000000E+00  0.00000000000E+00  0.30976728992E+03  0.77150670998E+03  0.70658816127E+03 0.  0.
        2    1    3    3  502    0  0.24874052080E+03 -0.13119321768E+03  0.38838486163E+03  0.47950631675E+03  0.25500000920E-02 0.  1.
       -2    1    3    3    0  502 -0.24874052080E+03  0.13119321768E+03 -0.78617571719E+02  0.29200039322E+03  0.25500000920E-02 0. -1.
</event>
<event>
 5   0  0.2933851E-02  0.7009650E+03  0.7818609E-02  0.9715583E-01
       -2   -1    0    0    0  501  0.00000000000E+00  0.00000000000E+00  0.86883176884E+02  0.86883176922E+02  0.25500000920E-02 0. -1.
        2   -1    0    0  501    0  0.00000000000E+00  0.00000000000E+00 -0.14138294481E+04  0.14138294481E+04  0.25500000920E-02 0.  1.
    10030    2    1    2    0    0  0.00000000000E+00  0.00000000000E+00 -0.13269462712E+04  0.15007126250E+04  0.70096503209E+03 0.  0.
        2    1    3    3  502    0  0.10736480459E+03  0.12623271302E+03 -0.13246550277E+04  0.13349804649E+04  0.25500000920E-02 0.  1.
       -2    1    3    3    0  502 -0.10736480459E+03 -0.12623271302E+03 -0.22912434782E+01  0.16573216014E+03  0.25500000920E-02 0. -1.
</event>
<event>
 5   0  0.1858013E-02  0.7086941E+03  0.7818609E-02  0.9702479E-01
        1   -1    0    0  501    0  0.00000000000E+00  0.00000000000E+00  0.53135233029E+03  0.53135233031E+03  0.50400001928E-02 0. -1.
       -1   -1    0    0    0  501  0.00000000000E+00  0.00000000000E+00 -0.23630615814E+03  0.23630615819E+03  0.50400001928E-02 0.  1.
    10030    2    1    2    0    0  0.00000000000E+00  0.00000000000E+00  0.29504617215E+03  0.76765848850E+03  0.70869408864E+03 0.  0.
        2    1    3    3  502    0  0.13288646134E+03  0.31965858837E+03  0.22945639966E+03  0.41531995387E+03  0.25500000920E-02 0. -1.
       -2    1    3    3    0  502 -0.13288646134E+03 -0.31965858837E+03  0.65589772487E+02  0.35233853463E+03  0.25500000920E-02 0.  1.
</event>
<event>
 5   0  0.3113940E-02  0.7054569E+03  0.7818609E-02  0.9707945E-01
       -2   -1    0    0    0  501  0.00000000000E+00  0.00000000000E+00  0.22178486214E+03  0.22178486216E+03  0.25500000920E-02 0.  1.
        2   -1    0    0  501    0  0.00000000000E+00  0.00000000000E+00 -0.56098223088E+03  0.56098223088E+03  0.25500000920E-02 0. -1.
    10030    2    1    2    0    0  0.00000000000E+00  0.00000000000E+00 -0.33919736873E+03  0.78276709304E+03  0.70545692072E+03 0.  0.
        5    1    3    3  502    0 -0.48863224141E+02  0.26704490731E+03 -0.41942791623E+03  0.49964233618E+03  0.46999998093E+01 0. -1.
       -5    1    3    3    0  502  0.48863224141E+02 -0.26704490731E+03  0.80230547501E+02  0.28312475685E+03  0.46999998093E+01 0.  1.
</event>
<event>
 5   0  0.1951465E-02  0.6972613E+03  0.7818609E-02  0.9721927E-01
       -1   -1    0    0    0  501  0.00000000000E+00  0.00000000000E+00  0.12302467016E+03  0.12302467027E+03  0.50400001928E-02 0. -1.
        1   -1    0    0  501    0  0.00000000000E+00  0.00000000000E+00 -0.98795892941E+03  0.98795892943E+03  0.50400001928E-02 0.  1.
    10030    2    1    2    0    0  0.00000000000E+00  0.00000000000E+00 -0.86493425925E+03  0.11109835997E+04  0.69726127525E+03 0.  0.
        4    1    3    3  502    0 -0.90136284443E+02  0.14299818111E+03 -0.91829277040E+03  0.93372172227E+03  0.12699999809E+01 0.  1.
       -4    1    3    3    0  502  0.90136284443E+02 -0.14299818111E+03  0.53358511149E+02  0.17726187742E+03  0.12699999809E+01 0. -1.
</event>
<event>
 5   0  0.1858013E-02  0.7919585E+03  0.7818609E-02  0.9571730E-01
        1   -1    0    0  501    0  0.00000000000E+00  0.00000000000E+00  0.58057370115E+03  0.58057370117E+03  0.50400001928E-02 0.  1.
       -1   -1    0    0    0  501  0.00000000000E+00  0.00000000000E+00 -0.27007692319E+03  0.27007692323E+03  0.50400001928E-02 0. -1.
    10030    2    1    2    0    0  0.00000000000E+00  0.00000000000E+00  0.31049677797E+03  0.85065062441E+03  0.79195848103E+03 0.  0.
        2    1    3    3  502    0  0.33720182518E+02  0.46814517533E+02  0.57603493361E+03  0.57891700140E+03  0.25500000920E-02 0.  1.
       -2    1    3    3    0  502 -0.33720182518E+02 -0.46814517533E+02 -0.26553815565E+03  0.27173362301E+03  0.25500000920E-02 0. -1.
</event>
<event>
 5   0  0.1969818E-02  0.7103085E+03  0.7818609E-02  0.9699764E-01
        1   -1    0    0  501    0  0.00000000000E+00  0.00000000000E+00  0.41794818469E+03  0.41794818472E+03  0.50400001928E-02 0. -1.
       -1   -1    0    0    0  501  0.00000000000E+00  0.00000000000E+00 -0.30179466487E+03  0.30179466491E+03  0.50400001928E-02 0.  1.
    10030    2    1    2    0    0  0.00000000000E+00  0.00000000000E+00  0.11615351982E+03  0.71974284963E+03  0.71030847484E+03 0.  0.
        1    1    3    3  502    0 -0.12199554334E+03 -0.35455806349E+02  0.39413601356E+03  0.41410532961E+03  0.50400001928E-02 0. -1.
       -1    1    3    3    0  502  0.12199554334E+03  0.35455806349E+02 -0.27798249374E+03  0.30563752003E+03  0.50400001928E-02 0.  1.
</event>
<event>
 5   0  0.3113940E-02  0.7050357E+03  0.7818609E-02  0.9708659E-01
        2   -1    0    0  501    0  0.00000000000E+00  0.00000000000E+00  0.36430075155E+03  0.36430075156E+03  0.25500000920E-02 0.  1.
       -2   -1    0    0    0  501  0.00000000000E+00  0.00000000000E+00 -0.34111609951E+03  0.34111609952E+03  0.25500000920E-02 0. -1.
    10030    2    1    2    0    0  0.00000000000E+00  0.00000000000E+00  0.23184652043E+02  0.70541685108E+03  0.70503574782E+03 0.  0.
        5    1    3    3  502    0 -0.55222524137E+02 -0.25445805660E+03  0.24930932975E+03  0.36052137473E+03  0.46999998093E+01 0.  1.
       -5    1    3    3    0  502  0.55222524137E+02  0.25445805660E+03 -0.22612467771E+03  0.34489547635E+03  0.46999998093E+01 0. -1.
</event>
<event>
 5   0  0.1839038E-02  0.7021162E+03  0.7818609E-02  0.9713620E-01
       -1   -1    0    0    0  501  0.00000000000E+00  0.00000000000E+00  0.29907847014E+03  0.29907847019E+03  0.50400001928E-02 0.  1.
        1   -1    0    0  501    0  0.00000000000E+00  0.00000000000E+00 -0.41207178010E+03  0.41207178013E+03  0.50400001928E-02 0. -1.
    10030    2    1    2    0    0  0.00000000000E+00  0.00000000000E+00 -0.11299330996E+03  0.71115025032E+03  0.70211622288E+03 0.  0.
        5    1    3    3  502    0  0.20330073275E+03 -0.50633646956E+02  0.22877375413E+03  0.31024905272E+03  0.46999998093E+01 0.  1.
       -5    1    3    3    0  502 -0.20330073275E+03  0.50633646956E+02 -0.34176706408E+03  0.40090119759E+03  0.46999998093E+01 0. -1.
</event>
<event>
 5   0  0.1884172E-02  0.6986848E+03  0.7818609E-02  0.9719484E-01
       -1   -1    0    0    0  501  0.00000000000E+00  0.00000000000E+00  0.56913014905E+03  0.56913014907E+03  0.50400001928E-02 0. -1.
        1   -1    0    0  501    0  0.00000000000E+00  0.00000000000E+00 -0.21443270733E+03  0.21443270739E+03  0.50400001928E-02 0.  1.
    10030    2    1    2    0    0  0.00000000000E+00  0.00000000000E+00  0.35469744172E+03  0.78356285646E+03  0.69868481797E+03 0.  0.
        3    1    3    3  502    0  0.24363575497E+03  0.24661135794E+03  0.12892241259E+03  0.36986016497E+03  0.10100000352E+00 0.  1.
       -3    1    3    3    0  502 -0.24363575497E+03 -0.24661135794E+03  0.22577502913E+03  0.41370269149E+03  0.10100000352E+00 0. -1.
</event>
<event>
 5   0  0.3290656E-02  0.6986747E+03  0.7818609E-02  0.9719501E-01
        2   -1    0    0  501    0  0.00000000000E+00  0.00000000000E+00  0.39380336256E+03  0.39380336257E+03  0.25500000920E-02 0.  1.
       -2   -1    0    0    0  501  0.00000000000E+00  0.00000000000E+00 -0.30989218535E+03  0.30989218536E+03  0.25500000920E-02 0. -1.
    10030    2    1    2    0    0  0.00000000000E+00  0.00000000000E+00  0.83911177214E+02  0.70369554792E+03  0.69867470149E+03 0.  0.
        1    1    3    3  502    0  0.16811993011E+03 -0.25703550332E+02  0.34929034897E+03  0.38849547142E+03  0.50400001928E-02 0.  1.
       -1    1    3    3    0  502 -0.16811993011E+03  0.25703550332E+02 -0.26537917176E+03  0.31520007651E+03  0.50400001928E-02 0. -1.
</event>
<event>
 5   0  0.1969818E-02  0.6765422E+03  0.7818609E-02  0.9758211E-01
       -1   -1    0    0    0  501  0.00000000000E+00  0.00000000000E+00  0.33526536764E+03  0.33526536767E+03  0.50400001928E-02 0. -1.
        1   -1    0    0  501    0  0.00000000000E+00  0.00000000000E+00 -0.34130374926E+03  0.34130374930E+03  0.50400001928E-02 0.  1.
    10030    2    1    2    0    0  0.00000000000E+00  0.00000000000E+00 -0.60383816236E+01  0.67656911697E+03  0.67654217015E+03 0.  0.
        1    1    3    3  502    0  0.25089405966E+03 -0.13505769504E+03 -0.18534188465E+03  0.33991178914E+03  0.50400001928E-02 0.  1.
       -1    1    3    3    0  502 -0.25089405966E+03  0.13505769504E+03  0.17930350302E+03  0.33665732784E+03  0.50400001928E-02 0. -1.
</event>
<event>
 5   0  0.3184443E-02  0.6595635E+03  0.7818609E-02  0.9788998E-01
       -2   -1    0    0    0  501  0.00000000000E+00  0.00000000000E+00  0.10780330661E+03  0.10780330664E+03  0.25500000920E-02 0. -1.
        2   -1    0    0  501    0  0.00000000000E+00  0.00000000000E+00 -0.10088373219E+04  0.10088373219E+04  0.25500000920E-02 0.  1.
    10030    2    1    2    0    0  0.00000000000E+00  0.00000000000E+00 -0.90103401533E+03  0.11166406286E+04  0.65956348947E+03 0.  0.
        3    1    3    3  502    0  0.25715052741E+02  0.31924719720E+03 -0.58356513864E+03  0.66567884005E+03  0.10100000352E+00 0.  1.
       -3    1    3    3    0  502 -0.25715052741E+02 -0.31924719720E+03 -0.31746887669E+03  0.45096178854E+03  0.10100000352E+00 0. -1.
</event>
<event>
 5   0  0.1969818E-02  0.7196462E+03  0.7818609E-02  0.9684212E-01
        1   -1    0    0  501    0  0.00000000000E+00  0.00000000000E+00  0.21815815852E+04  0.21815815852E+04  0.50400001928E-02 0.  1.
       -1   -1    0    0    0  501  0.00000000000E+00  0.00000000000E+00 -0.59348068777E+02  0.59348068991E+02  0.50400001928E-02 0. -1.
    10030    2    1    2    0    0  0.00000000000E+00  0.00000000000E+00  0.21222335164E+04  0.22409296542E+04  0.71964617475E+03 0.  0.
        1    1    3    3  502    0  0.20856640151E+03  0.10724002900E+02  0.14868825654E+03  0.25636525844E+03  0.50400001928E-02 0. -1.
       -1    1    3    3    0  502 -0.20856640151E+03 -0.10724002900E+02  0.19735452599E+04  0.19845643958E+04  0.50400001928E-02 0.  1.
</event>
<event>
 5   0  0.1951465E-02  0.7019264E+03  0.7818609E-02  0.9713943E-01
       -1   -1    0    0    0  501  0.00000000000E+00  0.00000000000E+00  0.91115184149E+02  0.91115184289E+02  0.50400001928E-02 0.  1.
        1   -1    0    0  501    0  0.00000000000E+00  0.00000000000E+00 -0.13518622929E+04  0.13518622930E+04  0.50400001928E-02 0. -1.
    10030    2    1    2    0    0  0.00000000000E+00  0.00000000000E+00 -0.12607471088E+04  0.14429774772E+04  0.70192644023E+03 0.  0.
        4    1    3    3  502    0  0.12245537307E+03 -0.82468332217E+02  0.24169395952E+02  0.14960654001E+03  0.12699999809E+01 0.  1.
       -4    1    3    3    0  502 -0.12245537307E+03  0.82468332217E+02 -0.12849165047E+04  0.12933709372E+04  0.12699999809E+01 0. -1.
</event>
<event>
 5   0  0.3290656E-02  0.6892863E+03  0.7818609E-02  0.9735732E-01
       -2   -1    0    0    0  501  0.00000000000E+00  0.00000000000E+00  0.10944853691E+03  0.10944853694E+03  0.25500000920E-02 0.  1.
        2   -1    0    0  501    0  0.00000000000E+00  0.00000000000E+00 -0.10852487753E+04  0.10852487754E+04  0.25500000920E-02 0. -1.
    10030    2    1    2    0    0  0.00000000000E+00  0.00000000000E+00 -0.97580023843E+03  0.11946973123E+04  0.68928627048E+03 0.  0.
        1    1    3    3  502    0 -0.43519075103E+02 -0.30454741375E+03 -0.21862911544E+03  0.37741452975E+03  0.50400001928E-02 0. -1.
       -1    1    3    3    0  502  0.43519075103E+02  0.30454741375E+03 -0.75717112299E+03  0.81728278254E+03  0.50400001928E-02 0.  1.
</event>
<event>
 5   0  0.1969818E-02  0.6980114E+03  0.7818609E-02  0.9720639E-01
        1   -1    0    0  501    0  0.00000000000E+00  0.00000000000E+00  0.33592198738E+03  0.33592198741E+03  0.50400001928E-02 0.  1.
       -1   -1    0    0    0  501  0.00000000000E+00  0.00000000000E+00 -0.36259899911E+03  0.36259899914E+03  0.50400001928E-02 0. -1.
    10030    2    1    2    0    0  0.00000000000E+00  0.00000000000E+00 -0.26677011730E+02  0.69852098656E+03  0.69801139368E+03 0.  0.
        1    1    3    3  502    0 -0.20512983575E+03  0.50915444843E+02  0.26459496003E+03  0.33864601716E+03  0.50400001928E-02 0.  1.
       -1    1    3    3    0  502  0.20512983575E+03 -0.50915444843E+02 -0.29127197176E+03  0.35987496940E+03  0.50400001928E-02 0. -1.
</event>
<event>
 5   0  0.1969818E-02  0.7011405E+03  0.7818609E-02  0.9715284E-01
       -1   -1    0    0    0  501  0.00000000000E+00  0.00000000000E+00  0.58642871139E+03  0.58642871141E+03  0.50400001928E-02 0.  1.
        1   -1    0    0  501    0  0.00000000000E+00  0.00000000000E+00 -0.20957276499E+03  0.20957276505E+03  0.50400001928E-02 0. -1.
    10030    2    1    2    0    0  0.00000000000E+00  0.00000000000E+00  0.37685594640E+03  0.79600147646E+03  0.70114046110E+03 0.  0.
        1    1    3    3  502    0  0.34056782783E+03  0.46146626293E+02  0.10990746590E+03  0.36082628446E+03  0.50400001928E-02 0.  1.
       -1    1    3    3    0  502 -0.34056782783E+03 -0.46146626293E+02  0.26694848049E+03  0.43517519200E+03  0.50400001928E-02 0. -1.
</event>
<event>
 5   0  0.3184443E-02  0.7044595E+03  0.7818609E-02  0.9709636E-01
        2   -1    0    0  501    0  0.00000000000E+00  0.00000000000E+00  0.79212849248E+02  0.79212849289E+02  0.25500000920E-02 0. -1.
       -2   -1    0    0    0  501  0.00000000000E+00  0.00000000000E+00 -0.15662330347E+04  0.15662330347E+04  0.25500000920E-02 0.  1.
    10030    2    1    2    0    0  0.00000000000E+00  0.00000000000E+00 -0.14870201854E+04  0.16454458840E+04  0.70445945603E+03 0.  0.
        3    1    3    3  502    0  0.30291920002E+03 -0.10055746307E+03 -0.10914823874E+04  0.11371920055E+04  0.10100000352E+00 0.  1.
       -3    1    3    3    0  502 -0.30291920002E+03  0.10055746307E+03 -0.39553779797E+03  0.50825387843E+03  0.10100000352E+00 0. -1.
</event>
<event>
 5   0  0.3113940E-02  0.7138295E+03  0.7818609E-02  0.9693870E-01
        2   -1    0    0  501    0  0.00000000000E+00  0.00000000000E+00  0.42038331408E+03  0.42038331408E+03  0.25500000920E-02 0.  1.
       -2   -1    0    0    0  501  0.00000000000E+00  0.00000000000E+00 -0.30302850313E+03  0.30302850314E+03  0.25500000920E-02 0. -1.
    10030    2    1    2    0    0  0.00000000000E+00  0.00000000000E+00  0.11735481095E+03  0.72341181722E+03  0.71382946538E+03 0.  0.
        5    1    3    3  502    0  0.33674940695E+03 -0.11811884511E+03  0.54911098893E+02  0.36109492302E+03  0.46999998093E+01 0.  1.
       -5    1    3    3    0  502 -0.33674940695E+03  0.11811884511E+03  0.62443712053E+02  0.36231689420E+03  0.46999998093E+01 0. -1.
</event>
<event>
 5   0  0.2933851E-02  0.6946580E+03  0.7818609E-02  0.9726412E-01
       -2   -1    0    0    0  501  0.00000000000E+00  0.00000000000E+00  0.10006860193E+04  0.10006860194E+04  0.25500000920E-02 0. -1.
        2   -1    0    0  501    0  0.00000000000E+00  0.00000000000E+00 -0.12055473345E+03  0.12055473348E+03  0.25500000920E-02 0.  1.
    10030    2    1    2    0    0  0.00000000000E+00  0.00000000000E+00  0.88013128590E+03  0.11212407528E+04  0.69465800606E+03 0.  0.
        2    1    3    3  502    0 -0.29570616316E+03 -0.44769041461E+02  0.15500141815E+03  0.33685581728E+03  0.25500000920E-02 0.  1.
       -2    1    3    3    0  502  0.29570616316E+03  0.44769041461E+02  0.72512986775E+03  0.78438493554E+03  0.25500000920E-02 0. -1.
</event>
<event>
 5   0  0.2933851E-02  0.6999153E+03  0.7818609E-02  0.9717377E-01
        2   -1    0    0  501    0  0.00000000000E+00  0.00000000000E+00  0.14169028501E+04  0.14169028501E+04  0.25500000920E-02 0. -1.
       -2   -1    0    0    0  501  0.00000000000E+00  0.00000000000E+00 -0.86435253419E+02  0.86435253457E+02  0.25500000920E-02 0.  1.
    10030    2    1    2    0    0  0.00000000000E+00  0.00000000000E+00  0.13304675967E+04  0.15033381036E+04  0.69991530045E+03 0.  0.
        2    1    3    3  502    0  0.18531183337E+03 -0.16283903257E+03  0.11983827032E+04  0.12235105760E+04  0.25500000920E-02 0. -1.
       -2    1    3    3    0  502 -0.18531183337E+03  0.16283903257E+03  0.13208489347E+03  0.27982752760E+03  0.25500000920E-02 0.  1.
</event>
<event>
 5   0  0.3184443E-02  0.6986458E+03  0.7818609E-02  0.9719551E-01
       -2   -1    0    0    0  501  0.00000000000E+00  0.00000000000E+00  0.24586599287E+03  0.24586599289E+03  0.25500000920E-02 0. -1.
        2   -1    0    0  501    0  0.00000000000E+00  0.00000000000E+00 -0.49631303843E+03  0.49631303844E+03  0.25500000920E-02 0.  1.
    10030    2    1    2    0    0  0.00000000000E+00  0.00000000000E+00 -0.25044704556E+03  0.74217903132E+03  0.69864582723E+03 0.  0.
        3    1    3    3  502    0  0.17531980365E+03 -0.96140661695E+02  0.17906211072E+03  0.26840884873E+03  0.10100000352E+00 0. -1.
       -3    1    3    3    0  502 -0.17531980365E+03  0.96140661695E+02 -0.42950915627E+03  0.47377018259E+03  0.10100000352E+00 0.  1.
</event>
<event>
 5   0  0.1858013E-02  0.6959495E+03  0.7818609E-02  0.9724184E-01
       -1   -1    0    0    0  501  0.00000000000E+00  0.00000000000E+00  0.35087530741E+03  0.35087530745E+03  0.50400001928E-02 0. -1.
        1   -1    0    0  501    0  0.00000000000E+00  0.00000000000E+00 -0.34509817676E+03  0.34509817679E+03  0.50400001928E-02 0.  1.
    10030    2    1    2    0    0  0.00000000000E+00  0.00000000000E+00  0.57771306551E+01  0.69597348424E+03  0.69594950645E+03 0.  0.
        2    1    3    3  502    0  0.56065560152E+02 -0.29903753049E+03  0.17177196423E+03  0.34938860797E+03  0.25500000920E-02 0.  1.
       -2    1    3    3    0  502 -0.56065560152E+02  0.29903753049E+03 -0.16599483357E+03  0.34658487627E+03  0.25500000920E-02 0. -1.
</event>
<event>
 5   0  0.3290656E-02  0.7028615E+03  0.7818609E-02  0.9712351E-01
        2   -1    0    0  501    0  0.00000000000E+00  0.00000000000E+00  0.21732605799E+04  0.21732605799E+04  0.25500000920E-02 0. -1.
       -2   -1    0    0    0  501  0.00000000000E+00  0.00000000000E+00 -0.56828704819E+02  0.56828704876E+02  0.25500000920E-02 0.  1.
    10030    2    1    2    0    0  0.00000000000E+00  0.00000000000E+00  0.21164318751E+04  0.22300892848E+04  0.70286153418E+03 0.  0.
        1    1    3    3  502    0 -0.26288668907E+03 -0.85777981459E+02  0.37008814337E+03  0.46198756182E+03  0.50400001928E-02 0.  1.
       -1    1    3    3    0  502  0.26288668907E+03  0.85777981459E+02  0.17463437317E+04  0.17681017230E+04  0.50400001928E-02 0. -1.
</event>
<event>
 5   0  0.1884172E-02  0.6902669E+03  0.7818609E-02  0.9734023E-01
        1   -1    0    0  501    0  0.00000000000E+00  0.00000000000E+00  0.54206174209E+03  0.54206174211E+03  0.50400001928E-02 0.  1.
       -1   -1    0    0    0  501  0.00000000000E+00  0.00000000000E+00 -0.21974821415E+03  0.21974821421E+03  0.50400001928E-02 0. -1.
    10030    2    1    2    0    0  0.00000000000E+00  0.00000000000E+00  0.32231352794E+03  0.76180995632E+03  0.69026690436E+03 0.  0.
        3    1    3    3  502    0 -0.16720086172E+02  0.28070667290E+03  0.38199976236E+03  0.47434125494E+03  0.10100000352E+00 0. -1.
       -3    1    3    3    0  502  0.16720086172E+02 -0.28070667290E+03 -0.59686234422E+02  0.28746870138E+03  0.10100000352E+00 0.  1.
</event>
<event>
 5   0  0.1884172E-02  0.6975019E+03  0.7818609E-02  0.9721514E-01
        1   -1    0    0  501    0  0.00000000000E+00  0.00000000000E+00  0.62801321271E+03  0.62801321273E+03  0.50400001928E-02 0. -1.
       -1   -1    0    0    0  501  0.00000000000E+00  0.00000000000E+00 -0.19366984179E+03  0.19366984185E+03  0.50400001928E-02 0.  1.
    10030    2    1    2    0    0  0.00000000000E+00  0.00000000000E+00  0.43434337092E+03  0.82168305458E+03  0.69750188410E+03 0.  0.
        3    1    3    3  502    0 -0.12925137892E+03  0.14309816813E+03 -0.12515745573E+03  0.22988563156E+03  0.10100000352E+00 0.  1.
       -3    1    3    3    0  502  0.12925137892E+03 -0.14309816813E+03  0.55950082664E+03  0.59179742302E+03  0.10100000352E+00 0. -1.
</event>
<event>
 5   0  0.1951465E-02  0.6966159E+03  0.7818609E-02  0.9723037E-01
       -1   -1    0    0    0  501  0.00000000000E+00  0.00000000000E+00  0.57690759054E+03  0.57690759056E+03  0.50400001928E-02 0. -1.
        1   -1    0    0  501    0  0.00000000000E+00  0.00000000000E+00 -0.21029093348E+03  0.21029093354E+03  0.50400001928E-02 0.  1.
    10030    2    1    2    0    0  0.00000000000E+00  0.00000000000E+00  0.36661665706E+03  0.78719852410E+03  0.69661592223E+03 0.  0.
        4    1    3    3  502    0 -0.22176915649E+03 -0.17820168505E+02  0.48614372660E+03  0.53463674863E+03  0.12699999809E+01 0. -1.
       -4    1    3    3    0  502  0.22176915649E+03  0.17820168505E+02 -0.11952706954E+03  0.25256177547E+03  0.12699999809E+01 0.  1.
</event>
<event>
 5   0  0.3183963E-02  0.6890687E+03  0.7818609E-02  0.9736111E-01
        2   -1    0    0  501    0  0.00000000000E+00  0.00000000000E+00  0.10837590718E+04  0.10837590718E+04  0.25500000920E-02 0.  1.
       -2   -1    0    0    0  501  0.00000000000E+00  0.00000000000E+00 -0.10952980026E+03  0.10952980029E+03  0.25500000920E-02 0. -1.
    10030    2    1    2    0    0  0.00000000000E+00  0.00000000000E+00  0.97422927151E+03  0.11932888721E+04  0.68906868940E+03 0.  0.
        4    1    3    3  502    0 -0.40059117307E+02  0.15767184113E+02  0.10790789257E+04  0.10799380897E+04  0.12699999809E+01 0.  1.
       -4    1    3    3    0  502  0.40059117307E+02 -0.15767184113E+02 -0.10484965416E+03  0.11335078231E+03  0.12699999809E+01 0. -1.
</event>
<event>
 5   0  0.1884172E-02  0.7017069E+03  0.7818609E-02  0.9714318E-01
        1   -1    0    0  501    0  0.00000000000E+00  0.00000000000E+00  0.27091986011E+03  0.27091986015E+03  0.50400001928E-02 0. -1.
       -1   -1    0    0    0  501  0.00000000000E+00  0.00000000000E+00 -0.45437104181E+03  0.45437104184E+03  0.50400001928E-02 0.  1.
    10030    2    1    2    0    0  0.00000000000E+00  0.00000000000E+00 -0.18345118170E+03  0.72529090199E+03  0.70170688784E+03 0.  0.
        3    1    3    3  502    0 -0.49902500548E+02  0.16713594169E+03  0.22292905406E+03  0.28305839664E+03  0.10100000352E+00 0. -1.
       -3    1    3    3    0  502  0.49902500548E+02 -0.16713594169E+03 -0.40638023576E+03  0.44223250535E+03  0.10100000352E+00 0.  1.
</event>
<event>
 5   0  0.3113940E-02  0.6983176E+03  0.7818609E-02  0.9720114E-01
       -2   -1    0    0    0  501  0.00000000000E+00  0.00000000000E+00  0.19414874309E+03  0.19414874311E+03  0.25500000920E-02 0. -1.
        2   -1    0    0  501    0  0.00000000000E+00  0.00000000000E+00 -0.62793017834E+03  0.62793017835E+03  0.25500000920E-02 0.  1.
    10030    2    1    2    0    0  0.00000000000E+00  0.00000000000E+00 -0.43378143525E+03  0.82207892146E+03  0.69831756353E+03 0.  0.
        5    1    3    3  502    0 -0.80571823038E+01  0.28801709529E+03  0.15208353108E+02  0.28856914140E+03  0.46999998093E+01 0. -1.
       -5    1    3    3    0  502  0.80571823038E+01 -0.28801709529E+03 -0.44898978836E+03  0.53350978006E+03  0.46999998093E+01 0.  1.
</event>
<event>
 5   0  0.1884172E-02  0.7448107E+03  0.7818609E-02  0.9643527E-01
       -1   -1    0    0    0  501  0.00000000000E+00  0.00000000000E+00  0.38461359949E+03  0.38461359953E+03  0.50400001928E-02 0. -1.
        1   -1    0    0  501    0  0.00000000000E+00  0.00000000000E+00 -0.36058461190E+03  0.36058461193E+03  0.50400001928E-02 0.  1.
    10030    2    1    2    0    0  0.00000000000E+00  0.00000000000E+00  0.24028987592E+02  0.74519821146E+03  0.74481070220E+03 0.  0.
        3    1    3    3  502    0 -0.12396493211E+03  0.24453371770E+03  0.26418072275E+03  0.38073022990E+03  0.10100000352E+00 0. -1.
       -3    1    3    3    0  502  0.12396493211E+03 -0.24453371770E+03 -0.24015173516E+03  0.36446798156E+03  0.10100000352E+00 0.  1.
</event>
<event>
 5   0  0.3290656E-02  0.7643424E+03  0.7818609E-02  0.9613114E-01
        2   -1    0    0  501    0  0.00000000000E+00  0.00000000000E+00  0.71107435833E+03  0.71107435834E+03  0.25500000920E-02 0.  1.
       -2   -1    0    0    0  501  0.00000000000E+00  0.00000000000E+00 -0.20540021176E+03  0.20540021177E+03  0.25500000920E-02 0. -1.
    10030    2    1    2    0    0  0.00000000000E+00  0.00000000000E+00  0.50567414658E+03  0.91647457011E+03  0.76434239392E+03 0.  0.
        1    1    3    3  502    0 -0.35265461686E+03 -0.14003245238E+03  0.19814657651E+03  0.42806124833E+03  0.50400001928E-02 0.  1.
       -1    1    3    3    0  502  0.35265461686E+03  0.14003245238E+03  0.30752757007E+03  0.48841332178E+03  0.50400001928E-02 0. -1.
</event>
<event>
 5   0  0.1884172E-02  0.6948167E+03  0.7818609E-02  0.9726138E-01
       -1   -1    0    0    0  501  0.00000000000E+00  0.00000000000E+00  0.34245975242E+03  0.34245975246E+03  0.50400001928E-02 0.  1.
        1   -1    0    0  501    0  0.00000000000E+00  0.00000000000E+00 -0.35242846093E+03  0.35242846096E+03  0.50400001928E-02 0. -1.
    10030    2    1    2    0    0  0.00000000000E+00  0.00000000000E+00 -0.99687085056E+01  0.69488821342E+03  0.69481670533E+03 0.  0.
        3    1    3    3  502    0 -0.20178569669E+03  0.25125843465E+03  0.12481453717E+03  0.34558204129E+03  0.10100000352E+00 0.  1.
       -3    1    3    3    0  502  0.20178569669E+03 -0.25125843465E+03 -0.13478324567E+03  0.34930617213E+03  0.10100000352E+00 0. -1.
</event>
<event>
 5   0  0.3113940E-02  0.7016216E+03  0.7818609E-02  0.9714463E-01
        2   -1    0    0  501    0  0.00000000000E+00  0.00000000000E+00  0.48186948318E+03  0.48186948319E+03  0.25500000920E-02 0. -1.
       -2   -1    0    0    0  501  0.00000000000E+00  0.00000000000E+00 -0.25539742634E+03  0.25539742636E+03  0.25500000920E-02 0.  1.
    10030    2    1    2    0    0  0.00000000000E+00  0.00000000000E+00  0.22647205684E+03  0.73726690954E+03  0.70162162408E+03 0.  0.
        5    1    3    3  502    0  0.31339588488E+03 -0.10114388290E+03  0.24020113280E+03  0.40763432130E+03  0.46999998093E+01 0. -1.
       -5    1    3    3    0  502 -0.31339588488E+03  0.10114388290E+03 -0.13729075967E+02  0.32963258824E+03  0.46999998093E+01 0.  1.
</event>
<event>
 5   0  0.3184443E-02  0.6988433E+03  0.7818609E-02  0.9719212E-01
        2   -1    0    0  501    0  0.00000000000E+00  0.00000000000E+00  0.53590834042E+03  0.53590834043E+03  0.25500000920E-02 0.  1.
       -2   -1    0    0    0  501  0.00000000000E+00  0.00000000000E+00 -0.22782907935E+03  0.22782907936E+03  0.25500000920E-02 0. -1.
    10030    2    1    2    0    0  0.00000000000E+00  0.00000000000E+00  0.30807926108E+03  0.76373741979E+03  0.69884334102E+03 0.  0.
        3    1    3    3  502    0  0.23556923593E+03  0.22853157818E+03  0.23006094181E+02  0.32901191120E+03  0.10100000352E+00 0. -1.
       -3    1    3    3    0  502 -0.23556923593E+03 -0.22853157818E+03  0.28507316690E+03  0.43472550860E+03  0.10100000352E+00 0.  1.
</event>
<event>
 5   0  0.1233912E-02  0.7026727E+03  0.7818609E-02  0.9712672E-01
       -3   -1    0    0    0  501  0.00000000000E+00  0.00000000000E+00  0.24133082184E+03  0.24133084298E+03  0.10100000352E+00 0. -1.
        3   -1    0    0  501    0  0.00000000000E+00  0.00000000000E+00 -0.51148550650E+03  0.51148551647E+03  0.10100000352E+00 0.  1.
    10030    2    1    2    0    0  0.00000000000E+00  0.00000000000E+00 -0.27015468465E+03  0.75281635945E+03  0.70267269579E+03 0.  0.
        5    1    3    3  502    0 -0.27176029930E+03 -0.22050417114E+03 -0.10224069254E+03  0.36462446294E+03  0.46999998093E+01 0. -1.
       -5    1    3    3    0  502  0.27176029930E+03  0.22050417114E+03 -0.16791399211E+03  0.38819189650E+03  0.46999998093E+01 0.  1.
</event>
<event>
 5   0  0.3184443E-02  0.6953568E+03  0.7818609E-02  0.9725206E-01
        2   -1    0    0  501    0  0.00000000000E+00  0.00000000000E+00  0.22184663563E+04  0.22184663563E+04  0.25500000920E-02 0. -1.
       -2   -1    0    0    0  501  0.00000000000E+00  0.00000000000E+00 -0.54488209950E+02  0.54488210010E+02  0.25500000920E-02 0.  1.
    10030    2    1    2    0    0  0.00000000000E+00  0.00000000000E+00  0.21639781464E+04  0.22729545663E+04  0.69535677363E+03 0.  0.
        3    1    3    3  502    0  0.13621288857E+03 -0.16682626867E+03  0.19741588129E+04  0.19858720965E+04  0.10100000352E+00 0. -1.
       -3    1    3    3    0  502 -0.13621288857E+03  0.16682626867E+03  0.18981933351E+03  0.28708246987E+03  0.10100000352E+00 0.  1.
</event>
<event>
 5   0  0.1951465E-02  0.6708395E+03  0.7818609E-02  0.9768442E-01
        1   -1    0    0  501    0  0.00000000000E+00  0.00000000000E+00  0.28857745699E+03  0.28857745703E+03  0.50400001928E-02 0.  1.
       -1   -1    0    0    0  501  0.00000000000E+00  0.00000000000E+00 -0.38986557119E+03  0.38986557123E+03  0.50400001928E-02 0. -1.
    10030    2    1    2    0    0  0.00000000000E+00  0.00000000000E+00 -0.10128811420E+03  0.67844302826E+03  0.67083951920E+03 0.  0.
        4    1    3    3  502    0  0.51467549768E+02 -0.22283790271E+03  0.19749205328E+03  0.30217604732E+03  0.12699999809E+01 0.  1.
       -4    1    3    3    0  502 -0.51467549768E+02  0.22283790271E+03 -0.29878016748E+03  0.37626698094E+03  0.12699999809E+01 0. -1.
</event>
<event>
 5   0  0.1951465E-02  0.6967781E+03  0.7818609E-02  0.9722758E-01
        1   -1    0    0  501    0  0.00000000000E+00  0.00000000000E+00  0.27918156896E+03  0.27918156901E+03  0.50400001928E-02 0.  1.
       -1   -1    0    0    0  501  0.00000000000E+00  0.00000000000E+00 -0.43475261124E+03  0.43475261127E+03  0.50400001928E-02 0. -1.
    10030    2    1    2    0    0  0.00000000000E+00  0.00000000000E+00 -0.15557104228E+03  0.71393418028E+03  0.69677805976E+03 0.  0.
        4    1    3    3  502    0 -0.31110353877E+03  0.14840165383E+03 -0.25894299703E+02  0.34565964524E+03  0.12699999809E+01 0. -1.
       -4    1    3    3    0  502  0.31110353877E+03 -0.14840165383E+03 -0.12967674258E+03  0.36827453504E+03  0.12699999809E+01 0.  1.
</event>
<event>
 5   0  0.1969818E-02  0.7066473E+03  0.7818609E-02  0.9705932E-01
       -1   -1    0    0    0  501  0.00000000000E+00  0.00000000000E+00  0.50187620246E+03  0.50187620249E+03  0.50400001928E-02 0. -1.
        1   -1    0    0  501    0  0.00000000000E+00  0.00000000000E+00 -0.24874179077E+03  0.24874179082E+03  0.50400001928E-02 0.  1.
    10030    2    1    2    0    0  0.00000000000E+00  0.00000000000E+00  0.25313441169E+03  0.75061799331E+03  0.70664725394E+03 0.  0.
        1    1    3    3  502    0  0.26516107449E+03  0.22228368400E+03  0.20255267133E+03  0.40093393008E+03  0.50400001928E-02 0. -1.
       -1    1    3    3    0  502 -0.26516107449E+03 -0.22228368400E+03  0.50581740360E+02  0.34968406323E+03  0.50400001928E-02 0.  1.
</event>
<event>
 5   0  0.1839038E-02  0.6900415E+03  0.7818609E-02  0.9734416E-01
       -1   -1    0    0    0  501  0.00000000000E+00  0.00000000000E+00  0.18591053712E+03  0.18591053719E+03  0.50400001928E-02 0.  1.
        1   -1    0    0  501    0  0.00000000000E+00  0.00000000000E+00 -0.64030426670E+03  0.64030426672E+03  0.50400001928E-02 0. -1.
    10030    2    1    2    0    0  0.00000000000E+00  0.00000000000E+00 -0.45439372958E+03  0.82621480390E+03  0.69004147753E+03 0.  0.
        5    1    3    3  502    0  0.53084340042E+01  0.31033792051E+03 -0.46881096136E+02  0.31393905707E+03  0.46999998093E+01 0.  1.
       -5    1    3    3    0  502 -0.53084340042E+01 -0.31033792051E+03 -0.40751263344E+03  0.51227574683E+03  0.46999998093E+01 0. -1.
</event>
<event>
 5   0  0.1884172E-02  0.7049463E+03  0.7818609E-02  0.9708811E-01
        1   -1    0    0  501    0  0.00000000000E+00  0.00000000000E+00  0.31342847782E+03  0.31342847786E+03  0.50400001928E-02 0.  1.
       -1   -1    0    0    0  501  0.00000000000E+00  0.00000000000E+00 -0.39638167809E+03  0.39638167812E+03  0.50400001928E-02 0. -1.
    10030    2    1    2    0    0  0.00000000000E+00  0.00000000000E+00 -0.82953200267E+02  0.70981015598E+03  0.70494625618E+03 0.  0.
        3    1    3    3  502    0  0.28205339135E+03  0.30662418779E+02  0.16911471882E+03  0.33029395668E+03  0.10100000352E+00 0.  1.
       -3    1    3    3    0  502 -0.28205339135E+03 -0.30662418779E+02 -0.25206791909E+03  0.37951619930E+03  0.10100000352E+00 0. -1.
</event>
<event>
 5   0  0.1858013E-02  0.6618014E+03  0.7818609E-02  0.9784883E-01
       -1   -1    0    0    0  501  0.00000000000E+00  0.00000000000E+00  0.38032426082E+03  0.38032426085E+03  0.50400001928E-02 0. -1.
        1   -1    0    0  501    0  0.00000000000E+00  0.00000000000E+00 -0.28789980679E+03  0.28789980684E+03  0.50400001928E-02 0.  1.
    10030    2    1    2    0    0  0.00000000000E+00  0.00000000000E+00  0.92424454024E+02  0.66822406769E+03  0.66180142410E+03 0.  0.
        2    1    3    3  502    0 -0.94927323936E+02  0.47223004524E+02  0.36270929856E+03  0.37788787260E+03  0.25500000920E-02 0. -1.
       -2    1    3    3    0  502  0.94927323936E+02 -0.47223004524E+02 -0.27028484454E+03  0.29033619509E+03  0.25500000920E-02 0.  1.
</event>
<event>
 5   0  0.1858013E-02  0.7040247E+03  0.7818609E-02  0.9710374E-01
        1   -1    0    0  501    0  0.00000000000E+00  0.00000000000E+00  0.50379935325E+03  0.50379935328E+03  0.50400001928E-02 0.  1.
       -1   -1    0    0    0  501  0.00000000000E+00  0.00000000000E+00 -0.24595641709E+03  0.24595641714E+03  0.50400001928E-02 0. -1.
    10030    2    1    2    0    0  0.00000000000E+00  0.00000000000E+00  0.25784293616E+03  0.74975577042E+03  0.70402466970E+03 0.  0.
        2    1    3    3  502    0  0.14045927846E+03 -0.58393978144E+00  0.47266258353E+03  0.49309133816E+03  0.25500000920E-02 0.  1.
       -2    1    3    3    0  502 -0.14045927846E+03  0.58393978144E+00 -0.21481964736E+03  0.25666443227E+03  0.25500000920E-02 0. -1.
</event>
<event>
 5   0  0.2933851E-02  0.6928371E+03  0.7818609E-02  0.9729561E-01
       -2   -1    0    0    0  501  0.00000000000E+00  0.00000000000E+00  0.15325295762E+03  0.15325295764E+03  0.25500000920E-02 0.  1.
        2   -1    0    0  501    0  0.00000000000E+00  0.00000000000E+00 -0.78305714143E+03  0.78305714144E+03  0.25500000920E-02 0. -1.
    10030    2    1    2    0    0  0.00000000000E+00  0.00000000000E+00 -0.62980418381E+03  0.93631009908E+03  0.69283713215E+03 0.  0.
        2    1    3    3  502    0  0.20481052134E+03 -0.26328276151E+03 -0.44124785556E+03  0.55314087916E+03  0.25500000920E-02 0.  1.
       -2    1    3    3    0  502 -0.20481052134E+03  0.26328276151E+03 -0.18855632825E+03  0.38316921992E+03  0.25500000920E-02 0. -1.
</event>
<event>
 5   0  0.1839038E-02  0.6909951E+03  0.7818609E-02  0.9732757E-01
       -1   -1    0    0    0  501  0.00000000000E+00  0.00000000000E+00  0.28868306879E+03  0.28868306884E+03  0.50400001928E-02 0.  1.
        1   -1    0    0  501    0  0.00000000000E+00  0.00000000000E+00 -0.41349342681E+03  0.41349342684E+03  0.50400001928E-02 0. -1.
    10030    2    1    2    0    0  0.00000000000E+00  0.00000000000E+00 -0.12481035802E+03  0.70217649568E+03  0.69099508364E+03 0.  0.
        5    1    3    3  502    0 -0.14582980319E+01 -0.35613260080E+02  0.28677710615E+03  0.28902184959E+03  0.46999998093E+01 0.  1.
       -5    1    3    3    0  502  0.14582980319E+01  0.35613260080E+02 -0.41158746417E+03  0.41315464609E+03  0.46999998093E+01 0. -1.
</event>
<event>
 5   0  0.1884172E-02  0.7000296E+03  0.7818609E-02  0.9717182E-01
       -1   -1    0    0    0  501  0.00000000000E+00  0.00000000000E+00  0.35609989034E+03  0.35609989038E+03  0.50400001928E-02 0.  1.
        1   -1    0    0  501    0  0.00000000000E+00  0.00000000000E+00 -0.34403367225E+03  0.34403367228E+03  0.50400001928E-02 0. -1.
    10030    2    1    2    0    0  0.00000000000E+00  0.00000000000E+00  0.12066218097E+02  0.70013356266E+03  0.70002957934E+03 0.  0.
        3    1    3    3  502    0  0.22021166883E+02 -0.34080334130E+03  0.82715832526E+02  0.35138834412E+03  0.10100000352E+00 0.  1.
       -3    1    3    3    0  502 -0.22021166883E+02  0.34080334130E+03 -0.70649614428E+02  0.34874521854E+03  0.10100000352E+00 0. -1.
</event>
<event>
 5   0  0.2933851E-02  0.7023591E+03  0.7818609E-02  0.9713206E-01
       -2   -1    0    0    0  501  0.00000000000E+00  0.00000000000E+00  0.24884529825E+03  0.24884529826E+03  0.25500000920E-02 0.  1.
        2   -1    0    0  501    0  0.00000000000E+00  0.00000000000E+00 -0.49559743567E+03  0.49559743567E+03  0.25500000920E-02 0. -1.
    10030    2    1    2    0    0  0.00000000000E+00  0.00000000000E+00 -0.24675213742E+03  0.74444273394E+03  0.70235914374E+03 0.  0.
        2    1    3    3  502    0 -0.17667194239E+03 -0.18869224168E+03 -0.37533643294E+03  0.45573586121E+03  0.25500000920E-02 0. -1.
       -2    1    3    3    0  502  0.17667194239E+03  0.18869224168E+03  0.12858429552E+03  0.28870687272E+03  0.25500000920E-02 0.  1.
</event>
<event>
 5   0  0.1858013E-02  0.7048035E+03  0.7818609E-02  0.9709053E-01
       -1   -1    0    0    0  501  0.00000000000E+00  0.00000000000E+00  0.81245772628E+02  0.81245772785E+02  0.50400001928E-02 0.  1.
        1   -1    0    0  501    0  0.00000000000E+00  0.00000000000E+00 -0.15285347635E+04  0.15285347635E+04  0.50400001928E-02 0. -1.
    10030    2    1    2    0    0  0.00000000000E+00  0.00000000000E+00 -0.14472889909E+04  0.16097805363E+04  0.70480348462E+03 0.  0.
        2    1    3    3  502    0  0.48392585565E+02  0.33987389053E+03 -0.90537624747E+03  0.96827798348E+03  0.25500000920E-02 0. -1.
       -2    1    3    3    0  502 -0.48392585565E+02 -0.33987389053E+03 -0.54191274339E+03  0.64150255280E+03  0.25500000920E-02 0.  1.
</event>
<event>
 5   0  0.1839038E-02  0.7129521E+03  0.7818609E-02  0.9695335E-01
        1   -1    0    0  501    0  0.00000000000E+00  0.00000000000E+00  0.25590650229E+03  0.25590650234E+03  0.50400001928E-02 0.  1.
       -1   -1    0    0    0  501  0.00000000000E+00  0.00000000000E+00 -0.49656878805E+03  0.49656878807E+03  0.50400001928E-02 0. -1.
    10030    2    1    2    0    0  0.00000000000E+00  0.00000000000E+00 -0.24066228576E+03  0.75247529041E+03  0.71295212104E+03 0.  0.
        5    1    3    3  502    0 -0.87831281988E+02  0.20518402641E+03  0.17299323283E+03  0.28242444545E+03  0.46999998093E+01 0.  1.
       -5    1    3    3    0  502  0.87831281988E+02 -0.20518402641E+03 -0.41365551859E+03  0.47005084496E+03  0.46999998093E+01 0. -1.
</event>
<event>
 5   0  0.3290656E-02  0.7040793E+03  0.7818609E-02  0.9710281E-01
       -2   -1    0    0    0  501  0.00000000000E+00  0.00000000000E+00  0.17851148160E+03  0.17851148162E+03  0.25500000920E-02 0. -1.
        2   -1    0    0  501    0  0.00000000000E+00  0.00000000000E+00 -0.69425170418E+03  0.69425170418E+03  0.25500000920E-02 0.  1.
    10030    2    1    2    0    0  0.00000000000E+00  0.00000000000E+00 -0.51574022258E+03  0.87276318580E+03  0.70407925783E+03 0.  0.
        1    1    3    3  502    0 -0.18576814657E+03  0.48332010594E+02  0.10793462268E+03  0.22021732522E+03  0.50400001928E-02 0. -1.
       -1    1    3    3    0  502  0.18576814657E+03 -0.48332010594E+02 -0.62367484525E+03  0.65254586058E+03  0.50400001928E-02 0.  1.
</event>
<event>
 5   0  0.2933851E-02  0.6998992E+03  0.7818609E-02  0.9717405E-01
        2   -1    0    0  501    0  0.00000000000E+00  0.00000000000E+00  0.99781035563E+03  0.99781035563E+03  0.25500000920E-02 0. -1.
       -2   -1    0    0    0  501  0.00000000000E+00  0.00000000000E+00 -0.12273345713E+03  0.12273345716E+03  0.25500000920E-02 0.  1.
    10030    2    1    2    0    0  0.00000000000E+00  0.00000000000E+00  0.87507689849E+03  0.11205438128E+04  0.69989917709E+03 0.  0.
        2    1    3    3  502    0 -0.65095436101E+01 -0.14350914014E+03  0.94842659937E+03  0.95924463087E+03  0.25500000920E-02 0. -1.
       -2    1    3    3    0  502  0.65095436101E+01  0.14350914014E+03 -0.73349700874E+02  0.16129918192E+03  0.25500000920E-02 0.  1.
</event>
<event>
 5   0  0.3183963E-02  0.7000141E+03  0.7818609E-02  0.9717208E-01
       -2   -1    0    0    0  501  0.00000000000E+00  0.00000000000E+00  0.13388176750E+03  0.13388176752E+03  0.25500000920E-02 0. -1.
        2   -1    0    0  501    0  0.00000000000E+00  0.00000000000E+00 -0.91502317684E+03  0.91502317684E+03  0.25500000920E-02 0.  1.
    10030    2    1    2    0    0  0.00000000000E+00  0.00000000000E+00 -0.78114140934E+03  0.10489049444E+04  0.70001405766E+03 0.  0.
        4    1    3    3  502    0  0.63528139909E+02  0.33624274888E+03 -0.28037628011E+03  0.44238838376E+03  0.12699999809E+01 0.  1.
       -4    1    3    3    0  502 -0.63528139909E+02 -0.33624274888E+03 -0.50076512923E+03  0.60651656061E+03  0.12699999809E+01 0. -1.
</event>
<event>
 5   0  0.3113940E-02  0.6952597E+03  0.7818609E-02  0.9725373E-01
        2   -1    0    0  501    0  0.00000000000E+00  0.00000000000E+00  0.17521215498E+04  0.17521215498E+04  0.25500000920E-02 0. -1.
       -2   -1    0    0    0  501  0.00000000000E+00  0.00000000000E+00 -0.68971534130E+02  0.68971534177E+02  0.25500000920E-02 0.  1.
    10030    2    1    2    0    0  0.00000000000E+00  0.00000000000E+00  0.16831500157E+04  0.18210930840E+04  0.69525969629E+03 0.  0.
        5    1    3    3  502    0 -0.16775246001E+03 -0.18022979572E+03  0.19890792392E+03  0.31655981947E+03  0.46999998093E+01 0.  1.
       -5    1    3    3    0  502  0.16775246001E+03  0.18022979572E+03  0.14842420918E+04  0.15045332645E+04  0.46999998093E+01 0. -1.
</event>
<event>
 5   0  0.3183963E-02  0.7737601E+03  0.7818609E-02  0.9598795E-01
       -2   -1    0    0    0  501  0.00000000000E+00  0.00000000000E+00  0.29255125646E+03  0.29255125647E+03  0.25500000920E-02 0. -1.
        2   -1    0    0  501    0  0.00000000000E+00  0.00000000000E+00 -0.51162375309E+03  0.51162375310E+03  0.25500000920E-02 0.  1.
    10030    2    1    2    0    0  0.00000000000E+00  0.00000000000E+00 -0.21907249663E+03  0.80417500957E+03  0.77376009670E+03 0.  0.
        4    1    3    3  502    0 -0.29391044244E+03  0.24302025197E+03 -0.17715014223E+03  0.42050680950E+03  0.12699999809E+01 0.  1.
       -4    1    3    3    0  502  0.29391044244E+03 -0.24302025197E+03 -0.41922354394E+02  0.38366820007E+03  0.12699999809E+01 0. -1.
</event>
<event>
 5   0  0.3290656E-02  0.7021006E+03  0.7818609E-02  0.9713647E-01
        2   -1    0    0  501    0  0.00000000000E+00  0.00000000000E+00  0.56222409883E+03  0.56222409883E+03  0.25500000920E-02 0.  1.
       -2   -1    0    0    0  501  0.00000000000E+00  0.00000000000E+00 -0.21919427368E+03  0.21919427370E+03  0.25500000920E-02 0. -1.
    10030    2    1    2    0    0  0.00000000000E+00  0.00000000000E+00  0.34302982514E+03  0.78141837253E+03  0.70210057114E+03 0.  0.
        1    1    3    3  502    0  0.27565487562E+03  0.32331617131E+02  0.41075307966E+03  0.49573081042E+03  0.50400001928E-02 0. -1.
       -1    1    3    3    0  502 -0.27565487562E+03 -0.32331617131E+02 -0.67723254517E+02  0.28568756212E+03  0.50400001928E-02 0.  1.
</event>
<event>
 5   0  0.1858013E-02  0.6889102E+03  0.7818609E-02  0.9736388E-01
        1   -1    0    0  501    0  0.00000000000E+00  0.00000000000E+00  0.67828350757E+03  0.67828350759E+03  0.50400001928E-02 0.  1.
       -1   -1    0    0    0  501  0.00000000000E+00  0.00000000000E+00 -0.17492582007E+03  0.17492582015E+03  0.50400001928E-02 0. -1.
    10030    2    1    2    0    0  0.00000000000E+00  0.00000000000E+00  0.50335768750E+03  0.85320932773E+03  0.68891015043E+03 0.  0.
        2    1    3    3  502    0  0.17101478592E+02  0.29322642298E+03  0.28836051651E+02  0.29513677098E+03  0.25500000920E-02 0. -1.
       -2    1    3    3    0  502 -0.17101478592E+02 -0.29322642298E+03  0.47452163584E+03  0.55807255675E+03  0.25500000920E-02 0.  1.
</event>
<event>
 5   0  0.2933851E-02  0.7001414E+03  0.7818609E-02  0.9716990E-01
       -2   -1    0    0    0  501  0.00000000000E+00  0.00000000000E+00  0.52516764706E+03  0.52516764706E+03  0.25500000920E-02 0.  1.
        2   -1    0    0  501    0  0.00000000000E+00  0.00000000000E+00 -0.23335306353E+03  0.23335306354E+03  0.25500000920E-02 0. -1.
    10030    2    1    2    0    0  0.00000000000E+00  0.00000000000E+00  0.29181458353E+03  0.75852071060E+03  0.70014135520E+03 0.  0.
        2    1    3    3  502    0 -0.51820229548E+02 -0.17851141680E+03  0.46728641539E+03  0.50289984702E+03  0.25500000920E-02 0.  1.
       -2    1    3    3    0  502  0.51820229548E+02  0.17851141680E+03 -0.17547183186E+03  0.25562086359E+03  0.25500000920E-02 0. -1.
</event>
<event>
 5   0  0.3184443E-02  0.7023372E+03  0.7818609E-02  0.9713244E-01
       -2   -1    0    0    0  501  0.00000000000E+00  0.00000000000E+00  0.54616044778E+02  0.54616044837E+02  0.25500000920E-02 0. -1.
        2   -1    0    0  501    0  0.00000000000E+00  0.00000000000E+00 -0.22579330571E+04  0.22579330571E+04  0.25500000920E-02 0.  1.
    10030    2    1    2    0    0  0.00000000000E+00  0.00000000000E+00 -0.22033170123E+04  0.23125491019E+04  0.70233716411E+03 0.  0.
        3    1    3    3  502    0 -0.30591539814E+03 -0.43954827943E+02 -0.16506833080E+04  0.16793664434E+04  0.10100000352E+00 0.  1.
       -3    1    3    3    0  502  0.30591539814E+03  0.43954827943E+02 -0.55263370432E+03  0.63318265853E+03  0.10100000352E+00 0. -1.
</event>
<event>
 5   0  0.1233912E-02  0.7005140E+03  0.7818609E-02  0.9716354E-01
       -4   -1    0    0    0  501  0.00000000000E+00  0.00000000000E+00  0.91596953127E+03  0.91597041170E+03  0.12699999809E+01 0. -1.
        4   -1    0    0  501    0  0.00000000000E+00  0.00000000000E+00 -0.13393057586E+03  0.13393659713E+03  0.12699999809E+01 0.  1.
    10030    2    1    2    0    0  0.00000000000E+00  0.00000000000E+00  0.78203895541E+03  0.10499070088E+04  0.70051395376E+03 0.  0.
        4    1    3    3  502    0 -0.31420661208E+03  0.14362423096E+03  0.30460128251E+03  0.46058361781E+03  0.12699999809E+01 0.  1.
       -4    1    3    3    0  502  0.31420661208E+03 -0.14362423096E+03  0.47743767290E+03  0.58932339102E+03  0.12699999809E+01 0. -1.
</event>
<event>
 5   0  0.3290656E-02  0.7162030E+03  0.7818609E-02  0.9689917E-01
       -2   -1    0    0    0  501  0.00000000000E+00  0.00000000000E+00  0.59823420514E+02  0.59823420568E+02  0.25500000920E-02 0. -1.
        2   -1    0    0  501    0  0.00000000000E+00  0.00000000000E+00 -0.21435863889E+04  0.21435863889E+04  0.25500000920E-02 0.  1.
    10030    2    1    2    0    0  0.00000000000E+00  0.00000000000E+00 -0.20837629684E+04  0.22034098095E+04  0.71620296010E+03 0.  0.
        1    1    3    3  502    0  0.33254733155E+03 -0.12979387352E+03 -0.95472901369E+03  0.10192848802E+04  0.50400001928E-02 0. -1.
       -1    1    3    3    0  502 -0.33254733155E+03  0.12979387352E+03 -0.11290339547E+04  0.11841249293E+04  0.50400001928E-02 0.  1.
</event>
<event>
 5   0  0.1969818E-02  0.7005711E+03  0.7818609E-02  0.9716256E-01
       -1   -1    0    0    0  501  0.00000000000E+00  0.00000000000E+00  0.27100334657E+03  0.27100334662E+03  0.50400001928E-02 0.  1.
        1   -1    0    0  501    0  0.00000000000E+00  0.00000000000E+00 -0.45276176733E+03  0.45276176736E+03  0.50400001928E-02 0. -1.
    10030    2    1    2    0    0  0.00000000000E+00  0.00000000000E+00 -0.18175842076E+03  0.72376511397E+03  0.70057106469E+03 0.  0.
        1    1    3    3  502    0 -0.27099894624E+03  0.16065075042E+03 -0.24908590336E+03  0.40161284809E+03  0.50400001928E-02 0.  1.
       -1    1    3    3    0  502  0.27099894624E+03 -0.16065075042E+03  0.67327482604E+02  0.32215226588E+03  0.50400001928E-02 0. -1.
</event>
<event>
 5   0  0.2933851E-02  0.7025212E+03  0.7818609E-02  0.9712930E-01
       -2   -1    0    0    0  501  0.00000000000E+00  0.00000000000E+00  0.28930451351E+03  0.28930451352E+03  0.25500000920E-02 0.  1.
        2   -1    0    0  501    0  0.00000000000E+00  0.00000000000E+00 -0.42648489209E+03  0.42648489210E+03  0.25500000920E-02 0. -1.
    10030    2    1    2    0    0  0.00000000000E+00  0.00000000000E+00 -0.13718037858E+03  0.71578940563E+03  0.70252118611E+03 0.  0.
        2    1    3    3  502    0  0.31704525794E+03  0.35980828226E+02 -0.21823715380E+03  0.38657440537E+03  0.25500000920E-02 0. -1.
       -2    1    3    3    0  502 -0.31704525794E+03 -0.35980828226E+02  0.81056775220E+02  0.32921500026E+03  0.25500000920E-02 0.  1.
</event>
<event>
 5   0  0.1884172E-02  0.7021600E+03  0.7818609E-02  0.9713545E-01
        1   -1    0    0  501    0  0.00000000000E+00  0.00000000000E+00  0.12822224444E+03  0.12822224454E+03  0.50400001928E-02 0.  1.
       -1   -1    0    0    0  501  0.00000000000E+00  0.00000000000E+00 -0.96127746973E+03  0.96127746975E+03  0.50400001928E-02 0. -1.
    10030    2    1    2    0    0  0.00000000000E+00  0.00000000000E+00 -0.83305522530E+03  0.10894997143E+04  0.70215996684E+03 0.  0.
        3    1    3    3  502    0  0.34729721278E+03  0.29765410323E+02 -0.35151016351E+03  0.49503609858E+03  0.10100000352E+00 0. -1.
       -3    1    3    3    0  502 -0.34729721278E+03 -0.29765410323E+02 -0.48154506179E+03  0.59446361570E+03  0.10100000352E+00 0.  1.
</event>
<event>
 5   0  0.3113940E-02  0.6573292E+03  0.7818609E-02  0.9793123E-01
        2   -1    0    0  501    0  0.00000000000E+00  0.00000000000E+00  0.13513653716E+03  0.13513653718E+03  0.25500000920E-02 0.  1.
       -2   -1    0    0    0  501  0.00000000000E+00  0.00000000000E+00 -0.79934279286E+03  0.79934279287E+03  0.25500000920E-02 0. -1.
    10030    2    1    2    0    0  0.00000000000E+00  0.00000000000E+00 -0.66420625570E+03  0.93447933005E+03  0.65732919315E+03 0.  0.
        5    1    3    3  502    0 -0.75671412749E+02 -0.17417690368E+03 -0.71339329592E+03  0.73825188191E+03  0.46999998093E+01 0. -1.
       -5    1    3    3    0  502  0.75671412749E+02  0.17417690368E+03  0.49187040212E+02  0.19622744814E+03  0.46999998093E+01 0.  1.
</event>
<event>
 5   0  0.1858013E-02  0.7061080E+03  0.7818609E-02  0.9706843E-01
        1   -1    0    0  501    0  0.00000000000E+00  0.00000000000E+00  0.15042532204E+04  0.15042532204E+04  0.50400001928E-02 0.  1.
       -1   -1    0    0    0  501  0.00000000000E+00  0.00000000000E+00 -0.82863128374E+02  0.82863128527E+02  0.50400001928E-02 0. -1.
    10030    2    1    2    0    0  0.00000000000E+00  0.00000000000E+00  0.14213900920E+04  0.15871163489E+04  0.70610800260E+03 0.  0.
        2    1    3    3  502    0 -0.27590605725E+02  0.51571964599E+02 -0.71897868122E+02  0.92683399289E+02  0.25500000920E-02 0. -1.
       -2    1    3    3    0  502  0.27590605725E+02 -0.51571964599E+02  0.14932879601E+04  0.14944329496E+04  0.25500000920E-02 0.  1.
</event>
<event>
 5   0  0.3183963E-02  0.6987567E+03  0.7818609E-02  0.9719361E-01
       -2   -1    0    0    0  501  0.00000000000E+00  0.00000000000E+00  0.18497202194E+03  0.18497202196E+03  0.25500000920E-02 0. -1.
        2   -1    0    0  501    0  0.00000000000E+00  0.00000000000E+00 -0.65991185156E+03  0.65991185156E+03  0.25500000920E-02 0.  1.
    10030    2    1    2    0    0  0.00000000000E+00  0.00000000000E+00 -0.47493982962E+03  0.84488387352E+03  0.69875669441E+03 0.  0.
        4    1    3    3  502    0  0.19934514297E+03  0.16619069471E+01 -0.58439041824E+03  0.61745851827E+03  0.12699999809E+01 0.  1.
       -4    1    3    3    0  502 -0.19934514297E+03 -0.16619069471E+01  0.10945058862E+03  0.22742535525E+03  0.12699999809E+01 0. -1.
</event>
<event>
 5   0  0.1969818E-02  0.6976489E+03  0.7818609E-02  0.9721261E-01
        1   -1    0    0  501    0  0.00000000000E+00  0.00000000000E+00  0.68354019965E+03  0.68354019967E+03  0.50400001928E-02 0. -1.
       -1   -1    0    0    0  501  0.00000000000E+00  0.00000000000E+00 -0.17801220115E+03  0.17801220122E+03  0.50400001928E-02 0.  1.
    10030    2    1    2    0    0  0.00000000000E+00  0.00000000000E+00  0.50552799850E+03  0.86155240088E+03  0.69764889608E+03 0.  0.
        1    1    3    3  502    0  0.11389943475E+03 -0.65748327492E+02 -0.14622303421E+03  0.19666494238E+03  0.50400001928E-02 0.  1.
       -1    1    3    3    0  502 -0.11389943475E+03  0.65748327492E+02  0.65175103271E+03  0.66488745850E+03  0.50400001928E-02 0. -1.
</event>
<event>
 5   0  0.3290656E-02  0.6992972E+03  0.7818609E-02  0.9718435E-01
       -2   -1    0    0    0  501  0.00000000000E+00  0.00000000000E+00  0.16023195647E+03  0.16023195649E+03  0.25500000920E-02 0.  1.
        2   -1    0    0  501    0  0.00000000000E+00  0.00000000000E+00 -0.76298218342E+03  0.76298218342E+03  0.25500000920E-02 0. -1.
    10030    2    1    2    0    0  0.00000000000E+00  0.00000000000E+00 -0.60275022695E+03  0.92321413991E+03  0.69929715575E+03 0.  0.
        1    1    3    3  502    0  0.82727234434E+02 -0.24178191003E+03  0.13685829158E+02  0.25590933801E+03  0.50400001928E-02 0.  1.
       -1    1    3    3    0  502 -0.82727234434E+02  0.24178191003E+03 -0.61643605611E+03  0.66730480190E+03  0.50400001928E-02 0. -1.
</event>
<event>
 5   0  0.1951465E-02  0.7010273E+03  0.7818609E-02  0.9715477E-01
        1   -1    0    0  501    0  0.00000000000E+00  0.00000000000E+00  0.40903284414E+03  0.40903284417E+03  0.50400001928E-02 0.  1.
       -1   -1    0    0    0  501  0.00000000000E+00  0.00000000000E+00 -0.30036664679E+03  0.30036664683E+03  0.50400001928E-02 0. -1.
    10030    2    1    2    0    0  0.00000000000E+00  0.00000000000E+00  0.10866619735E+03  0.70939949101E+03  0.70102731430E+03 0.  0.
        4    1    3    3  502    0 -0.23295725637E+03 -0.82636027606E+02  0.30581748933E+03  0.39322226035E+03  0.12699999809E+01 0.  1.
       -4    1    3    3    0  502  0.23295725637E+03  0.82636027606E+02 -0.19715129198E+03  0.31617723065E+03  0.12699999809E+01 0. -1.
</event>
<event>
 5   0  0.1233912E-02  0.6889889E+03  0.7818609E-02  0.9736250E-01
        3   -1    0    0  501    0  0.00000000000E+00  0.00000000000E+00  0.15699088247E+03  0.15699091496E+03  0.10100000352E+00 0.  1.
       -3   -1    0    0    0  501  0.00000000000E+00  0.00000000000E+00 -0.75594453816E+03  0.75594454491E+03  0.10100000352E+00 0. -1.
    10030    2    1    2    0    0  0.00000000000E+00  0.00000000000E+00 -0.59895365570E+03  0.91293545987E+03  0.68898887670E+03 0.  0.
        1    1    3    3  502    0 -0.51032369742E+02 -0.33123392538E+03 -0.40511641833E+03  0.52577516916E+03  0.50400001928E-02 0. -1.
       -1    1    3    3    0  502  0.51032369742E+02  0.33123392538E+03 -0.19383723736E+03  0.38716029070E+03  0.50400001928E-02 0.  1.
</event>
<event>
 5   0  0.3184443E-02  0.6984235E+03  0.7818609E-02  0.9719932E-01
        2   -1    0    0  501    0  0.00000000000E+00  0.00000000000E+00  0.26276152516E+03  0.26276152517E+03  0.25500000920E-02 0.  1.
       -2   -1    0    0    0  501  0.00000000000E+00  0.00000000000E+00 -0.46410459546E+03  0.46410459546E+03  0.25500000920E-02 0. -1.
    10030    2    1    2    0    0  0.00000000000E+00  0.00000000000E+00 -0.20134307030E+03  0.72686612063E+03  0.69842345706E+03 0.  0.
        3    1    3    3  502    0 -0.23754301081E+03 -0.14298454391E+03 -0.32163262673E+03  0.42463963376E+03  0.10100000352E+00 0. -1.
       -3    1    3    3    0  502  0.23754301081E+03  0.14298454391E+03  0.12028955643E+03  0.30222648688E+03  0.10100000352E+00 0.  1.
</event>
<event>
 5   0  0.1884172E-02  0.6967463E+03  0.7818609E-02  0.9722813E-01
       -1   -1    0    0    0  501  0.00000000000E+00  0.00000000000E+00  0.91038828487E+03  0.91038828488E+03  0.50400001928E-02 0. -1.
        1   -1    0    0  501    0  0.00000000000E+00  0.00000000000E+00 -0.13331000490E+03  0.13331000499E+03  0.50400001928E-02 0.  1.
    10030    2    1    2    0    0  0.00000000000E+00  0.00000000000E+00  0.77707827997E+03  0.10436982899E+04  0.69674634343E+03 0.  0.
        3    1    3    3  502    0  0.30958986308E+02  0.26848627243E+02  0.90676528215E+03  0.90769080348E+03  0.10100000352E+00 0. -1.
       -3    1    3    3    0  502 -0.30958986308E+02 -0.26848627243E+02 -0.12968700218E+03  0.13600748639E+03  0.10100000352E+00 0.  1.
</event>
<event>
 5   0  0.3290656E-02  0.6966667E+03  0.7818609E-02  0.9722950E-01
       -2   -1    0    0    0  501  0.00000000000E+00  0.00000000000E+00  0.47943652170E+02  0.47943652238E+02  0.25500000920E-02 0. -1.
        2   -1    0    0  501    0  0.00000000000E+00  0.00000000000E+00 -0.25308068920E+04  0.25308068920E+04  0.25500000920E-02 0.  1.
    10030    2    1    2    0    0  0.00000000000E+00  0.00000000000E+00 -0.24828632399E+04  0.25787505443E+04  0.69666670777E+03 0.  0.
        1    1    3    3  502    0 -0.81058031092E+01  0.31719112945E+03 -0.17734806164E+04  0.18016407559E+04  0.50400001928E-02 0.  1.
       -1    1    3    3    0  502  0.81058031092E+01 -0.31719112945E+03 -0.70938262347E+03  0.77710978835E+03  0.50400001928E-02 0. -1.
</event>
<event>
 5   0  0.1951465E-02  0.7594046E+03  0.7818609E-02  0.9620710E-01
       -1   -1    0    0    0  501  0.00000000000E+00  0.00000000000E+00  0.17481372906E+03  0.17481372914E+03  0.50400001928E-02 0. -1.
        1   -1    0    0  501    0  0.00000000000E+00  0.00000000000E+00 -0.82472837072E+03  0.82472837074E+03  0.50400001928E-02 0.  1.
    10030    2    1    2    0    0  0.00000000000E+00  0.00000000000E+00 -0.64991464166E+03  0.99954209987E+03  0.75940461414E+03 0.  0.
        4    1    3    3  502    0 -0.19059702094E+03 -0.30728887611E+02  0.10538911999E+03  0.21995446901E+03  0.12699999809E+01 0. -1.
       -4    1    3    3    0  502  0.19059702094E+03  0.30728887611E+02 -0.75530376165E+03  0.77958763086E+03  0.12699999809E+01 0.  1.
</event>
<event>
 5   0  0.3184443E-02  0.7000716E+03  0.7818609E-02  0.9717110E-01
       -2   -1    0    0    0  501  0.00000000000E+00  0.00000000000E+00  0.29862737707E+03  0.29862737709E+03  0.25500000920E-02 0.  1.
        2   -1    0    0  501    0  0.00000000000E+00  0.00000000000E+00 -0.41029412833E+03  0.41029412834E+03  0.25500000920E-02 0. -1.
    10030    2    1    2    0    0  0.00000000000E+00  0.00000000000E+00 -0.11166675125E+03  0.70892150542E+03  0.70007159456E+03 0.  0.
        3    1    3    3  502    0  0.28502902547E+03  0.11765804516E+03  0.11191118494E+03  0.32803823629E+03  0.10100000352E+00 0.  1.
       -3    1    3    3    0  502 -0.28502902547E+03 -0.11765804516E+03 -0.22357793619E+03  0.38088326913E+03  0.10100000352E+00 0. -1.
</event>
<event>
 5   0  0.1951465E-02  0.6990938E+03  0.7818609E-02  0.9718783E-01
        1   -1    0    0  501    0  0.00000000000E+00  0.00000000000E+00  0.45398668270E+03  0.45398668273E+03  0.50400001928E-02 0.  1.
       -1   -1    0    0    0  501  0.00000000000E+00  0.00000000000E+00 -0.26913352536E+03  0.26913352541E+03  0.50400001928E-02 0. -1.
    10030    2    1    2    0    0  0.00000000000E+00  0.00000000000E+00  0.18485315734E+03  0.72312020814E+03  0.69909380318E+03 0.  0.
        4    1    3    3  502    0 -0.18047005920E+03  0.16888016214E+03 -0.16323492621E+03  0.29620466821E+03  0.12699999809E+01 0. -1.
       -4    1    3    3    0  502  0.18047005920E+03 -0.16888016214E+03  0.34808808354E+03  0.42691553994E+03  0.12699999809E+01 0.  1.
</event>
<event>
 5   0  0.1839038E-02  0.7005143E+03  0.7818609E-02  0.9716353E-01
        1   -1    0    0  501    0  0.00000000000E+00  0.00000000000E+00  0.25060970376E+04  0.25060970376E+04  0.50400001928E-02 0.  1.
       -1   -1    0    0    0  501  0.00000000000E+00  0.00000000000E+00 -0.48952646268E+02  0.48952646527E+02  0.50400001928E-02 0. -1.
    10030    2    1    2    0    0  0.00000000000E+00  0.00000000000E+00  0.24571443914E+04  0.25550496842E+04  0.70051433143E+03 0.  0.
        5    1    3    3  502    0  0.32946368051E+03  0.10443993319E+03  0.10221164694E+04  0.10789801590E+04  0.46999998093E+01 0. -1.
       -5    1    3    3    0  502 -0.32946368051E+03 -0.10443993319E+03  0.14350279220E+04  0.14760695252E+04  0.46999998093E+01 0.  1.
</event>
<event>
 5   0  0.1951465E-02  0.6679408E+03  0.7818609E-02  0.9773685E-01
        1   -1    0    0  501    0  0.00000000000E+00  0.00000000000E+00  0.11436085316E+04  0.11436085316E+04  0.50400001928E-02 0. -1.
       -1   -1    0    0    0  501  0.00000000000E+00  0.00000000000E+00 -0.97530088873E+02  0.97530089003E+02  0.50400001928E-02 0.  1.
    10030    2    1    2    0    0  0.00000000000E+00  0.00000000000E+00  0.10460784427E+04  0.12411386206E+04  0.66794084112E+03 0.  0.
        4    1    3    3  502    0  0.15953672977E+03 -0.62920833629E+02  0.10555352315E+04  0.10693770323E+04  0.12699999809E+01 0. -1.
       -4    1    3    3    0  502 -0.15953672977E+03  0.62920833629E+02 -0.94567887824E+01  0.17176158827E+03  0.12699999809E+01 0.  1.
</event>
<event>
 5   0  0.1839038E-02  0.7081818E+03  0.7818609E-02  0.9703342E-01
        1   -1    0    0  501    0  0.00000000000E+00  0.00000000000E+00  0.10677518639E+04  0.10677518639E+04  0.50400001928E-02 0.  1.
       -1   -1    0    0    0  501  0.00000000000E+00  0.00000000000E+00 -0.11742461627E+03  0.11742461638E+03  0.50400001928E-02 0. -1.
    10030    2    1    2    0    0  0.00000000000E+00  0.00000000000E+00  0.95032724763E+03  0.11851764803E+04  0.70818176468E+03 0.  0.
        5    1    3    3  502    0 -0.28329216942E+03 -0.13981673278E+03  0.20763084531E+03  0.37806855191E+03  0.46999998093E+01 0.  1.
       -5    1    3    3    0  502  0.28329216942E+03  0.13981673278E+03  0.74269640233E+03  0.80710792838E+03  0.46999998093E+01 0. -1.
</event>
<event>
 5   0  0.2933851E-02  0.6978549E+03  0.7818609E-02  0.9720908E-01
       -2   -1    0    0    0  501  0.00000000000E+00  0.00000000000E+00  0.18112001297E+03  0.18112001299E+03  0.25500000920E-02 0. -1.
        2   -1    0    0  501    0  0.00000000000E+00  0.00000000000E+00 -0.67220819260E+03  0.67220819260E+03  0.25500000920E-02 0.  1.
    10030    2    1    2    0    0  0.00000000000E+00  0.00000000000E+00 -0.49108817963E+03  0.85332820559E+03  0.69785487480E+03 0.  0.
        2    1    3    3  502    0  0.17847270157E+03 -0.48630422586E+02  0.11622938859E+03  0.21846439982E+03  0.25500000920E-02 0. -1.
       -2    1    3    3    0  502 -0.17847270157E+03  0.48630422586E+02 -0.60731756822E+03  0.63486380577E+03  0.25500000920E-02 0.  1.
</event>
<event>
 5   0  0.3183963E-02  0.7045913E+03  0.7818609E-02  0.9709413E-01
       -2   -1    0    0    0  501  0.00000000000E+00  0.00000000000E+00  0.14686760610E+03  0.14686760612E+03  0.25500000920E-02 0.  1.
        2   -1    0    0  501    0  0.00000000000E+00  0.00000000000E+00 -0.84506187067E+03  0.84506187067E+03  0.25500000920E-02 0. -1.
    10030    2    1    2    0    0  0.00000000000E+00  0.00000000000E+00 -0.69819426457E+03  0.99192947679E+03  0.70459126864E+03 0.  0.
        4    1    3    3  502    0 -0.22338663572E+02 -0.66964641746E+02 -0.83499973849E+03  0.83797938836E+03  0.12699999809E+01 0. -1.
       -4    1    3    3    0  502  0.22338663572E+02  0.66964641746E+02  0.13680547392E+03  0.15395008843E+03  0.12699999809E+01 0.  1.
</event>
<event>
 5   0  0.3113940E-02  0.7052450E+03  0.7818609E-02  0.9708304E-01
       -2   -1    0    0    0  501  0.00000000000E+00  0.00000000000E+00  0.42356882905E+03  0.42356882905E+03  0.25500000920E-02 0. -1.
        2   -1    0    0  501    0  0.00000000000E+00  0.00000000000E+00 -0.29355944277E+03  0.29355944278E+03  0.25500000920E-02 0.  1.
    10030    2    1    2    0    0  0.00000000000E+00  0.00000000000E+00  0.13000938628E+03  0.71712827183E+03  0.70524500547E+03 0.  0.
        5    1    3    3  502    0  0.38997021360E+02 -0.14091648580E+02 -0.29103972431E+03  0.29401624676E+03  0.46999998093E+01 0.  1.
       -5    1    3    3    0  502 -0.38997021360E+02  0.14091648580E+02  0.42104911059E+03  0.42311202507E+03  0.46999998093E+01 0. -1.
</event>
<event>
 5   0  0.1233912E-02  0.7033026E+03  0.7818609E-02  0.9711601E-01
        4   -1    0    0  501    0  0.00000000000E+00  0.00000000000E+00  0.21829043724E+03  0.21829413160E+03  0.12699999809E+01 0. -1.
       -4   -1    0    0    0  501  0.00000000000E+00  0.00000000000E+00 -0.56647756906E+03  0.56647899268E+03  0.12699999809E+01 0.  1.
    10030    2    1    2    0    0  0.00000000000E+00  0.00000000000E+00 -0.34818713182E+03  0.78477312428E+03  0.70330262179E+03 0.  0.
        2    1    3    3  502    0  0.52122425933E+02  0.18497517797E+03 -0.50270051656E+03  0.53818247194E+03  0.25500000920E-02 0.  1.
       -2    1    3    3    0  502 -0.52122425933E+02 -0.18497517797E+03  0.15451338474E+03  0.24659065233E+03  0.25500000920E-02 0. -1.
</event>
<event>
 5   0  0.1858013E-02  0.6964810E+03  0.7818609E-02  0.9723269E-01
        1   -1    0    0  501    0  0.00000000000E+00  0.00000000000E+00  0.31972473287E+03  0.31972473291E+03  0.50400001928E-02 0.  1.
       -1   -1    0    0    0  501  0.00000000000E+00  0.00000000000E+00 -0.37929953904E+03  0.37929953907E+03  0.50400001928E-02 0. -1.
    10030    2    1    2    0    0  0.00000000000E+00  0.00000000000E+00 -0.59574806169E+02  0.69902427198E+03  0.69648099420E+03 0.  0.
        2    1    3    3  502    0  0.15518129619E+03  0.86917141633E+02  0.27069794381E+03  0.32390307345E+03  0.25500000920E-02 0.  1.
       -2    1    3    3    0  502 -0.15518129619E+03 -0.86917141633E+02 -0.33027274998E+03  0.37512119853E+03  0.25500000920E-02 0. -1.
</event>
<event>
 5   0  0.1969818E-02  0.6948111E+03  0.7818609E-02  0.9726147E-01
       -1   -1    0    0    0  501  0.00000000000E+00  0.00000000000E+00  0.12270361480E+03  0.12270361491E+03  0.50400001928E-02 0. -1.
        1   -1    0    0  501    0  0.00000000000E+00  0.00000000000E+00 -0.98359475387E+03  0.98359475388E+03  0.50400001928E-02 0.  1.
    10030    2    1    2    0    0  0.00000000000E+00  0.00000000000E+00 -0.86089113907E+03  0.11062983688E+04  0.69481114518E+03 0.  0.
        1    1    3    3  502    0  0.14649260468E+03 -0.23985335252E+03 -0.75559148532E+03  0.80616884501E+03  0.50400001928E-02 0.  1.
       -1    1    3    3    0  502 -0.14649260468E+03  0.23985335252E+03 -0.10529965375E+03  0.30012952378E+03  0.50400001928E-02 0. -1.
</event>
<event>
 5   0  0.3184443E-02  0.6956161E+03  0.7818609E-02  0.9724759E-01
       -2   -1    0    0    0  501  0.00000000000E+00  0.00000000000E+00  0.40420855184E+03  0.40420855184E+03  0.25500000920E-02 0.  1.
        2   -1    0    0  501    0  0.00000000000E+00  0.00000000000E+00 -0.29927727104E+03  0.29927727105E+03  0.25500000920E-02 0. -1.
    10030    2    1    2    0    0  0.00000000000E+00  0.00000000000E+00  0.10493128079E+03  0.70348582290E+03  0.69561607898E+03 0.  0.
        3    1    3    3  502    0  0.36846595873E+02  0.35257860936E+02 -0.29547558572E+03  0.29984432685E+03  0.10100000352E+00 0. -1.
       -3    1    3    3    0  502 -0.36846595873E+02 -0.35257860936E+02  0.40040686651E+03  0.40364149605E+03  0.10100000352E+00 0.  1.
</event>
<event>
 5   0  0.3290656E-02  0.7030344E+03  0.7818609E-02  0.9712057E-01
        2   -1    0    0  501    0  0.00000000000E+00  0.00000000000E+00  0.14855861086E+04  0.14855861086E+04  0.25500000920E-02 0.  1.
       -2   -1    0    0    0  501  0.00000000000E+00  0.00000000000E+00 -0.83175492349E+02  0.83175492388E+02  0.25500000920E-02 0. -1.
    10030    2    1    2    0    0  0.00000000000E+00  0.00000000000E+00  0.14024106163E+04  0.15687616010E+04  0.70303444026E+03 0.  0.
        1    1    3    3  502    0 -0.12727773379E+03 -0.26668102669E+02 -0.27526960973E+02  0.13292307107E+03  0.50400001928E-02 0. -1.
       -1    1    3    3    0  502  0.12727773379E+03  0.26668102669E+02  0.14299375773E+04  0.14358385300E+04  0.50400001928E-02 0.  1.
</event>
<event>
 5   0  0.1233912E-02  0.6949670E+03  0.7818609E-02  0.9725878E-01
       -3   -1    0    0    0  501  0.00000000000E+00  0.00000000000E+00  0.11615810484E+04  0.11615810527E+04  0.10100000352E+00 0. -1.
        3   -1    0    0  501    0  0.00000000000E+00  0.00000000000E+00 -0.10394860852E+03  0.10394865759E+03  0.10100000352E+00 0.  1.
    10030    2    1    2    0    0  0.00000000000E+00  0.00000000000E+00  0.10576324398E+04  0.12655297103E+04  0.69496695602E+03 0.  0.
        4    1    3    3  502    0 -0.22415125365E+03  0.11110388292E+03  0.96795605048E+03  0.99976416513E+03  0.12699999809E+01 0. -1.
       -4    1    3    3    0  502  0.22415125365E+03 -0.11110388292E+03  0.89676389356E+02  0.26576554521E+03  0.12699999809E+01 0.  1.
</event>
<event>
 5   0  0.3113940E-02  0.7015022E+03  0.7818609E-02  0.9714667E-01
        2   -1    0    0  501    0  0.00000000000E+00  0.00000000000E+00  0.61666306921E+03  0.61666306921E+03  0.25500000920E-02 0. -1.
       -2   -1    0    0    0  501  0.00000000000E+00  0.00000000000E+00 -0.19950334603E+03  0.19950334605E+03  0.25500000920E-02 0.  1.
    10030    2    1    2    0    0  0.00000000000E+00  0.00000000000E+00  0.41715972318E+03  0.81616641526E+03  0.70150223289E+03 0.  0.
        5    1    3    3  502    0 -0.18521215855E+03 -0.10149922693E+03 -0.11718472297E+03  0.24157811581E+03  0.46999998093E+01 0.  1.
       -5    1    3    3    0  502  0.18521215855E+03  0.10149922693E+03  0.53434444614E+03  0.57458829945E+03  0.46999998093E+01 0. -1.
</event>
<event>
 5   0  0.1884172E-02  0.6833892E+03  0.7818609E-02  0.9746068E-01
        1   -1    0    0  501    0  0.00000000000E+00  0.00000000000E+00  0.51656522630E+03  0.51656522633E+03  0.50400001928E-02 0. -1.
       -1   -1    0    0    0  501  0.00000000000E+00  0.00000000000E+00 -0.22602220126E+03  0.22602220132E+03  0.50400001928E-02 0.  1.
    10030    2    1    2    0    0  0.00000000000E+00  0.00000000000E+00  0.29054302504E+03  0.74258742764E+03  0.68338922899E+03 0.  0.
        3    1    3    3  502    0 -0.27603907659E+03  0.19467927982E+03  0.89253883174E+02  0.34937638681E+03  0.10100000352E+00 0.  1.
       -3    1    3    3    0  502  0.27603907659E+03 -0.19467927982E+03  0.20128914187E+03  0.39321104083E+03  0.10100000352E+00 0. -1.
</event>
<event>
 5   0  0.1233912E-02  0.7010173E+03  0.7818609E-02  0.9715494E-01
        3   -1    0    0  501    0  0.00000000000E+00  0.00000000000E+00  0.10625617605E+03  0.10625622405E+03  0.10100000352E+00 0.  1.
       -3   -1    0    0    0  501  0.00000000000E+00  0.00000000000E+00 -0.11562270500E+04  0.11562270544E+04  0.10100000352E+00 0. -1.
    10030    2    1    2    0    0  0.00000000000E+00  0.00000000000E+00 -0.10499708739E+04  0.12624832784E+04  0.70101725529E+03 0.  0.
        1    1    3    3  502    0 -0.34496417418E+03  0.61955886988E+02 -0.53251595961E+03  0.63750455737E+03  0.50400001928E-02 0.  1.
       -1    1    3    3    0  502  0.34496417418E+03 -0.61955886988E+02 -0.51745491430E+03  0.62497872104E+03  0.50400001928E-02 0. -1.
</event>
<event>
 5   0  0.2933851E-02  0.6727835E+03  0.7818609E-02  0.9764943E-01
       -2   -1    0    0    0  501  0.00000000000E+00  0.00000000000E+00  0.29279609358E+03  0.29279609359E+03  0.25500000920E-02 0.  1.
        2   -1    0    0  501    0  0.00000000000E+00  0.00000000000E+00 -0.38647850277E+03  0.38647850278E+03  0.25500000920E-02 0. -1.
    10030    2    1    2    0    0  0.00000000000E+00  0.00000000000E+00 -0.93682409189E+02  0.67927459637E+03  0.67278345958E+03 0.  0.
        2    1    3    3  502    0 -0.29592527489E+03 -0.11144316392E+03 -0.16270047261E+03  0.35561607232E+03  0.25500000920E-02 0. -1.
       -2    1    3    3    0  502  0.29592527489E+03  0.11144316392E+03  0.69018063422E+02  0.32365852404E+03  0.25500000920E-02 0.  1.
</event>
<event>
 5   0  0.1969818E-02  0.6980589E+03  0.7818609E-02  0.9720558E-01
        1   -1    0    0  501    0  0.00000000000E+00  0.00000000000E+00  0.11518145837E+04  0.11518145837E+04  0.50400001928E-02 0.  1.
       -1   -1    0    0    0  501  0.00000000000E+00  0.00000000000E+00 -0.10576488733E+03  0.10576488745E+03  0.50400001928E-02 0. -1.
    10030    2    1    2    0    0  0.00000000000E+00  0.00000000000E+00  0.10460496963E+04  0.12575794711E+04  0.69805885067E+03 0.  0.
        1    1    3    3  502    0  0.20021206745E+03 -0.13900188590E+03  0.72946223171E+02  0.25441609174E+03  0.50400001928E-02 0. -1.
       -1    1    3    3    0  502 -0.20021206745E+03  0.13900188590E+03  0.97310347317E+03  0.10031633794E+04  0.50400001928E-02 0.  1.
</event>
<event>
 5   0  0.3184443E-02  0.5794329E+03  0.7818609E-02  0.9949019E-01
       -2   -1    0    0    0  501  0.00000000000E+00  0.00000000000E+00  0.48316901217E+03  0.48316901218E+03  0.25500000920E-02 0.  1.
        2   -1    0    0  501    0  0.00000000000E+00  0.00000000000E+00 -0.17371898511E+03  0.17371898513E+03  0.25500000920E-02 0. -1.
    10030    2    1    2    0    0  0.00000000000E+00  0.00000000000E+00  0.30945002706E+03  0.65688799731E+03  0.57943293120E+03 0.  0.
        3    1    3    3  502    0 -0.53725899045E+02  0.22577314356E+03 -0.41880439843E+02  0.23582613516E+03  0.10100000352E+00 0. -1.
       -3    1    3    3    0  502  0.53725899045E+02 -0.22577314356E+03  0.35133046690E+03  0.42106186215E+03  0.10100000352E+00 0.  1.
</event>
<event>
 5   0  0.2933851E-02  0.6995994E+03  0.7818609E-02  0.9717917E-01
       -2   -1    0    0    0  501  0.00000000000E+00  0.00000000000E+00  0.21226900946E+03  0.21226900948E+03  0.25500000920E-02 0.  1.
        2   -1    0    0  501    0  0.00000000000E+00  0.00000000000E+00 -0.57643762622E+03  0.57643762622E+03  0.25500000920E-02 0. -1.
    10030    2    1    2    0    0  0.00000000000E+00  0.00000000000E+00 -0.36416861675E+03  0.78870663570E+03  0.69959943951E+03 0.  0.
        2    1    3    3  502    0 -0.29269521677E+03 -0.14532565456E+03 -0.32275631172E+03  0.45930564176E+03  0.25500000920E-02 0. -1.
       -2    1    3    3    0  502  0.29269521677E+03  0.14532565456E+03 -0.41412305038E+02  0.32940099394E+03  0.25500000920E-02 0.  1.
</event>
<event>
 5   0  0.1969818E-02  0.7006938E+03  0.7818609E-02  0.9716046E-01
       -1   -1    0    0    0  501  0.00000000000E+00  0.00000000000E+00  0.12765104660E+03  0.12765104670E+03  0.50400001928E-02 0.  1.
        1   -1    0    0  501    0  0.00000000000E+00  0.00000000000E+00 -0.96155067972E+03  0.96155067973E+03  0.50400001928E-02 0. -1.
    10030    2    1    2    0    0  0.00000000000E+00  0.00000000000E+00 -0.83389963312E+03  0.10892017264E+04  0.70069380100E+03 0.  0.
        1    1    3    3  502    0  0.82355622701E+02  0.32322972534E+03 -0.58352435240E+03  0.67213136648E+03  0.50400001928E-02 0.  1.
       -1    1    3    3    0  502 -0.82355622701E+02 -0.32322972534E+03 -0.25037528072E+03  0.41707035996E+03  0.50400001928E-02 0. -1.
</event>
<event>
 5   0  0.3113940E-02  0.6968734E+03  0.7818609E-02  0.9722594E-01
       -2   -1    0    0    0  501  0.00000000000E+00  0.00000000000E+00  0.31990094099E+03  0.31990094100E+03  0.25500000920E-02 0.  1.
        2   -1    0    0  501    0  0.00000000000E+00  0.00000000000E+00 -0.37951786009E+03  0.37951786009E+03  0.25500000920E-02 0. -1.
    10030    2    1    2    0    0  0.00000000000E+00  0.00000000000E+00 -0.59616919100E+02  0.69941880109E+03  0.69687336172E+03 0.  0.
        5    1    3    3  502    0 -0.76390654638E+02 -0.33339881533E+03  0.36734002193E+02  0.34403746757E+03  0.46999998093E+01 0.  1.
       -5    1    3    3    0  502  0.76390654638E+02  0.33339881533E+03 -0.96350921293E+02  0.35538133352E+03  0.46999998093E+01 0. -1.
</event>
<event>
 5   0  0.2933851E-02  0.7317860E+03  0.7818609E-02  0.9664367E-01
        2   -1    0    0  501    0  0.00000000000E+00  0.00000000000E+00  0.81780704868E+03  0.81780704869E+03  0.25500000920E-02 0.  1.
       -2   -1    0    0    0  501  0.00000000000E+00  0.00000000000E+00 -0.16370325424E+03  0.16370325426E+03  0.25500000920E-02 0. -1.
    10030    2    1    2    0    0  0.00000000000E+00  0.00000000000E+00  0.65410379445E+03  0.98151030295E+03  0.73178596658E+03 0.  0.
        2    1    3    3  502    0  0.16537778597E+03  0.69680065616E+02 -0.10062190462E+03  0.20574229350E+03  0.25500000920E-02 0. -1.
       -2    1    3    3    0  502 -0.16537778597E+03 -0.69680065616E+02  0.75472569907E+03  0.77576800945E+03  0.25500000920E-02 0.  1.
</event>
<event>
 5   0  0.3113940E-02  0.7053724E+03  0.7818609E-02  0.9708089E-01
       -2   -1    0    0    0  501  0.00000000000E+00  0.00000000000E+00  0.65756938490E+02  0.65756938539E+02  0.25500000920E-02 0. -1.
        2   -1    0    0  501    0  0.00000000000E+00  0.00000000000E+00 -0.18916261229E+04  0.18916261229E+04  0.25500000920E-02 0.  1.
    10030    2    1    2    0    0  0.00000000000E+00  0.00000000000E+00 -0.18258691844E+04  0.19573830614E+04  0.70537236311E+03 0.  0.
        5    1    3    3  502    0  0.12660495710E+02  0.65687344945E+02 -0.18737710575E+04  0.18749707148E+04  0.46999998093E+01 0.  1.
       -5    1    3    3    0  502 -0.12660495710E+02 -0.65687344945E+02  0.47901873080E+02  0.82412346650E+02  0.46999998093E+01 0. -1.
</event>
<event>
 5   0  0.1969818E-02  0.6971244E+03  0.7818609E-02  0.9722162E-01
        1   -1    0    0  501    0  0.00000000000E+00  0.00000000000E+00  0.36633389079E+03  0.36633389082E+03  0.50400001928E-02 0.  1.
       -1   -1    0    0    0  501  0.00000000000E+00  0.00000000000E+00 -0.33165266739E+03  0.33165266743E+03  0.50400001928E-02 0. -1.
    10030    2    1    2    0    0  0.00000000000E+00  0.00000000000E+00  0.34681223394E+02  0.69798655825E+03  0.69712441375E+03 0.  0.
        1    1    3    3  502    0 -0.73895337116E+02 -0.22121986285E+03 -0.24201035811E+03  0.33610677176E+03  0.50400001928E-02 0. -1.
       -1    1    3    3    0  502  0.73895337116E+02  0.22121986285E+03  0.27669158151E+03  0.36187978649E+03  0.50400001928E-02 0.  1.
</event>
<event>
 5   0  0.3183963E-02  0.7011764E+03  0.7818609E-02  0.9715222E-01
        2   -1    0    0  501    0  0.00000000000E+00  0.00000000000E+00  0.90167264295E+03  0.90167264296E+03  0.25500000920E-02 0.  1.
       -2   -1    0    0    0  501  0.00000000000E+00  0.00000000000E+00 -0.13631564562E+03  0.13631564564E+03  0.25500000920E-02 0. -1.
    10030    2    1    2    0    0  0.00000000000E+00  0.00000000000E+00  0.76535699734E+03  0.10379882886E+04  0.70117640711E+03 0.  0.
        4    1    3    3  502    0  0.19542364262E+03  0.10053287171E+03  0.78704301820E+03  0.81715089414E+03  0.12699999809E+01 0.  1.
       -4    1    3    3    0  502 -0.19542364262E+03 -0.10053287171E+03 -0.21686020865E+02  0.22083739446E+03  0.12699999809E+01 0. -1.
</event>
<event>
 5   0  0.3184443E-02  0.7047068E+03  0.7818609E-02  0.9709217E-01
       -2   -1    0    0    0  501  0.00000000000E+00  0.00000000000E+00  0.51405036559E+02  0.51405036622E+02  0.25500000920E-02 0.  1.
        2   -1    0    0  501    0  0.00000000000E+00  0.00000000000E+00 -0.24151898285E+04  0.24151898285E+04  0.25500000920E-02 0. -1.
    10030    2    1    2    0    0  0.00000000000E+00  0.00000000000E+00 -0.23637847920E+04  0.24665948651E+04  0.70470680857E+03 0.  0.
        3    1    3    3  502    0 -0.17160589508E+03  0.21077325186E+03 -0.39704988696E+03  0.48116792273E+03  0.10100000352E+00 0.  1.
       -3    1    3    3    0  502  0.17160589508E+03 -0.21077325186E+03 -0.19667349050E+04  0.19854269424E+04  0.10100000352E+00 0. -1.
</event>
<event>
 5   0  0.1233912E-02  0.6922962E+03  0.7818609E-02  0.9730498E-01
        4   -1    0    0  501    0  0.00000000000E+00  0.00000000000E+00  0.31000145642E+03  0.31000405785E+03  0.12699999809E+01 0. -1.
       -4   -1    0    0    0  501  0.00000000000E+00  0.00000000000E+00 -0.38650426203E+03  0.38650634854E+03  0.12699999809E+01 0.  1.
    10030    2    1    2    0    0  0.00000000000E+00  0.00000000000E+00 -0.76502805607E+02  0.69651040639E+03  0.69229622774E+03 0.  0.
        2    1    3    3  502    0  0.17708107193E+03 -0.16591692287E+03  0.21009606401E+03  0.32097739399E+03  0.25500000920E-02 0. -1.
       -2    1    3    3    0  502 -0.17708107193E+03  0.16591692287E+03 -0.28659886962E+03  0.37553301240E+03  0.25500000920E-02 0.  1.
</event>
<event>
 5   0  0.3184443E-02  0.7059403E+03  0.7818609E-02  0.9707127E-01
        2   -1    0    0  501    0  0.00000000000E+00  0.00000000000E+00  0.60098154679E+03  0.60098154680E+03  0.25500000920E-02 0. -1.
       -2   -1    0    0    0  501  0.00000000000E+00  0.00000000000E+00 -0.20730742957E+03  0.20730742958E+03  0.25500000920E-02 0.  1.
    10030    2    1    2    0    0  0.00000000000E+00  0.00000000000E+00  0.39367411722E+03  0.80828897638E+03  0.70594033655E+03 0.  0.
        3    1    3    3  502    0  0.62943520637E+02  0.25666888319E+03 -0.71067019909E+02  0.27366281061E+03  0.10100000352E+00 0.  1.
       -3    1    3    3    0  502 -0.62943520637E+02 -0.25666888319E+03  0.46474113713E+03  0.53462616578E+03  0.10100000352E+00 0. -1.
</event>
<event>
 5   0  0.1884172E-02  0.7093961E+03  0.7818609E-02  0.9701297E-01
        1   -1    0    0  501    0  0.00000000000E+00  0.00000000000E+00  0.74036275772E+03  0.74036275774E+03  0.50400001928E-02 0. -1.
       -1   -1    0    0    0  501  0.00000000000E+00  0.00000000000E+00 -0.16993115908E+03  0.16993115915E+03  0.50400001928E-02 0.  1.
    10030    2    1    2    0    0  0.00000000000E+00  0.00000000000E+00  0.57043159865E+03  0.91029391689E+03  0.70939608569E+03 0.  0.
        3    1    3    3  502    0  0.46674040064E+02 -0.21299799499E+03  0.64419897374E+03  0.68010215398E+03  0.10100000352E+00 0. -1.
       -3    1    3    3    0  502 -0.46674040064E+02  0.21299799499E+03 -0.73767375087E+02  0.23019176291E+03  0.10100000352E+00 0.  1.
</event>
<event>
 5   0  0.1884172E-02  0.6276431E+03  0.7818609E-02  0.9849659E-01
       -1   -1    0    0    0  501  0.00000000000E+00  0.00000000000E+00  0.20870873698E+03  0.20870873704E+03  0.50400001928E-02 0.  1.
        1   -1    0    0  501    0  0.00000000000E+00  0.00000000000E+00 -0.47187281831E+03  0.47187281833E+03  0.50400001928E-02 0. -1.
    10030    2    1    2    0    0  0.00000000000E+00  0.00000000000E+00 -0.26316408133E+03  0.68058155538E+03  0.62764314688E+03 0.  0.
        3    1    3    3  502    0  0.23564030242E+03 -0.57046161087E+02  0.84481245467E+02  0.25674444036E+03  0.10100000352E+00 0.  1.
       -3    1    3    3    0  502 -0.23564030242E+03  0.57046161087E+02 -0.34764532679E+03  0.42383711501E+03  0.10100000352E+00 0. -1.
</event>
<event>
 5   0  0.3183963E-02  0.7020116E+03  0.7818609E-02  0.9713798E-01
        2   -1    0    0  501    0  0.00000000000E+00  0.00000000000E+00  0.91170171314E+02  0.91170171349E+02  0.25500000920E-02 0. -1.
       -2   -1    0    0    0  501  0.00000000000E+00  0.00000000000E+00 -0.13513748426E+04  0.13513748426E+04  0.25500000920E-02 0.  1.
    10030    2    1    2    0    0  0.00000000000E+00  0.00000000000E+00 -0.12602046713E+04  0.14425450139E+04  0.70201161225E+03 0.  0.
        4    1    3    3  502    0 -0.27084702098E+03 -0.11061422235E+03 -0.23159541540E+03  0.37313759432E+03  0.12699999809E+01 0. -1.
       -4    1    3    3    0  502  0.27084702098E+03  0.11061422235E+03 -0.10286092559E+04  0.10694074196E+04  0.12699999809E+01 0.  1.
</event>
<event>
 5   0  0.1839038E-02  0.6961763E+03  0.7818609E-02  0.9723794E-01
       -1   -1    0    0    0  501  0.00000000000E+00  0.00000000000E+00  0.58472886948E+03  0.58472886950E+03  0.50400001928E-02 0. -1.
        1   -1    0    0  501    0  0.00000000000E+00  0.00000000000E+00 -0.20721632169E+03  0.20721632175E+03  0.50400001928E-02 0.  1.
    10030    2    1    2    0    0  0.00000000000E+00  0.00000000000E+00  0.37751254779E+03  0.79194519125E+03  0.69617631546E+03 0.  0.
        5    1    3    3  502    0 -0.81780670390E+02 -0.23354052392E+03  0.46720171794E+03  0.52870482276E+03  0.46999998093E+01 0. -1.
       -5    1    3    3    0  502  0.81780670390E+02  0.23354052392E+03 -0.89689170148E+02  0.26324036849E+03  0.46999998093E+01 0.  1.
</event>
<event>
 5   0  0.1233912E-02  0.7073283E+03  0.7818609E-02  0.9704781E-01
       -3   -1    0    0    0  501  0.00000000000E+00  0.00000000000E+00  0.20588500828E+03  0.20588503305E+03  0.10100000352E+00 0. -1.
        3   -1    0    0  501    0  0.00000000000E+00  0.00000000000E+00 -0.60751545686E+03  0.60751546526E+03  0.10100000352E+00 0.  1.
    10030    2    1    2    0    0  0.00000000000E+00  0.00000000000E+00 -0.40163044859E+03  0.81340049831E+03  0.70732832081E+03 0.  0.
        4    1    3    3  502    0 -0.30667737071E+03 -0.12877076898E+02  0.11983814653E+01  0.30695256610E+03  0.12699999809E+01 0.  1.
       -4    1    3    3    0  502  0.30667737071E+03  0.12877076898E+02 -0.40282883005E+03  0.50644793221E+03  0.12699999809E+01 0. -1.
</event>
<event>
 5   0  0.1884172E-02  0.7081208E+03  0.7818609E-02  0.9703444E-01
        1   -1    0    0  501    0  0.00000000000E+00  0.00000000000E+00  0.41221047922E+03  0.41221047925E+03  0.50400001928E-02 0.  1.
       -1   -1    0    0    0  501  0.00000000000E+00  0.00000000000E+00 -0.30411349725E+03  0.30411349729E+03  0.50400001928E-02 0. -1.
    10030    2    1    2    0    0  0.00000000000E+00  0.00000000000E+00  0.10809698197E+03  0.71632397654E+03  0.70812081022E+03 0.  0.
        3    1    3    3  502    0  0.77622065740E+02  0.22216637125E+03 -0.21354508910E+03  0.31778073712E+03  0.10100000352E+00 0. -1.
       -3    1    3    3    0  502 -0.77622065740E+02 -0.22216637125E+03  0.32164207107E+03  0.39854323942E+03  0.10100000352E+00 0.  1.
</event>
<event>
 5   0  0.1233912E-02  0.6993144E+03  0.7818609E-02  0.9718405E-01
        3   -1    0    0  501    0  0.00000000000E+00  0.00000000000E+00  0.26174917150E+03  0.26174919099E+03  0.10100000352E+00 0.  1.
       -3   -1    0    0    0  501  0.00000000000E+00  0.00000000000E+00 -0.46708895495E+03  0.46708896587E+03  0.10100000352E+00 0. -1.
    10030    2    1    2    0    0  0.00000000000E+00  0.00000000000E+00 -0.20533978344E+03  0.72883815686E+03  0.69931440156E+03 0.  0.
        2    1    3    3  502    0  0.55286191730E+02 -0.34273170592E+03 -0.59213359159E+02  0.35217581852E+03  0.25500000920E-02 0.  1.
       -2    1    3    3    0  502 -0.55286191730E+02  0.34273170592E+03 -0.14612642429E+03  0.37666233834E+03  0.25500000920E-02 0. -1.
</event>
<event>
 5   0  0.1884172E-02  0.7149516E+03  0.7818609E-02  0.9691999E-01
        1   -1    0    0  501    0  0.00000000000E+00  0.00000000000E+00  0.18851564639E+04  0.18851564639E+04  0.50400001928E-02 0. -1.
       -1   -1    0    0    0  501  0.00000000000E+00  0.00000000000E+00 -0.67786926844E+02  0.67786927032E+02  0.50400001928E-02 0.  1.
    10030    2    1    2    0    0  0.00000000000E+00  0.00000000000E+00  0.18173695370E+04  0.19529433909E+04  0.71495164451E+03 0.  0.
        3    1    3    3  502    0 -0.91808409609E+02 -0.18248223599E+02  0.18510864278E+04  0.18534515789E+04  0.10100000352E+00 0. -1.
       -3    1    3    3    0  502  0.91808409609E+02  0.18248223599E+02 -0.33716890788E+02  0.99491812049E+02  0.10100000352E+00 0.  1.
</event>
<event>
 5   0  0.3290656E-02  0.7027930E+03  0.7818609E-02  0.9712468E-01
        2   -1    0    0  501    0  0.00000000000E+00  0.00000000000E+00  0.14612938160E+04  0.14612938160E+04  0.25500000920E-02 0. -1.
       -2   -1    0    0    0  501  0.00000000000E+00  0.00000000000E+00 -0.84500123732E+02  0.84500123771E+02  0.25500000920E-02 0.  1.
    10030    2    1    2    0    0  0.00000000000E+00  0.00000000000E+00  0.13767936923E+04  0.15457939398E+04  0.70279302300E+03 0.  0.
        1    1    3    3  502    0  0.75251272183E+02  0.20095260261E+03  0.76339287377E+02  0.22775510814E+03  0.50400001928E-02 0.  1.
       -1    1    3    3    0  502 -0.75251272183E+02 -0.20095260261E+03  0.13004544049E+04  0.13180388316E+04  0.50400001928E-02 0. -1.
</event>
<event>
 5   0  0.1858013E-02  0.7043800E+03  0.7818609E-02  0.9709771E-01
       -1   -1    0    0    0  501  0.00000000000E+00  0.00000000000E+00  0.23591373529E+03  0.23591373535E+03  0.50400001928E-02 0.  1.
        1   -1    0    0  501    0  0.00000000000E+00  0.00000000000E+00 -0.52577613298E+03  0.52577613300E+03  0.50400001928E-02 0. -1.
    10030    2    1    2    0    0  0.00000000000E+00  0.00000000000E+00 -0.28986239768E+03  0.76168986835E+03  0.70438004369E+03 0.  0.
        2    1    3    3  502    0 -0.10497178192E+02  0.33622030046E+03 -0.25774338903E+03  0.42377580840E+03  0.25500000920E-02 0.  1.
       -2    1    3    3    0  502  0.10497178192E+02 -0.33622030046E+03 -0.32119008656E+02  0.33791405995E+03  0.25500000920E-02 0. -1.
</event>
<event>
 5   0  0.1884172E-02  0.7038454E+03  0.7818609E-02  0.9710679E-01
        1   -1    0    0  501    0  0.00000000000E+00  0.00000000000E+00  0.16346169532E+03  0.16346169540E+03  0.50400001928E-02 0.  1.
       -1   -1    0    0    0  501  0.00000000000E+00  0.00000000000E+00 -0.75766729873E+03  0.75766729875E+03  0.50400001928E-02 0. -1.
    10030    2    1    2    0    0  0.00000000000E+00  0.00000000000E+00 -0.59420560341E+03  0.92112899415E+03  0.70384538411E+03 0.  0.
        3    1    3    3  502    0  0.33707406243E+03  0.24719161262E+02 -0.16874510086E+03  0.37776299417E+03  0.10100000352E+00 0.  1.
       -3    1    3    3    0  502 -0.33707406243E+03 -0.24719161262E+02 -0.42546050256E+03  0.54336599998E+03  0.10100000352E+00 0. -1.
</event>
<event>
 5   0  0.1858013E-02  0.6956139E+03  0.7818609E-02  0.9724763E-01
        1   -1    0    0  501    0  0.00000000000E+00  0.00000000000E+00  0.98746908190E+03  0.98746908192E+03  0.50400001928E-02 0. -1.
       -1   -1    0    0    0  501  0.00000000000E+00  0.00000000000E+00 -0.12250475733E+03  0.12250475743E+03  0.50400001928E-02 0.  1.
    10030    2    1    2    0    0  0.00000000000E+00  0.00000000000E+00  0.86496432457E+03  0.11099738394E+04  0.69561385931E+03 0.  0.
        2    1    3    3  502    0  0.13184799461E+03 -0.19825942738E+03  0.83703845254E+03  0.87024368154E+03  0.25500000920E-02 0. -1.
       -2    1    3    3    0  502 -0.13184799461E+03  0.19825942738E+03  0.27925872031E+02  0.23973015781E+03  0.25500000920E-02 0.  1.
</event>
<event>
 5   0  0.1884172E-02  0.7247940E+03  0.7818609E-02  0.9675746E-01
        1   -1    0    0  501    0  0.00000000000E+00  0.00000000000E+00  0.11375374416E+03  0.11375374427E+03  0.50400001928E-02 0. -1.
       -1   -1    0    0    0  501  0.00000000000E+00  0.00000000000E+00 -0.11545254147E+04  0.11545254147E+04  0.50400001928E-02 0.  1.
    10030    2    1    2    0    0  0.00000000000E+00  0.00000000000E+00 -0.10407716706E+04  0.12682791590E+04  0.72479400861E+03 0.  0.
        3    1    3    3  502    0 -0.74552903785E+02  0.83049221757E+02 -0.11237060068E+04  0.11292344790E+04  0.10100000352E+00 0.  1.
       -3    1    3    3    0  502  0.74552903785E+02 -0.83049221757E+02  0.82934336251E+02  0.13904467997E+03  0.10100000352E+00 0. -1.
</event>
<event>
 5   0  0.3113940E-02  0.6983579E+03  0.7818609E-02  0.9720045E-01
        2   -1    0    0  501    0  0.00000000000E+00  0.00000000000E+00  0.10504156059E+04  0.10504156059E+04  0.25500000920E-02 0. -1.
       -2   -1    0    0    0  501  0.00000000000E+00  0.00000000000E+00 -0.11607399274E+03  0.11607399277E+03  0.25500000920E-02 0.  1.
    10030    2    1    2    0    0  0.00000000000E+00  0.00000000000E+00  0.93434161314E+03  0.11664895987E+04  0.69835788370E+03 0.  0.
        5    1    3    3  502    0  0.70678358417E+02  0.91352002691E+02  0.10175274304E+04  0.10240726441E+04  0.46999998093E+01 0. -1.
       -5    1    3    3    0  502 -0.70678358417E+02 -0.91352002691E+02 -0.83185817292E+02  0.14241695454E+03  0.46999998093E+01 0.  1.
</event>
<event>
 5   0  0.3290656E-02  0.7079915E+03  0.7818609E-02  0.9703662E-01
       -2   -1    0    0    0  501  0.00000000000E+00  0.00000000000E+00  0.11081400280E+04  0.11081400280E+04  0.25500000920E-02 0. -1.
        2   -1    0    0  501    0  0.00000000000E+00  0.00000000000E+00 -0.11308408953E+03  0.11308408956E+03  0.25500000920E-02 0.  1.
    10030    2    1    2    0    0  0.00000000000E+00  0.00000000000E+00  0.99505593849E+03  0.12212241176E+04  0.70799154278E+03 0.  0.
        1    1    3    3  502    0  0.10443392811E+03  0.20605697837E+03  0.96020069223E+03  0.98759875104E+03  0.50400001928E-02 0. -1.
       -1    1    3    3    0  502 -0.10443392811E+03 -0.20605697837E+03  0.34855246254E+02  0.23362536654E+03  0.50400001928E-02 0.  1.
</event>
<event>
 5   0  0.1969818E-02  0.7015203E+03  0.7818609E-02  0.9714636E-01
       -1   -1    0    0    0  501  0.00000000000E+00  0.00000000000E+00  0.24638356814E+03  0.24638356820E+03  0.50400001928E-02 0.  1.
        1   -1    0    0  501    0  0.00000000000E+00  0.00000000000E+00 -0.49935419755E+03  0.49935419757E+03  0.50400001928E-02 0. -1.
    10030    2    1    2    0    0  0.00000000000E+00  0.00000000000E+00 -0.25297062940E+03  0.74573776577E+03  0.70152026054E+03 0.  0.
        1    1    3    3  502    0  0.16094108728E+03  0.24593668302E+03  0.77011644304E+02  0.30383824482E+03  0.50400001928E-02 0.  1.
       -1    1    3    3    0  502 -0.16094108728E+03 -0.24593668302E+03 -0.32998227371E+03  0.44189952095E+03  0.50400001928E-02 0. -1.
</event>
<event>
 5   0  0.2933851E-02  0.7094743E+03  0.7818609E-02  0.9701166E-01
        2   -1    0    0  501    0  0.00000000000E+00  0.00000000000E+00  0.31016908244E+03  0.31016908245E+03  0.25500000920E-02 0. -1.
       -2   -1    0    0    0  501  0.00000000000E+00  0.00000000000E+00 -0.40570921721E+03  0.40570921722E+03  0.25500000920E-02 0.  1.
    10030    2    1    2    0    0  0.00000000000E+00  0.00000000000E+00 -0.95540134770E+02  0.71587829968E+03  0.70947432835E+03 0.  0.
        2    1    3    3  502    0 -0.29971176478E+03 -0.18308253712E+03  0.26014572865E+01  0.35121663533E+03  0.25500000920E-02 0. -1.
       -2    1    3    3    0  502  0.29971176478E+03  0.18308253712E+03 -0.98141592056E+02  0.36466166435E+03  0.25500000920E-02 0.  1.
</event>
<event>
 5   0  0.3113940E-02  0.6938665E+03  0.7818609E-02  0.9727779E-01
        2   -1    0    0  501    0  0.00000000000E+00  0.00000000000E+00  0.43434485391E+03  0.43434485392E+03  0.25500000920E-02 0. -1.
       -2   -1    0    0    0  501  0.00000000000E+00  0.00000000000E+00 -0.27711313398E+03  0.27711313399E+03  0.25500000920E-02 0.  1.
    10030    2    1    2    0    0  0.00000000000E+00  0.00000000000E+00  0.15723171993E+03  0.71145798791E+03  0.69386645316E+03 0.  0.
        5    1    3    3  502    0 -0.31865591943E+03 -0.19521637814E+02 -0.60537353533E+02  0.32497623067E+03  0.46999998093E+01 0.  1.
       -5    1    3    3    0  502  0.31865591943E+03  0.19521637814E+02  0.21776907347E+03  0.38648175725E+03  0.46999998093E+01 0. -1.
</event>
<event>
 5   0  0.1858013E-02  0.6660757E+03  0.7818609E-02  0.9777073E-01
        1   -1    0    0  501    0  0.00000000000E+00  0.00000000000E+00  0.14862534556E+03  0.14862534565E+03  0.50400001928E-02 0.  1.
       -1   -1    0    0    0  501  0.00000000000E+00  0.00000000000E+00 -0.74626708199E+03  0.74626708200E+03  0.50400001928E-02 0. -1.
    10030    2    1    2    0    0  0.00000000000E+00  0.00000000000E+00 -0.59764173642E+03  0.89489242765E+03  0.66607568035E+03 0.  0.
        2    1    3    3  502    0 -0.98258907684E+02  0.28579134278E+02  0.12697974171E+03  0.16308106778E+03  0.25500000920E-02 0.  1.
       -2    1    3    3    0  502  0.98258907684E+02 -0.28579134278E+02 -0.72462147814E+03  0.73181135987E+03  0.25500000920E-02 0. -1.
</event>
<event>
 5   0  0.2933851E-02  0.6941759E+03  0.7818609E-02  0.9727244E-01
       -2   -1    0    0    0  501  0.00000000000E+00  0.00000000000E+00  0.82874086240E+02  0.82874086279E+02  0.25500000920E-02 0.  1.
        2   -1    0    0  501    0  0.00000000000E+00  0.00000000000E+00 -0.14536514847E+04  0.14536514847E+04  0.25500000920E-02 0. -1.
    10030    2    1    2    0    0  0.00000000000E+00  0.00000000000E+00 -0.13707773985E+04  0.15365255710E+04  0.69417588129E+03 0.  0.
        2    1    3    3  502    0 -0.17203346113E+03  0.29829983651E+03 -0.78166077680E+03  0.85414979611E+03  0.25500000920E-02 0.  1.
       -2    1    3    3    0  502  0.17203346113E+03 -0.29829983651E+03 -0.58911662169E+03  0.68237577490E+03  0.25500000920E-02 0. -1.
</event>
<event>
 5   0  0.3184443E-02  0.6985385E+03  0.7818609E-02  0.9719735E-01
        2   -1    0    0  501    0  0.00000000000E+00  0.00000000000E+00  0.21060877114E+04  0.21060877114E+04  0.25500000920E-02 0. -1.
       -2   -1    0    0    0  501  0.00000000000E+00  0.00000000000E+00 -0.57922087859E+02  0.57922087915E+02  0.25500000920E-02 0.  1.
    10030    2    1    2    0    0  0.00000000000E+00  0.00000000000E+00  0.20481656236E+04  0.21640097993E+04  0.69853846715E+03 0.  0.
        3    1    3    3  502    0  0.21098306469E+03 -0.42774399119E+02  0.18761236298E+04  0.18884341099E+04  0.10100000352E+00 0. -1.
       -3    1    3    3    0  502 -0.21098306469E+03  0.42774399119E+02  0.17204199374E+03  0.27557568945E+03  0.10100000352E+00 0.  1.
</event>
<event>
 5   0  0.1839038E-02  0.8253071E+03  0.7818609E-02  0.9524092E-01
       -1   -1    0    0    0  501  0.00000000000E+00  0.00000000000E+00  0.34569834577E+03  0.34569834581E+03  0.50400001928E-02 0.  1.
        1   -1    0    0  501    0  0.00000000000E+00  0.00000000000E+00 -0.49257669385E+03  0.49257669387E+03  0.50400001928E-02 0. -1.
    10030    2    1    2    0    0  0.00000000000E+00  0.00000000000E+00 -0.14687834807E+03  0.83827503968E+03  0.82530709013E+03 0.  0.
        5    1    3    3  502    0  0.34683830174E+03  0.92499317254E+02 -0.28012595591E+03  0.45535214112E+03  0.46999998093E+01 0.  1.
       -5    1    3    3    0  502 -0.34683830174E+03 -0.92499317254E+02  0.13324760784E+03  0.38292289856E+03  0.46999998093E+01 0. -1.
</event>
<event>
 5   0  0.1839038E-02  0.7027510E+03  0.7818609E-02  0.9712539E-01
        1   -1    0    0  501    0  0.00000000000E+00  0.00000000000E+00  0.14715514265E+03  0.14715514274E+03  0.50400001928E-02 0.  1.
       -1   -1    0    0    0  501  0.00000000000E+00  0.00000000000E+00 -0.83901080705E+03  0.83901080706E+03  0.50400001928E-02 0. -1.
    10030    2    1    2    0    0  0.00000000000E+00  0.00000000000E+00 -0.69185566440E+03  0.98616594980E+03  0.70275103713E+03 0.  0.
        5    1    3    3  502    0 -0.15985436349E+03  0.29774322695E+03 -0.48080629849E+03  0.58770845951E+03  0.46999998093E+01 0. -1.
       -5    1    3    3    0  502  0.15985436349E+03 -0.29774322695E+03 -0.21104936591E+03  0.39845749029E+03  0.46999998093E+01 0.  1.
</event>
<event>
 5   0  0.3290656E-02  0.7013333E+03  0.7818609E-02  0.9714955E-01
        2   -1    0    0  501    0  0.00000000000E+00  0.00000000000E+00  0.11729535573E+04  0.11729535573E+04  0.25500000920E-02 0. -1.
       -2   -1    0    0    0  501  0.00000000000E+00  0.00000000000E+00 -0.10483543504E+03  0.10483543507E+03  0.25500000920E-02 0.  1.
    10030    2    1    2    0    0  0.00000000000E+00  0.00000000000E+00  0.10681181222E+04  0.12777889923E+04  0.70133329160E+03 0.  0.
        1    1    3    3  502    0 -0.11738111064E+03  0.18391582144E+03  0.33891047600E+02  0.22079845481E+03  0.50400001928E-02 0.  1.
       -1    1    3    3    0  502  0.11738111064E+03 -0.18391582144E+03  0.10342270746E+04  0.10569905375E+04  0.50400001928E-02 0. -1.
</event>
<event>
 5   0  0.1951465E-02  0.6724209E+03  0.7818609E-02  0.9765594E-01
       -1   -1    0    0    0  501  0.00000000000E+00  0.00000000000E+00  0.28156789252E+03  0.28156789257E+03  0.50400001928E-02 0.  1.
        1   -1    0    0  501    0  0.00000000000E+00  0.00000000000E+00 -0.40145727309E+03  0.40145727312E+03  0.50400001928E-02 0. -1.
    10030    2    1    2    0    0  0.00000000000E+00  0.00000000000E+00 -0.11988938056E+03  0.68302516569E+03  0.67242093467E+03 0.  0.
        4    1    3    3  502    0 -0.16033958989E+03  0.77033167571E+02 -0.34973838630E+03  0.39237921039E+03  0.12699999809E+01 0. -1.
       -4    1    3    3    0  502  0.16033958989E+03 -0.77033167571E+02  0.22984900574E+03  0.29064595530E+03  0.12699999809E+01 0.  1.
</event>
<event>
 5   0  0.1858013E-02  0.7188454E+03  0.7818609E-02  0.9685536E-01
       -1   -1    0    0    0  501  0.00000000000E+00  0.00000000000E+00  0.60934999011E+03  0.60934999014E+03  0.50400001928E-02 0.  1.
        1   -1    0    0  501    0  0.00000000000E+00  0.00000000000E+00 -0.21200406208E+03  0.21200406214E+03  0.50400001928E-02 0. -1.
    10030    2    1    2    0    0  0.00000000000E+00  0.00000000000E+00  0.39734592803E+03  0.82135405228E+03  0.71884538857E+03 0.  0.
        2    1    3    3  502    0  0.17366525964E+03  0.40148949012E+02  0.55529126237E+03  0.58319803376E+03  0.25500000920E-02 0.  1.
       -2    1    3    3    0  502 -0.17366525964E+03 -0.40148949012E+02 -0.15794533433E+03  0.23815601852E+03  0.25500000920E-02 0. -1.
</event>
<event>
 5   0  0.3183963E-02  0.7113441E+03  0.7818609E-02  0.9698027E-01
       -2   -1    0    0    0  501  0.00000000000E+00  0.00000000000E+00  0.14116400593E+03  0.14116400596E+03  0.25500000920E-02 0. -1.
        2   -1    0    0  501    0  0.00000000000E+00  0.00000000000E+00 -0.89613916140E+03  0.89613916140E+03  0.25500000920E-02 0.  1.
    10030    2    1    2    0    0  0.00000000000E+00  0.00000000000E+00 -0.75497515546E+03  0.10373031674E+04  0.71134406278E+03 0.  0.
        4    1    3    3  502    0 -0.72098030047E+02  0.61086663544E+02 -0.87749517848E+03  0.88256960494E+03  0.12699999809E+01 0.  1.
       -4    1    3    3    0  502  0.72098030047E+02 -0.61086663544E+02  0.12252002302E+03  0.15473356242E+03  0.12699999809E+01 0. -1.
</event>
<event>
 5   0  0.2933851E-02  0.7008018E+03  0.7818609E-02  0.9715862E-01
       -2   -1    0    0    0  501  0.00000000000E+00  0.00000000000E+00  0.11909308247E+03  0.11909308249E+03  0.25500000920E-02 0. -1.
        2   -1    0    0  501    0  0.00000000000E+00  0.00000000000E+00 -0.10309649536E+04  0.10309649536E+04  0.25500000920E-02 0.  1.
    10030    2    1    2    0    0  0.00000000000E+00  0.00000000000E+00 -0.91187187114E+03  0.11500580361E+04  0.70080181009E+03 0.  0.
        2    1    3    3  502    0 -0.31036282136E+03 -0.28734115227E+02 -0.71865971757E+03  0.78334061552E+03  0.25500000920E-02 0.  1.
       -2    1    3    3    0  502  0.31036282136E+03  0.28734115227E+02 -0.19321215357E+03  0.36671742058E+03  0.25500000920E-02 0. -1.
</event>
<event>
 5   0  0.3113940E-02  0.7046800E+03  0.7818609E-02  0.9709262E-01
        2   -1    0    0  501    0  0.00000000000E+00  0.00000000000E+00  0.14678350636E+04  0.14678350636E+04  0.25500000920E-02 0.  1.
       -2   -1    0    0    0  501  0.00000000000E+00  0.00000000000E+00 -0.84575912380E+02  0.84575912418E+02  0.25500000920E-02 0. -1.
    10030    2    1    2    0    0  0.00000000000E+00  0.00000000000E+00  0.13832591512E+04  0.15524109760E+04  0.70468004018E+03 0.  0.
        5    1    3    3  502    0 -0.13694182273E+01 -0.11879734932E+03 -0.39045563266E+02  0.12514524170E+03  0.46999998093E+01 0. -1.
       -5    1    3    3    0  502  0.13694182273E+01  0.11879734932E+03  0.14223047144E+04  0.14272657343E+04  0.46999998093E+01 0.  1.
</event>
<event>
 5   0  0.1233912E-02  0.6960206E+03  0.7818609E-02  0.9724062E-01
       -4   -1    0    0    0  501  0.00000000000E+00  0.00000000000E+00  0.10437383992E+04  0.10437391719E+04  0.12699999809E+01 0. -1.
        4   -1    0    0  501    0  0.00000000000E+00  0.00000000000E+00 -0.11603164505E+03  0.11603859510E+03  0.12699999809E+01 0.  1.
    10030    2    1    2    0    0  0.00000000000E+00  0.00000000000E+00  0.92770675415E+03  0.11597777670E+04  0.69602057947E+03 0.  0.
        1    1    3    3  502    0  0.22213734702E+03 -0.84856865295E+02  0.40451413781E+02  0.24120946381E+03  0.50400001928E-02 0.  1.
       -1    1    3    3    0  502 -0.22213734702E+03  0.84856865295E+02  0.88725534037E+03  0.91856830315E+03  0.50400001928E-02 0. -1.
</event>
<event>
 5   0  0.3183963E-02  0.7016914E+03  0.7818609E-02  0.9714344E-01
        2   -1    0    0  501    0  0.00000000000E+00  0.00000000000E+00  0.45231526707E+03  0.45231526707E+03  0.25500000920E-02 0. -1.
       -2   -1    0    0    0  501  0.00000000000E+00  0.00000000000E+00 -0.27213917274E+03  0.27213917275E+03  0.25500000920E-02 0.  1.
    10030    2    1    2    0    0  0.00000000000E+00  0.00000000000E+00  0.18017609432E+03  0.72445443982E+03  0.70169139258E+03 0.  0.
        4    1    3    3  502    0 -0.41338295968E+02  0.69960402660E+02 -0.26228696832E+03  0.27458947413E+03  0.12699999809E+01 0.  1.
       -4    1    3    3    0  502  0.41338295968E+02 -0.69960402660E+02  0.44246306264E+03  0.44986496569E+03  0.12699999809E+01 0. -1.
</event>
<event>
 5   0  0.3184443E-02  0.7005241E+03  0.7818609E-02  0.9716336E-01
       -2   -1    0    0    0  501  0.00000000000E+00  0.00000000000E+00  0.14758516300E+03  0.14758516302E+03  0.25500000920E-02 0. -1.
        2   -1    0    0  501    0  0.00000000000E+00  0.00000000000E+00 -0.83127270842E+03  0.83127270843E+03  0.25500000920E-02 0.  1.
    10030    2    1    2    0    0  0.00000000000E+00  0.00000000000E+00 -0.68368754543E+03  0.97885787145E+03  0.70052414142E+03 0.  0.
        3    1    3    3  502    0  0.95986182931E+02  0.81789462789E+02  0.11476347401E+03  0.17050961470E+03  0.10100000352E+00 0. -1.
       -3    1    3    3    0  502 -0.95986182931E+02 -0.81789462789E+02 -0.79845101944E+03  0.80834825675E+03  0.10100000352E+00 0.  1.
</event>
<event>
 5   0  0.1884172E-02  0.7001119E+03  0.7818609E-02  0.9717041E-01
       -1   -1    0    0    0  501  0.00000000000E+00  0.00000000000E+00  0.25669256710E+03  0.25669256715E+03  0.50400001928E-02 0. -1.
        1   -1    0    0  501    0  0.00000000000E+00  0.00000000000E+00 -0.47737719446E+03  0.47737719448E+03  0.50400001928E-02 0.  1.
    10030    2    1    2    0    0  0.00000000000E+00  0.00000000000E+00 -0.22068462736E+03  0.73406976163E+03  0.70011192690E+03 0.  0.
        3    1    3    3  502    0 -0.18409502389E+03  0.21537317903E+03 -0.32589223973E+03  0.43183601770E+03  0.10100000352E+00 0.  1.
       -3    1    3    3    0  502  0.18409502389E+03 -0.21537317903E+03  0.10520761237E+03  0.30223374393E+03  0.10100000352E+00 0. -1.
</event>
<event>
 5   0  0.3184443E-02  0.7465016E+03  0.7818609E-02  0.9640855E-01
       -2   -1    0    0    0  501  0.00000000000E+00  0.00000000000E+00  0.28601273527E+03  0.28601273528E+03  0.25500000920E-02 0. -1.
        2   -1    0    0  501    0  0.00000000000E+00  0.00000000000E+00 -0.48709771197E+03  0.48709771197E+03  0.25500000920E-02 0.  1.
    10030    2    1    2    0    0  0.00000000000E+00  0.00000000000E+00 -0.20108497670E+03  0.77311044725E+03  0.74650157119E+03 0.  0.
        3    1    3    3  502    0  0.38637457196E+02 -0.21819121874E+03  0.21052334021E+03  0.30564742435E+03  0.10100000352E+00 0. -1.
       -3    1    3    3    0  502 -0.38637457196E+02  0.21819121874E+03 -0.41160831691E+03  0.46746302291E+03  0.10100000352E+00 0.  1.
</event>
<event>
 5   0  0.1858013E-02  0.6977668E+03  0.7818609E-02  0.9721059E-01
       -1   -1    0    0    0  501  0.00000000000E+00  0.00000000000E+00  0.38128249081E+03  0.38128249084E+03  0.50400001928E-02 0.  1.
        1   -1    0    0  501    0  0.00000000000E+00  0.00000000000E+00 -0.31923736182E+03  0.31923736186E+03  0.50400001928E-02 0. -1.
    10030    2    1    2    0    0  0.00000000000E+00  0.00000000000E+00  0.62045128990E+02  0.70051985271E+03  0.69776677049E+03 0.  0.
        2    1    3    3  502    0 -0.65797005303E+02  0.26711542801E+03 -0.18439271021E+03  0.33118056914E+03  0.25500000920E-02 0. -1.
       -2    1    3    3    0  502  0.65797005303E+02 -0.26711542801E+03  0.24643783920E+03  0.36933928357E+03  0.25500000920E-02 0.  1.
</event>
<event>
 5   0  0.1969818E-02  0.7417849E+03  0.7818609E-02  0.9648327E-01
        1   -1    0    0  501    0  0.00000000000E+00  0.00000000000E+00  0.12965392420E+04  0.12965392420E+04  0.50400001928E-02 0. -1.
       -1   -1    0    0    0  501  0.00000000000E+00  0.00000000000E+00 -0.10609876330E+03  0.10609876342E+03  0.50400001928E-02 0.  1.
    10030    2    1    2    0    0  0.00000000000E+00  0.00000000000E+00  0.11904404787E+04  0.14026380054E+04  0.74178490208E+03 0.  0.
        1    1    3    3  502    0 -0.23016482127E+03  0.24858781746E+03  0.88067326555E+03  0.94358738261E+03  0.50400001928E-02 0. -1.
       -1    1    3    3    0  502  0.23016482127E+03 -0.24858781746E+03  0.30976721316E+03  0.45905062283E+03  0.50400001928E-02 0.  1.
</event>
<event>
 5   0  0.3183963E-02  0.6965805E+03  0.7818609E-02  0.9723098E-01
       -2   -1    0    0    0  501  0.00000000000E+00  0.00000000000E+00  0.22390805061E+03  0.22390805063E+03  0.25500000920E-02 0.  1.
        2   -1    0    0  501    0  0.00000000000E+00  0.00000000000E+00 -0.54176741662E+03  0.54176741662E+03  0.25500000920E-02 0. -1.
    10030    2    1    2    0    0  0.00000000000E+00  0.00000000000E+00 -0.31785936600E+03  0.76567546725E+03  0.69658046527E+03 0.  0.
        4    1    3    3  502    0 -0.34411334953E+03  0.37509217271E+02 -0.20126689669E+03  0.40041343048E+03  0.12699999809E+01 0. -1.
       -4    1    3    3    0  502  0.34411334953E+03 -0.37509217271E+02 -0.11659246931E+03  0.36526203677E+03  0.12699999809E+01 0.  1.
</event>
<event>
 5   0  0.3183963E-02  0.7068033E+03  0.7818609E-02  0.9705668E-01
        2   -1    0    0  501    0  0.00000000000E+00  0.00000000000E+00  0.17365924144E+04  0.17365924144E+04  0.25500000920E-02 0. -1.
       -2   -1    0    0    0  501  0.00000000000E+00  0.00000000000E+00 -0.71918263438E+02  0.71918263483E+02  0.25500000920E-02 0.  1.
    10030    2    1    2    0    0  0.00000000000E+00  0.00000000000E+00  0.16646741510E+04  0.18085106779E+04  0.70680325632E+03 0.  0.
        4    1    3    3  502    0 -0.11824077767E+03  0.12062899465E+03  0.38066695961E+02  0.17315577407E+03  0.12699999809E+01 0.  1.
       -4    1    3    3    0  502  0.11824077767E+03 -0.12062899465E+03  0.16266074550E+04  0.16353549038E+04  0.12699999809E+01 0. -1.
</event>
<event>
 5   0  0.3183963E-02  0.6940384E+03  0.7818609E-02  0.9727482E-01
       -2   -1    0    0    0  501  0.00000000000E+00  0.00000000000E+00  0.16620551992E+03  0.16620551994E+03  0.25500000920E-02 0. -1.
        2   -1    0    0  501    0  0.00000000000E+00  0.00000000000E+00 -0.72453874296E+03  0.72453874297E+03  0.25500000920E-02 0.  1.
    10030    2    1    2    0    0  0.00000000000E+00  0.00000000000E+00 -0.55833322304E+03  0.89074426291E+03  0.69403843838E+03 0.  0.
        4    1    3    3  502    0 -0.10247868664E+03  0.22700165681E+03  0.30957384546E+02  0.25098128609E+03  0.12699999809E+01 0. -1.
       -4    1    3    3    0  502  0.10247868664E+03 -0.22700165681E+03 -0.58929060759E+03  0.63976297681E+03  0.12699999809E+01 0.  1.
</event>
<event>
 5   0  0.1233912E-02  0.7060025E+03  0.7818609E-02  0.9707022E-01
        3   -1    0    0  501    0  0.00000000000E+00  0.00000000000E+00  0.52605947835E+03  0.52605948805E+03  0.10100000352E+00 0. -1.
       -3   -1    0    0    0  501  0.00000000000E+00  0.00000000000E+00 -0.23687408738E+03  0.23687410891E+03  0.10100000352E+00 0.  1.
    10030    2    1    2    0    0  0.00000000000E+00  0.00000000000E+00  0.28918539097E+03  0.76293359696E+03  0.70600246673E+03 0.  0.
        4    1    3    3  502    0  0.32438970267E+03 -0.13573725433E+03  0.17798734211E+03  0.39412483842E+03  0.12699999809E+01 0. -1.
       -4    1    3    3    0  502 -0.32438970267E+03  0.13573725433E+03  0.11119804886E+03  0.36880875854E+03  0.12699999809E+01 0.  1.
</event>
<event>
 5   0  0.1969818E-02  0.7022130E+03  0.7818609E-02  0.9713455E-01
       -1   -1    0    0    0  501  0.00000000000E+00  0.00000000000E+00  0.90790704427E+03  0.90790704428E+03  0.50400001928E-02 0.  1.
        1   -1    0    0  501    0  0.00000000000E+00  0.00000000000E+00 -0.13578015899E+03  0.13578015908E+03  0.50400001928E-02 0. -1.
    10030    2    1    2    0    0  0.00000000000E+00  0.00000000000E+00  0.77212688528E+03  0.10436872034E+04  0.70221296734E+03 0.  0.
        1    1    3    3  502    0 -0.33312205357E+03 -0.55158455954E+02  0.24301686788E+03  0.41601677362E+03  0.50400001928E-02 0. -1.
       -1    1    3    3    0  502  0.33312205357E+03  0.55158455954E+02  0.52911001740E+03  0.62767042974E+03  0.50400001928E-02 0.  1.
</event>
<event>
 5   0  0.1233912E-02  0.7014474E+03  0.7818609E-02  0.9714760E-01
       -3   -1    0    0    0  501  0.00000000000E+00  0.00000000000E+00  0.30927528837E+03  0.30927530487E+03  0.10100000352E+00 0.  1.
        3   -1    0    0  501    0  0.00000000000E+00  0.00000000000E+00 -0.39772691298E+03  0.39772692580E+03  0.10100000352E+00 0. -1.
    10030    2    1    2    0    0  0.00000000000E+00  0.00000000000E+00 -0.88451624604E+02  0.70700223067E+03  0.70144740664E+03 0.  0.
        4    1    3    3  502    0 -0.15357241835E+03  0.22397947155E+02  0.27277931857E+03  0.31384124212E+03  0.12699999809E+01 0.  1.
       -4    1    3    3    0  502  0.15357241835E+03 -0.22397947155E+02 -0.36123094317E+03  0.39316098855E+03  0.12699999809E+01 0. -1.
</event>
<event>
 5   0  0.3184443E-02  0.6965554E+03  0.7818609E-02  0.9723141E-01
       -2   -1    0    0    0  501  0.00000000000E+00  0.00000000000E+00  0.42822895300E+03  0.42822895301E+03  0.25500000920E-02 0.  1.
        2   -1    0    0  501    0  0.00000000000E+00  0.00000000000E+00 -0.28325353750E+03  0.28325353752E+03  0.25500000920E-02 0. -1.
    10030    2    1    2    0    0  0.00000000000E+00  0.00000000000E+00  0.14497541550E+03  0.71148249053E+03  0.69655542725E+03 0.  0.
        3    1    3    3  502    0  0.25539546320E+03 -0.53018055627E+02 -0.16323828932E+03  0.30770847591E+03  0.10100000352E+00 0. -1.
       -3    1    3    3    0  502 -0.25539546320E+03  0.53018055627E+02  0.30821370482E+03  0.40377401462E+03  0.10100000352E+00 0.  1.
</event>
<event>
 5   0  0.1233912E-02  0.6989866E+03  0.7818609E-02  0.9718967E-01
       -3   -1    0    0    0  501  0.00000000000E+00  0.00000000000E+00  0.50901136440E+03  0.50901137442E+03  0.10100000352E+00 0.  1.
        3   -1    0    0  501    0  0.00000000000E+00  0.00000000000E+00 -0.23996626979E+03  0.23996629105E+03  0.10100000352E+00 0. -1.
    10030    2    1    2    0    0  0.00000000000E+00  0.00000000000E+00  0.26904509460E+03  0.74897766547E+03  0.69898660963E+03 0.  0.
        3    1    3    3  502    0  0.24349597443E+03 -0.58634366593E+02  0.39571245964E+03  0.46831254459E+03  0.10100000352E+00 0.  1.
       -3    1    3    3    0  502 -0.24349597443E+03  0.58634366593E+02 -0.12666736504E+03  0.28066512087E+03  0.10100000352E+00 0. -1.
</event>
<event>
 5   0  0.3290656E-02  0.7809936E+03  0.7818609E-02  0.9587943E-01
       -2   -1    0    0    0  501  0.00000000000E+00  0.00000000000E+00  0.72431892644E+02  0.72431892689E+02  0.25500000920E-02 0. -1.
        2   -1    0    0  501    0  0.00000000000E+00  0.00000000000E+00 -0.21052569526E+04  0.21052569526E+04  0.25500000920E-02 0.  1.
    10030    2    1    2    0    0  0.00000000000E+00  0.00000000000E+00 -0.20328250599E+04  0.21776888453E+04  0.78099358672E+03 0.  0.
        1    1    3    3  502    0 -0.23279420253E+03  0.29845564233E+02 -0.14617779440E+03  0.27649926950E+03  0.50400001928E-02 0. -1.
       -1    1    3    3    0  502  0.23279420253E+03 -0.29845564233E+02 -0.18866472655E+04  0.19011895757E+04  0.50400001928E-02 0.  1.
</event>
<event>
 5   0  0.1233912E-02  0.7066481E+03  0.7818609E-02  0.9705930E-01
       -4   -1    0    0    0  501  0.00000000000E+00  0.00000000000E+00  0.80891399541E+03  0.80891499237E+03  0.12699999809E+01 0.  1.
        4   -1    0    0  501    0  0.00000000000E+00  0.00000000000E+00 -0.15432404939E+03  0.15432927499E+03  0.12699999809E+01 0. -1.
    10030    2    1    2    0    0  0.00000000000E+00  0.00000000000E+00  0.65458994602E+03  0.96324426736E+03  0.70664808863E+03 0.  0.
        3    1    3    3  502    0 -0.87897668046E+02  0.25545782478E+03  0.16895554159E+02  0.27068463245E+03  0.10100000352E+00 0. -1.
       -3    1    3    3    0  502  0.87897668046E+02 -0.25545782478E+03  0.63769439187E+03  0.69255963491E+03  0.10100000352E+00 0.  1.
</event>
<event>
 5   0  0.1969818E-02  0.7085418E+03  0.7818609E-02  0.9702735E-01
       -1   -1    0    0    0  501  0.00000000000E+00  0.00000000000E+00  0.15901001347E+03  0.15901001355E+03  0.50400001928E-02 0.  1.
        1   -1    0    0  501    0  0.00000000000E+00  0.00000000000E+00 -0.78930796196E+03  0.78930796198E+03  0.50400001928E-02 0. -1.
    10030    2    1    2    0    0  0.00000000000E+00  0.00000000000E+00 -0.63029794849E+03  0.94831797553E+03  0.70854179752E+03 0.  0.
        1    1    3    3  502    0 -0.24091047005E+03 -0.19953625737E+03 -0.53772463546E+03  0.62209352688E+03  0.50400001928E-02 0. -1.
       -1    1    3    3    0  502  0.24091047005E+03  0.19953625737E+03 -0.92573313032E+02  0.32622444864E+03  0.50400001928E-02 0.  1.
</event>
<event>
 5   0  0.1858013E-02  0.6990875E+03  0.7818609E-02  0.9718794E-01
        1   -1    0    0  501    0  0.00000000000E+00  0.00000000000E+00  0.47023928053E+03  0.47023928056E+03  0.50400001928E-02 0.  1.
       -1   -1    0    0    0  501  0.00000000000E+00  0.00000000000E+00 -0.25982692289E+03  0.25982692294E+03  0.50400001928E-02 0. -1.
    10030    2    1    2    0    0  0.00000000000E+00  0.00000000000E+00  0.21041235764E+03  0.73006620350E+03  0.69908747754E+03 0.  0.
        2    1    3    3  502    0  0.21317672311E+02 -0.32825059856E+03  0.22867352141E+03  0.40061762069E+03  0.25500000920E-02 0.  1.
       -2    1    3    3    0  502 -0.21317672311E+02  0.32825059856E+03 -0.18261163767E+02  0.32944858281E+03  0.25500000920E-02 0. -1.
</event>
<event>
 5   0  0.3184443E-02  0.6989175E+03  0.7818609E-02  0.9719085E-01
        2   -1    0    0  501    0  0.00000000000E+00  0.00000000000E+00  0.12033401131E+04  0.12033401131E+04  0.25500000920E-02 0.  1.
       -2   -1    0    0    0  501  0.00000000000E+00  0.00000000000E+00 -0.10148537839E+03  0.10148537842E+03  0.25500000920E-02 0. -1.
    10030    2    1    2    0    0  0.00000000000E+00  0.00000000000E+00  0.11018547347E+04  0.13048254915E+04  0.69891752511E+03 0.  0.
        3    1    3    3  502    0  0.19900886072E+03  0.98174502178E+02  0.46931839603E+02  0.22681571218E+03  0.10100000352E+00 0. -1.
       -3    1    3    3    0  502 -0.19900886072E+03 -0.98174502178E+02  0.10549228951E+04  0.10780097793E+04  0.10100000352E+00 0.  1.
</event>
<event>
 5   0  0.1858013E-02  0.6941846E+03  0.7818609E-02  0.9727229E-01
       -1   -1    0    0    0  501  0.00000000000E+00  0.00000000000E+00  0.40991302603E+03  0.40991302606E+03  0.50400001928E-02 0. -1.
        1   -1    0    0  501    0  0.00000000000E+00  0.00000000000E+00 -0.29389904668E+03  0.29389904672E+03  0.50400001928E-02 0.  1.
    10030    2    1    2    0    0  0.00000000000E+00  0.00000000000E+00  0.11601397936E+03  0.70381207278E+03  0.69418455067E+03 0.  0.
        2    1    3    3  502    0 -0.17054790176E+03 -0.10865321738E+03  0.34402033530E+03  0.39905149987E+03  0.25500000920E-02 0. -1.
       -2    1    3    3    0  502  0.17054790176E+03  0.10865321738E+03 -0.22800635595E+03  0.30476057291E+03  0.25500000920E-02 0.  1.
</event>
<event>
 5   0  0.2933851E-02  0.7245319E+03  0.7818609E-02  0.9676175E-01
        2   -1    0    0  501    0  0.00000000000E+00  0.00000000000E+00  0.13043681905E+04  0.13043681905E+04  0.25500000920E-02 0.  1.
       -2   -1    0    0    0  501  0.00000000000E+00  0.00000000000E+00 -0.10061316552E+03  0.10061316555E+03  0.25500000920E-02 0. -1.
    10030    2    1    2    0    0  0.00000000000E+00  0.00000000000E+00  0.12037550250E+04  0.14049813561E+04  0.72453188384E+03 0.  0.
        2    1    3    3  502    0 -0.14654256482E+03 -0.21052649977E+03  0.10979399067E+04  0.11275052856E+04  0.25500000920E-02 0.  1.
       -2    1    3    3    0  502  0.14654256482E+03  0.21052649977E+03  0.10581511834E+03  0.27747607047E+03  0.25500000920E-02 0. -1.
</event>
<event>
 5   0  0.1884172E-02  0.6979135E+03  0.7818609E-02  0.9720807E-01
       -1   -1    0    0    0  501  0.00000000000E+00  0.00000000000E+00  0.91370793398E+02  0.91370793537E+02  0.50400001928E-02 0. -1.
        1   -1    0    0  501    0  0.00000000000E+00  0.00000000000E+00 -0.13327103286E+04  0.13327103286E+04  0.50400001928E-02 0.  1.
    10030    2    1    2    0    0  0.00000000000E+00  0.00000000000E+00 -0.12413395352E+04  0.14240811222E+04  0.69791346227E+03 0.  0.
        3    1    3    3  502    0 -0.93033162634E+02  0.30517532908E+03 -0.90911970133E+03  0.96347589091E+03  0.10100000352E+00 0. -1.
       -3    1    3    3    0  502  0.93033162634E+02 -0.30517532908E+03 -0.33221983391E+03  0.46060523127E+03  0.10100000352E+00 0.  1.
</event>
<event>
 5   0  0.1969818E-02  0.7012909E+03  0.7818609E-02  0.9715027E-01
        1   -1    0    0  501    0  0.00000000000E+00  0.00000000000E+00  0.52088881139E+03  0.52088881142E+03  0.50400001928E-02 0.  1.
       -1   -1    0    0    0  501  0.00000000000E+00  0.00000000000E+00 -0.23604317302E+03  0.23604317308E+03  0.50400001928E-02 0. -1.
    10030    2    1    2    0    0  0.00000000000E+00  0.00000000000E+00  0.28484563837E+03  0.75693198450E+03  0.70129094636E+03 0.  0.
        1    1    3    3  502    0 -0.15521561311E+02 -0.16219509483E+02  0.52011233329E+03  0.52059661026E+03  0.50400001928E-02 0.  1.
       -1    1    3    3    0  502  0.15521561311E+02  0.16219509483E+02 -0.23526669491E+03  0.23633537423E+03  0.50400001928E-02 0. -1.
</event>
<event>
 5   0  0.3183963E-02  0.7044586E+03  0.7818609E-02  0.9709638E-01
       -2   -1    0    0    0  501  0.00000000000E+00  0.00000000000E+00  0.20447358715E+03  0.20447358716E+03  0.25500000920E-02 0.  1.
        2   -1    0    0  501    0  0.00000000000E+00  0.00000000000E+00 -0.60675558542E+03  0.60675558543E+03  0.25500000920E-02 0. -1.
    10030    2    1    2    0    0  0.00000000000E+00  0.00000000000E+00 -0.40228199827E+03  0.81122917259E+03  0.70445863208E+03 0.  0.
        4    1    3    3  502    0  0.68031885144E+01  0.21413074669E+03 -0.52309657290E+03  0.56526975643E+03  0.12699999809E+01 0. -1.
       -4    1    3    3    0  502 -0.68031885144E+01 -0.21413074669E+03  0.12081457463E+03  0.24595941616E+03  0.12699999809E+01 0.  1.
</event>
<event>
 5   0  0.3113940E-02  0.7174958E+03  0.7818609E-02  0.9687771E-01
        2   -1    0    0  501    0  0.00000000000E+00  0.00000000000E+00  0.24552158789E+03  0.24552158790E+03  0.25500000920E-02 0. -1.
       -2   -1    0    0    0  501  0.00000000000E+00  0.00000000000E+00 -0.52419036362E+03  0.52419036363E+03  0.25500000920E-02 0.  1.
    10030    2    1    2    0    0  0.00000000000E+00  0.00000000000E+00 -0.27866877573E+03  0.76971195153E+03  0.71749578519E+03 0.  0.
        5    1    3    3  502    0  0.53097999969E+02  0.28516110617E+02 -0.51868669171E+03  0.52219779808E+03  0.46999998093E+01 0.  1.
       -5    1    3    3    0  502 -0.53097999969E+02 -0.28516110617E+02  0.24001791598E+03  0.24751415345E+03  0.46999998093E+01 0. -1.
</event>
<event>
 5   0  0.1858013E-02  0.7064488E+03  0.7818609E-02  0.9706267E-01
       -1   -1    0    0    0  501  0.00000000000E+00  0.00000000000E+00  0.30611014689E+03  0.30611014693E+03  0.50400001928E-02 0.  1.
        1   -1    0    0  501    0  0.00000000000E+00  0.00000000000E+00 -0.40759013479E+03  0.40759013482E+03  0.50400001928E-02 0. -1.
    10030    2    1    2    0    0  0.00000000000E+00  0.00000000000E+00 -0.10147998790E+03  0.71370028174E+03  0.70644879802E+03 0.  0.
        2    1    3    3  502    0  0.11372952840E+03 -0.29120718135E+03 -0.21684007042E+03  0.38046766518E+03  0.25500000920E-02 0. -1.
       -2    1    3    3    0  502 -0.11372952840E+03  0.29120718135E+03  0.11536008252E+03  0.33323261657E+03  0.25500000920E-02 0.  1.
</event>
<event>
 5   0  0.1858013E-02  0.6979681E+03  0.7818609E-02  0.9720713E-01
       -1   -1    0    0    0  501  0.00000000000E+00  0.00000000000E+00  0.19587188868E+03  0.19587188875E+03  0.50400001928E-02 0. -1.
        1   -1    0    0  501    0  0.00000000000E+00  0.00000000000E+00 -0.62178322632E+03  0.62178322634E+03  0.50400001928E-02 0.  1.
    10030    2    1    2    0    0  0.00000000000E+00  0.00000000000E+00 -0.42591133764E+03  0.81765511509E+03  0.69796806496E+03 0.  0.
        2    1    3    3  502    0  0.16855659159E+03  0.25276314160E+03 -0.41412743032E+03  0.51361664582E+03  0.25500000920E-02 0.  1.
       -2    1    3    3    0  502 -0.16855659159E+03 -0.25276314160E+03 -0.11783907325E+02  0.30403846927E+03  0.25500000920E-02 0. -1.
</event>
<event>
 5   0  0.1969818E-02  0.7098856E+03  0.7818609E-02  0.9700474E-01
       -1   -1    0    0    0  501  0.00000000000E+00  0.00000000000E+00  0.59139984075E+03  0.59139984077E+03  0.50400001928E-02 0.  1.
        1   -1    0    0  501    0  0.00000000000E+00  0.00000000000E+00 -0.21302745209E+03  0.21302745215E+03  0.50400001928E-02 0. -1.
    10030    2    1    2    0    0  0.00000000000E+00  0.00000000000E+00  0.37837238866E+03  0.80442729292E+03  0.70988562818E+03 0.  0.
        1    1    3    3  502    0 -0.22569732712E+03 -0.27119505564E+03  0.14532237571E+03  0.38158175347E+03  0.50400001928E-02 0. -1.
       -1    1    3    3    0  502  0.22569732712E+03  0.27119505564E+03  0.23305001295E+03  0.42284553945E+03  0.50400001928E-02 0.  1.
</event>
<event>
 5   0  0.1839038E-02  0.6989776E+03  0.7818609E-02  0.9718982E-01
        1   -1    0    0  501    0  0.00000000000E+00  0.00000000000E+00  0.55456721142E+03  0.55456721144E+03  0.50400001928E-02 0.  1.
       -1   -1    0    0    0  501  0.00000000000E+00  0.00000000000E+00 -0.22024816719E+03  0.22024816725E+03  0.50400001928E-02 0. -1.
    10030    2    1    2    0    0  0.00000000000E+00  0.00000000000E+00  0.33431904423E+03  0.77481537869E+03  0.69897757311E+03 0.  0.
        5    1    3    3  502    0 -0.27165976894E+03 -0.30404579987E+02 -0.74169607068E+02  0.28327846575E+03  0.46999998093E+01 0. -1.
       -5    1    3    3    0  502  0.27165976894E+03  0.30404579987E+02  0.40848865129E+03  0.49153691294E+03  0.46999998093E+01 0.  1.
</event>
<event>
 5   0  0.1884172E-02  0.6768900E+03  0.7818609E-02  0.9757591E-01
        1   -1    0    0  501    0  0.00000000000E+00  0.00000000000E+00  0.67977176544E+03  0.67977176545E+03  0.50400001928E-02 0.  1.
       -1   -1    0    0    0  501  0.00000000000E+00  0.00000000000E+00 -0.16850510492E+03  0.16850510500E+03  0.50400001928E-02 0. -1.
    10030    2    1    2    0    0  0.00000000000E+00  0.00000000000E+00  0.51126666051E+03  0.84827687045E+03  0.67688998426E+03 0.  0.
        3    1    3    3  502    0  0.17488496164E+03  0.17244279455E+02  0.61811492700E+03  0.64261044822E+03  0.10100000352E+00 0.  1.
       -3    1    3    3    0  502 -0.17488496164E+03 -0.17244279455E+02 -0.10684826649E+03  0.20566642223E+03  0.10100000352E+00 0. -1.
</event>
<event>
 5   0  0.3290656E-02  0.7005969E+03  0.7818609E-02  0.9716212E-01
       -2   -1    0    0    0  501  0.00000000000E+00  0.00000000000E+00  0.24263185708E+03  0.24263185709E+03  0.25500000920E-02 0.  1.
        2   -1    0    0  501    0  0.00000000000E+00  0.00000000000E+00 -0.50574153689E+03  0.50574153690E+03  0.25500000920E-02 0. -1.
    10030    2    1    2    0    0  0.00000000000E+00  0.00000000000E+00 -0.26310967981E+03  0.74837339399E+03  0.70059691209E+03 0.  0.
        1    1    3    3  502    0 -0.34771916817E+03  0.33658316248E+02 -0.15915284840E+03  0.38388947804E+03  0.50400001928E-02 0. -1.
       -1    1    3    3    0  502  0.34771916817E+03 -0.33658316248E+02 -0.10395683141E+03  0.36448391596E+03  0.50400001928E-02 0.  1.
</event>
<event>
 5   0  0.1839038E-02  0.7053417E+03  0.7818609E-02  0.9708141E-01
        1   -1    0    0  501    0  0.00000000000E+00  0.00000000000E+00  0.42461416396E+03  0.42461416399E+03  0.50400001928E-02 0.  1.
       -1   -1    0    0    0  501  0.00000000000E+00  0.00000000000E+00 -0.29291706295E+03  0.29291706300E+03  0.50400001928E-02 0. -1.
    10030    2    1    2    0    0  0.00000000000E+00  0.00000000000E+00  0.13169710101E+03  0.71753122699E+03  0.70534171527E+03 0.  0.
        5    1    3    3  502    0 -0.14513902267E+03 -0.28157296863E+03  0.22346475952E+03  0.38769480434E+03  0.46999998093E+01 0.  1.
       -5    1    3    3    0  502  0.14513902267E+03  0.28157296863E+03 -0.91767658515E+02  0.32983642266E+03  0.46999998093E+01 0. -1.
</event>
<event>
 5   0  0.1969818E-02  0.7024555E+03  0.7818609E-02  0.9713042E-01
        1   -1    0    0  501    0  0.00000000000E+00  0.00000000000E+00  0.29227018722E+03  0.29227018727E+03  0.50400001928E-02 0.  1.
       -1   -1    0    0    0  501  0.00000000000E+00  0.00000000000E+00 -0.42207841677E+03  0.42207841680E+03  0.50400001928E-02 0. -1.
    10030    2    1    2    0    0  0.00000000000E+00  0.00000000000E+00 -0.12980822955E+03  0.71434860407E+03  0.70245551580E+03 0.  0.
        1    1    3    3  502    0  0.15168665055E+03 -0.31635248979E+03 -0.48095503453E+02  0.35411991645E+03  0.50400001928E-02 0.  1.
       -1    1    3    3    0  502 -0.15168665055E+03  0.31635248979E+03 -0.81712726098E+02  0.36022868762E+03  0.50400001928E-02 0. -1.
</event>
<event>
 5   0  0.1969818E-02  0.7026939E+03  0.7818609E-02  0.9712636E-01
       -1   -1    0    0    0  501  0.00000000000E+00  0.00000000000E+00  0.22277107547E+03  0.22277107553E+03  0.50400001928E-02 0. -1.
        1   -1    0    0  501    0  0.00000000000E+00  0.00000000000E+00 -0.55413237537E+03  0.55413237539E+03  0.50400001928E-02 0.  1.
    10030    2    1    2    0    0  0.00000000000E+00  0.00000000000E+00 -0.33136129990E+03  0.77690345092E+03  0.70269386007E+03 0.  0.
        1    1    3    3  502    0  0.15516570009E+03 -0.76224037464E+02 -0.50385584066E+03  0.53268865819E+03  0.50400001928E-02 0.  1.
       -1    1    3    3    0  502 -0.15516570009E+03  0.76224037464E+02  0.17249454076E+03  0.24421479273E+03  0.50400001928E-02 0. -1.
</event>
<event>
 5   0  0.1858013E-02  0.7040388E+03  0.7818609E-02  0.9710350E-01
       -1   -1    0    0    0  501  0.00000000000E+00  0.00000000000E+00  0.25963699451E+03  0.25963699456E+03  0.50400001928E-02 0. -1.
        1   -1    0    0  501    0  0.00000000000E+00  0.00000000000E+00 -0.47727279025E+03  0.47727279028E+03  0.50400001928E-02 0.  1.
    10030    2    1    2    0    0  0.00000000000E+00  0.00000000000E+00 -0.21763579575E+03  0.73690978484E+03  0.70403884225E+03 0.  0.
        2    1    3    3  502    0 -0.38032408577E+02 -0.12955938104E+03 -0.44908938685E+03  0.46894922401E+03  0.25500000920E-02 0.  1.
       -2    1    3    3    0  502  0.38032408577E+02  0.12955938104E+03  0.23145359110E+03  0.26796056082E+03  0.25500000920E-02 0. -1.
</event>
<event>
 5   0  0.1884172E-02  0.7026136E+03  0.7818609E-02  0.9712773E-01
       -1   -1    0    0    0  501  0.00000000000E+00  0.00000000000E+00  0.13245833329E+03  0.13245833339E+03  0.50400001928E-02 0. -1.
        1   -1    0    0  501    0  0.00000000000E+00  0.00000000000E+00 -0.93173810884E+03  0.93173810886E+03  0.50400001928E-02 0.  1.
    10030    2    1    2    0    0  0.00000000000E+00  0.00000000000E+00 -0.79927977555E+03  0.10641964422E+04  0.70261362645E+03 0.  0.
        3    1    3    3  502    0  0.30280752018E+03 -0.16646580653E+03 -0.49559123085E+03  0.60416383318E+03  0.10100000352E+00 0.  1.
       -3    1    3    3    0  502 -0.30280752018E+03  0.16646580653E+03 -0.30368854470E+03  0.46003260907E+03  0.10100000352E+00 0. -1.
</event>
<event>
 5   0  0.3290656E-02  0.6988777E+03  0.7818609E-02  0.9719153E-01
       -2   -1    0    0    0  501  0.00000000000E+00  0.00000000000E+00  0.12596831145E+03  0.12596831148E+03  0.25500000920E-02 0. -1.
        2   -1    0    0  501    0  0.00000000000E+00  0.00000000000E+00 -0.96935112154E+03  0.96935112154E+03  0.25500000920E-02 0.  1.
    10030    2    1    2    0    0  0.00000000000E+00  0.00000000000E+00 -0.84338281009E+03  0.10953194330E+04  0.69887774038E+03 0.  0.
        1    1    3    3  502    0  0.60832041717E+02 -0.32597716126E+03 -0.24896687315E+03  0.41466390115E+03  0.50400001928E-02 0. -1.
       -1    1    3    3    0  502 -0.60832041717E+02  0.32597716126E+03 -0.59441593694E+03  0.68065553187E+03  0.50400001928E-02 0.  1.
</event>
<event>
 5   0  0.3113940E-02  0.7040309E+03  0.7818609E-02  0.9710364E-01
       -2   -1    0    0    0  501  0.00000000000E+00  0.00000000000E+00  0.26259552916E+03  0.26259552918E+03  0.25500000920E-02 0.  1.
        2   -1    0    0  501    0  0.00000000000E+00  0.00000000000E+00 -0.47188496169E+03  0.47188496169E+03  0.25500000920E-02 0. -1.
    10030    2    1    2    0    0  0.00000000000E+00  0.00000000000E+00 -0.20928943252E+03  0.73448049087E+03  0.70403091189E+03 0.  0.
        5    1    3    3  502    0  0.21604756538E+03 -0.27686260223E+03 -0.12940604303E+03  0.37429595909E+03  0.46999998093E+01 0. -1.
       -5    1    3    3    0  502 -0.21604756538E+03  0.27686260223E+03 -0.79883389494E+02  0.36018453178E+03  0.46999998093E+01 0.  1.
</event>
<event>
 5   0  0.1884172E-02  0.6929122E+03  0.7818609E-02  0.9729431E-01
       -1   -1    0    0    0  501  0.00000000000E+00  0.00000000000E+00  0.15589382955E+03  0.15589382964E+03  0.50400001928E-02 0. -1.
        1   -1    0    0  501    0  0.00000000000E+00  0.00000000000E+00 -0.76995879465E+03  0.76995879466E+03  0.50400001928E-02 0.  1.
    10030    2    1    2    0    0  0.00000000000E+00  0.00000000000E+00 -0.61406496509E+03  0.92585262430E+03  0.69291218821E+03 0.  0.
        3    1    3    3  502    0 -0.69131766586E+02  0.54193427419E+02 -0.75483225521E+03  0.75992622829E+03  0.10100000352E+00 0.  1.
       -3    1    3    3    0  502  0.69131766586E+02 -0.54193427419E+02  0.14076729012E+03  0.16592639602E+03  0.10100000352E+00 0. -1.
</event>
<event>
 5   0  0.1233912E-02  0.7093012E+03  0.7818609E-02  0.9701457E-01
       -4   -1    0    0    0  501  0.00000000000E+00  0.00000000000E+00  0.10482503835E+03  0.10483273136E+03  0.12699999809E+01 0. -1.
        4   -1    0    0  501    0  0.00000000000E+00  0.00000000000E+00 -0.11998238684E+04  0.11998245406E+04  0.12699999809E+01 0.  1.
    10030    2    1    2    0    0  0.00000000000E+00  0.00000000000E+00 -0.10949988301E+04  0.13046572719E+04  0.70930117675E+03 0.  0.
        4    1    3    3  502    0 -0.32546348848E+02 -0.20896903279E+03 -0.23854135822E+02  0.21283316045E+03  0.12699999809E+01 0. -1.
       -4    1    3    3    0  502  0.32546348848E+02  0.20896903279E+03 -0.10711446943E+04  0.10918241115E+04  0.12699999809E+01 0.  1.
</event>
<event>
 5   0  0.1951465E-02  0.6987663E+03  0.7818609E-02  0.9719344E-01
       -1   -1    0    0    0  501  0.00000000000E+00  0.00000000000E+00  0.21820297594E+03  0.21820297600E+03  0.50400001928E-02 0. -1.
        1   -1    0    0  501    0  0.00000000000E+00  0.00000000000E+00 -0.55942683275E+03  0.55942683278E+03  0.50400001928E-02 0.  1.
    10030    2    1    2    0    0  0.00000000000E+00  0.00000000000E+00 -0.34122385681E+03  0.77762980878E+03  0.69876634081E+03 0.  0.
        4    1    3    3  502    0  0.15418875563E+03  0.13633465737E+03 -0.48479700071E+03  0.52667927239E+03  0.12699999809E+01 0.  1.
       -4    1    3    3    0  502 -0.15418875563E+03 -0.13633465737E+03  0.14357314390E+03  0.25095053639E+03  0.12699999809E+01 0. -1.
</event>
<event>
 5   0  0.1858013E-02  0.7055972E+03  0.7818609E-02  0.9707708E-01
        1   -1    0    0  501    0  0.00000000000E+00  0.00000000000E+00  0.15039415479E+04  0.15039415479E+04  0.50400001928E-02 0. -1.
       -1   -1    0    0    0  501  0.00000000000E+00  0.00000000000E+00 -0.82760440923E+02  0.82760441077E+02  0.50400001928E-02 0.  1.
    10030    2    1    2    0    0  0.00000000000E+00  0.00000000000E+00  0.14211811070E+04  0.15867019890E+04  0.70559723854E+03 0.  0.
        2    1    3    3  502    0 -0.24697319726E+03 -0.24130833696E+03  0.87339333429E+03  0.93917058623E+03  0.25500000920E-02 0.  1.
       -2    1    3    3    0  502  0.24697319726E+03  0.24130833696E+03  0.54778777273E+03  0.64753140280E+03  0.25500000920E-02 0. -1.
</event>
<event>
 5   0  0.1969818E-02  0.6858630E+03  0.7818609E-02  0.9741718E-01
       -1   -1    0    0    0  501  0.00000000000E+00  0.00000000000E+00  0.30739575518E+03  0.30739575523E+03  0.50400001928E-02 0. -1.
        1   -1    0    0  501    0  0.00000000000E+00  0.00000000000E+00 -0.38257530623E+03  0.38257530627E+03  0.50400001928E-02 0.  1.
    10030    2    1    2    0    0  0.00000000000E+00  0.00000000000E+00 -0.75179551049E+02  0.68997106149E+03  0.68586303356E+03 0.  0.
        1    1    3    3  502    0 -0.77248975888E+02 -0.23859822264E+03 -0.27288277816E+03  0.37062316005E+03  0.50400001928E-02 0.  1.
       -1    1    3    3    0  502  0.77248975888E+02  0.23859822264E+03  0.19770322711E+03  0.31934790144E+03  0.50400001928E-02 0. -1.
</event>
<event>
 5   0  0.1839038E-02  0.6960940E+03  0.7818609E-02  0.9723935E-01
       -1   -1    0    0    0  501  0.00000000000E+00  0.00000000000E+00  0.75786905875E+03  0.75786905876E+03  0.50400001928E-02 0. -1.
        1   -1    0    0  501    0  0.00000000000E+00  0.00000000000E+00 -0.15983859696E+03  0.15983859704E+03  0.50400001928E-02 0.  1.
    10030    2    1    2    0    0  0.00000000000E+00  0.00000000000E+00  0.59803046179E+03  0.91770765580E+03  0.69609403696E+03 0.  0.
        5    1    3    3  502    0 -0.17001820582E+03 -0.18630485824E+03  0.61514572152E+03  0.66486242127E+03  0.46999998093E+01 0. -1.
       -5    1    3    3    0  502  0.17001820582E+03  0.18630485824E+03 -0.17115259725E+02  0.25284523454E+03  0.46999998093E+01 0.  1.
</event>
<event>
 5   0  0.3113940E-02  0.7005955E+03  0.7818609E-02  0.9716214E-01
       -2   -1    0    0    0  501  0.00000000000E+00  0.00000000000E+00  0.22422134570E+03  0.22422134572E+03  0.25500000920E-02 0. -1.
        2   -1    0    0  501    0  0.00000000000E+00  0.00000000000E+00 -0.54726505886E+03  0.54726505886E+03  0.25500000920E-02 0.  1.
    10030    2    1    2    0    0  0.00000000000E+00  0.00000000000E+00 -0.32304371316E+03  0.77148640458E+03  0.70059548374E+03 0.  0.
        5    1    3    3  502    0  0.16481333656E+03  0.32620587992E+02 -0.49996236443E+03  0.52745805000E+03  0.46999998093E+01 0.  1.
       -5    1    3    3    0  502 -0.16481333656E+03 -0.32620587992E+02  0.17691865128E+03  0.24402835457E+03  0.46999998093E+01 0. -1.
</event>
<event>
 5   0  0.3183963E-02  0.7010048E+03  0.7818609E-02  0.9715515E-01
        2   -1    0    0  501    0  0.00000000000E+00  0.00000000000E+00  0.67097032597E+03  0.67097032598E+03  0.25500000920E-02 0.  1.
       -2   -1    0    0    0  501  0.00000000000E+00  0.00000000000E+00 -0.18309592366E+03  0.18309592367E+03  0.25500000920E-02 0. -1.
    10030    2    1    2    0    0  0.00000000000E+00  0.00000000000E+00  0.48787440231E+03  0.85406624965E+03  0.70100479767E+03 0.  0.
        4    1    3    3  502    0  0.17134225989E+02  0.10691730642E+03  0.65007862811E+03  0.65903621125E+03  0.12699999809E+01 0.  1.
       -4    1    3    3    0  502 -0.17134225989E+02 -0.10691730642E+03 -0.16220422580E+03  0.19503003840E+03  0.12699999809E+01 0. -1.
</event>
<event>
 5   0  0.1839038E-02  0.7025023E+03  0.7818609E-02  0.9712963E-01
        1   -1    0    0  501    0  0.00000000000E+00  0.00000000000E+00  0.73702013881E+03  0.73702013882E+03  0.50400001928E-02 0.  1.
       -1   -1    0    0    0  501  0.00000000000E+00  0.00000000000E+00 -0.16740026309E+03  0.16740026317E+03  0.50400001928E-02 0. -1.
    10030    2    1    2    0    0  0.00000000000E+00  0.00000000000E+00  0.56961987571E+03  0.90442040199E+03  0.70250228522E+03 0.  0.
        5    1    3    3  502    0  0.26868714272E+03  0.19952081111E+03  0.42199155413E+03  0.53860959562E+03  0.46999998093E+01 0. -1.
       -5    1    3    3    0  502 -0.26868714272E+03 -0.19952081111E+03  0.14762832158E+03  0.36581080638E+03  0.46999998093E+01 0.  1.
</event>
<event>
 5   0  0.1233912E-02  0.6922175E+03  0.7818609E-02  0.9730635E-01
       -3   -1    0    0    0  501  0.00000000000E+00  0.00000000000E+00  0.26156414606E+03  0.26156416556E+03  0.10100000352E+00 0.  1.
        3   -1    0    0  501    0  0.00000000000E+00  0.00000000000E+00 -0.45798044095E+03  0.45798045209E+03  0.10100000352E+00 0. -1.
    10030    2    1    2    0    0  0.00000000000E+00  0.00000000000E+00 -0.19641629489E+03  0.71954461765E+03  0.69221752065E+03 0.  0.
        2    1    3    3  502    0 -0.28380928131E+03 -0.10711161228E+03 -0.27143224490E+03  0.40705782049E+03  0.25500000920E-02 0. -1.
       -2    1    3    3    0  502  0.28380928131E+03  0.10711161228E+03  0.75015950011E+02  0.31248679717E+03  0.25500000920E-02 0.  1.
</event>
<event>
 5   0  0.3184443E-02  0.6960445E+03  0.7818609E-02  0.9724021E-01
        2   -1    0    0  501    0  0.00000000000E+00  0.00000000000E+00  0.45044640134E+03  0.45044640135E+03  0.25500000920E-02 0.  1.
       -2   -1    0    0    0  501  0.00000000000E+00  0.00000000000E+00 -0.26888766950E+03  0.26888766951E+03  0.25500000920E-02 0. -1.
    10030    2    1    2    0    0  0.00000000000E+00  0.00000000000E+00  0.18155873184E+03  0.71933407086E+03  0.69604449024E+03 0.  0.
        3    1    3    3  502    0  0.14338629989E+03 -0.21716586489E+03  0.32959320910E+03  0.41994325516E+03  0.10100000352E+00 0.  1.
       -3    1    3    3    0  502 -0.14338629989E+03  0.21716586489E+03 -0.14803447726E+03  0.29939081570E+03  0.10100000352E+00 0. -1.
</event>
<event>
 5   0  0.3183963E-02  0.6939789E+03  0.7818609E-02  0.9727585E-01
        2   -1    0    0  501    0  0.00000000000E+00  0.00000000000E+00  0.86259272683E+03  0.86259272684E+03  0.25500000920E-02 0.  1.
       -2   -1    0    0    0  501  0.00000000000E+00  0.00000000000E+00 -0.13958114218E+03  0.13958114220E+03  0.25500000920E-02 0. -1.
    10030    2    1    2    0    0  0.00000000000E+00  0.00000000000E+00  0.72301158465E+03  0.10021738690E+04  0.69397889899E+03 0.  0.
        4    1    3    3  502    0  0.79026016901E+02  0.42300283038E+02  0.84558181729E+03  0.85032032078E+03  0.12699999809E+01 0.  1.
       -4    1    3    3    0  502 -0.79026016901E+02 -0.42300283038E+02 -0.12257023264E+03  0.15185354827E+03  0.12699999809E+01 0. -1.
</event>
<event>
 5   0  0.3183963E-02  0.6978591E+03  0.7818609E-02  0.9720900E-01
       -2   -1    0    0    0  501  0.00000000000E+00  0.00000000000E+00  0.52892919922E+02  0.52892919984E+02  0.25500000920E-02 0.  1.
        2   -1    0    0  501    0  0.00000000000E+00  0.00000000000E+00 -0.23018552885E+04  0.23018552885E+04  0.25500000920E-02 0. -1.
    10030    2    1    2    0    0  0.00000000000E+00  0.00000000000E+00 -0.22489623685E+04  0.23547482084E+04  0.69785914773E+03 0.  0.
        4    1    3    3  502    0 -0.15548757278E+03 -0.91627638460E+02 -0.21321228377E+04  0.21397479799E+04  0.12699999809E+01 0. -1.
       -4    1    3    3    0  502  0.15548757278E+03  0.91627638460E+02 -0.11683953082E+03  0.21500022856E+03  0.12699999809E+01 0.  1.
</event>
<event>
 5   0  0.1951465E-02  0.7075811E+03  0.7818609E-02  0.9704355E-01
        1   -1    0    0  501    0  0.00000000000E+00  0.00000000000E+00  0.11942053955E+04  0.11942053955E+04  0.50400001928E-02 0. -1.
       -1   -1    0    0    0  501  0.00000000000E+00  0.00000000000E+00 -0.10481258649E+03  0.10481258661E+03  0.50400001928E-02 0.  1.
    10030    2    1    2    0    0  0.00000000000E+00  0.00000000000E+00  0.10893928090E+04  0.12990179821E+04  0.70758110882E+03 0.  0.
        4    1    3    3  502    0  0.10925817573E+02  0.92484636611E+02 -0.81902343924E+02  0.12402575676E+03  0.12699999809E+01 0.  1.
       -4    1    3    3    0  502 -0.10925817573E+02 -0.92484636611E+02  0.11712951529E+04  0.11749922254E+04  0.12699999809E+01 0. -1.
</event>
<event>
 5   0  0.1884172E-02  0.6955986E+03  0.7818609E-02  0.9724789E-01
       -1   -1    0    0    0  501  0.00000000000E+00  0.00000000000E+00  0.73527607642E+02  0.73527607815E+02  0.50400001928E-02 0.  1.
        1   -1    0    0  501    0  0.00000000000E+00  0.00000000000E+00 -0.16451556789E+04  0.16451556790E+04  0.50400001928E-02 0. -1.
    10030    2    1    2    0    0  0.00000000000E+00  0.00000000000E+00 -0.15716280713E+04  0.17186832868E+04  0.69559862400E+03 0.  0.
        3    1    3    3  502    0  0.14671312903E+02 -0.34704288432E+03 -0.82934078028E+03  0.89914412139E+03  0.10100000352E+00 0. -1.
       -3    1    3    3    0  502 -0.14671312903E+02  0.34704288432E+03 -0.74228729102E+03  0.81953916538E+03  0.10100000352E+00 0.  1.
</event>
<event>
 5   0  0.1884172E-02  0.6989751E+03  0.7818609E-02  0.9718987E-01
       -1   -1    0    0    0  501  0.00000000000E+00  0.00000000000E+00  0.15302375154E+03  0.15302375163E+03  0.50400001928E-02 0.  1.
        1   -1    0    0  501    0  0.00000000000E+00  0.00000000000E+00 -0.79818680078E+03  0.79818680079E+03  0.50400001928E-02 0. -1.
    10030    2    1    2    0    0  0.00000000000E+00  0.00000000000E+00 -0.64516304924E+03  0.95121055242E+03  0.69897507462E+03 0.  0.
        3    1    3    3  502    0  0.20733658278E+02  0.45521853738E+02 -0.79329008040E+03  0.79486557707E+03  0.10100000352E+00 0. -1.
       -3    1    3    3    0  502 -0.20733658278E+02 -0.45521853738E+02  0.14812703116E+03  0.15634497535E+03  0.10100000352E+00 0.  1.
</event>
<event>
 5   0  0.3183963E-02  0.6296475E+03  0.7818609E-02  0.9845737E-01
        2   -1    0    0  501    0  0.00000000000E+00  0.00000000000E+00  0.15425585660E+04  0.15425585660E+04  0.25500000920E-02 0.  1.
       -2   -1    0    0    0  501  0.00000000000E+00  0.00000000000E+00 -0.64252982626E+02  0.64252982677E+02  0.25500000920E-02 0. -1.
    10030    2    1    2    0    0  0.00000000000E+00  0.00000000000E+00  0.14783055834E+04  0.16068115487E+04  0.62964748482E+03 0.  0.
        4    1    3    3  502    0 -0.31245907945E+03 -0.23619047571E+02  0.81671780777E+03  0.87476746977E+03  0.12699999809E+01 0.  1.
       -4    1    3    3    0  502  0.31245907945E+03  0.23619047571E+02  0.66158777563E+03  0.73204407894E+03  0.12699999809E+01 0. -1.
</event>
<event>
 5   0  0.1951465E-02  0.6925521E+03  0.7818609E-02  0.9730055E-01
       -1   -1    0    0    0  501  0.00000000000E+00  0.00000000000E+00  0.13823020382E+03  0.13823020391E+03  0.50400001928E-02 0.  1.
        1   -1    0    0  501    0  0.00000000000E+00  0.00000000000E+00 -0.86744507482E+03  0.86744507484E+03  0.50400001928E-02 0. -1.
    10030    2    1    2    0    0  0.00000000000E+00  0.00000000000E+00 -0.72921487101E+03  0.10056752787E+04  0.69255211947E+03 0.  0.
        4    1    3    3  502    0  0.24670815783E+03  0.58720278173E+02 -0.22223440566E+02  0.25457509779E+03  0.12699999809E+01 0.  1.
       -4    1    3    3    0  502 -0.24670815783E+03 -0.58720278173E+02 -0.70699143044E+03  0.75110018095E+03  0.12699999809E+01 0. -1.
</event>
<event>
 5   0  0.3184443E-02  0.7052777E+03  0.7818609E-02  0.9708249E-01
        2   -1    0    0  501    0  0.00000000000E+00  0.00000000000E+00  0.10099968888E+04  0.10099968888E+04  0.25500000920E-02 0.  1.
       -2   -1    0    0    0  501  0.00000000000E+00  0.00000000000E+00 -0.12312331641E+03  0.12312331644E+03  0.25500000920E-02 0. -1.
    10030    2    1    2    0    0  0.00000000000E+00  0.00000000000E+00  0.88687357239E+03  0.11331202052E+04  0.70527772269E+03 0.  0.
        3    1    3    3  502    0 -0.12077257741E+03 -0.27477997500E+03  0.14604051333E+03  0.33379318724E+03  0.10100000352E+00 0. -1.
       -3    1    3    3    0  502  0.12077257741E+03  0.27477997500E+03  0.74083305906E+03  0.79932701801E+03  0.10100000352E+00 0.  1.
</event>
<event>
 5   0  0.1839038E-02  0.6943261E+03  0.7818609E-02  0.9726985E-01
       -1   -1    0    0    0  501  0.00000000000E+00  0.00000000000E+00  0.88947079960E+02  0.88947080103E+02  0.50400001928E-02 0.  1.
        1   -1    0    0  501    0  0.00000000000E+00  0.00000000000E+00 -0.13549874142E+04  0.13549874142E+04  0.50400001928E-02 0. -1.
    10030    2    1    2    0    0  0.00000000000E+00  0.00000000000E+00 -0.12660403343E+04  0.14439344943E+04  0.69432607322E+03 0.  0.
        5    1    3    3  502    0  0.30652100994E+03 -0.10661068209E+03 -0.88923677104E+03  0.94661771166E+03  0.46999998093E+01 0. -1.
       -5    1    3    3    0  502 -0.30652100994E+03  0.10661068209E+03 -0.37680356321E+03  0.49731678266E+03  0.46999998093E+01 0.  1.
</event>
<event>
 5   0  0.3184443E-02  0.6987978E+03  0.7818609E-02  0.9719290E-01
       -2   -1    0    0    0  501  0.00000000000E+00  0.00000000000E+00  0.10069649125E+03  0.10069649128E+03  0.25500000920E-02 0.  1.
        2   -1    0    0  501    0  0.00000000000E+00  0.00000000000E+00 -0.12123520018E+04  0.12123520018E+04  0.25500000920E-02 0. -1.
    10030    2    1    2    0    0  0.00000000000E+00  0.00000000000E+00 -0.11116555106E+04  0.13130484931E+04  0.69879780412E+03 0.  0.
        3    1    3    3  502    0  0.34532652316E+03  0.38161427074E+02 -0.62544961091E+03  0.71546762897E+03  0.10100000352E+00 0.  1.
       -3    1    3    3    0  502 -0.34532652316E+03 -0.38161427074E+02 -0.48620589968E+03  0.59758086414E+03  0.10100000352E+00 0. -1.
</event>
<event>
 5   0  0.3290656E-02  0.6966757E+03  0.7818609E-02  0.9722934E-01
        2   -1    0    0  501    0  0.00000000000E+00  0.00000000000E+00  0.65938093906E+03  0.65938093907E+03  0.25500000920E-02 0.  1.
       -2   -1    0    0    0  501  0.00000000000E+00  0.00000000000E+00 -0.18401997822E+03  0.18401997823E+03  0.25500000920E-02 0. -1.
    10030    2    1    2    0    0  0.00000000000E+00  0.00000000000E+00  0.47536096085E+03  0.84340091730E+03  0.69667572385E+03 0.  0.
        1    1    3    3  502    0 -0.33956997334E+03 -0.76265991890E+02  0.21992958303E+03  0.41169562765E+03  0.50400001928E-02 0. -1.
       -1    1    3    3    0  502  0.33956997334E+03  0.76265991890E+02  0.25543137782E+03  0.43170528965E+03  0.50400001928E-02 0.  1.
</event>
<event>
 5   0  0.1839038E-02  0.7066527E+03  0.7818609E-02  0.9705922E-01
        1   -1    0    0  501    0  0.00000000000E+00  0.00000000000E+00  0.73691793670E+03  0.73691793672E+03  0.50400001928E-02 0.  1.
       -1   -1    0    0    0  501  0.00000000000E+00  0.00000000000E+00 -0.16940759808E+03  0.16940759815E+03  0.50400001928E-02 0. -1.
    10030    2    1    2    0    0  0.00000000000E+00  0.00000000000E+00  0.56751033862E+03  0.90632553487E+03  0.70665266625E+03 0.  0.
        5    1    3    3  502    0 -0.86222181624E+02  0.34251903061E+03  0.29400417198E+03  0.45958034561E+03  0.46999998093E+01 0. -1.
       -5    1    3    3    0  502  0.86222181624E+02 -0.34251903061E+03  0.27350616664E+03  0.44674518925E+03  0.46999998093E+01 0.  1.
</event>
<event>
 5   0  0.1858013E-02  0.6958785E+03  0.7818609E-02  0.9724307E-01
       -1   -1    0    0    0  501  0.00000000000E+00  0.00000000000E+00  0.23981647147E+03  0.23981647152E+03  0.50400001928E-02 0. -1.
        1   -1    0    0  501    0  0.00000000000E+00  0.00000000000E+00 -0.50480982747E+03  0.50480982749E+03  0.50400001928E-02 0.  1.
    10030    2    1    2    0    0  0.00000000000E+00  0.00000000000E+00 -0.26499335600E+03  0.74462629901E+03  0.69587847104E+03 0.  0.
        2    1    3    3  502    0 -0.19050807440E+03 -0.38434603236E+01 -0.44401534849E+03  0.48317463541E+03  0.25500000920E-02 0.  1.
       -2    1    3    3    0  502  0.19050807440E+03  0.38434603236E+01  0.17902199249E+03  0.26145166361E+03  0.25500000920E-02 0. -1.
</event>
<event>
 5   0  0.2933851E-02  0.6979581E+03  0.7818609E-02  0.9720730E-01
       -2   -1    0    0    0  501  0.00000000000E+00  0.00000000000E+00  0.12891932031E+03  0.12891932034E+03  0.25500000920E-02 0.  1.
        2   -1    0    0  501    0  0.00000000000E+00  0.00000000000E+00 -0.94467133066E+03  0.94467133066E+03  0.25500000920E-02 0. -1.
    10030    2    1    2    0    0  0.00000000000E+00  0.00000000000E+00 -0.81575201034E+03  0.10735906510E+04  0.69795812448E+03 0.  0.
        2    1    3    3  502    0 -0.18587331341E+03  0.97230372639E+02  0.21120542913E+02  0.21082863027E+03  0.25500000920E-02 0.  1.
       -2    1    3    3    0  502  0.18587331341E+03 -0.97230372639E+02 -0.83687255326E+03  0.86276202072E+03  0.25500000920E-02 0. -1.
</event>
<event>
 5   0  0.2933851E-02  0.6989964E+03  0.7818609E-02  0.9718950E-01
        2   -1    0    0  501    0  0.00000000000E+00  0.00000000000E+00  0.47581482255E+03  0.47581482256E+03  0.25500000920E-02 0.  1.
       -2   -1    0    0    0  501  0.00000000000E+00  0.00000000000E+00 -0.25671541314E+03  0.25671541315E+03  0.25500000920E-02 0. -1.
    10030    2    1    2    0    0  0.00000000000E+00  0.00000000000E+00  0.21909940941E+03  0.73253023571E+03  0.69899641989E+03 0.  0.
        2    1    3    3  502    0  0.66619451787E+00 -0.34948693964E+03  0.11240703562E+03  0.36711974403E+03  0.25500000920E-02 0. -1.
       -2    1    3    3    0  502 -0.66619451787E+00  0.34948693964E+03  0.10669237379E+03  0.36541049167E+03  0.25500000920E-02 0.  1.
</event>
<event>
 5   0  0.1884172E-02  0.7065480E+03  0.7818609E-02  0.9706099E-01
        1   -1    0    0  501    0  0.00000000000E+00  0.00000000000E+00  0.10690356196E+04  0.10690356196E+04  0.50400001928E-02 0.  1.
       -1   -1    0    0    0  501  0.00000000000E+00  0.00000000000E+00 -0.11674307113E+03  0.11674307124E+03  0.50400001928E-02 0. -1.
    10030    2    1    2    0    0  0.00000000000E+00  0.00000000000E+00  0.95229254846E+03  0.11857786909E+04  0.70654795012E+03 0.  0.
        3    1    3    3  502    0 -0.18731514632E+02  0.34989380695E+03  0.55168608232E+03  0.65355496280E+03  0.10100000352E+00 0.  1.
       -3    1    3    3    0  502  0.18731514632E+02 -0.34989380695E+03  0.40060646615E+03  0.53222372805E+03  0.10100000352E+00 0. -1.
</event>
<event>
 5   0  0.1858013E-02  0.6962387E+03  0.7818609E-02  0.9723686E-01
        1   -1    0    0  501    0  0.00000000000E+00  0.00000000000E+00  0.11848654731E+03  0.11848654742E+03  0.50400001928E-02 0. -1.
       -1   -1    0    0    0  501  0.00000000000E+00  0.00000000000E+00 -0.10227918576E+04  0.10227918576E+04  0.50400001928E-02 0.  1.
    10030    2    1    2    0    0  0.00000000000E+00  0.00000000000E+00 -0.90430531027E+03  0.11412784050E+04  0.69623868291E+03 0.  0.
        2    1    3    3  502    0 -0.33846299016E+03 -0.23830185876E+02 -0.32452596582E+03  0.46951270054E+03  0.25500000920E-02 0. -1.
       -2    1    3    3    0  502  0.33846299016E+03  0.23830185876E+02 -0.57977934445E+03  0.67176570448E+03  0.25500000920E-02 0.  1.
</event>
<event>
 5   0  0.3290656E-02  0.7018120E+03  0.7818609E-02  0.9714138E-01
        2   -1    0    0  501    0  0.00000000000E+00  0.00000000000E+00  0.65586838526E+03  0.65586838527E+03  0.25500000920E-02 0.  1.
       -2   -1    0    0    0  501  0.00000000000E+00  0.00000000000E+00 -0.18774348510E+03  0.18774348512E+03  0.25500000920E-02 0. -1.
    10030    2    1    2    0    0  0.00000000000E+00  0.00000000000E+00  0.46812490017E+03  0.84361187038E+03  0.70181198743E+03 0.  0.
        1    1    3    3  502    0  0.28166688434E+03  0.20551293630E+03  0.28158845966E+03  0.44817838118E+03  0.50400001928E-02 0.  1.
       -1    1    3    3    0  502 -0.28166688434E+03 -0.20551293630E+03  0.18653644050E+03  0.39543348920E+03  0.50400001928E-02 0. -1.
</event>
<event>
 5   0  0.1951465E-02  0.6973450E+03  0.7818609E-02  0.9721783E-01
        1   -1    0    0  501    0  0.00000000000E+00  0.00000000000E+00  0.10120525988E+04  0.10120525988E+04  0.50400001928E-02 0. -1.
       -1   -1    0    0    0  501  0.00000000000E+00  0.00000000000E+00 -0.12012469771E+03  0.12012469781E+03  0.50400001928E-02 0.  1.
    10030    2    1    2    0    0  0.00000000000E+00  0.00000000000E+00  0.89192790112E+03  0.11321772967E+04  0.69734500089E+03 0.  0.
        4    1    3    3  502    0  0.23255235789E+03 -0.11849763254E+03  0.70615209091E+02  0.27038936505E+03  0.12699999809E+01 0.  1.
       -4    1    3    3    0  502 -0.23255235789E+03  0.11849763254E+03  0.82131269203E+03  0.86178793161E+03  0.12699999809E+01 0. -1.
</event>
<event>
 5   0  0.3290656E-02  0.7050407E+03  0.7818609E-02  0.9708651E-01
        2   -1    0    0  501    0  0.00000000000E+00  0.00000000000E+00  0.46471548927E+03  0.46471548928E+03  0.25500000920E-02 0.  1.
       -2   -1    0    0    0  501  0.00000000000E+00  0.00000000000E+00 -0.26741221458E+03  0.26741221459E+03  0.25500000920E-02 0. -1.
    10030    2    1    2    0    0  0.00000000000E+00  0.00000000000E+00  0.19730327469E+03  0.73212770388E+03  0.70504070278E+03 0.  0.
        1    1    3    3  502    0  0.25281111346E+01  0.29434488130E+03 -0.10277301510E+03  0.31178132265E+03  0.50400001928E-02 0. -1.
       -1    1    3    3    0  502 -0.25281111346E+01 -0.29434488130E+03  0.30007628979E+03  0.42034638123E+03  0.50400001928E-02 0.  1.
</event>
<event>
 5   0  0.1969818E-02  0.7011558E+03  0.7818609E-02  0.9715258E-01
        1   -1    0    0  501    0  0.00000000000E+00  0.00000000000E+00  0.22752044837E+03  0.22752044843E+03  0.50400001928E-02 0.  1.
       -1   -1    0    0    0  501  0.00000000000E+00  0.00000000000E+00 -0.54019260407E+03  0.54019260409E+03  0.50400001928E-02 0. -1.
    10030    2    1    2    0    0  0.00000000000E+00  0.00000000000E+00 -0.31267215569E+03  0.76771305252E+03  0.70115579871E+03 0.  0.
        1    1    3    3  502    0 -0.23491394659E+03  0.24874287400E+03 -0.24006229730E+03  0.41795632102E+03  0.50400001928E-02 0.  1.
       -1    1    3    3    0  502  0.23491394659E+03 -0.24874287400E+03 -0.72609858396E+02  0.34975673150E+03  0.50400001928E-02 0. -1.
</event>
<event>
 5   0  0.3183963E-02  0.6638324E+03  0.7818609E-02  0.9781164E-01
        2   -1    0    0  501    0  0.00000000000E+00  0.00000000000E+00  0.52059607881E+03  0.52059607882E+03  0.25500000920E-02 0.  1.
       -2   -1    0    0    0  501  0.00000000000E+00  0.00000000000E+00 -0.21161967884E+03  0.21161967885E+03  0.25500000920E-02 0. -1.
    10030    2    1    2    0    0  0.00000000000E+00  0.00000000000E+00  0.30897639998E+03  0.73221575767E+03  0.66383243370E+03 0.  0.
        4    1    3    3  502    0 -0.16556538283E+03  0.25019972614E+03 -0.21045343937E+01  0.30002973339E+03  0.12699999809E+01 0. -1.
       -4    1    3    3    0  502  0.16556538283E+03 -0.25019972614E+03  0.31108093437E+03  0.43218602428E+03  0.12699999809E+01 0.  1.
</event>
<event>
 5   0  0.1839038E-02  0.7956694E+03  0.7818609E-02  0.9566307E-01
        1   -1    0    0  501    0  0.00000000000E+00  0.00000000000E+00  0.19684149463E+04  0.19684149463E+04  0.50400001928E-02 0. -1.
       -1   -1    0    0    0  501  0.00000000000E+00  0.00000000000E+00 -0.80406046308E+02  0.80406046466E+02  0.50400001928E-02 0.  1.
    10030    2    1    2    0    0  0.00000000000E+00  0.00000000000E+00  0.18880089000E+04  0.20488209927E+04  0.79566943762E+03 0.  0.
        5    1    3    3  502    0 -0.17207193350E+03  0.19101229749E+02  0.21761508071E+02  0.17455446287E+03  0.46999998093E+01 0.  1.
       -5    1    3    3    0  502  0.17207193350E+03 -0.19101229749E+02  0.18662473919E+04  0.18742665299E+04  0.46999998093E+01 0. -1.
</event>
<event>
 5   0  0.3184443E-02  0.7962474E+03  0.7818609E-02  0.9565465E-01
        2   -1    0    0  501    0  0.00000000000E+00  0.00000000000E+00  0.21105140673E+03  0.21105140674E+03  0.25500000920E-02 0.  1.
       -2   -1    0    0    0  501  0.00000000000E+00  0.00000000000E+00 -0.75101361949E+03  0.75101361949E+03  0.25500000920E-02 0. -1.
    10030    2    1    2    0    0  0.00000000000E+00  0.00000000000E+00 -0.53996221276E+03  0.96206502623E+03  0.79624740093E+03 0.  0.
        3    1    3    3  502    0  0.22356426891E+03 -0.32372016214E+03 -0.19622105070E+03  0.43963443524E+03  0.10100000352E+00 0. -1.
       -3    1    3    3    0  502 -0.22356426891E+03  0.32372016214E+03 -0.34374116207E+03  0.52243059100E+03  0.10100000352E+00 0.  1.
</event>
<event>
 5   0  0.2933851E-02  0.7004642E+03  0.7818609E-02  0.9716439E-01
        2   -1    0    0  501    0  0.00000000000E+00  0.00000000000E+00  0.55274984871E+03  0.55274984872E+03  0.25500000920E-02 0. -1.
       -2   -1    0    0    0  501  0.00000000000E+00  0.00000000000E+00 -0.22191325876E+03  0.22191325878E+03  0.25500000920E-02 0.  1.
    10030    2    1    2    0    0  0.00000000000E+00  0.00000000000E+00  0.33083658995E+03  0.77466310749E+03  0.70046418957E+03 0.  0.
        2    1    3    3  502    0 -0.32332475840E+03 -0.89013026538E+02  0.27711322224E+03  0.43503328175E+03  0.25500000920E-02 0.  1.
       -2    1    3    3    0  502  0.32332475840E+03  0.89013026538E+02  0.53723367709E+02  0.33962982574E+03  0.25500000920E-02 0. -1.
</event>
<event>
 5   0  0.3290656E-02  0.6998000E+03  0.7818609E-02  0.9717574E-01
        2   -1    0    0  501    0  0.00000000000E+00  0.00000000000E+00  0.17183542462E+04  0.17183542462E+04  0.25500000920E-02 0. -1.
       -2   -1    0    0    0  501  0.00000000000E+00  0.00000000000E+00 -0.71248405881E+02  0.71248405927E+02  0.25500000920E-02 0.  1.
    10030    2    1    2    0    0  0.00000000000E+00  0.00000000000E+00  0.16471058403E+04  0.17896026521E+04  0.69979997376E+03 0.  0.
        1    1    3    3  502    0  0.12656595551E+03  0.32616397603E+03  0.80999185642E+03  0.88232005975E+03  0.50400001928E-02 0. -1.
       -1    1    3    3    0  502 -0.12656595551E+03 -0.32616397603E+03  0.83711398386E+03  0.90728259234E+03  0.50400001928E-02 0.  1.
</event>
<event>
 5   0  0.1858013E-02  0.6994591E+03  0.7818609E-02  0.9718158E-01
        1   -1    0    0  501    0  0.00000000000E+00  0.00000000000E+00  0.41908076959E+03  0.41908076962E+03  0.50400001928E-02 0.  1.
       -1   -1    0    0    0  501  0.00000000000E+00  0.00000000000E+00 -0.29185487944E+03  0.29185487949E+03  0.50400001928E-02 0. -1.
    10030    2    1    2    0    0  0.00000000000E+00  0.00000000000E+00  0.12722589015E+03  0.71093564910E+03  0.69945912679E+03 0.  0.
        2    1    3    3  502    0 -0.28720846547E+03  0.19790797724E+03  0.89615852971E+02  0.36012118960E+03  0.25500000920E-02 0. -1.
       -2    1    3    3    0  502  0.28720846547E+03 -0.19790797724E+03  0.37610037174E+02  0.35081445950E+03  0.25500000920E-02 0.  1.
</event>
<event>
 5   0  0.2933851E-02  0.6987422E+03  0.7818609E-02  0.9719386E-01
       -2   -1    0    0    0  501  0.00000000000E+00  0.00000000000E+00  0.52680333165E+02  0.52680333227E+02  0.25500000920E-02 0. -1.
        2   -1    0    0  501    0  0.00000000000E+00  0.00000000000E+00 -0.23169968367E+04  0.23169968367E+04  0.25500000920E-02 0.  1.
    10030    2    1    2    0    0  0.00000000000E+00  0.00000000000E+00 -0.22643165035E+04  0.23696771699E+04  0.69874219959E+03 0.  0.
        2    1    3    3  502    0  0.22405735742E+03  0.23044703722E+02 -0.20378917529E+04  0.20503013325E+04  0.25500000920E-02 0.  1.
       -2    1    3    3    0  502 -0.22405735742E+03 -0.23044703722E+02 -0.22642475065E+03  0.31937583737E+03  0.25500000920E-02 0. -1.
</event>
<event>
 5   0  0.1884172E-02  0.7031540E+03  0.7818609E-02  0.9711854E-01
        1   -1    0    0  501    0  0.00000000000E+00  0.00000000000E+00  0.97542552286E+03  0.97542552287E+03  0.50400001928E-02 0. -1.
       -1   -1    0    0    0  501  0.00000000000E+00  0.00000000000E+00 -0.12672048245E+03  0.12672048255E+03  0.50400001928E-02 0.  1.
    10030    2    1    2    0    0  0.00000000000E+00  0.00000000000E+00  0.84870504041E+03  0.11021460054E+04  0.70315401703E+03 0.  0.
        3    1    3    3  502    0  0.26893813401E+02  0.12257002291E+02  0.97347486491E+03  0.97392342313E+03  0.10100000352E+00 0. -1.
       -3    1    3    3    0  502 -0.26893813401E+02 -0.12257002291E+02 -0.12476982450E+03  0.12822258230E+03  0.10100000352E+00 0.  1.
</event>
<event>
 5   0  0.1951465E-02  0.7177343E+03  0.7818609E-02  0.9687376E-01
       -1   -1    0    0    0  501  0.00000000000E+00  0.00000000000E+00  0.48568864042E+03  0.48568864045E+03  0.50400001928E-02 0.  1.
        1   -1    0    0  501    0  0.00000000000E+00  0.00000000000E+00 -0.26516085719E+03  0.26516085723E+03  0.50400001928E-02 0. -1.
    10030    2    1    2    0    0  0.00000000000E+00  0.00000000000E+00  0.22052778323E+03  0.75084949768E+03  0.71773425792E+03 0.  0.
        4    1    3    3  502    0  0.67035824717E+02 -0.72111566192E+02  0.47128042499E+03  0.48145688452E+03  0.12699999809E+01 0.  1.
       -4    1    3    3    0  502 -0.67035824717E+02  0.72111566192E+02 -0.25075264176E+03  0.26939261316E+03  0.12699999809E+01 0. -1.
</event>
<event>
 5   0  0.1858013E-02  0.7127875E+03  0.7818609E-02  0.9695610E-01
       -1   -1    0    0    0  501  0.00000000000E+00  0.00000000000E+00  0.21355902872E+03  0.21355902878E+03  0.50400001928E-02 0. -1.
        1   -1    0    0  501    0  0.00000000000E+00  0.00000000000E+00 -0.59476069629E+03  0.59476069631E+03  0.50400001928E-02 0.  1.
    10030    2    1    2    0    0  0.00000000000E+00  0.00000000000E+00 -0.38120166757E+03  0.80831972509E+03  0.71278753259E+03 0.  0.
        2    1    3    3  502    0  0.19535722531E+03 -0.85000006671E+02 -0.51459723476E+03  0.55695579775E+03  0.25500000920E-02 0.  1.
       -2    1    3    3    0  502 -0.19535722531E+03  0.85000006671E+02  0.13339556720E+03  0.25136392734E+03  0.25500000920E-02 0. -1.
</event>
<event>
 5   0  0.1839038E-02  0.6857045E+03  0.7818609E-02  0.9741997E-01
        1   -1    0    0  501    0  0.00000000000E+00  0.00000000000E+00  0.21965731322E+03  0.21965731327E+03  0.50400001928E-02 0. -1.
       -1   -1    0    0    0  501  0.00000000000E+00  0.00000000000E+00 -0.53514108006E+03  0.53514108009E+03  0.50400001928E-02 0.  1.
    10030    2    1    2    0    0  0.00000000000E+00  0.00000000000E+00 -0.31548376685E+03  0.75479839336E+03  0.68570446074E+03 0.  0.
        5    1    3    3  502    0  0.21843636180E+03 -0.26082407430E+03 -0.11127558349E+03  0.35797763529E+03  0.46999998093E+01 0.  1.
       -5    1    3    3    0  502 -0.21843636180E+03  0.26082407430E+03 -0.20420818336E+03  0.39682075807E+03  0.46999998093E+01 0. -1.
</event>
<event>
 5   0  0.3184443E-02  0.7001423E+03  0.7818609E-02  0.9716989E-01
       -2   -1    0    0    0  501  0.00000000000E+00  0.00000000000E+00  0.23808502806E+03  0.23808502808E+03  0.25500000920E-02 0.  1.
        2   -1    0    0  501    0  0.00000000000E+00  0.00000000000E+00 -0.51473122660E+03  0.51473122661E+03  0.25500000920E-02 0. -1.
    10030    2    1    2    0    0  0.00000000000E+00  0.00000000000E+00 -0.27664619854E+03  0.75281625469E+03  0.70014226708E+03 0.  0.
        3    1    3    3  502    0  0.99734378294E+02  0.26784550558E+03  0.79027338971E+02  0.29653581837E+03  0.10100000352E+00 0.  1.
       -3    1    3    3    0  502 -0.99734378294E+02 -0.26784550558E+03 -0.35567353751E+03  0.45628043631E+03  0.10100000352E+00 0. -1.
</event>
<event>
 5   0  0.3183963E-02  0.6973647E+03  0.7818609E-02  0.9721750E-01
        2   -1    0    0  501    0  0.00000000000E+00  0.00000000000E+00  0.25112066671E+03  0.25112066672E+03  0.25500000920E-02 0. -1.
       -2   -1    0    0    0  501  0.00000000000E+00  0.00000000000E+00 -0.48414727063E+03  0.48414727063E+03  0.25500000920E-02 0.  1.
    10030    2    1    2    0    0  0.00000000000E+00  0.00000000000E+00 -0.23302660392E+03  0.73526793735E+03  0.69736471202E+03 0.  0.
        4    1    3    3  502    0  0.12800941047E+02 -0.27513430565E+03 -0.34194507588E+03  0.43907948945E+03  0.12699999809E+01 0.  1.
       -4    1    3    3    0  502 -0.12800941047E+02  0.27513430565E+03  0.10891847196E+03  0.29618844790E+03  0.12699999809E+01 0. -1.
</event>
<event>
 5   0  0.3113940E-02  0.7111089E+03  0.7818609E-02  0.9698421E-01
        2   -1    0    0  501    0  0.00000000000E+00  0.00000000000E+00  0.13556090649E+04  0.13556090649E+04  0.25500000920E-02 0. -1.
       -2   -1    0    0    0  501  0.00000000000E+00  0.00000000000E+00 -0.93256210249E+02  0.93256210284E+02  0.25500000920E-02 0.  1.
    10030    2    1    2    0    0  0.00000000000E+00  0.00000000000E+00  0.12623528547E+04  0.14488652752E+04  0.71110889180E+03 0.  0.
        5    1    3    3  502    0  0.31757083993E+03  0.15976643295E+03  0.62199139292E+03  0.71642999263E+03  0.46999998093E+01 0.  1.
       -5    1    3    3    0  502 -0.31757083993E+03 -0.15976643295E+03  0.64036146173E+03  0.73243528256E+03  0.46999998093E+01 0. -1.
</event>
<event>
 5   0  0.1858013E-02  0.6679239E+03  0.7818609E-02  0.9773716E-01
       -1   -1    0    0    0  501  0.00000000000E+00  0.00000000000E+00  0.44039208180E+03  0.44039208182E+03  0.50400001928E-02 0.  1.
        1   -1    0    0  501    0  0.00000000000E+00  0.00000000000E+00 -0.25325289402E+03  0.25325289407E+03  0.50400001928E-02 0. -1.
    10030    2    1    2    0    0  0.00000000000E+00  0.00000000000E+00  0.18713918778E+03  0.69364497590E+03  0.66792385568E+03 0.  0.
        2    1    3    3  502    0 -0.20914365969E+03  0.22219528834E+03 -0.47372395828E+02  0.30879760433E+03  0.25500000920E-02 0. -1.
       -2    1    3    3    0  502  0.20914365969E+03 -0.22219528834E+03  0.23451158360E+03  0.38484737156E+03  0.25500000920E-02 0.  1.
</event>
<event>
 5   0  0.1233912E-02  0.7022910E+03  0.7818609E-02  0.9713322E-01
        4   -1    0    0  501    0  0.00000000000E+00  0.00000000000E+00  0.42290066834E+03  0.42290257528E+03  0.12699999809E+01 0.  1.
       -4   -1    0    0    0  501  0.00000000000E+00  0.00000000000E+00 -0.29156134503E+03  0.29156411099E+03  0.12699999809E+01 0. -1.
    10030    2    1    2    0    0  0.00000000000E+00  0.00000000000E+00  0.13133932330E+03  0.71446668627E+03  0.70229098523E+03 0.  0.
        3    1    3    3  502    0  0.34022146018E+03  0.77243399940E+02  0.25155087734E+02  0.34978561069E+03  0.10100000352E+00 0. -1.
       -3    1    3    3    0  502 -0.34022146018E+03 -0.77243399940E+02  0.10618423557E+03  0.36468107558E+03  0.10100000352E+00 0.  1.
</event>
<event>
 5   0  0.1233912E-02  0.7045767E+03  0.7818609E-02  0.9709437E-01
       -3   -1    0    0    0  501  0.00000000000E+00  0.00000000000E+00  0.16563960711E+03  0.16563963790E+03  0.10100000352E+00 0. -1.
        3   -1    0    0  501    0  0.00000000000E+00  0.00000000000E+00 -0.74925958016E+03  0.74925958697E+03  0.10100000352E+00 0.  1.
    10030    2    1    2    0    0  0.00000000000E+00  0.00000000000E+00 -0.58361997306E+03  0.91489922487E+03  0.70457669470E+03 0.  0.
        2    1    3    3  502    0  0.16579001595E+03  0.24795013676E+03 -0.53522928672E+03  0.61272831588E+03  0.25500000920E-02 0.  1.
       -2    1    3    3    0  502 -0.16579001595E+03 -0.24795013676E+03 -0.48390686337E+02  0.30217090899E+03  0.25500000920E-02 0. -1.
</event>
<event>
 5   0  0.1839038E-02  0.7265244E+03  0.7818609E-02  0.9672917E-01
        1   -1    0    0  501    0  0.00000000000E+00  0.00000000000E+00  0.65135471050E+03  0.65135471052E+03  0.50400001928E-02 0.  1.
       -1   -1    0    0    0  501  0.00000000000E+00  0.00000000000E+00 -0.20259226527E+03  0.20259226533E+03  0.50400001928E-02 0. -1.
    10030    2    1    2    0    0  0.00000000000E+00  0.00000000000E+00  0.44876244524E+03  0.85394697585E+03  0.72652440105E+03 0.  0.
        5    1    3    3  502    0  0.27059247474E+03  0.14543945486E+03 -0.34267968870E+01  0.30725682311E+03  0.46999998093E+01 0. -1.
       -5    1    3    3    0  502 -0.27059247474E+03 -0.14543945486E+03  0.45218924212E+03  0.54669015274E+03  0.46999998093E+01 0.  1.
</event>
<event>
 5   0  0.1951465E-02  0.6944044E+03  0.7818609E-02  0.9726850E-01
       -1   -1    0    0    0  501  0.00000000000E+00  0.00000000000E+00  0.36282344313E+03  0.36282344316E+03  0.50400001928E-02 0.  1.
        1   -1    0    0  501    0  0.00000000000E+00  0.00000000000E+00 -0.33225351415E+03  0.33225351419E+03  0.50400001928E-02 0. -1.
    10030    2    1    2    0    0  0.00000000000E+00  0.00000000000E+00  0.30569928977E+02  0.69507695736E+03  0.69440438945E+03 0.  0.
        4    1    3    3  502    0 -0.55641549296E+02  0.27853194187E+03  0.21515742304E+03  0.35632899719E+03  0.12699999809E+01 0.  1.
       -4    1    3    3    0  502  0.55641549296E+02 -0.27853194187E+03 -0.18458749406E+03  0.33874796016E+03  0.12699999809E+01 0. -1.
</event>
<event>
 5   0  0.1969818E-02  0.7122144E+03  0.7818609E-02  0.9696569E-01
       -1   -1    0    0    0  501  0.00000000000E+00  0.00000000000E+00  0.72233501112E+02  0.72233501288E+02  0.50400001928E-02 0.  1.
        1   -1    0    0  501    0  0.00000000000E+00  0.00000000000E+00 -0.17555889143E+04  0.17555889143E+04  0.50400001928E-02 0. -1.
    10030    2    1    2    0    0  0.00000000000E+00  0.00000000000E+00 -0.16833554132E+04  0.18278224156E+04  0.71221438896E+03 0.  0.
        1    1    3    3  502    0 -0.73871176283E+02 -0.13797372700E+03 -0.20758111945E+02  0.15787526489E+03  0.50400001928E-02 0.  1.
       -1    1    3    3    0  502  0.73871176283E+02  0.13797372700E+03 -0.16625973012E+04  0.16699471507E+04  0.50400001928E-02 0. -1.
</event>
<event>
 5   0  0.3183963E-02  0.6990758E+03  0.7818609E-02  0.9718814E-01
        2   -1    0    0  501    0  0.00000000000E+00  0.00000000000E+00  0.82631740630E+03  0.82631740630E+03  0.25500000920E-02 0.  1.
       -2   -1    0    0    0  501  0.00000000000E+00  0.00000000000E+00 -0.14785689561E+03  0.14785689563E+03  0.25500000920E-02 0. -1.
    10030    2    1    2    0    0  0.00000000000E+00  0.00000000000E+00  0.67846051069E+03  0.97417430193E+03  0.69907575124E+03 0.  0.
        4    1    3    3  502    0 -0.10269092495E+03  0.30038220313E+03  0.13537517198E+03  0.34511294399E+03  0.12699999809E+01 0. -1.
       -4    1    3    3    0  502  0.10269092495E+03 -0.30038220313E+03  0.54308533872E+03  0.62906135794E+03  0.12699999809E+01 0.  1.
</event>
<event>
 5   0  0.3113940E-02  0.6986218E+03  0.7818609E-02  0.9719592E-01
       -2   -1    0    0    0  501  0.00000000000E+00  0.00000000000E+00  0.55907308072E+02  0.55907308130E+02  0.25500000920E-02 0. -1.
        2   -1    0    0  501    0  0.00000000000E+00  0.00000000000E+00 -0.21825073558E+04  0.21825073558E+04  0.25500000920E-02 0.  1.
    10030    2    1    2    0    0  0.00000000000E+00  0.00000000000E+00 -0.21266000477E+04  0.22384146639E+04  0.69862181808E+03 0.  0.
        5    1    3    3  502    0 -0.26841595487E+03 -0.21745226274E+03 -0.89794500071E+03  0.96211222095E+03  0.46999998093E+01 0. -1.
       -5    1    3    3    0  502  0.26841595487E+03  0.21745226274E+03 -0.12286550470E+04  0.12763024430E+04  0.46999998093E+01 0.  1.
</event>
<event>
 5   0  0.1839038E-02  0.7051431E+03  0.7818609E-02  0.9708477E-01
        1   -1    0    0  501    0  0.00000000000E+00  0.00000000000E+00  0.74305996580E+03  0.74305996582E+03  0.50400001928E-02 0. -1.
       -1   -1    0    0    0  501  0.00000000000E+00  0.00000000000E+00 -0.16729026903E+03  0.16729026910E+03  0.50400001928E-02 0.  1.
    10030    2    1    2    0    0  0.00000000000E+00  0.00000000000E+00  0.57576969678E+03  0.91035023493E+03  0.70514311065E+03 0.  0.
        5    1    3    3  502    0 -0.49513126116E+02  0.74637194573E+02 -0.15231591581E+03  0.17676110624E+03  0.46999998093E+01 0.  1.
       -5    1    3    3    0  502  0.49513126116E+02 -0.74637194573E+02  0.72808561259E+03  0.73358912869E+03  0.46999998093E+01 0. -1.
</event>
<event>
 5   0  0.3290656E-02  0.6579034E+03  0.7818609E-02  0.9792061E-01
        2   -1    0    0  501    0  0.00000000000E+00  0.00000000000E+00  0.12460662796E+04  0.12460662796E+04  0.25500000920E-02 0. -1.
       -2   -1    0    0    0  501  0.00000000000E+00  0.00000000000E+00 -0.86840659634E+02  0.86840659671E+02  0.25500000920E-02 0.  1.
    10030    2    1    2    0    0  0.00000000000E+00  0.00000000000E+00  0.11592256199E+04  0.13329069392E+04  0.65790339015E+03 0.  0.
        1    1    3    3  502    0 -0.30824989399E+03 -0.43613055149E+02  0.36435060390E+03  0.47924050154E+03  0.50400001928E-02 0.  1.
       -1    1    3    3    0  502  0.30824989399E+03  0.43613055149E+02  0.79487501604E+03  0.85366643771E+03  0.50400001928E-02 0. -1.
</event>
<event>
 5   0  0.2933851E-02  0.7081054E+03  0.7818609E-02  0.9703470E-01
        2   -1    0    0  501    0  0.00000000000E+00  0.00000000000E+00  0.12703204112E+04  0.12703204112E+04  0.25500000920E-02 0.  1.
       -2   -1    0    0    0  501  0.00000000000E+00  0.00000000000E+00 -0.98678513225E+02  0.98678513258E+02  0.25500000920E-02 0. -1.
    10030    2    1    2    0    0  0.00000000000E+00  0.00000000000E+00  0.11716418980E+04  0.13689989245E+04  0.70810544278E+03 0.  0.
        2    1    3    3  502    0 -0.82660249799E+02 -0.34492494736E+02  0.12480547430E+04  0.12512645965E+04  0.25500000920E-02 0.  1.
       -2    1    3    3    0  502  0.82660249799E+02  0.34492494736E+02 -0.76412844982E+02  0.11773432794E+03  0.25500000920E-02 0. -1.
</event>
<event>
 5   0  0.2933851E-02  0.7011371E+03  0.7818609E-02  0.9715290E-01
        2   -1    0    0  501    0  0.00000000000E+00  0.00000000000E+00  0.15598344741E+04  0.15598344741E+04  0.25500000920E-02 0. -1.
       -2   -1    0    0    0  501  0.00000000000E+00  0.00000000000E+00 -0.78789334809E+02  0.78789334851E+02  0.25500000920E-02 0.  1.
    10030    2    1    2    0    0  0.00000000000E+00  0.00000000000E+00  0.14810451393E+04  0.16386238089E+04  0.70113713541E+03 0.  0.
        2    1    3    3  502    0 -0.21466038744E+03  0.24963211087E+02  0.95399464701E+02  0.23622722476E+03  0.25500000920E-02 0.  1.
       -2    1    3    3    0  502  0.21466038744E+03 -0.24963211087E+02  0.13856456746E+04  0.14023965842E+04  0.25500000920E-02 0. -1.
</event>
<event>
 5   0  0.1951465E-02  0.7297819E+03  0.7818609E-02  0.9667614E-01
       -1   -1    0    0    0  501  0.00000000000E+00  0.00000000000E+00  0.37087260620E+03  0.37087260623E+03  0.50400001928E-02 0.  1.
        1   -1    0    0  501    0  0.00000000000E+00  0.00000000000E+00 -0.35900579359E+03  0.35900579362E+03  0.50400001928E-02 0. -1.
    10030    2    1    2    0    0  0.00000000000E+00  0.00000000000E+00  0.11866812612E+02  0.72987839986E+03  0.72978192451E+03 0.  0.
        4    1    3    3  502    0 -0.31301397134E+02 -0.29124128631E+03 -0.21167876036E+03  0.36140112728E+03  0.12699999809E+01 0. -1.
       -4    1    3    3    0  502  0.31301397134E+02  0.29124128631E+03  0.22354557297E+03  0.36847727258E+03  0.12699999809E+01 0.  1.
</event>
<event>
 5   0  0.1969818E-02  0.6981223E+03  0.7818609E-02  0.9720449E-01
        1   -1    0    0  501    0  0.00000000000E+00  0.00000000000E+00  0.64364070348E+03  0.64364070350E+03  0.50400001928E-02 0.  1.
       -1   -1    0    0    0  501  0.00000000000E+00  0.00000000000E+00 -0.18930389330E+03  0.18930389337E+03  0.50400001928E-02 0. -1.
    10030    2    1    2    0    0  0.00000000000E+00  0.00000000000E+00  0.45433681018E+03  0.83294459687E+03  0.69812231334E+03 0.  0.
        1    1    3    3  502    0 -0.48072049185E+02  0.50151471715E+02 -0.18097256065E+03  0.19384829058E+03  0.50400001928E-02 0. -1.
       -1    1    3    3    0  502  0.48072049185E+02 -0.50151471715E+02  0.63530937083E+03  0.63909630629E+03  0.50400001928E-02 0.  1.
</event>
<event>
 5   0  0.3113940E-02  0.7002257E+03  0.7818609E-02  0.9716846E-01
        2   -1    0    0  501    0  0.00000000000E+00  0.00000000000E+00  0.30603061526E+03  0.30603061527E+03  0.25500000920E-02 0.  1.
       -2   -1    0    0    0  501  0.00000000000E+00  0.00000000000E+00 -0.40054490923E+03  0.40054490924E+03  0.25500000920E-02 0. -1.
    10030    2    1    2    0    0  0.00000000000E+00  0.00000000000E+00 -0.94514293973E+02  0.70657552451E+03  0.70022569224E+03 0.  0.
        5    1    3    3  502    0 -0.23763260033E+02 -0.30642362108E+03  0.12188384644E+03  0.33066280424E+03  0.46999998093E+01 0.  1.
       -5    1    3    3    0  502  0.23763260033E+02  0.30642362108E+03 -0.21639814042E+03  0.37591272027E+03  0.46999998093E+01 0. -1.
</event>
<event>
 5   0  0.1839038E-02  0.6836216E+03  0.7818609E-02  0.9745659E-01
       -1   -1    0    0    0  501  0.00000000000E+00  0.00000000000E+00  0.36611486693E+03  0.36611486697E+03  0.50400001928E-02 0. -1.
        1   -1    0    0  501    0  0.00000000000E+00  0.00000000000E+00 -0.31912015072E+03  0.31912015076E+03  0.50400001928E-02 0.  1.
    10030    2    1    2    0    0  0.00000000000E+00  0.00000000000E+00  0.46994716213E+02  0.68523501773E+03  0.68362162500E+03 0.  0.
        5    1    3    3  502    0 -0.34591907061E+02  0.33265059322E+02  0.36268832897E+03  0.36587986850E+03  0.46999998093E+01 0. -1.
       -5    1    3    3    0  502  0.34591907061E+02 -0.33265059322E+02 -0.31569361275E+03  0.31935514923E+03  0.46999998093E+01 0.  1.
</event>
<event>
 5   0  0.2933851E-02  0.7025057E+03  0.7818609E-02  0.9712957E-01
       -2   -1    0    0    0  501  0.00000000000E+00  0.00000000000E+00  0.63224109071E+02  0.63224109122E+02  0.25500000920E-02 0. -1.
        2   -1    0    0  501    0  0.00000000000E+00  0.00000000000E+00 -0.19514480495E+04  0.19514480495E+04  0.25500000920E-02 0.  1.
    10030    2    1    2    0    0  0.00000000000E+00  0.00000000000E+00 -0.18882239405E+04  0.20146721587E+04  0.70250569929E+03 0.  0.
        2    1    3    3  502    0  0.11500366621E+03  0.32626810098E+03 -0.11185992572E+04  0.11708719039E+04  0.25500000920E-02 0.  1.
       -2    1    3    3    0  502 -0.11500366621E+03 -0.32626810098E+03 -0.76962468323E+03  0.84380025480E+03  0.25500000920E-02 0. -1.
</event>
<event>
 5   0  0.3183963E-02  0.6856776E+03  0.7818609E-02  0.9742044E-01
        2   -1    0    0  501    0  0.00000000000E+00  0.00000000000E+00  0.42530377661E+03  0.42530377661E+03  0.25500000920E-02 0. -1.
       -2   -1    0    0    0  501  0.00000000000E+00  0.00000000000E+00 -0.27636347230E+03  0.27636347232E+03  0.25500000920E-02 0.  1.
    10030    2    1    2    0    0  0.00000000000E+00  0.00000000000E+00  0.14894030430E+03  0.70166724893E+03  0.68567755831E+03 0.  0.
        4    1    3    3  502    0  0.17030965064E+03 -0.10774945819E+03 -0.20934470232E+03  0.29058929803E+03  0.12699999809E+01 0.  1.
       -4    1    3    3    0  502 -0.17030965064E+03  0.10774945819E+03  0.35828500662E+03  0.41107795090E+03  0.12699999809E+01 0. -1.
</event>
<event>
 5   0  0.1951465E-02  0.6756266E+03  0.7818609E-02  0.9759846E-01
        1   -1    0    0  501    0  0.00000000000E+00  0.00000000000E+00  0.14138449846E+03  0.14138449855E+03  0.50400001928E-02 0. -1.
       -1   -1    0    0    0  501  0.00000000000E+00  0.00000000000E+00 -0.80714514638E+03  0.80714514640E+03  0.50400001928E-02 0.  1.
    10030    2    1    2    0    0  0.00000000000E+00  0.00000000000E+00 -0.66576064792E+03  0.94852964495E+03  0.67562655885E+03 0.  0.
        4    1    3    3  502    0  0.86144347941E+02  0.32587406938E+03 -0.30144237900E+03  0.45219893690E+03  0.12699999809E+01 0.  1.
       -4    1    3    3    0  502 -0.86144347941E+02 -0.32587406938E+03 -0.36431826892E+03  0.49633070805E+03  0.12699999809E+01 0. -1.
</event>
<event>
 5   0  0.3113940E-02  0.6976911E+03  0.7818609E-02  0.9721189E-01
       -2   -1    0    0    0  501  0.00000000000E+00  0.00000000000E+00  0.81780619871E+02  0.81780619911E+02  0.25500000920E-02 0.  1.
        2   -1    0    0  501    0  0.00000000000E+00  0.00000000000E+00 -0.14880445317E+04  0.14880445317E+04  0.25500000920E-02 0. -1.
    10030    2    1    2    0    0  0.00000000000E+00  0.00000000000E+00 -0.14062639119E+04  0.15698251516E+04  0.69769106124E+03 0.  0.
        5    1    3    3  502    0  0.17224132992E+03 -0.15673793111E+03 -0.11882900368E+03  0.26148857890E+03  0.46999998093E+01 0.  1.
       -5    1    3    3    0  502 -0.17224132992E+03  0.15673793111E+03 -0.12874349082E+04  0.13083365727E+04  0.46999998093E+01 0. -1.
</event>
<event>
 5   0  0.3184443E-02  0.7050473E+03  0.7818609E-02  0.9708639E-01
       -2   -1    0    0    0  501  0.00000000000E+00  0.00000000000E+00  0.46720735395E+03  0.46720735395E+03  0.25500000920E-02 0. -1.
        2   -1    0    0  501    0  0.00000000000E+00  0.00000000000E+00 -0.26599090675E+03  0.26599090676E+03  0.25500000920E-02 0.  1.
    10030    2    1    2    0    0  0.00000000000E+00  0.00000000000E+00  0.20121644720E+03  0.73319826071E+03  0.70504725436E+03 0.  0.
        3    1    3    3  502    0  0.33374965551E+03  0.73167334116E+02  0.19085218868E+03  0.39136537846E+03  0.10100000352E+00 0. -1.
       -3    1    3    3    0  502 -0.33374965551E+03 -0.73167334116E+02  0.10364258525E+02  0.34183288225E+03  0.10100000352E+00 0.  1.
</event>
<event>
 5   0  0.3183963E-02  0.7107007E+03  0.7818609E-02  0.9699106E-01
       -2   -1    0    0    0  501  0.00000000000E+00  0.00000000000E+00  0.42497602187E+03  0.42497602187E+03  0.25500000920E-02 0.  1.
        2   -1    0    0  501    0  0.00000000000E+00  0.00000000000E+00 -0.29713171448E+03  0.29713171449E+03  0.25500000920E-02 0. -1.
    10030    2    1    2    0    0  0.00000000000E+00  0.00000000000E+00  0.12784430738E+03  0.72210773637E+03  0.71070065146E+03 0.  0.
        4    1    3    3  502    0  0.28490055806E+03  0.20589007889E+02  0.27869130209E+03  0.39907729826E+03  0.12699999809E+01 0.  1.
       -4    1    3    3    0  502 -0.28490055806E+03 -0.20589007889E+02 -0.15084699470E+03  0.32303043810E+03  0.12699999809E+01 0. -1.
</event>
<event>
 5   0  0.1858013E-02  0.7083841E+03  0.7818609E-02  0.9703001E-01
       -1   -1    0    0    0  501  0.00000000000E+00  0.00000000000E+00  0.23964059271E+03  0.23964059277E+03  0.50400001928E-02 0. -1.
        1   -1    0    0  501    0  0.00000000000E+00  0.00000000000E+00 -0.52350070432E+03  0.52350070434E+03  0.50400001928E-02 0.  1.
    10030    2    1    2    0    0  0.00000000000E+00  0.00000000000E+00 -0.28386011160E+03  0.76314129711E+03  0.70838413053E+03 0.  0.
        2    1    3    3  502    0 -0.49828620088E+02  0.35066912565E+03 -0.14134788719E+03  0.38135410353E+03  0.25500000920E-02 0. -1.
       -2    1    3    3    0  502  0.49828620088E+02 -0.35066912565E+03 -0.14251222441E+03  0.38178719357E+03  0.25500000920E-02 0.  1.
</event>
<event>
 5   0  0.3113940E-02  0.7036759E+03  0.7818609E-02  0.9710967E-01
       -2   -1    0    0    0  501  0.00000000000E+00  0.00000000000E+00  0.21767132827E+03  0.21767132829E+03  0.25500000920E-02 0.  1.
        2   -1    0    0  501    0  0.00000000000E+00  0.00000000000E+00 -0.56870117450E+03  0.56870117450E+03  0.25500000920E-02 0. -1.
    10030    2    1    2    0    0  0.00000000000E+00  0.00000000000E+00 -0.35102984623E+03  0.78637250279E+03  0.70367589145E+03 0.  0.
        5    1    3    3  502    0  0.14979003542E+03  0.94678260903E+02 -0.51515086912E+03  0.54479678391E+03  0.46999998093E+01 0. -1.
       -5    1    3    3    0  502 -0.14979003542E+03 -0.94678260903E+02  0.16412102290E+03  0.24157571889E+03  0.46999998093E+01 0.  1.
</event>
<event>
 5   0  0.1884172E-02  0.7051566E+03  0.7818609E-02  0.9708454E-01
       -1   -1    0    0    0  501  0.00000000000E+00  0.00000000000E+00  0.36852965002E+03  0.36852965005E+03  0.50400001928E-02 0.  1.
        1   -1    0    0  501    0  0.00000000000E+00  0.00000000000E+00 -0.33731742940E+03  0.33731742944E+03  0.50400001928E-02 0. -1.
    10030    2    1    2    0    0  0.00000000000E+00  0.00000000000E+00  0.31212220614E+02  0.70584707949E+03  0.70515664707E+03 0.  0.
        3    1    3    3  502    0 -0.15336305907E+03 -0.16919922634E+03  0.28450058628E+03  0.36481392500E+03  0.10100000352E+00 0.  1.
       -3    1    3    3    0  502  0.15336305907E+03  0.16919922634E+03 -0.25328836566E+03  0.34103315449E+03  0.10100000352E+00 0. -1.
</event>
<event>
 5   0  0.3183963E-02  0.7064256E+03  0.7818609E-02  0.9706306E-01
       -2   -1    0    0    0  501  0.00000000000E+00  0.00000000000E+00  0.14137455282E+03  0.14137455284E+03  0.25500000920E-02 0.  1.
        2   -1    0    0  501    0  0.00000000000E+00  0.00000000000E+00 -0.88247335219E+03  0.88247335219E+03  0.25500000920E-02 0. -1.
    10030    2    1    2    0    0  0.00000000000E+00  0.00000000000E+00 -0.74109879937E+03  0.10238479050E+04  0.70642558151E+03 0.  0.
        4    1    3    3  502    0  0.24378593698E+03  0.19029569360E+03 -0.12325333987E+03  0.33292196197E+03  0.12699999809E+01 0.  1.
       -4    1    3    3    0  502 -0.24378593698E+03 -0.19029569360E+03 -0.61784545950E+03  0.69092594307E+03  0.12699999809E+01 0. -1.
</event>
<event>
 5   0  0.1969818E-02  0.6999526E+03  0.7818609E-02  0.9717313E-01
       -1   -1    0    0    0  501  0.00000000000E+00  0.00000000000E+00  0.12677410308E+03  0.12677410318E+03  0.50400001928E-02 0. -1.
        1   -1    0    0  501    0  0.00000000000E+00  0.00000000000E+00 -0.96615488984E+03  0.96615488986E+03  0.50400001928E-02 0.  1.
    10030    2    1    2    0    0  0.00000000000E+00  0.00000000000E+00 -0.83938078676E+03  0.10929289930E+04  0.69995262600E+03 0.  0.
        1    1    3    3  502    0  0.22308873016E+03 -0.26938653340E+03 -0.40084074120E+03  0.53198776841E+03  0.50400001928E-02 0. -1.
       -1    1    3    3    0  502 -0.22308873016E+03  0.26938653340E+03 -0.43854004556E+03  0.56094122463E+03  0.50400001928E-02 0.  1.
</event>
<event>
 5   0  0.3113940E-02  0.7029068E+03  0.7818609E-02  0.9712274E-01
       -2   -1    0    0    0  501  0.00000000000E+00  0.00000000000E+00  0.25146210958E+03  0.25146210959E+03  0.25500000920E-02 0.  1.
        2   -1    0    0  501    0  0.00000000000E+00  0.00000000000E+00 -0.49120519949E+03  0.49120519950E+03  0.25500000920E-02 0. -1.
    10030    2    1    2    0    0  0.00000000000E+00  0.00000000000E+00 -0.23974308992E+03  0.74266730909E+03  0.70290680949E+03 0.  0.
        5    1    3    3  502    0 -0.12580409412E+03  0.10687771099E+03  0.20791578804E+03  0.26551945337E+03  0.46999998093E+01 0.  1.
       -5    1    3    3    0  502  0.12580409412E+03 -0.10687771099E+03 -0.44765887796E+03  0.47714785572E+03  0.46999998093E+01 0. -1.
</event>
<event>
 5   0  0.1839038E-02  0.6976980E+03  0.7818609E-02  0.9721177E-01
       -1   -1    0    0    0  501  0.00000000000E+00  0.00000000000E+00  0.15106204533E+03  0.15106204541E+03  0.50400001928E-02 0. -1.
        1   -1    0    0  501    0  0.00000000000E+00  0.00000000000E+00 -0.80560037753E+03  0.80560037754E+03  0.50400001928E-02 0.  1.
    10030    2    1    2    0    0  0.00000000000E+00  0.00000000000E+00 -0.65453833220E+03  0.95666242296E+03  0.69769804585E+03 0.  0.
        5    1    3    3  502    0  0.21705025715E+03  0.12062444726E+03  0.86323730466E+01  0.24851092384E+03  0.46999998093E+01 0. -1.
       -5    1    3    3    0  502 -0.21705025715E+03 -0.12062444726E+03 -0.66317070525E+03  0.70815149912E+03  0.46999998093E+01 0.  1.
</event>
<event>
 5   0  0.1839038E-02  0.7120495E+03  0.7818609E-02  0.9696845E-01
        1   -1    0    0  501    0  0.00000000000E+00  0.00000000000E+00  0.32416429969E+03  0.32416429973E+03  0.50400001928E-02 0. -1.
       -1   -1    0    0    0  501  0.00000000000E+00  0.00000000000E+00 -0.39101662934E+03  0.39101662937E+03  0.50400001928E-02 0.  1.
    10030    2    1    2    0    0  0.00000000000E+00  0.00000000000E+00 -0.66852329644E+02  0.71518092910E+03  0.71204952592E+03 0.  0.
        5    1    3    3  502    0 -0.31126250524E+03  0.14233095493E+03 -0.13178072717E+03  0.36678426623E+03  0.46999998093E+01 0. -1.
       -5    1    3    3    0  502  0.31126250524E+03 -0.14233095493E+03  0.64928397529E+02  0.34839666287E+03  0.46999998093E+01 0.  1.
</event>
<event>
 5   0  0.3113940E-02  0.6999144E+03  0.7818609E-02  0.9717379E-01
        2   -1    0    0  501    0  0.00000000000E+00  0.00000000000E+00  0.38175174430E+03  0.38175174431E+03  0.25500000920E-02 0. -1.
       -2   -1    0    0    0  501  0.00000000000E+00  0.00000000000E+00 -0.32081066574E+03  0.32081066575E+03  0.25500000920E-02 0.  1.
    10030    2    1    2    0    0  0.00000000000E+00  0.00000000000E+00  0.60941078565E+02  0.70256241006E+03  0.69991436974E+03 0.  0.
        5    1    3    3  502    0 -0.29893476316E+02 -0.17364033004E+03  0.33394424863E+03  0.37760486667E+03  0.46999998093E+01 0. -1.
       -5    1    3    3    0  502  0.29893476316E+02  0.17364033004E+03 -0.27300317006E+03  0.32495754339E+03  0.46999998093E+01 0.  1.
</event>
<event>
 5   0  0.1951465E-02  0.7012733E+03  0.7818609E-02  0.9715057E-01
        1   -1    0    0  501    0  0.00000000000E+00  0.00000000000E+00  0.10066181094E+04  0.10066181094E+04  0.50400001928E-02 0.  1.
       -1   -1    0    0    0  501  0.00000000000E+00  0.00000000000E+00 -0.12213772806E+03  0.12213772816E+03  0.50400001928E-02 0. -1.
    10030    2    1    2    0    0  0.00000000000E+00  0.00000000000E+00  0.88448038133E+03  0.11287558376E+04  0.70127326761E+03 0.  0.
        4    1    3    3  502    0 -0.12523189844E+03 -0.24348582290E+03  0.79479368427E+03  0.84063487187E+03  0.12699999809E+01 0.  1.
       -4    1    3    3    0  502  0.12523189844E+03  0.24348582290E+03  0.89686697052E+02  0.28812096569E+03  0.12699999809E+01 0. -1.
</event>
<event>
 5   0  0.1951465E-02  0.6951930E+03  0.7818609E-02  0.9725488E-01
       -1   -1    0    0    0  501  0.00000000000E+00  0.00000000000E+00  0.21410746532E+03  0.21410746538E+03  0.50400001928E-02 0.  1.
        1   -1    0    0  501    0  0.00000000000E+00  0.00000000000E+00 -0.56431158193E+03  0.56431158196E+03  0.50400001928E-02 0. -1.
    10030    2    1    2    0    0  0.00000000000E+00  0.00000000000E+00 -0.35020411661E+03  0.77841904734E+03  0.69519298757E+03 0.  0.
        4    1    3    3  502    0 -0.12912472630E+03  0.15919165522E+03 -0.48943447994E+03  0.53062500986E+03  0.12699999809E+01 0. -1.
       -4    1    3    3    0  502  0.12912472630E+03 -0.15919165522E+03  0.13923036333E+03  0.24779403747E+03  0.12699999809E+01 0.  1.
</event>
<event>
 5   0  0.1839038E-02  0.7044206E+03  0.7818609E-02  0.9709702E-01
       -1   -1    0    0    0  501  0.00000000000E+00  0.00000000000E+00  0.19226393579E+03  0.19226393586E+03  0.50400001928E-02 0.  1.
        1   -1    0    0  501    0  0.00000000000E+00  0.00000000000E+00 -0.64521779372E+03  0.64521779374E+03  0.50400001928E-02 0. -1.
    10030    2    1    2    0    0  0.00000000000E+00  0.00000000000E+00 -0.45295385793E+03  0.83748172960E+03  0.70442064847E+03 0.  0.
        5    1    3    3  502    0 -0.19459961488E+03 -0.24725698529E+03 -0.38402276277E+02  0.31702027018E+03  0.46999998093E+01 0.  1.
       -5    1    3    3    0  502  0.19459961488E+03  0.24725698529E+03 -0.41455158165E+03  0.52046145941E+03  0.46999998093E+01 0. -1.
</event>
<event>
 5   0  0.1858013E-02  0.7111829E+03  0.7818609E-02  0.9698297E-01
       -1   -1    0    0    0  501  0.00000000000E+00  0.00000000000E+00  0.99945511651E+02  0.99945511778E+02  0.50400001928E-02 0. -1.
        1   -1    0    0  501    0  0.00000000000E+00  0.00000000000E+00 -0.12651420634E+04  0.12651420634E+04  0.50400001928E-02 0.  1.
    10030    2    1    2    0    0  0.00000000000E+00  0.00000000000E+00 -0.11651965518E+04  0.13650875752E+04  0.71118287643E+03 0.  0.
        2    1    3    3  502    0 -0.76315004704E+02  0.24812129914E+03 -0.11613729115E+03  0.28438711193E+03  0.25500000920E-02 0. -1.
       -2    1    3    3    0  502  0.76315004704E+02 -0.24812129914E+03 -0.10490592606E+04  0.10807004633E+04  0.25500000920E-02 0.  1.
</event>
<event>
 5   0  0.1951465E-02  0.6951739E+03  0.7818609E-02  0.9725521E-01
       -1   -1    0    0    0  501  0.00000000000E+00  0.00000000000E+00  0.25100698416E+03  0.25100698421E+03  0.50400001928E-02 0.  1.
        1   -1    0    0  501    0  0.00000000000E+00  0.00000000000E+00 -0.48132805331E+03  0.48132805334E+03  0.50400001928E-02 0. -1.
    10030    2    1    2    0    0  0.00000000000E+00  0.00000000000E+00 -0.23032106915E+03  0.73233503755E+03  0.69517394394E+03 0.  0.
        4    1    3    3  502    0 -0.31933978256E+03  0.12905148583E+03 -0.16437967106E+03  0.38164705144E+03  0.12699999809E+01 0. -1.
       -4    1    3    3    0  502  0.31933978256E+03 -0.12905148583E+03 -0.65941398099E+02  0.35068798611E+03  0.12699999809E+01 0.  1.
</event>
<event>
 5   0  0.1951465E-02  0.7073782E+03  0.7818609E-02  0.9704697E-01
       -1   -1    0    0    0  501  0.00000000000E+00  0.00000000000E+00  0.22414940549E+03  0.22414940555E+03  0.50400001928E-02 0. -1.
        1   -1    0    0  501    0  0.00000000000E+00  0.00000000000E+00 -0.55809187803E+03  0.55809187805E+03  0.50400001928E-02 0.  1.
    10030    2    1    2    0    0  0.00000000000E+00  0.00000000000E+00 -0.33394247254E+03  0.78224128360E+03  0.70737815262E+03 0.  0.
        4    1    3    3  502    0 -0.26725265233E+02 -0.67617223552E+02  0.21579360368E+03  0.22771653653E+03  0.12699999809E+01 0. -1.
       -4    1    3    3    0  502  0.26725265233E+02  0.67617223552E+02 -0.54973607621E+03  0.55452474707E+03  0.12699999809E+01 0.  1.
</event>
<event>
 5   0  0.1969818E-02  0.6715773E+03  0.7818609E-02  0.9767113E-01
        1   -1    0    0  501    0  0.00000000000E+00  0.00000000000E+00  0.11773454177E+04  0.11773454177E+04  0.50400001928E-02 0. -1.
       -1   -1    0    0    0  501  0.00000000000E+00  0.00000000000E+00 -0.95769709500E+02  0.95769709633E+02  0.50400001928E-02 0.  1.
    10030    2    1    2    0    0  0.00000000000E+00  0.00000000000E+00  0.10815757082E+04  0.12731151274E+04  0.67157733353E+03 0.  0.
        1    1    3    3  502    0 -0.13128251878E+03 -0.30841423915E+03  0.57868240902E+03  0.66875090519E+03  0.50400001928E-02 0.  1.
       -1    1    3    3    0  502  0.13128251878E+03  0.30841423915E+03  0.50289329920E+03  0.60436422218E+03  0.50400001928E-02 0. -1.
</event>
<event>
 5   0  0.2933851E-02  0.7086144E+03  0.7818609E-02  0.9702613E-01
       -2   -1    0    0    0  501  0.00000000000E+00  0.00000000000E+00  0.48134016837E+03  0.48134016838E+03  0.25500000920E-02 0. -1.
        2   -1    0    0  501    0  0.00000000000E+00  0.00000000000E+00 -0.26080013787E+03  0.26080013788E+03  0.25500000920E-02 0.  1.
    10030    2    1    2    0    0  0.00000000000E+00  0.00000000000E+00  0.22054003051E+03  0.74214030626E+03  0.70861437264E+03 0.  0.
        2    1    3    3  502    0 -0.34697816721E+03 -0.43839893063E+02  0.16967944985E+03  0.38872471037E+03  0.25500000920E-02 0. -1.
       -2    1    3    3    0  502  0.34697816721E+03  0.43839893063E+02  0.50860580655E+02  0.35341559589E+03  0.25500000920E-02 0.  1.
</event>
<event>
 5   0  0.1969818E-02  0.6878548E+03  0.7818609E-02  0.9738231E-01
       -1   -1    0    0    0  501  0.00000000000E+00  0.00000000000E+00  0.89476745044E+02  0.89476745186E+02  0.50400001928E-02 0.  1.
        1   -1    0    0  501    0  0.00000000000E+00  0.00000000000E+00 -0.13219753838E+04  0.13219753839E+04  0.50400001928E-02 0. -1.
    10030    2    1    2    0    0  0.00000000000E+00  0.00000000000E+00 -0.12324986388E+04  0.14114521290E+04  0.68785479422E+03 0.  0.
        1    1    3    3  502    0 -0.89617497044E+02  0.27595998491E+03 -0.99517318361E+03  0.10366073868E+04  0.50400001928E-02 0. -1.
       -1    1    3    3    0  502  0.89617497044E+02 -0.27595998491E+03 -0.23732545519E+03  0.37484474220E+03  0.50400001928E-02 0.  1.
</event>
<event>
 5   0  0.1951465E-02  0.6937793E+03  0.7818609E-02  0.9727930E-01
       -1   -1    0    0    0  501  0.00000000000E+00  0.00000000000E+00  0.44632019623E+03  0.44632019626E+03  0.50400001928E-02 0. -1.
        1   -1    0    0  501    0  0.00000000000E+00  0.00000000000E+00 -0.26961008041E+03  0.26961008046E+03  0.50400001928E-02 0.  1.
    10030    2    1    2    0    0  0.00000000000E+00  0.00000000000E+00  0.17671011581E+03  0.71593027672E+03  0.69377928485E+03 0.  0.
        4    1    3    3  502    0 -0.47006581145E+02  0.11583463776E+03 -0.24555543058E+03  0.27554739041E+03  0.12699999809E+01 0.  1.
       -4    1    3    3    0  502  0.47006581145E+02 -0.11583463776E+03  0.42226554639E+03  0.44038288630E+03  0.12699999809E+01 0. -1.
</event>
<event>
 5   0  0.3113940E-02  0.6984969E+03  0.7818609E-02  0.9719806E-01
       -2   -1    0    0    0  501  0.00000000000E+00  0.00000000000E+00  0.12973172888E+03  0.12973172891E+03  0.25500000920E-02 0. -1.
        2   -1    0    0  501    0  0.00000000000E+00  0.00000000000E+00 -0.94020546080E+03  0.94020546080E+03  0.25500000920E-02 0.  1.
    10030    2    1    2    0    0  0.00000000000E+00  0.00000000000E+00 -0.81047373191E+03  0.10699371897E+04  0.69849690035E+03 0.  0.
        5    1    3    3  502    0 -0.14453588842E+03 -0.85930533530E+02 -0.87406313045E+03  0.89010287363E+03  0.46999998093E+01 0.  1.
       -5    1    3    3    0  502  0.14453588842E+03  0.85930533530E+02  0.63589398539E+02  0.17983431608E+03  0.46999998093E+01 0. -1.
</event>
<event>
 5   0  0.1233912E-02  0.6933515E+03  0.7818609E-02  0.9728670E-01
        4   -1    0    0  501    0  0.00000000000E+00  0.00000000000E+00  0.18467500467E+03  0.18467937147E+03  0.12699999809E+01 0.  1.
       -4   -1    0    0    0  501  0.00000000000E+00  0.00000000000E+00 -0.65077430998E+03  0.65077554919E+03  0.12699999809E+01 0. -1.
    10030    2    1    2    0    0  0.00000000000E+00  0.00000000000E+00 -0.46609930531E+03  0.83545492067E+03  0.69335154291E+03 0.  0.
        4    1    3    3  502    0 -0.16383325347E+03  0.28274153185E+03 -0.93574932232E+02  0.33991467991E+03  0.12699999809E+01 0. -1.
       -4    1    3    3    0  502  0.16383325347E+03 -0.28274153185E+03 -0.37252437308E+03  0.49554024076E+03  0.12699999809E+01 0.  1.
</event>
<event>
 5   0  0.1884172E-02  0.7324045E+03  0.7818609E-02  0.9663367E-01
        1   -1    0    0  501    0  0.00000000000E+00  0.00000000000E+00  0.27415684743E+03  0.27415684748E+03  0.50400001928E-02 0. -1.
       -1   -1    0    0    0  501  0.00000000000E+00  0.00000000000E+00 -0.48915092843E+03  0.48915092845E+03  0.50400001928E-02 0.  1.
    10030    2    1    2    0    0  0.00000000000E+00  0.00000000000E+00 -0.21499408099E+03  0.76330777593E+03  0.73240446881E+03 0.  0.
        3    1    3    3  502    0 -0.74639918577E+02 -0.34313791876E+03 -0.21575147329E+03  0.41214494678E+03  0.10100000352E+00 0.  1.
       -3    1    3    3    0  502  0.74639918577E+02  0.34313791876E+03  0.75739229175E+00  0.35116282915E+03  0.10100000352E+00 0. -1.
</event>
<event>
 5   0  0.1951465E-02  0.6972143E+03  0.7818609E-02  0.9722008E-01
        1   -1    0    0  501    0  0.00000000000E+00  0.00000000000E+00  0.83991549664E+03  0.83991549665E+03  0.50400001928E-02 0. -1.
       -1   -1    0    0    0  501  0.00000000000E+00  0.00000000000E+00 -0.14468947051E+03  0.14468947060E+03  0.50400001928E-02 0.  1.
    10030    2    1    2    0    0  0.00000000000E+00  0.00000000000E+00  0.69522602613E+03  0.98460496725E+03  0.69721425267E+03 0.  0.
        4    1    3    3  502    0 -0.30049890522E+03 -0.39696776474E+02  0.59078150740E+03  0.66400288289E+03  0.12699999809E+01 0. -1.
       -4    1    3    3    0  502  0.30049890522E+03  0.39696776474E+02  0.10444451872E+03  0.32060208436E+03  0.12699999809E+01 0.  1.
</event>
<event>
 5   0  0.1858013E-02  0.6973319E+03  0.7818609E-02  0.9721806E-01
        1   -1    0    0  501    0  0.00000000000E+00  0.00000000000E+00  0.17692280532E+04  0.17692280532E+04  0.50400001928E-02 0.  1.
       -1   -1    0    0    0  501  0.00000000000E+00  0.00000000000E+00 -0.68712425103E+02  0.68712425288E+02  0.50400001928E-02 0. -1.
    10030    2    1    2    0    0  0.00000000000E+00  0.00000000000E+00  0.17005156281E+04  0.18379404785E+04  0.69733191602E+03 0.  0.
        2    1    3    3  502    0  0.34780790555E+03 -0.14438062597E+02  0.79826392010E+03  0.87086398648E+03  0.25500000920E-02 0.  1.
       -2    1    3    3    0  502 -0.34780790555E+03  0.14438062597E+02  0.90225170804E+03  0.96707649205E+03  0.25500000920E-02 0. -1.
</event>
<event>
 5   0  0.3183963E-02  0.6835751E+03  0.7818609E-02  0.9745741E-01
       -2   -1    0    0    0  501  0.00000000000E+00  0.00000000000E+00  0.24481791887E+03  0.24481791888E+03  0.25500000920E-02 0.  1.
        2   -1    0    0  501    0  0.00000000000E+00  0.00000000000E+00 -0.47716576901E+03  0.47716576901E+03  0.25500000920E-02 0. -1.
    10030    2    1    2    0    0  0.00000000000E+00  0.00000000000E+00 -0.23234785014E+03  0.72198368790E+03  0.68357510350E+03 0.  0.
        4    1    3    3  502    0 -0.29870278085E+03 -0.10502306094E+03 -0.25210625167E+03  0.40473740826E+03  0.12699999809E+01 0. -1.
       -4    1    3    3    0  502  0.29870278085E+03  0.10502306094E+03  0.19758401525E+02  0.31724627964E+03  0.12699999809E+01 0.  1.
</event>
<event>
 5   0  0.1233912E-02  0.7010115E+03  0.7818609E-02  0.9715504E-01
        3   -1    0    0  501    0  0.00000000000E+00  0.00000000000E+00  0.50835196872E+03  0.50835197876E+03  0.10100000352E+00 0. -1.
       -3   -1    0    0    0  501  0.00000000000E+00  0.00000000000E+00 -0.24167167071E+03  0.24167169181E+03  0.10100000352E+00 0.  1.
    10030    2    1    2    0    0  0.00000000000E+00  0.00000000000E+00  0.26668029801E+03  0.75002367057E+03  0.70101150138E+03 0.  0.
        2    1    3    3  502    0  0.22465329188E+02 -0.33314307059E+03  0.19278410356E+02  0.33445575732E+03  0.25500000920E-02 0.  1.
       -2    1    3    3    0  502 -0.22465329188E+02  0.33314307059E+03  0.24740188766E+03  0.41556791324E+03  0.25500000920E-02 0. -1.
</event>
<event>
 5   0  0.1884172E-02  0.6563861E+03  0.7818609E-02  0.9794869E-01
        1   -1    0    0  501    0  0.00000000000E+00  0.00000000000E+00  0.91570883078E+03  0.91570883080E+03  0.50400001928E-02 0.  1.
       -1   -1    0    0    0  501  0.00000000000E+00  0.00000000000E+00 -0.11762545385E+03  0.11762545396E+03  0.50400001928E-02 0. -1.
    10030    2    1    2    0    0  0.00000000000E+00  0.00000000000E+00  0.79808337693E+03  0.10333342848E+04  0.65638606591E+03 0.  0.
        3    1    3    3  502    0 -0.10366862139E+03  0.31131376560E+03  0.38822455598E+03  0.50831265947E+03  0.10100000352E+00 0. -1.
       -3    1    3    3    0  502  0.10366862139E+03 -0.31131376560E+03  0.40985882095E+03  0.52502162529E+03  0.10100000352E+00 0.  1.
</event>
<event>
 5   0  0.2933851E-02  0.6900272E+03  0.7818609E-02  0.9734441E-01
       -2   -1    0    0    0  501  0.00000000000E+00  0.00000000000E+00  0.73393159755E+02  0.73393159800E+02  0.25500000920E-02 0.  1.
        2   -1    0    0  501    0  0.00000000000E+00  0.00000000000E+00 -0.16218731879E+04  0.16218731879E+04  0.25500000920E-02 0. -1.
    10030    2    1    2    0    0  0.00000000000E+00  0.00000000000E+00 -0.15484800281E+04  0.16952663477E+04  0.69002724010E+03 0.  0.
        2    1    3    3  502    0  0.12585324538E+03 -0.41466969851E+02  0.83837884021E+01  0.13277363020E+03  0.25500000920E-02 0.  1.
       -2    1    3    3    0  502 -0.12585324538E+03  0.41466969851E+02 -0.15568638165E+04  0.15624927175E+04  0.25500000920E-02 0. -1.
</event>
<event>
 5   0  0.3113940E-02  0.6946296E+03  0.7818609E-02  0.9726461E-01
       -2   -1    0    0    0  501  0.00000000000E+00  0.00000000000E+00  0.38123073086E+03  0.38123073087E+03  0.25500000920E-02 0. -1.
        2   -1    0    0  501    0  0.00000000000E+00  0.00000000000E+00 -0.31641618865E+03  0.31641618866E+03  0.25500000920E-02 0.  1.
    10030    2    1    2    0    0  0.00000000000E+00  0.00000000000E+00  0.64814542210E+02  0.69764691952E+03  0.69462961313E+03 0.  0.
        5    1    3    3  502    0  0.22782815847E+03  0.84378098586E+02 -0.21682413266E+03  0.32566873939E+03  0.46999998093E+01 0.  1.
       -5    1    3    3    0  502 -0.22782815847E+03 -0.84378098586E+02  0.28163867487E+03  0.37197818013E+03  0.46999998093E+01 0. -1.
</event>
<event>
 5   0  0.3184443E-02  0.6928658E+03  0.7818609E-02  0.9729511E-01
       -2   -1    0    0    0  501  0.00000000000E+00  0.00000000000E+00  0.46337747364E+03  0.46337747365E+03  0.25500000920E-02 0.  1.
        2   -1    0    0  501    0  0.00000000000E+00  0.00000000000E+00 -0.25900211234E+03  0.25900211235E+03  0.25500000920E-02 0. -1.
    10030    2    1    2    0    0  0.00000000000E+00  0.00000000000E+00  0.20437536131E+03  0.72237958600E+03  0.69286577196E+03 0.  0.
        3    1    3    3  502    0 -0.23684393482E+03 -0.56375696179E+02 -0.15477056928E+03  0.28849126138E+03  0.10100000352E+00 0. -1.
       -3    1    3    3    0  502  0.23684393482E+03  0.56375696179E+02  0.35914593058E+03  0.43388832461E+03  0.10100000352E+00 0.  1.
</event>
<event>
 5   0  0.1858013E-02  0.7219697E+03  0.7818609E-02  0.9680382E-01
        1   -1    0    0  501    0  0.00000000000E+00  0.00000000000E+00  0.11448247608E+04  0.11448247608E+04  0.50400001928E-02 0.  1.
       -1   -1    0    0    0  501  0.00000000000E+00  0.00000000000E+00 -0.11382532274E+03  0.11382532285E+03  0.50400001928E-02 0. -1.
    10030    2    1    2    0    0  0.00000000000E+00  0.00000000000E+00  0.10309994381E+04  0.12586500837E+04  0.72196966128E+03 0.  0.
        2    1    3    3  502    0  0.21738147305E+03  0.12521117124E+03  0.96802570764E+03  0.10000031564E+04  0.25500000920E-02 0.  1.
       -2    1    3    3    0  502 -0.21738147305E+03 -0.12521117124E+03  0.62973730426E+02  0.25864692722E+03  0.25500000920E-02 0. -1.
</event>
<event>
 5   0  0.3184443E-02  0.7066784E+03  0.7818609E-02  0.9705879E-01
        2   -1    0    0  501    0  0.00000000000E+00  0.00000000000E+00  0.40291467801E+03  0.40291467802E+03  0.25500000920E-02 0.  1.
       -2   -1    0    0    0  501  0.00000000000E+00  0.00000000000E+00 -0.30986360113E+03  0.30986360114E+03  0.25500000920E-02 0. -1.
    10030    2    1    2    0    0  0.00000000000E+00  0.00000000000E+00  0.93051076882E+02  0.71277827915E+03  0.70667840799E+03 0.  0.
        3    1    3    3  502    0 -0.26790085630E+03 -0.67402181994E+02 -0.17568191911E+03  0.32738061923E+03  0.10100000352E+00 0. -1.
       -3    1    3    3    0  502  0.26790085630E+03  0.67402181994E+02  0.26873299599E+03  0.38539765993E+03  0.10100000352E+00 0.  1.
</event>
<event>
 5   0  0.1839038E-02  0.6951740E+03  0.7818609E-02  0.9725521E-01
       -1   -1    0    0    0  501  0.00000000000E+00  0.00000000000E+00  0.14571348343E+03  0.14571348351E+03  0.50400001928E-02 0.  1.
        1   -1    0    0  501    0  0.00000000000E+00  0.00000000000E+00 -0.82913890214E+03  0.82913890216E+03  0.50400001928E-02 0. -1.
    10030    2    1    2    0    0  0.00000000000E+00  0.00000000000E+00 -0.68342541871E+03  0.97485238567E+03  0.69517398607E+03 0.  0.
        5    1    3    3  502    0 -0.28966238997E+03 -0.12218394182E+03 -0.54952703187E+03  0.63311552228E+03  0.46999998093E+01 0. -1.
       -5    1    3    3    0  502  0.28966238997E+03  0.12218394182E+03 -0.13389838685E+03  0.34173686339E+03  0.46999998093E+01 0.  1.
</event>
<event>
 5   0  0.1884172E-02  0.7021633E+03  0.7818609E-02  0.9713540E-01
       -1   -1    0    0    0  501  0.00000000000E+00  0.00000000000E+00  0.36894982143E+03  0.36894982146E+03  0.50400001928E-02 0.  1.
        1   -1    0    0  501    0  0.00000000000E+00  0.00000000000E+00 -0.33407879490E+03  0.33407879494E+03  0.50400001928E-02 0. -1.
    10030    2    1    2    0    0  0.00000000000E+00  0.00000000000E+00  0.34871026527E+02  0.70302861641E+03  0.70216326235E+03 0.  0.
        3    1    3    3  502    0 -0.32578451132E+03  0.67395410478E+02 -0.94866047127E+02  0.34594402187E+03  0.10100000352E+00 0. -1.
       -3    1    3    3    0  502  0.32578451132E+03 -0.67395410478E+02  0.12973707365E+03  0.35708459453E+03  0.10100000352E+00 0.  1.
</event>
<event>
 5   0  0.1233912E-02  0.6895794E+03  0.7818609E-02  0.9735221E-01
        3   -1    0    0  501    0  0.00000000000E+00  0.00000000000E+00  0.13908264461E+03  0.13908268129E+03  0.10100000352E+00 0. -1.
       -3   -1    0    0    0  501  0.00000000000E+00  0.00000000000E+00 -0.85474298894E+03  0.85474299491E+03  0.10100000352E+00 0.  1.
    10030    2    1    2    0    0  0.00000000000E+00  0.00000000000E+00 -0.71566034433E+03  0.99382567619E+03  0.68957939805E+03 0.  0.
        3    1    3    3  502    0 -0.26981258650E+03 -0.69812095563E+02 -0.65038910389E+03  0.70758643089E+03  0.10100000352E+00 0. -1.
       -3    1    3    3    0  502  0.26981258650E+03  0.69812095563E+02 -0.65271240441E+02  0.28623924531E+03  0.10100000352E+00 0.  1.
</event>
<event>
 5   0  0.1951465E-02  0.7023389E+03  0.7818609E-02  0.9713241E-01
        1   -1    0    0  501    0  0.00000000000E+00  0.00000000000E+00  0.71863076353E+03  0.71863076355E+03  0.50400001928E-02 0.  1.
       -1   -1    0    0    0  501  0.00000000000E+00  0.00000000000E+00 -0.17160409153E+03  0.17160409161E+03  0.50400001928E-02 0. -1.
    10030    2    1    2    0    0  0.00000000000E+00  0.00000000000E+00  0.54702667200E+03  0.89023485516E+03  0.70233889075E+03 0.  0.
        4    1    3    3  502    0 -0.34340043783E+03  0.48719213842E+02  0.34318067326E+03  0.48792623407E+03  0.12699999809E+01 0.  1.
       -4    1    3    3    0  502  0.34340043783E+03 -0.48719213842E+02  0.20384599874E+03  0.40230862108E+03  0.12699999809E+01 0. -1.
</event>
<event>
 5   0  0.3183963E-02  0.7006329E+03  0.7818609E-02  0.9716150E-01
       -2   -1    0    0    0  501  0.00000000000E+00  0.00000000000E+00  0.96507716881E+02  0.96507716914E+02  0.25500000920E-02 0.  1.
        2   -1    0    0  501    0  0.00000000000E+00  0.00000000000E+00 -0.12716250305E+04  0.12716250305E+04  0.25500000920E-02 0. -1.
    10030    2    1    2    0    0  0.00000000000E+00  0.00000000000E+00 -0.11751173136E+04  0.13681327474E+04  0.70063293798E+03 0.  0.
        4    1    3    3  502    0  0.15315740308E+03  0.13393253075E+03 -0.30694244977E+02  0.20576409426E+03  0.12699999809E+01 0.  1.
       -4    1    3    3    0  502 -0.15315740308E+03 -0.13393253075E+03 -0.11444230686E+04  0.11623686532E+04  0.12699999809E+01 0. -1.
</event>
<event>
 5   0  0.1951465E-02  0.6610596E+03  0.7818609E-02  0.9786245E-01
        1   -1    0    0  501    0  0.00000000000E+00  0.00000000000E+00  0.12262937059E+04  0.12262937060E+04  0.50400001928E-02 0.  1.
       -1   -1    0    0    0  501  0.00000000000E+00  0.00000000000E+00 -0.89089557745E+02  0.89089557887E+02  0.50400001928E-02 0. -1.
    10030    2    1    2    0    0  0.00000000000E+00  0.00000000000E+00  0.11372041482E+04  0.13153832638E+04  0.66105964641E+03 0.  0.
        4    1    3    3  502    0 -0.79497356009E+02 -0.29899876889E+03  0.33716517652E+03  0.45760470121E+03  0.12699999809E+01 0. -1.
       -4    1    3    3    0  502  0.79497356009E+02  0.29899876889E+03  0.80003897168E+03  0.85777856264E+03  0.12699999809E+01 0.  1.
</event>
<event>
 5   0  0.1233912E-02  0.7000402E+03  0.7818609E-02  0.9717163E-01
        4   -1    0    0  501    0  0.00000000000E+00  0.00000000000E+00  0.62045905473E+03  0.62046035449E+03  0.12699999809E+01 0. -1.
       -4   -1    0    0    0  501  0.00000000000E+00  0.00000000000E+00 -0.19745360756E+03  0.19745769177E+03  0.12699999809E+01 0.  1.
    10030    2    1    2    0    0  0.00000000000E+00  0.00000000000E+00  0.42300544716E+03  0.81791804626E+03  0.70004022889E+03 0.  0.
        2    1    3    3  502    0  0.69059982369E+02  0.10472507572E+03  0.59329450976E+03  0.60641157473E+03  0.25500000920E-02 0. -1.
       -2    1    3    3    0  502 -0.69059982369E+02 -0.10472507572E+03 -0.17028906260E+03  0.21150647153E+03  0.25500000920E-02 0.  1.
</event>
<event>
 5   0  0.1884172E-02  0.7879421E+03  0.7818609E-02  0.9577636E-01
        1   -1    0    0  501    0  0.00000000000E+00  0.00000000000E+00  0.88865203489E+03  0.88865203491E+03  0.50400001928E-02 0. -1.
       -1   -1    0    0    0  501  0.00000000000E+00  0.00000000000E+00 -0.17466136184E+03  0.17466136191E+03  0.50400001928E-02 0.  1.
    10030    2    1    2    0    0  0.00000000000E+00  0.00000000000E+00  0.71399067306E+03  0.10633133968E+04  0.78794206553E+03 0.  0.
        3    1    3    3  502    0  0.32562345211E+03  0.11067933060E+03  0.61633685189E+03  0.70579860582E+03  0.10100000352E+00 0. -1.
       -3    1    3    3    0  502 -0.32562345211E+03 -0.11067933060E+03  0.97653821170E+02  0.35751479099E+03  0.10100000352E+00 0.  1.
</event>
<event>
 5   0  0.2933851E-02  0.7009345E+03  0.7818609E-02  0.9715635E-01
       -2   -1    0    0    0  501  0.00000000000E+00  0.00000000000E+00  0.16048618579E+03  0.16048618581E+03  0.25500000920E-02 0. -1.
        2   -1    0    0  501    0  0.00000000000E+00  0.00000000000E+00 -0.76534490651E+03  0.76534490651E+03  0.25500000920E-02 0.  1.
    10030    2    1    2    0    0  0.00000000000E+00  0.00000000000E+00 -0.60485872072E+03  0.92583109232E+03  0.70093447588E+03 0.  0.
        2    1    3    3  502    0 -0.84329884716E+02  0.23797423830E+03  0.18632966224E+02  0.25316092705E+03  0.25500000920E-02 0. -1.
       -2    1    3    3    0  502  0.84329884716E+02 -0.23797423830E+03 -0.62349168694E+03  0.67267016527E+03  0.25500000920E-02 0.  1.
</event>
<event>
 5   0  0.3183963E-02  0.6977184E+03  0.7818609E-02  0.9721142E-01
       -2   -1    0    0    0  501  0.00000000000E+00  0.00000000000E+00  0.15235604349E+03  0.15235604351E+03  0.25500000920E-02 0. -1.
        2   -1    0    0  501    0  0.00000000000E+00  0.00000000000E+00 -0.79880493062E+03  0.79880493062E+03  0.25500000920E-02 0.  1.
    10030    2    1    2    0    0  0.00000000000E+00  0.00000000000E+00 -0.64644888713E+03  0.95116097414E+03  0.69771844970E+03 0.  0.
        4    1    3    3  502    0  0.25812228570E+03  0.55438203463E+02 -0.12354919653E+02  0.26430052160E+03  0.12699999809E+01 0.  1.
       -4    1    3    3    0  502 -0.25812228570E+03 -0.55438203463E+02 -0.63409396748E+03  0.68686045254E+03  0.12699999809E+01 0. -1.
</event>
<event>
 5   0  0.2933851E-02  0.6996167E+03  0.7818609E-02  0.9717888E-01
       -2   -1    0    0    0  501  0.00000000000E+00  0.00000000000E+00  0.32996850254E+03  0.32996850255E+03  0.25500000920E-02 0.  1.
        2   -1    0    0  501    0  0.00000000000E+00  0.00000000000E+00 -0.37084105907E+03  0.37084105908E+03  0.25500000920E-02 0. -1.
    10030    2    1    2    0    0  0.00000000000E+00  0.00000000000E+00 -0.40872556534E+02  0.70080956162E+03  0.69961666346E+03 0.  0.
        2    1    3    3  502    0  0.88137473838E+02 -0.29115780698E+03  0.15255672657E+03  0.34031549728E+03  0.25500000920E-02 0.  1.
       -2    1    3    3    0  502 -0.88137473838E+02  0.29115780698E+03 -0.19342928311E+03  0.36049406435E+03  0.25500000920E-02 0. -1.
</event>
<event>
 5   0  0.1951465E-02  0.7006017E+03  0.7818609E-02  0.9716204E-01
        1   -1    0    0  501    0  0.00000000000E+00  0.00000000000E+00  0.17311633029E+04  0.17311633029E+04  0.50400001928E-02 0.  1.
       -1   -1    0    0    0  501  0.00000000000E+00  0.00000000000E+00 -0.70883369670E+02  0.70883369850E+02  0.50400001928E-02 0. -1.
    10030    2    1    2    0    0  0.00000000000E+00  0.00000000000E+00  0.16602799332E+04  0.18020466728E+04  0.70060170861E+03 0.  0.
        4    1    3    3  502    0  0.13992497121E+03 -0.78131814648E+02  0.16313341399E+04  0.16391876850E+04  0.12699999809E+01 0.  1.
       -4    1    3    3    0  502 -0.13992497121E+03  0.78131814648E+02  0.28945793381E+02  0.16285898772E+03  0.12699999809E+01 0. -1.
</event>
<event>
 5   0  0.3113940E-02  0.7064750E+03  0.7818609E-02  0.9706223E-01
        2   -1    0    0  501    0  0.00000000000E+00  0.00000000000E+00  0.10187612381E+04  0.10187612381E+04  0.25500000920E-02 0.  1.
       -2   -1    0    0    0  501  0.00000000000E+00  0.00000000000E+00 -0.12247888222E+03  0.12247888225E+03  0.25500000920E-02 0. -1.
    10030    2    1    2    0    0  0.00000000000E+00  0.00000000000E+00  0.89628235586E+03  0.11412401203E+04  0.70647501784E+03 0.  0.
        5    1    3    3  502    0 -0.67806052060E+02 -0.34116700409E+03  0.54722282453E+03  0.64843464980E+03  0.46999998093E+01 0.  1.
       -5    1    3    3    0  502  0.67806052060E+02  0.34116700409E+03  0.34905953133E+03  0.49280547054E+03  0.46999998093E+01 0. -1.
</event>
<event>
 5   0  0.1858013E-02  0.6994152E+03  0.7818609E-02  0.9718233E-01
       -1   -1    0    0    0  501  0.00000000000E+00  0.00000000000E+00  0.12222276367E+03  0.12222276377E+03  0.50400001928E-02 0.  1.
        1   -1    0    0  501    0  0.00000000000E+00  0.00000000000E+00 -0.10005944187E+04  0.10005944187E+04  0.50400001928E-02 0. -1.
    10030    2    1    2    0    0  0.00000000000E+00  0.00000000000E+00 -0.87837165505E+03  0.11228171825E+04  0.69941522783E+03 0.  0.
        2    1    3    3  502    0 -0.23879328524E+03  0.11789730702E+03 -0.75318424461E+02  0.27675778787E+03  0.25500000920E-02 0.  1.
       -2    1    3    3    0  502  0.23879328524E+03 -0.11789730702E+03 -0.80305323059E+03  0.84605939463E+03  0.25500000920E-02 0. -1.
</event>
<event>
 5   0  0.1969818E-02  0.6991144E+03  0.7818609E-02  0.9718748E-01
       -1   -1    0    0    0  501  0.00000000000E+00  0.00000000000E+00  0.25126419854E+03  0.25126419859E+03  0.50400001928E-02 0.  1.
        1   -1    0    0  501    0  0.00000000000E+00  0.00000000000E+00 -0.48630177515E+03  0.48630177518E+03  0.50400001928E-02 0. -1.
    10030    2    1    2    0    0  0.00000000000E+00  0.00000000000E+00 -0.23503757660E+03  0.73756597377E+03  0.69911437065E+03 0.  0.
        1    1    3    3  502    0 -0.29501619169E+03 -0.16433835439E+03 -0.22284454230E+02  0.33843499377E+03  0.50400001928E-02 0.  1.
       -1    1    3    3    0  502  0.29501619169E+03  0.16433835439E+03 -0.21275312238E+03  0.39913097999E+03  0.50400001928E-02 0. -1.
</event>
<event>
 5   0  0.1839038E-02  0.7015678E+03  0.7818609E-02  0.9714555E-01
        1   -1    0    0  501    0  0.00000000000E+00  0.00000000000E+00  0.25703096056E+03  0.25703096061E+03  0.50400001928E-02 0.  1.
       -1   -1    0    0    0  501  0.00000000000E+00  0.00000000000E+00 -0.47873355424E+03  0.47873355426E+03  0.50400001928E-02 0. -1.
    10030    2    1    2    0    0  0.00000000000E+00  0.00000000000E+00 -0.22170259368E+03  0.73576451488E+03  0.70156780236E+03 0.  0.
        5    1    3    3  502    0 -0.11134491241E+02  0.27304886351E+02  0.25569568772E+03  0.25743330871E+03  0.46999998093E+01 0.  1.
       -5    1    3    3    0  502  0.11134491241E+02 -0.27304886351E+02 -0.47739828140E+03  0.47833120617E+03  0.46999998093E+01 0. -1.
</event>
<event>
 5   0  0.1951465E-02  0.6834527E+03  0.7818609E-02  0.9745956E-01
       -1   -1    0    0    0  501  0.00000000000E+00  0.00000000000E+00  0.12843839419E+03  0.12843839429E+03  0.50400001928E-02 0. -1.
        1   -1    0    0  501    0  0.00000000000E+00  0.00000000000E+00 -0.90920556765E+03  0.90920556767E+03  0.50400001928E-02 0.  1.
    10030    2    1    2    0    0  0.00000000000E+00  0.00000000000E+00 -0.78076717346E+03  0.10376439620E+04  0.68345271426E+03 0.  0.
        4    1    3    3  502    0  0.12883303563E+03 -0.31584843118E+03 -0.42139089013E+03  0.54215318659E+03  0.12699999809E+01 0.  1.
       -4    1    3    3    0  502 -0.12883303563E+03  0.31584843118E+03 -0.35937628334E+03  0.49549077537E+03  0.12699999809E+01 0. -1.
</event>
<event>
 5   0  0.3290656E-02  0.6978707E+03  0.7818609E-02  0.9720881E-01
        2   -1    0    0  501    0  0.00000000000E+00  0.00000000000E+00  0.10003978107E+04  0.10003978107E+04  0.25500000920E-02 0.  1.
       -2   -1    0    0    0  501  0.00000000000E+00  0.00000000000E+00 -0.12170744958E+03  0.12170744961E+03  0.25500000920E-02 0. -1.
    10030    2    1    2    0    0  0.00000000000E+00  0.00000000000E+00  0.87869036112E+03  0.11221052603E+04  0.69787066460E+03 0.  0.
        1    1    3    3  502    0 -0.12688867820E+03  0.30771013739E+03  0.60774982583E+03  0.69292576524E+03  0.50400001928E-02 0.  1.
       -1    1    3    3    0  502  0.12688867820E+03 -0.30771013739E+03  0.27094053530E+03  0.42917949509E+03  0.50400001928E-02 0. -1.
</event>
<event>
 5   0  0.1969818E-02  0.6981512E+03  0.7818609E-02  0.9720399E-01
       -1   -1    0    0    0  501  0.00000000000E+00  0.00000000000E+00  0.10125075429E+04  0.10125075429E+04  0.50400001928E-02 0. -1.
        1   -1    0    0  501    0  0.00000000000E+00  0.00000000000E+00 -0.12034852436E+03  0.12034852447E+03  0.50400001928E-02 0.  1.
    10030    2    1    2    0    0  0.00000000000E+00  0.00000000000E+00  0.89215901853E+03  0.11328560674E+04  0.69815124081E+03 0.  0.
        1    1    3    3  502    0  0.76918822590E+02  0.33281337304E+03  0.32937779338E+03  0.47452184074E+03  0.50400001928E-02 0.  1.
       -1    1    3    3    0  502 -0.76918822590E+02 -0.33281337304E+03  0.56278122515E+03  0.65833422663E+03  0.50400001928E-02 0. -1.
</event>
<event>
 5   0  0.3184443E-02  0.6969555E+03  0.7818609E-02  0.9722453E-01
       -2   -1    0    0    0  501  0.00000000000E+00  0.00000000000E+00  0.92603419857E+02  0.92603419893E+02  0.25500000920E-02 0. -1.
        2   -1    0    0  501    0  0.00000000000E+00  0.00000000000E+00 -0.13113633947E+04  0.13113633947E+04  0.25500000920E-02 0.  1.
    10030    2    1    2    0    0  0.00000000000E+00  0.00000000000E+00 -0.12187599748E+04  0.14039668146E+04  0.69695547935E+03 0.  0.
        3    1    3    3  502    0  0.36160487240E+02  0.30810084314E+03 -0.28958028879E+03  0.42437066844E+03  0.10100000352E+00 0. -1.
       -3    1    3    3    0  502 -0.36160487240E+02 -0.30810084314E+03 -0.92917968603E+03  0.97959614613E+03  0.10100000352E+00 0.  1.
</event>
<event>
 5   0  0.3290656E-02  0.6538485E+03  0.7818609E-02  0.9799584E-01
       -2   -1    0    0    0  501  0.00000000000E+00  0.00000000000E+00  0.93844938305E+02  0.93844938340E+02  0.25500000920E-02 0.  1.
        2   -1    0    0  501    0  0.00000000000E+00  0.00000000000E+00 -0.11388941644E+04  0.11388941644E+04  0.25500000920E-02 0. -1.
    10030    2    1    2    0    0  0.00000000000E+00  0.00000000000E+00 -0.10450492261E+04  0.12327391028E+04  0.65384846140E+03 0.  0.
        1    1    3    3  502    0  0.11073315067E+03  0.22325492630E+03 -0.12358130603E+03  0.27816709367E+03  0.50400001928E-02 0.  1.
       -1    1    3    3    0  502 -0.11073315067E+03 -0.22325492630E+03 -0.92146792009E+03  0.95457200910E+03  0.50400001928E-02 0. -1.
</event>
<event>
 5   0  0.3290656E-02  0.6990093E+03  0.7818609E-02  0.9718928E-01
        2   -1    0    0  501    0  0.00000000000E+00  0.00000000000E+00  0.94591837783E+03  0.94591837784E+03  0.25500000920E-02 0. -1.
       -2   -1    0    0    0  501  0.00000000000E+00  0.00000000000E+00 -0.12913745510E+03  0.12913745513E+03  0.25500000920E-02 0.  1.
    10030    2    1    2    0    0  0.00000000000E+00  0.00000000000E+00  0.81678092273E+03  0.10750558330E+04  0.69900927623E+03 0.  0.
        1    1    3    3  502    0 -0.13762755697E+03  0.11469024515E+03 -0.53150172024E+02  0.18686930615E+03  0.50400001928E-02 0.  1.
       -1    1    3    3    0  502  0.13762755697E+03 -0.11469024515E+03  0.86993109475E+03  0.88818652681E+03  0.50400001928E-02 0. -1.
</event>
<event>
 5   0  0.3113940E-02  0.7029457E+03  0.7818609E-02  0.9712208E-01
        2   -1    0    0  501    0  0.00000000000E+00  0.00000000000E+00  0.20229511936E+04  0.20229511936E+04  0.25500000920E-02 0.  1.
       -2   -1    0    0    0  501  0.00000000000E+00  0.00000000000E+00 -0.61065815732E+02  0.61065815785E+02  0.25500000920E-02 0. -1.
    10030    2    1    2    0    0  0.00000000000E+00  0.00000000000E+00  0.19618853779E+04  0.20840170094E+04  0.70294570169E+03 0.  0.
        5    1    3    3  502    0 -0.81267272644E+02  0.32440691150E+03  0.66071676130E+03  0.74054908176E+03  0.46999998093E+01 0. -1.
       -5    1    3    3    0  502  0.81267272644E+02 -0.32440691150E+03  0.13011686166E+04  0.13434679277E+04  0.46999998093E+01 0.  1.
</event>
<event>
 5   0  0.1839038E-02  0.6969288E+03  0.7818609E-02  0.9722499E-01
        1   -1    0    0  501    0  0.00000000000E+00  0.00000000000E+00  0.22059431215E+03  0.22059431221E+03  0.50400001928E-02 0.  1.
       -1   -1    0    0    0  501  0.00000000000E+00  0.00000000000E+00 -0.55045592277E+03  0.55045592279E+03  0.50400001928E-02 0. -1.
    10030    2    1    2    0    0  0.00000000000E+00  0.00000000000E+00 -0.32986161062E+03  0.77105023500E+03  0.69692882185E+03 0.  0.
        5    1    3    3  502    0  0.20625088729E+03  0.27590487046E+03 -0.22286860460E+03  0.41031138294E+03  0.46999998093E+01 0. -1.
       -5    1    3    3    0  502 -0.20625088729E+03 -0.27590487046E+03 -0.10699300602E+03  0.36073885206E+03  0.46999998093E+01 0.  1.
</event>
<event>
 5   0  0.3184443E-02  0.7259119E+03  0.7818609E-02  0.9673918E-01
       -2   -1    0    0    0  501  0.00000000000E+00  0.00000000000E+00  0.26951935134E+03  0.26951935135E+03  0.25500000920E-02 0. -1.
        2   -1    0    0  501    0  0.00000000000E+00  0.00000000000E+00 -0.48878502035E+03  0.48878502035E+03  0.25500000920E-02 0.  1.
    10030    2    1    2    0    0  0.00000000000E+00  0.00000000000E+00 -0.21926566901E+03  0.75830437170E+03  0.72591189998E+03 0.  0.
        3    1    3    3  502    0 -0.18569008093E+03  0.10429025722E+03 -0.41665208631E+03  0.46792759604E+03  0.10100000352E+00 0.  1.
       -3    1    3    3    0  502  0.18569008093E+03 -0.10429025722E+03  0.19738641730E+03  0.29037677566E+03  0.10100000352E+00 0. -1.
</event>
<event>
 5   0  0.1858013E-02  0.6912631E+03  0.7818609E-02  0.9732291E-01
        1   -1    0    0  501    0  0.00000000000E+00  0.00000000000E+00  0.15749085931E+04  0.15749085931E+04  0.50400001928E-02 0.  1.
       -1   -1    0    0    0  501  0.00000000000E+00  0.00000000000E+00 -0.75852773107E+02  0.75852773274E+02  0.50400001928E-02 0. -1.
    10030    2    1    2    0    0  0.00000000000E+00  0.00000000000E+00  0.14990558200E+04  0.16507613664E+04  0.69126314619E+03 0.  0.
        2    1    3    3  502    0 -0.92533276515E+02 -0.17338710139E+03  0.14284852190E+04  0.14419415782E+04  0.25500000920E-02 0.  1.
       -2    1    3    3    0  502  0.92533276515E+02  0.17338710139E+03  0.70570601030E+02  0.20881978816E+03  0.25500000920E-02 0. -1.
</event>
<event>
 5   0  0.1969818E-02  0.7041377E+03  0.7818609E-02  0.9710182E-01
        1   -1    0    0  501    0  0.00000000000E+00  0.00000000000E+00  0.51958464143E+03  0.51958464145E+03  0.50400001928E-02 0. -1.
       -1   -1    0    0    0  501  0.00000000000E+00  0.00000000000E+00 -0.23856071705E+03  0.23856071710E+03  0.50400001928E-02 0.  1.
    10030    2    1    2    0    0  0.00000000000E+00  0.00000000000E+00  0.28102392438E+03  0.75814535855E+03  0.70413772703E+03 0.  0.
        1    1    3    3  502    0  0.18339278093E+03  0.27964702659E+03  0.21991197081E+02  0.33514024580E+03  0.50400001928E-02 0.  1.
       -1    1    3    3    0  502 -0.18339278093E+03 -0.27964702659E+03  0.25903272730E+03  0.42300511276E+03  0.50400001928E-02 0. -1.
</event>
<event>
 5   0  0.1884172E-02  0.7020765E+03  0.7818609E-02  0.9713688E-01
       -1   -1    0    0    0  501  0.00000000000E+00  0.00000000000E+00  0.29472927592E+03  0.29472927596E+03  0.50400001928E-02 0.  1.
        1   -1    0    0  501    0  0.00000000000E+00  0.00000000000E+00 -0.41810528929E+03  0.41810528932E+03  0.50400001928E-02 0. -1.
    10030    2    1    2    0    0  0.00000000000E+00  0.00000000000E+00 -0.12337601338E+03  0.71283456528E+03  0.70207654624E+03 0.  0.
        3    1    3    3  502    0 -0.21977210591E+03 -0.17442412465E+03 -0.27588101867E+03  0.39348939053E+03  0.10100000352E+00 0. -1.
       -3    1    3    3    0  502  0.21977210591E+03  0.17442412465E+03  0.15250500529E+03  0.31934517475E+03  0.10100000352E+00 0.  1.
</event>
<event>
 5   0  0.1884172E-02  0.6595134E+03  0.7818609E-02  0.9789090E-01
       -1   -1    0    0    0  501  0.00000000000E+00  0.00000000000E+00  0.85965553156E+02  0.85965553304E+02  0.50400001928E-02 0. -1.
        1   -1    0    0  501    0  0.00000000000E+00  0.00000000000E+00 -0.12649192952E+04  0.12649192952E+04  0.50400001928E-02 0.  1.
    10030    2    1    2    0    0  0.00000000000E+00  0.00000000000E+00 -0.11789537420E+04  0.13508848485E+04  0.65951341765E+03 0.  0.
        3    1    3    3  502    0  0.28472625654E+03  0.20983107447E+02 -0.25147455907E+03  0.38045866533E+03  0.10100000352E+00 0. -1.
       -3    1    3    3    0  502 -0.28472625654E+03 -0.20983107447E+02 -0.92747918295E+03  0.97042618316E+03  0.10100000352E+00 0.  1.
</event>
<event>
 5   0  0.2933851E-02  0.7067494E+03  0.7818609E-02  0.9705759E-01
       -2   -1    0    0    0  501  0.00000000000E+00  0.00000000000E+00  0.40514703329E+03  0.40514703330E+03  0.25500000920E-02 0.  1.
        2   -1    0    0  501    0  0.00000000000E+00  0.00000000000E+00 -0.30821821488E+03  0.30821821489E+03  0.25500000920E-02 0. -1.
    10030    2    1    2    0    0  0.00000000000E+00  0.00000000000E+00  0.96928818407E+02  0.71336524819E+03  0.70674944746E+03 0.  0.
        2    1    3    3  502    0  0.12053243603E+03  0.11157985939E+03  0.36427593328E+03  0.39959365452E+03  0.25500000920E-02 0.  1.
       -2    1    3    3    0  502 -0.12053243603E+03 -0.11157985939E+03 -0.26734711488E+03  0.31377159367E+03  0.25500000920E-02 0. -1.
</event>
<event>
 5   0  0.1839038E-02  0.6987078E+03  0.7818609E-02  0.9719445E-01
        1   -1    0    0  501    0  0.00000000000E+00  0.00000000000E+00  0.11382901200E+03  0.11382901211E+03  0.50400001928E-02 0.  1.
       -1   -1    0    0    0  501  0.00000000000E+00  0.00000000000E+00 -0.10722059735E+04  0.10722059735E+04  0.50400001928E-02 0. -1.
    10030    2    1    2    0    0  0.00000000000E+00  0.00000000000E+00 -0.95837696150E+03  0.11860349856E+04  0.69870779786E+03 0.  0.
        5    1    3    3  502    0  0.50400187113E+02  0.36912291963E+02  0.10421606240E+03  0.12159676731E+03  0.46999998093E+01 0.  1.
       -5    1    3    3    0  502 -0.50400187113E+02 -0.36912291963E+02 -0.10625930239E+04  0.10644382183E+04  0.46999998093E+01 0. -1.
</event>
<event>
 5   0  0.3113940E-02  0.6871930E+03  0.7818609E-02  0.9739388E-01
        2   -1    0    0  501    0  0.00000000000E+00  0.00000000000E+00  0.18225328008E+04  0.18225328008E+04  0.25500000920E-02 0. -1.
       -2   -1    0    0    0  501  0.00000000000E+00  0.00000000000E+00 -0.64777197237E+02  0.64777197287E+02  0.25500000920E-02 0.  1.
    10030    2    1    2    0    0  0.00000000000E+00  0.00000000000E+00  0.17577556036E+04  0.18873099981E+04  0.68719303477E+03 0.  0.
        5    1    3    3  502    0  0.71660687174E+02  0.29502611072E+03  0.13205353014E+04  0.13549949197E+04  0.46999998093E+01 0. -1.
       -5    1    3    3    0  502 -0.71660687174E+02 -0.29502611072E+03  0.43722030219E+03  0.53231507845E+03  0.46999998093E+01 0.  1.
</event>
<event>
 5   0  0.1858013E-02  0.7001860E+03  0.7818609E-02  0.9716914E-01
        1   -1    0    0  501    0  0.00000000000E+00  0.00000000000E+00  0.36415707858E+03  0.36415707861E+03  0.50400001928E-02 0. -1.
       -1   -1    0    0    0  501  0.00000000000E+00  0.00000000000E+00 -0.33657212684E+03  0.33657212688E+03  0.50400001928E-02 0.  1.
    10030    2    1    2    0    0  0.00000000000E+00  0.00000000000E+00  0.27584951736E+02  0.70072920549E+03  0.70018603947E+03 0.  0.
        2    1    3    3  502    0 -0.32515322257E+03  0.80338789133E+02 -0.88199208046E+02  0.34634959145E+03  0.25500000920E-02 0. -1.
       -2    1    3    3    0  502  0.32515322257E+03 -0.80338789133E+02  0.11578415978E+03  0.35437961405E+03  0.25500000920E-02 0.  1.
</event>
<event>
 5   0  0.1233912E-02  0.6991119E+03  0.7818609E-02  0.9718752E-01
        4   -1    0    0  501    0  0.00000000000E+00  0.00000000000E+00  0.43380088527E+03  0.43380274430E+03  0.12699999809E+01 0. -1.
       -4   -1    0    0    0  501  0.00000000000E+00  0.00000000000E+00 -0.28166764404E+03  0.28167050716E+03  0.12699999809E+01 0.  1.
    10030    2    1    2    0    0  0.00000000000E+00  0.00000000000E+00  0.15213324123E+03  0.71547325146E+03  0.69911190125E+03 0.  0.
        1    1    3    3  502    0  0.27090558722E+03 -0.21009219058E+03  0.14593437647E+03  0.37259281795E+03  0.50400001928E-02 0. -1.
       -1    1    3    3    0  502 -0.27090558722E+03  0.21009219058E+03  0.61988647521E+01  0.34288043350E+03  0.50400001928E-02 0.  1.
</event>
<event>
 5   0  0.1969818E-02  0.6671088E+03  0.7818609E-02  0.9775195E-01
        1   -1    0    0  501    0  0.00000000000E+00  0.00000000000E+00  0.15506906752E+03  0.15506906761E+03  0.50400001928E-02 0.  1.
       -1   -1    0    0    0  501  0.00000000000E+00  0.00000000000E+00 -0.71747725824E+03  0.71747725826E+03  0.50400001928E-02 0. -1.
    10030    2    1    2    0    0  0.00000000000E+00  0.00000000000E+00 -0.56240819072E+03  0.87254632587E+03  0.66710877508E+03 0.  0.
        1    1    3    3  502    0 -0.40169531423E+02  0.13456999196E+03  0.11451541499E+03  0.18120831738E+03  0.50400001928E-02 0.  1.
       -1    1    3    3    0  502  0.40169531423E+02 -0.13456999196E+03 -0.67692360571E+03  0.69133800849E+03  0.50400001928E-02 0. -1.
</event>
<event>
 5   0  0.1858013E-02  0.6957122E+03  0.7818609E-02  0.9724593E-01
        1   -1    0    0  501    0  0.00000000000E+00  0.00000000000E+00  0.56780742766E+03  0.56780742768E+03  0.50400001928E-02 0. -1.
       -1   -1    0    0    0  501  0.00000000000E+00  0.00000000000E+00 -0.21310725357E+03  0.21310725363E+03  0.50400001928E-02 0.  1.
    10030    2    1    2    0    0  0.00000000000E+00  0.00000000000E+00  0.35470017409E+03  0.78091468131E+03  0.69571224367E+03 0.  0.
        2    1    3    3  502    0  0.72820841193E+02  0.15711016585E+02  0.55874838797E+03  0.56369271063E+03  0.25500000920E-02 0. -1.
       -2    1    3    3    0  502 -0.72820841193E+02 -0.15711016585E+02 -0.20404821388E+03  0.21722197068E+03  0.25500000920E-02 0.  1.
</event>
<event>
 5   0  0.3290656E-02  0.6893921E+03  0.7818609E-02  0.9735547E-01
        2   -1    0    0  501    0  0.00000000000E+00  0.00000000000E+00  0.14848004578E+04  0.14848004578E+04  0.25500000920E-02 0.  1.
       -2   -1    0    0    0  501  0.00000000000E+00  0.00000000000E+00 -0.80021102479E+02  0.80021102520E+02  0.25500000920E-02 0. -1.
    10030    2    1    2    0    0  0.00000000000E+00  0.00000000000E+00  0.14047793553E+04  0.15648215603E+04  0.68939210795E+03 0.  0.
        1    1    3    3  502    0  0.34426486031E+03  0.68162952213E+00  0.66329729925E+03  0.74731657675E+03  0.50400001928E-02 0. -1.
       -1    1    3    3    0  502 -0.34426486031E+03 -0.68162952213E+00  0.74148205603E+03  0.81750498354E+03  0.50400001928E-02 0.  1.
</event>
<event>
 5   0  0.3290656E-02  0.6990022E+03  0.7818609E-02  0.9718940E-01
       -2   -1    0    0    0  501  0.00000000000E+00  0.00000000000E+00  0.67850827502E+02  0.67850827550E+02  0.25500000920E-02 0. -1.
        2   -1    0    0  501    0  0.00000000000E+00  0.00000000000E+00 -0.18002876415E+04  0.18002876415E+04  0.25500000920E-02 0.  1.
    10030    2    1    2    0    0  0.00000000000E+00  0.00000000000E+00 -0.17324368140E+04  0.18681384690E+04  0.69900216384E+03 0.  0.
        1    1    3    3  502    0  0.96249822703E+02 -0.19591943949E+02 -0.17626411224E+04  0.17653757671E+04  0.50400001928E-02 0.  1.
       -1    1    3    3    0  502 -0.96249822703E+02  0.19591943949E+02  0.30204308418E+02  0.10276270194E+03  0.50400001928E-02 0. -1.
</event>
<event>
 5   0  0.1233912E-02  0.7031549E+03  0.7818609E-02  0.9711852E-01
        3   -1    0    0  501    0  0.00000000000E+00  0.00000000000E+00  0.77508632489E+02  0.77508698295E+02  0.10100000352E+00 0. -1.
       -3   -1    0    0    0  501  0.00000000000E+00  0.00000000000E+00 -0.15947466259E+04  0.15947466291E+04  0.10100000352E+00 0.  1.
    10030    2    1    2    0    0  0.00000000000E+00  0.00000000000E+00 -0.15172379934E+04  0.16722553274E+04  0.70315485589E+03 0.  0.
        2    1    3    3  502    0  0.59238985878E+02  0.32888576171E+03 -0.49884199607E+03  0.60043187687E+03  0.25500000920E-02 0. -1.
       -2    1    3    3    0  502 -0.59238985878E+02 -0.32888576171E+03 -0.10183959974E+04  0.10718234506E+04  0.25500000920E-02 0.  1.
</event>
<event>
 5   0  0.1951465E-02  0.6906001E+03  0.7818609E-02  0.9733444E-01
       -1   -1    0    0    0  501  0.00000000000E+00  0.00000000000E+00  0.14933282409E+03  0.14933282417E+03  0.50400001928E-02 0.  1.
        1   -1    0    0  501    0  0.00000000000E+00  0.00000000000E+00 -0.79843209235E+03  0.79843209236E+03  0.50400001928E-02 0. -1.
    10030    2    1    2    0    0  0.00000000000E+00  0.00000000000E+00 -0.64909926826E+03  0.94776491654E+03  0.69060008468E+03 0.  0.
        4    1    3    3  502    0 -0.10632163971E+03  0.30665278282E+03 -0.16280510651E+03  0.36310788464E+03  0.12699999809E+01 0. -1.
       -4    1    3    3    0  502  0.10632163971E+03 -0.30665278282E+03 -0.48629416175E+03  0.58465703189E+03  0.12699999809E+01 0.  1.
</event>
<event>
 5   0  0.3113940E-02  0.6988377E+03  0.7818609E-02  0.9719222E-01
       -2   -1    0    0    0  501  0.00000000000E+00  0.00000000000E+00  0.96592686906E+02  0.96592686939E+02  0.25500000920E-02 0. -1.
        2   -1    0    0  501    0  0.00000000000E+00  0.00000000000E+00 -0.12640039604E+04  0.12640039604E+04  0.25500000920E-02 0.  1.
    10030    2    1    2    0    0  0.00000000000E+00  0.00000000000E+00 -0.11674112735E+04  0.13605966474E+04  0.69883771742E+03 0.  0.
        5    1    3    3  502    0 -0.13236235997E+03  0.32203669856E+03 -0.64026822069E+03  0.72882982512E+03  0.46999998093E+01 0.  1.
       -5    1    3    3    0  502  0.13236235997E+03 -0.32203669856E+03 -0.52714305283E+03  0.63176682225E+03  0.46999998093E+01 0. -1.
</event>
<event>
 5   0  0.1839038E-02  0.7032502E+03  0.7818609E-02  0.9711690E-01
       -1   -1    0    0    0  501  0.00000000000E+00  0.00000000000E+00  0.31276929884E+03  0.31276929888E+03  0.50400001928E-02 0. -1.
        1   -1    0    0  501    0  0.00000000000E+00  0.00000000000E+00 -0.39530806400E+03  0.39530806403E+03  0.50400001928E-02 0.  1.
    10030    2    1    2    0    0  0.00000000000E+00  0.00000000000E+00 -0.82538765164E+02  0.70807736291E+03  0.70325024288E+03 0.  0.
        5    1    3    3  502    0 -0.19043399168E+03 -0.18091245416E+03  0.19405202383E+03  0.32660786765E+03  0.46999998093E+01 0. -1.
       -5    1    3    3    0  502  0.19043399168E+03  0.18091245416E+03 -0.27659078900E+03  0.38146949526E+03  0.46999998093E+01 0.  1.
</event>
<event>
 5   0  0.1858013E-02  0.7054680E+03  0.7818609E-02  0.9707927E-01
        1   -1    0    0  501    0  0.00000000000E+00  0.00000000000E+00  0.17288605018E+03  0.17288605025E+03  0.50400001928E-02 0. -1.
       -1   -1    0    0    0  501  0.00000000000E+00  0.00000000000E+00 -0.71967207162E+03  0.71967207164E+03  0.50400001928E-02 0.  1.
    10030    2    1    2    0    0  0.00000000000E+00  0.00000000000E+00 -0.54678602145E+03  0.89255812189E+03  0.70546796363E+03 0.  0.
        2    1    3    3  502    0 -0.27540059624E+03  0.20085155880E+02 -0.55108168775E+03  0.61639267392E+03  0.25500000920E-02 0.  1.
       -2    1    3    3    0  502  0.27540059624E+03 -0.20085155880E+02  0.42956663002E+01  0.27616544796E+03  0.25500000920E-02 0. -1.
</event>
<event>
 5   0  0.3113940E-02  0.6810751E+03  0.7818609E-02  0.9750155E-01
        2   -1    0    0  501    0  0.00000000000E+00  0.00000000000E+00  0.36267504255E+03  0.36267504256E+03  0.25500000920E-02 0. -1.
       -2   -1    0    0    0  501  0.00000000000E+00  0.00000000000E+00 -0.31975131669E+03  0.31975131670E+03  0.25500000920E-02 0.  1.
    10030    2    1    2    0    0  0.00000000000E+00  0.00000000000E+00  0.42923725862E+02  0.68242635926E+03  0.68107509833E+03 0.  0.
        5    1    3    3  502    0 -0.31559439624E+03 -0.60146026163E+02 -0.91573147580E+02  0.33410342524E+03  0.46999998093E+01 0.  1.
       -5    1    3    3    0  502  0.31559439624E+03  0.60146026163E+02  0.13449687344E+03  0.34832293402E+03  0.46999998093E+01 0. -1.
</event>
<event>
 5   0  0.3290656E-02  0.6945262E+03  0.7818609E-02  0.9726639E-01
       -2   -1    0    0    0  501  0.00000000000E+00  0.00000000000E+00  0.69165729038E+03  0.69165729039E+03  0.25500000920E-02 0. -1.
        2   -1    0    0  501    0  0.00000000000E+00  0.00000000000E+00 -0.17435175964E+03  0.17435175966E+03  0.25500000920E-02 0.  1.
    10030    2    1    2    0    0  0.00000000000E+00  0.00000000000E+00  0.51730553075E+03  0.86600905004E+03  0.69452621449E+03 0.  0.
        1    1    3    3  502    0 -0.21908107722E+03 -0.26828230491E+03  0.28969427211E+03  0.45154699073E+03  0.50400001928E-02 0. -1.
       -1    1    3    3    0  502  0.21908107722E+03  0.26828230491E+03  0.22761125864E+03  0.41446205931E+03  0.50400001928E-02 0.  1.
</event>
<event>
 5   0  0.1858013E-02  0.6694779E+03  0.7818609E-02  0.9770901E-01
       -1   -1    0    0    0  501  0.00000000000E+00  0.00000000000E+00  0.12600925711E+03  0.12600925721E+03  0.50400001928E-02 0.  1.
        1   -1    0    0  501    0  0.00000000000E+00  0.00000000000E+00 -0.88922167325E+03  0.88922167326E+03  0.50400001928E-02 0. -1.
    10030    2    1    2    0    0  0.00000000000E+00  0.00000000000E+00 -0.76321241614E+03  0.10152309305E+04  0.66947789362E+03 0.  0.
        2    1    3    3  502    0 -0.31326543105E+03  0.11785503437E+03 -0.38920710993E+03  0.51332953728E+03  0.25500000920E-02 0.  1.
       -2    1    3    3    0  502  0.31326543105E+03 -0.11785503437E+03 -0.37400530620E+03  0.50190139319E+03  0.25500000920E-02 0. -1.
</event>
<event>
 5   0  0.1839038E-02  0.6473436E+03  0.7818609E-02  0.9811777E-01
        1   -1    0    0  501    0  0.00000000000E+00  0.00000000000E+00  0.42822941399E+03  0.42822941402E+03  0.50400001928E-02 0.  1.
       -1   -1    0    0    0  501  0.00000000000E+00  0.00000000000E+00 -0.24464323429E+03  0.24464323434E+03  0.50400001928E-02 0. -1.
    10030    2    1    2    0    0  0.00000000000E+00  0.00000000000E+00  0.18358617970E+03  0.67287264835E+03  0.64734358383E+03 0.  0.
        5    1    3    3  502    0 -0.10708782089E+03 -0.44815981021E+02  0.40580803025E+03  0.42211197680E+03  0.46999998093E+01 0.  1.
       -5    1    3    3    0  502  0.10708782089E+03  0.44815981021E+02 -0.22222185055E+03  0.25076067156E+03  0.46999998093E+01 0. -1.
</event>
<event>
 5   0  0.1884172E-02  0.6550981E+03  0.7818609E-02  0.9797260E-01
       -1   -1    0    0    0  501  0.00000000000E+00  0.00000000000E+00  0.14917344134E+03  0.14917344143E+03  0.50400001928E-02 0.  1.
        1   -1    0    0  501    0  0.00000000000E+00  0.00000000000E+00 -0.71921904954E+03  0.71921904956E+03  0.50400001928E-02 0. -1.
    10030    2    1    2    0    0  0.00000000000E+00  0.00000000000E+00 -0.57004560820E+03  0.86839249098E+03  0.65509810179E+03 0.  0.
        3    1    3    3  502    0  0.20434466575E+03 -0.25275043799E+03 -0.33884972420E+03  0.46953026752E+03  0.10100000352E+00 0. -1.
       -3    1    3    3    0  502 -0.20434466575E+03  0.25275043799E+03 -0.23119588400E+03  0.39886222346E+03  0.10100000352E+00 0.  1.
</event>
<event>
 5   0  0.1884172E-02  0.6875779E+03  0.7818609E-02  0.9738715E-01
        1   -1    0    0  501    0  0.00000000000E+00  0.00000000000E+00  0.44604500489E+03  0.44604500492E+03  0.50400001928E-02 0.  1.
       -1   -1    0    0    0  501  0.00000000000E+00  0.00000000000E+00 -0.26497511731E+03  0.26497511736E+03  0.50400001928E-02 0. -1.
    10030    2    1    2    0    0  0.00000000000E+00  0.00000000000E+00  0.18106988757E+03  0.71102012228E+03  0.68757785748E+03 0.  0.
        3    1    3    3  502    0  0.31069438271E+03 -0.14712820703E+03  0.94278959746E+02  0.35646352016E+03  0.10100000352E+00 0.  1.
       -3    1    3    3    0  502 -0.31069438271E+03  0.14712820703E+03  0.86790927827E+02  0.35455660212E+03  0.10100000352E+00 0. -1.
</event>
<event>
 5   0  0.1839038E-02  0.7328813E+03  0.7818609E-02  0.9662596E-01
       -1   -1    0    0    0  501  0.00000000000E+00  0.00000000000E+00  0.73751436462E+02  0.73751436634E+02  0.50400001928E-02 0.  1.
        1   -1    0    0  501    0  0.00000000000E+00  0.00000000000E+00 -0.18206933297E+04  0.18206933297E+04  0.50400001928E-02 0. -1.
    10030    2    1    2    0    0  0.00000000000E+00  0.00000000000E+00 -0.17469418932E+04  0.18944447663E+04  0.73288129623E+03 0.  0.
        5    1    3    3  502    0  0.25767579546E+03  0.73651891005E+01 -0.20036863580E+03  0.32652831698E+03  0.46999998093E+01 0.  1.
       -5    1    3    3    0  502 -0.25767579546E+03 -0.73651891005E+01 -0.15465732574E+04  0.15679164493E+04  0.46999998093E+01 0. -1.
</event>
<event>
 5   0  0.1951465E-02  0.6899042E+03  0.7818609E-02  0.9734655E-01
        1   -1    0    0  501    0  0.00000000000E+00  0.00000000000E+00  0.10335149140E+04  0.10335149140E+04  0.50400001928E-02 0.  1.
       -1   -1    0    0    0  501  0.00000000000E+00  0.00000000000E+00 -0.11513326439E+03  0.11513326450E+03  0.50400001928E-02 0. -1.
    10030    2    1    2    0    0  0.00000000000E+00  0.00000000000E+00  0.91838164960E+03  0.11486481785E+04  0.68990418441E+03 0.  0.
        4    1    3    3  502    0 -0.12562762471E+03  0.32104714938E+03  0.43972023685E+03  0.55875671970E+03  0.12699999809E+01 0. -1.
       -4    1    3    3    0  502  0.12562762471E+03 -0.32104714938E+03  0.47866141276E+03  0.58989145881E+03  0.12699999809E+01 0.  1.
</event>
<event>
 5   0  0.1839038E-02  0.6840625E+03  0.7818609E-02  0.9744882E-01
        1   -1    0    0  501    0  0.00000000000E+00  0.00000000000E+00  0.21772585796E+03  0.21772585802E+03  0.50400001928E-02 0. -1.
       -1   -1    0    0    0  501  0.00000000000E+00  0.00000000000E+00 -0.53730586445E+03  0.53730586447E+03  0.50400001928E-02 0.  1.
    10030    2    1    2    0    0  0.00000000000E+00  0.00000000000E+00 -0.31958000648E+03  0.75503172249E+03  0.68406251281E+03 0.  0.
        5    1    3    3  502    0  0.19512615783E+03 -0.22205643652E+03 -0.34962163441E+03  0.45786532487E+03  0.46999998093E+01 0.  1.
       -5    1    3    3    0  502 -0.19512615783E+03  0.22205643652E+03  0.30041627926E+02  0.29716639762E+03  0.46999998093E+01 0. -1.
</event>
<event>
 5   0  0.3183963E-02  0.7042816E+03  0.7818609E-02  0.9709938E-01
       -2   -1    0    0    0  501  0.00000000000E+00  0.00000000000E+00  0.33210170393E+03  0.33210170394E+03  0.25500000920E-02 0. -1.
        2   -1    0    0  501    0  0.00000000000E+00  0.00000000000E+00 -0.37338903785E+03  0.37338903786E+03  0.25500000920E-02 0.  1.
    10030    2    1    2    0    0  0.00000000000E+00  0.00000000000E+00 -0.41287333927E+02  0.70549074180E+03  0.70428157921E+03 0.  0.
        4    1    3    3  502    0  0.26702569421E+03  0.48631784425E+02  0.20409336324E+03  0.33959311778E+03  0.12699999809E+01 0. -1.
       -4    1    3    3    0  502 -0.26702569421E+03 -0.48631784425E+02 -0.24538069717E+03  0.36589762402E+03  0.12699999809E+01 0.  1.
</event>
<event>
 5   0  0.1884172E-02  0.7012174E+03  0.7818609E-02  0.9715153E-01
       -1   -1    0    0    0  501  0.00000000000E+00  0.00000000000E+00  0.45202460568E+03  0.45202460571E+03  0.50400001928E-02 0.  1.
        1   -1    0    0  501    0  0.00000000000E+00  0.00000000000E+00 -0.27194641075E+03  0.27194641079E+03  0.50400001928E-02 0. -1.
    10030    2    1    2    0    0  0.00000000000E+00  0.00000000000E+00  0.18007819493E+03  0.72397101650E+03  0.70121742452E+03 0.  0.
        3    1    3    3  502    0 -0.18021312262E+03 -0.20657735882E+01 -0.22046102456E+03  0.28475271823E+03  0.10100000352E+00 0. -1.
       -3    1    3    3    0  502  0.18021312262E+03  0.20657735882E+01  0.40053921949E+03  0.43921829828E+03  0.10100000352E+00 0.  1.
</event>
<event>
 5   0  0.3184443E-02  0.6994929E+03  0.7818609E-02  0.9718100E-01
        2   -1    0    0  501    0  0.00000000000E+00  0.00000000000E+00  0.36073372297E+03  0.36073372298E+03  0.25500000920E-02 0. -1.
       -2   -1    0    0    0  501  0.00000000000E+00  0.00000000000E+00 -0.33909379332E+03  0.33909379333E+03  0.25500000920E-02 0.  1.
    10030    2    1    2    0    0  0.00000000000E+00  0.00000000000E+00  0.21639929652E+02  0.69982751631E+03  0.69949286346E+03 0.  0.
        3    1    3    3  502    0 -0.29057490152E+03  0.19457709627E+03  0.16164478839E+02  0.35007902017E+03  0.10100000352E+00 0.  1.
       -3    1    3    3    0  502  0.29057490152E+03 -0.19457709627E+03  0.54754508130E+01  0.34974849614E+03  0.10100000352E+00 0. -1.
</event>
<event>
 5   0  0.3184443E-02  0.7029472E+03  0.7818609E-02  0.9712205E-01
       -2   -1    0    0    0  501  0.00000000000E+00  0.00000000000E+00  0.34798967064E+03  0.34798967065E+03  0.25500000920E-02 0. -1.
        2   -1    0    0  501    0  0.00000000000E+00  0.00000000000E+00 -0.35499240098E+03  0.35499240099E+03  0.25500000920E-02 0.  1.
    10030    2    1    2    0    0  0.00000000000E+00  0.00000000000E+00 -0.70027303393E+01  0.70298207164E+03  0.70294719205E+03 0.  0.
        3    1    3    3  502    0 -0.21874207567E+03 -0.17568043560E+03 -0.21522386171E+03  0.35360010177E+03  0.10100000352E+00 0.  1.
       -3    1    3    3    0  502  0.21874207567E+03  0.17568043560E+03  0.20822113137E+03  0.34938196987E+03  0.10100000352E+00 0. -1.
</event>
<event>
 5   0  0.1233912E-02  0.7011329E+03  0.7818609E-02  0.9715297E-01
       -4   -1    0    0    0  501  0.00000000000E+00  0.00000000000E+00  0.38927834858E+03  0.38928042023E+03  0.12699999809E+01 0.  1.
        4   -1    0    0  501    0  0.00000000000E+00  0.00000000000E+00 -0.31570010969E+03  0.31570266416E+03  0.12699999809E+01 0. -1.
    10030    2    1    2    0    0  0.00000000000E+00  0.00000000000E+00  0.73578238897E+02  0.70498308439E+03  0.70113293464E+03 0.  0.
        1    1    3    3  502    0  0.84579433090E+02  0.11313127308E+03  0.35940063549E+03  0.38616211915E+03  0.50400001928E-02 0.  1.
       -1    1    3    3    0  502 -0.84579433090E+02 -0.11313127308E+03 -0.28582239660E+03  0.31882096523E+03  0.50400001928E-02 0. -1.
</event>
<event>
 5   0  0.3113940E-02  0.6928779E+03  0.7818609E-02  0.9729490E-01
       -2   -1    0    0    0  501  0.00000000000E+00  0.00000000000E+00  0.22120657920E+03  0.22120657921E+03  0.25500000920E-02 0.  1.
        2   -1    0    0  501    0  0.00000000000E+00  0.00000000000E+00 -0.54256958712E+03  0.54256958713E+03  0.25500000920E-02 0. -1.
    10030    2    1    2    0    0  0.00000000000E+00  0.00000000000E+00 -0.32136300792E+03  0.76377616634E+03  0.69287794698E+03 0.  0.
        5    1    3    3  502    0  0.10465076655E+03  0.19455582448E+03 -0.45480615722E+03  0.50564264300E+03  0.46999998093E+01 0. -1.
       -5    1    3    3    0  502 -0.10465076655E+03 -0.19455582448E+03  0.13344314930E+03  0.25813352334E+03  0.46999998093E+01 0.  1.
</event>
<event>
 5   0  0.1839038E-02  0.6955058E+03  0.7818609E-02  0.9724949E-01
        1   -1    0    0  501    0  0.00000000000E+00  0.00000000000E+00  0.20146997235E+03  0.20146997241E+03  0.50400001928E-02 0.  1.
       -1   -1    0    0    0  501  0.00000000000E+00  0.00000000000E+00 -0.60024867952E+03  0.60024867954E+03  0.50400001928E-02 0. -1.
    10030    2    1    2    0    0  0.00000000000E+00  0.00000000000E+00 -0.39877870717E+03  0.80171865195E+03  0.69550581564E+03 0.  0.
        5    1    3    3  502    0 -0.14880202942E+02 -0.77553249319E+02  0.19096032966E+03  0.20669751915E+03  0.46999998093E+01 0.  1.
       -5    1    3    3    0  502  0.14880202942E+02  0.77553249319E+02 -0.58973903683E+03  0.59502113280E+03  0.46999998093E+01 0. -1.
</event>
<event>
 5   0  0.1858013E-02  0.7402894E+03  0.7818609E-02  0.9650709E-01
       -1   -1    0    0    0  501  0.00000000000E+00  0.00000000000E+00  0.15273255199E+04  0.15273255200E+04  0.50400001928E-02 0.  1.
        1   -1    0    0  501    0  0.00000000000E+00  0.00000000000E+00 -0.89703920271E+02  0.89703920413E+02  0.50400001928E-02 0. -1.
    10030    2    1    2    0    0  0.00000000000E+00  0.00000000000E+00  0.14376215997E+04  0.16170294404E+04  0.74028936718E+03 0.  0.
        2    1    3    3  502    0  0.53417999747E+02 -0.34255558721E+03  0.10020092618E+04  0.10602925887E+04  0.25500000920E-02 0.  1.
       -2    1    3    3    0  502 -0.53417999747E+02  0.34255558721E+03  0.43561233788E+03  0.55673685162E+03  0.25500000920E-02 0. -1.
</event>
<event>
 5   0  0.3113940E-02  0.6982741E+03  0.7818609E-02  0.9720188E-01
       -2   -1    0    0    0  501  0.00000000000E+00  0.00000000000E+00  0.22904754803E+03  0.22904754805E+03  0.25500000920E-02 0. -1.
        2   -1    0    0  501    0  0.00000000000E+00  0.00000000000E+00 -0.53218937995E+03  0.53218937996E+03  0.25500000920E-02 0.  1.
    10030    2    1    2    0    0  0.00000000000E+00  0.00000000000E+00 -0.30314183192E+03  0.76123692800E+03  0.69827407964E+03 0.  0.
        5    1    3    3  502    0 -0.25745830570E+03 -0.20674689359E+03 -0.27512862948E+03  0.42982195144E+03  0.46999998093E+01 0. -1.
       -5    1    3    3    0  502  0.25745830570E+03  0.20674689359E+03 -0.28013202444E+02  0.33141497656E+03  0.46999998093E+01 0.  1.
</event>
<event>
 5   0  0.3290656E-02  0.6826886E+03  0.7818609E-02  0.9747304E-01
        2   -1    0    0  501    0  0.00000000000E+00  0.00000000000E+00  0.91097908017E+03  0.91097908018E+03  0.25500000920E-02 0. -1.
       -2   -1    0    0    0  501  0.00000000000E+00  0.00000000000E+00 -0.12790186274E+03  0.12790186277E+03  0.25500000920E-02 0.  1.
    10030    2    1    2    0    0  0.00000000000E+00  0.00000000000E+00  0.78307721743E+03  0.10388809429E+04  0.68268857113E+03 0.  0.
        1    1    3    3  502    0 -0.74218253333E+02  0.29698653861E+03  0.16172639001E+03  0.34621493107E+03  0.50400001928E-02 0. -1.
       -1    1    3    3    0  502  0.74218253333E+02 -0.29698653861E+03  0.62135082742E+03  0.69266601187E+03  0.50400001928E-02 0.  1.
</event>
<event>
 5   0  0.1858013E-02  0.6645398E+03  0.7818609E-02  0.9779872E-01
       -1   -1    0    0    0  501  0.00000000000E+00  0.00000000000E+00  0.32044353433E+03  0.32044353437E+03  0.50400001928E-02 0. -1.
        1   -1    0    0  501    0  0.00000000000E+00  0.00000000000E+00 -0.34453268740E+03  0.34453268744E+03  0.50400001928E-02 0.  1.
    10030    2    1    2    0    0  0.00000000000E+00  0.00000000000E+00 -0.24089153071E+02  0.66497622180E+03  0.66453975673E+03 0.  0.
        2    1    3    3  502    0  0.46604268308E+02 -0.31513369434E+03  0.82474165943E+02  0.32906411410E+03  0.25500000920E-02 0.  1.
       -2    1    3    3    0  502 -0.46604268308E+02  0.31513369434E+03 -0.10656331901E+03  0.33591210770E+03  0.25500000920E-02 0. -1.
</event>
<event>
 5   0  0.3290656E-02  0.7060954E+03  0.7818609E-02  0.9706865E-01
        2   -1    0    0  501    0  0.00000000000E+00  0.00000000000E+00  0.13313128725E+04  0.13313128725E+04  0.25500000920E-02 0. -1.
       -2   -1    0    0    0  501  0.00000000000E+00  0.00000000000E+00 -0.93623880759E+02  0.93623880794E+02  0.25500000920E-02 0.  1.
    10030    2    1    2    0    0  0.00000000000E+00  0.00000000000E+00  0.12376889917E+04  0.14249367533E+04  0.70609539768E+03 0.  0.
        1    1    3    3  502    0  0.31699286212E+03 -0.57529986138E+02  0.32745784422E+03  0.45937219518E+03  0.50400001928E-02 0.  1.
       -1    1    3    3    0  502 -0.31699286212E+03  0.57529986138E+02  0.91023114753E+03  0.96556455812E+03  0.50400001928E-02 0. -1.
</event>
<event>
 5   0  0.1951465E-02  0.6982404E+03  0.7818609E-02  0.9720246E-01
       -1   -1    0    0    0  501  0.00000000000E+00  0.00000000000E+00  0.99550595544E+02  0.99550595672E+02  0.50400001928E-02 0.  1.
        1   -1    0    0  501    0  0.00000000000E+00  0.00000000000E+00 -0.12243514135E+04  0.12243514136E+04  0.50400001928E-02 0. -1.
    10030    2    1    2    0    0  0.00000000000E+00  0.00000000000E+00 -0.11248008180E+04  0.13239020092E+04  0.69824039547E+03 0.  0.
        4    1    3    3  502    0  0.14495615034E+03 -0.30202715065E+03 -0.74866416255E+03  0.82020261304E+03  0.12699999809E+01 0. -1.
       -4    1    3    3    0  502 -0.14495615034E+03  0.30202715065E+03 -0.37613665546E+03  0.50369939619E+03  0.12699999809E+01 0.  1.
</event>
<event>
 5   0  0.1233912E-02  0.6996526E+03  0.7818609E-02  0.9717826E-01
        3   -1    0    0  501    0  0.00000000000E+00  0.00000000000E+00  0.14678032397E+03  0.14678035872E+03  0.10100000352E+00 0. -1.
       -3   -1    0    0    0  501  0.00000000000E+00  0.00000000000E+00 -0.83375228520E+03  0.83375229132E+03  0.10100000352E+00 0.  1.
    10030    2    1    2    0    0  0.00000000000E+00  0.00000000000E+00 -0.68697196122E+03  0.98053265004E+03  0.69965262973E+03 0.  0.
        3    1    3    3  502    0 -0.74795371471E+02  0.15571384810E+03  0.82836248235E+02  0.19158028162E+03  0.10100000352E+00 0. -1.
       -3    1    3    3    0  502  0.74795371471E+02 -0.15571384810E+03 -0.76980820946E+03  0.78895236842E+03  0.10100000352E+00 0.  1.
</event>
<event>
 5   0  0.3184443E-02  0.6881148E+03  0.7818609E-02  0.9737776E-01
       -2   -1    0    0    0  501  0.00000000000E+00  0.00000000000E+00  0.21286558229E+03  0.21286558231E+03  0.25500000920E-02 0. -1.
        2   -1    0    0  501    0  0.00000000000E+00  0.00000000000E+00 -0.55610436342E+03  0.55610436343E+03  0.25500000920E-02 0.  1.
    10030    2    1    2    0    0  0.00000000000E+00  0.00000000000E+00 -0.34323878113E+03  0.76896994574E+03  0.68811475539E+03 0.  0.
        3    1    3    3  502    0  0.24950053863E+03 -0.23207025236E+03 -0.22484288073E+03  0.40824190380E+03  0.10100000352E+00 0. -1.
       -3    1    3    3    0  502 -0.24950053863E+03  0.23207025236E+03 -0.11839590040E+03  0.36072804193E+03  0.10100000352E+00 0.  1.
</event>
<event>
 5   0  0.1951465E-02  0.6989967E+03  0.7818609E-02  0.9718950E-01
        1   -1    0    0  501    0  0.00000000000E+00  0.00000000000E+00  0.27602717151E+03  0.27602717156E+03  0.50400001928E-02 0. -1.
       -1   -1    0    0    0  501  0.00000000000E+00  0.00000000000E+00 -0.44252556784E+03  0.44252556787E+03  0.50400001928E-02 0.  1.
    10030    2    1    2    0    0  0.00000000000E+00  0.00000000000E+00 -0.16649839633E+03  0.71855273943E+03  0.69899665475E+03 0.  0.
        4    1    3    3  502    0  0.30044151351E+03 -0.17853742984E+03 -0.80578227943E+02  0.35865746976E+03  0.12699999809E+01 0.  1.
       -4    1    3    3    0  502 -0.30044151351E+03  0.17853742984E+03 -0.85920168390E+02  0.35989526967E+03  0.12699999809E+01 0. -1.
</event>
<event>
 5   0  0.3184443E-02  0.7221548E+03  0.7818609E-02  0.9680077E-01
       -2   -1    0    0    0  501  0.00000000000E+00  0.00000000000E+00  0.10908976647E+03  0.10908976650E+03  0.25500000920E-02 0. -1.
        2   -1    0    0  501    0  0.00000000000E+00  0.00000000000E+00 -0.11951341459E+04  0.11951341459E+04  0.25500000920E-02 0.  1.
    10030    2    1    2    0    0  0.00000000000E+00  0.00000000000E+00 -0.10860443794E+04  0.13042239124E+04  0.72215484460E+03 0.  0.
        3    1    3    3  502    0  0.82488726999E+02 -0.30492579749E+02  0.89451834550E+02  0.12544253030E+03  0.10100000352E+00 0. -1.
       -3    1    3    3    0  502 -0.82488726999E+02  0.30492579749E+02 -0.11754962140E+04  0.11787813821E+04  0.10100000352E+00 0.  1.
</event>
<event>
 5   0  0.3183963E-02  0.6975122E+03  0.7818609E-02  0.9721496E-01
        2   -1    0    0  501    0  0.00000000000E+00  0.00000000000E+00  0.82642289735E+03  0.82642289736E+03  0.25500000920E-02 0. -1.
       -2   -1    0    0    0  501  0.00000000000E+00  0.00000000000E+00 -0.14717743663E+03  0.14717743665E+03  0.25500000920E-02 0.  1.
    10030    2    1    2    0    0  0.00000000000E+00  0.00000000000E+00  0.67924546073E+03  0.97360033401E+03  0.69751216080E+03 0.  0.
        4    1    3    3  502    0 -0.53186830450E+02  0.31055623909E+03  0.54832057276E+03  0.63240104362E+03  0.12699999809E+01 0.  1.
       -4    1    3    3    0  502  0.53186830450E+02 -0.31055623909E+03  0.13092488797E+03  0.34119929038E+03  0.12699999809E+01 0. -1.
</event>
<event>
 5   0  0.2933851E-02  0.6951038E+03  0.7818609E-02  0.9725642E-01
       -2   -1    0    0    0  501  0.00000000000E+00  0.00000000000E+00  0.92161301018E+02  0.92161301053E+02  0.25500000920E-02 0. -1.
        2   -1    0    0  501    0  0.00000000000E+00  0.00000000000E+00 -0.13106619221E+04  0.13106619221E+04  0.25500000920E-02 0.  1.
    10030    2    1    2    0    0  0.00000000000E+00  0.00000000000E+00 -0.12185006211E+04  0.14028232232E+04  0.69510375617E+03 0.  0.
        2    1    3    3  502    0 -0.32619161346E+03 -0.11158337440E+03 -0.69815179162E+03  0.77863196844E+03  0.25500000920E-02 0. -1.
       -2    1    3    3    0  502  0.32619161346E+03  0.11158337440E+03 -0.52034882947E+03  0.62419125472E+03  0.25500000920E-02 0.  1.
</event>
<event>
 5   0  0.2933851E-02  0.6943878E+03  0.7818609E-02  0.9726878E-01
        2   -1    0    0  501    0  0.00000000000E+00  0.00000000000E+00  0.21421095794E+04  0.21421095794E+04  0.25500000920E-02 0. -1.
       -2   -1    0    0    0  501  0.00000000000E+00  0.00000000000E+00 -0.56273319085E+02  0.56273319143E+02  0.25500000920E-02 0.  1.
    10030    2    1    2    0    0  0.00000000000E+00  0.00000000000E+00  0.20858362603E+04  0.21983828985E+04  0.69438783383E+03 0.  0.
        2    1    3    3  502    0  0.23224098884E+01 -0.11566473794E+03  0.65420877880E+01  0.11587287910E+03  0.25500000920E-02 0.  1.
       -2    1    3    3    0  502 -0.23224098884E+01  0.11566473794E+03  0.20792941725E+04  0.20825100194E+04  0.25500000920E-02 0. -1.
</event>
<event>
 5   0  0.1858013E-02  0.6665641E+03  0.7818609E-02  0.9776185E-01
       -1   -1    0    0    0  501  0.00000000000E+00  0.00000000000E+00  0.17054637764E+03  0.17054637772E+03  0.50400001928E-02 0. -1.
        1   -1    0    0  501    0  0.00000000000E+00  0.00000000000E+00 -0.65130031845E+03  0.65130031847E+03  0.50400001928E-02 0.  1.
    10030    2    1    2    0    0  0.00000000000E+00  0.00000000000E+00 -0.48075394081E+03  0.82184669619E+03  0.66656405576E+03 0.  0.
        2    1    3    3  502    0 -0.54663817075E+02 -0.11007384225E+03 -0.62234092994E+03  0.63436000562E+03  0.25500000920E-02 0.  1.
       -2    1    3    3    0  502  0.54663817075E+02  0.11007384225E+03  0.14158698913E+03  0.18748669057E+03  0.25500000920E-02 0. -1.
</event>
<event>
 5   0  0.2933851E-02  0.7005538E+03  0.7818609E-02  0.9716286E-01
       -2   -1    0    0    0  501  0.00000000000E+00  0.00000000000E+00  0.27497408157E+03  0.27497408158E+03  0.25500000920E-02 0. -1.
        2   -1    0    0  501    0  0.00000000000E+00  0.00000000000E+00 -0.44620165641E+03  0.44620165642E+03  0.25500000920E-02 0.  1.
    10030    2    1    2    0    0  0.00000000000E+00  0.00000000000E+00 -0.17122757484E+03  0.72117573800E+03  0.70055375432E+03 0.  0.
        2    1    3    3  502    0  0.63013761688E+02  0.10646665927E+03  0.25173374203E+03  0.28049199735E+03  0.25500000920E-02 0. -1.
       -2    1    3    3    0  502 -0.63013761688E+02 -0.10646665927E+03 -0.42296131687E+03  0.44068374065E+03  0.25500000920E-02 0.  1.
</event>
<event>
 5   0  0.3113940E-02  0.6375678E+03  0.7818609E-02  0.9830391E-01
       -2   -1    0    0    0  501  0.00000000000E+00  0.00000000000E+00  0.15539085174E+03  0.15539085176E+03  0.25500000920E-02 0. -1.
        2   -1    0    0  501    0  0.00000000000E+00  0.00000000000E+00 -0.65398427594E+03  0.65398427595E+03  0.25500000920E-02 0.  1.
    10030    2    1    2    0    0  0.00000000000E+00  0.00000000000E+00 -0.49859342420E+03  0.80937512771E+03  0.63756779615E+03 0.  0.
        5    1    3    3  502    0  0.13500863052E+03 -0.13893402518E+03 -0.57062912709E+03  0.60263561490E+03  0.46999998093E+01 0.  1.
       -5    1    3    3    0  502 -0.13500863052E+03  0.13893402518E+03  0.72035702883E+02  0.20673951281E+03  0.46999998093E+01 0. -1.
</event>
<event>
 5   0  0.3113940E-02  0.7073255E+03  0.7818609E-02  0.9704786E-01
       -2   -1    0    0    0  501  0.00000000000E+00  0.00000000000E+00  0.90495187003E+02  0.90495187039E+02  0.25500000920E-02 0.  1.
        2   -1    0    0  501    0  0.00000000000E+00  0.00000000000E+00 -0.13821436246E+04  0.13821436246E+04  0.25500000920E-02 0. -1.
    10030    2    1    2    0    0  0.00000000000E+00  0.00000000000E+00 -0.12916484376E+04  0.14726388116E+04  0.70732551432E+03 0.  0.
        5    1    3    3  502    0  0.67073724268E+02 -0.24241510250E+03 -0.12828824006E+03  0.28238967570E+03  0.46999998093E+01 0.  1.
       -5    1    3    3    0  502 -0.67073724268E+02  0.24241510250E+03 -0.11633601975E+04  0.11902491359E+04  0.46999998093E+01 0. -1.
</event>
<event>
 5   0  0.3184443E-02  0.6925971E+03  0.7818609E-02  0.9729977E-01
        2   -1    0    0  501    0  0.00000000000E+00  0.00000000000E+00  0.13692368948E+04  0.13692368948E+04  0.25500000920E-02 0.  1.
       -2   -1    0    0    0  501  0.00000000000E+00  0.00000000000E+00 -0.87583584388E+02  0.87583584425E+02  0.25500000920E-02 0. -1.
    10030    2    1    2    0    0  0.00000000000E+00  0.00000000000E+00  0.12816533104E+04  0.14568204792E+04  0.69259706944E+03 0.  0.
        3    1    3    3  502    0  0.28910915783E+03  0.19007644765E+03  0.61038127506E+03  0.70162559263E+03  0.10100000352E+00 0.  1.
       -3    1    3    3    0  502 -0.28910915783E+03 -0.19007644765E+03  0.67127203534E+03  0.75519488658E+03  0.10100000352E+00 0. -1.
</event>
<event>
 5   0  0.1839038E-02  0.7189047E+03  0.7818609E-02  0.9685438E-01
        1   -1    0    0  501    0  0.00000000000E+00  0.00000000000E+00  0.57608669088E+03  0.57608669090E+03  0.50400001928E-02 0.  1.
       -1   -1    0    0    0  501  0.00000000000E+00  0.00000000000E+00 -0.22428217828E+03  0.22428217833E+03  0.50400001928E-02 0. -1.
    10030    2    1    2    0    0  0.00000000000E+00  0.00000000000E+00  0.35180451260E+03  0.80036886924E+03  0.71890466110E+03 0.  0.
        5    1    3    3  502    0 -0.14916334891E+02 -0.23524233301E+03 -0.12617913950E+03  0.26740366028E+03  0.46999998093E+01 0. -1.
       -5    1    3    3    0  502  0.14916334891E+02  0.23524233301E+03  0.47798365211E+03  0.53296520896E+03  0.46999998093E+01 0.  1.
</event>
<event>
 5   0  0.1969818E-02  0.7107961E+03  0.7818609E-02  0.9698946E-01
       -1   -1    0    0    0  501  0.00000000000E+00  0.00000000000E+00  0.10683990081E+03  0.10683990093E+03  0.50400001928E-02 0.  1.
        1   -1    0    0  501    0  0.00000000000E+00  0.00000000000E+00 -0.11822152491E+04  0.11822152491E+04  0.50400001928E-02 0. -1.
    10030    2    1    2    0    0  0.00000000000E+00  0.00000000000E+00 -0.10753753483E+04  0.12890551500E+04  0.71079606086E+03 0.  0.
        1    1    3    3  502    0 -0.22556224493E+03  0.45016978233E+02 -0.10290287935E+04  0.10544216958E+04  0.50400001928E-02 0. -1.
       -1    1    3    3    0  502  0.22556224493E+03 -0.45016978233E+02 -0.46346554735E+02  0.23463345420E+03  0.50400001928E-02 0.  1.
</event>
<event>
 5   0  0.3184443E-02  0.6937214E+03  0.7818609E-02  0.9728030E-01
        2   -1    0    0  501    0  0.00000000000E+00  0.00000000000E+00  0.83909656689E+03  0.83909656690E+03  0.25500000920E-02 0.  1.
       -2   -1    0    0    0  501  0.00000000000E+00  0.00000000000E+00 -0.14338317945E+03  0.14338317947E+03  0.25500000920E-02 0. -1.
    10030    2    1    2    0    0  0.00000000000E+00  0.00000000000E+00  0.69571338744E+03  0.98247974637E+03  0.69372136665E+03 0.  0.
        3    1    3    3  502    0 -0.25785084330E+03  0.92310360098E+02  0.46412367676E+02  0.27778116935E+03  0.10100000352E+00 0. -1.
       -3    1    3    3    0  502  0.25785084330E+03 -0.92310360098E+02  0.64930101977E+03  0.70469857701E+03  0.10100000352E+00 0.  1.
</event>
<event>
 5   0  0.1233912E-02  0.7051484E+03  0.7818609E-02  0.9708468E-01
       -4   -1    0    0    0  501  0.00000000000E+00  0.00000000000E+00  0.15955393530E+03  0.15955898962E+03  0.12699999809E+01 0. -1.
        4   -1    0    0  501    0  0.00000000000E+00  0.00000000000E+00 -0.77908277539E+03  0.77908381052E+03  0.12699999809E+01 0.  1.
    10030    2    1    2    0    0  0.00000000000E+00  0.00000000000E+00 -0.61952884009E+03  0.93864280014E+03  0.70514844007E+03 0.  0.
        3    1    3    3  502    0 -0.13484432818E+03  0.18506014562E+03 -0.66664158727E+03  0.70486968045E+03  0.10100000352E+00 0.  1.
       -3    1    3    3    0  502  0.13484432818E+03 -0.18506014562E+03  0.47112747179E+02  0.23377311968E+03  0.10100000352E+00 0. -1.
</event>
<event>
 5   0  0.3183963E-02  0.7056702E+03  0.7818609E-02  0.9707584E-01
       -2   -1    0    0    0  501  0.00000000000E+00  0.00000000000E+00  0.84373928465E+02  0.84373928503E+02  0.25500000920E-02 0.  1.
        2   -1    0    0  501    0  0.00000000000E+00  0.00000000000E+00 -0.14754866490E+04  0.14754866490E+04  0.25500000920E-02 0. -1.
    10030    2    1    2    0    0  0.00000000000E+00  0.00000000000E+00 -0.13911127205E+04  0.15598605775E+04  0.70567019210E+03 0.  0.
        4    1    3    3  502    0 -0.78030172090E+02  0.47032123600E+02 -0.14490314137E+04  0.14518933773E+04  0.12699999809E+01 0. -1.
       -4    1    3    3    0  502  0.78030172090E+02 -0.47032123600E+02  0.57918693118E+02  0.10796720020E+03  0.12699999809E+01 0.  1.
</event>
<event>
 5   0  0.1233912E-02  0.6870611E+03  0.7818609E-02  0.9739619E-01
        3   -1    0    0  501    0  0.00000000000E+00  0.00000000000E+00  0.56082974436E+02  0.56083065382E+02  0.10100000352E+00 0.  1.
       -3   -1    0    0    0  501  0.00000000000E+00  0.00000000000E+00 -0.21042597907E+04  0.21042597931E+04  0.10100000352E+00 0. -1.
    10030    2    1    2    0    0  0.00000000000E+00  0.00000000000E+00 -0.20481768162E+04  0.21603428585E+04  0.68706112945E+03 0.  0.
        1    1    3    3  502    0 -0.17580497461E+03 -0.28403979930E+03 -0.12761693269E+04  0.13191641852E+04  0.50400001928E-02 0. -1.
       -1    1    3    3    0  502  0.17580497461E+03  0.28403979930E+03 -0.77200748933E+03  0.84117867323E+03  0.50400001928E-02 0.  1.
</event>
<event>
 5   0  0.1951465E-02  0.6852966E+03  0.7818609E-02  0.9742713E-01
       -1   -1    0    0    0  501  0.00000000000E+00  0.00000000000E+00  0.52806059030E+03  0.52806059032E+03  0.50400001928E-02 0.  1.
        1   -1    0    0  501    0  0.00000000000E+00  0.00000000000E+00 -0.22233782693E+03  0.22233782699E+03  0.50400001928E-02 0. -1.
    10030    2    1    2    0    0  0.00000000000E+00  0.00000000000E+00  0.30572276336E+03  0.75039841732E+03  0.68529656111E+03 0.  0.
        4    1    3    3  502    0  0.97690788466E+02 -0.32673036412E+03  0.18934323199E+03  0.39006242243E+03  0.12699999809E+01 0.  1.
       -4    1    3    3    0  502 -0.97690788466E+02  0.32673036412E+03  0.11637953138E+03  0.36033599489E+03  0.12699999809E+01 0. -1.
</event>
<event>
 5   0  0.3183963E-02  0.6839187E+03  0.7818609E-02  0.9745136E-01
        2   -1    0    0  501    0  0.00000000000E+00  0.00000000000E+00  0.20036795090E+04  0.20036795090E+04  0.25500000920E-02 0.  1.
       -2   -1    0    0    0  501  0.00000000000E+00  0.00000000000E+00 -0.58360727565E+02  0.58360727620E+02  0.25500000920E-02 0. -1.
    10030    2    1    2    0    0  0.00000000000E+00  0.00000000000E+00  0.19453187814E+04  0.20620402366E+04  0.68391869110E+03 0.  0.
        4    1    3    3  502    0 -0.33574714145E+03 -0.58549652825E+02  0.10568851026E+04  0.11104782474E+04  0.12699999809E+01 0. -1.
       -4    1    3    3    0  502  0.33574714145E+03  0.58549652825E+02  0.88843367880E+03  0.95156198924E+03  0.12699999809E+01 0.  1.
</event>
<event>
 5   0  0.3290656E-02  0.7013524E+03  0.7818609E-02  0.9714922E-01
        2   -1    0    0  501    0  0.00000000000E+00  0.00000000000E+00  0.44968614075E+03  0.44968614076E+03  0.25500000920E-02 0. -1.
       -2   -1    0    0    0  501  0.00000000000E+00  0.00000000000E+00 -0.27346585472E+03  0.27346585473E+03  0.25500000920E-02 0.  1.
    10030    2    1    2    0    0  0.00000000000E+00  0.00000000000E+00  0.17622028603E+03  0.72315199549E+03  0.70135242166E+03 0.  0.
        1    1    3    3  502    0 -0.22564574226E+03 -0.12857804189E+03  0.33107277954E+03  0.42078200916E+03  0.50400001928E-02 0.  1.
       -1    1    3    3    0  502  0.22564574226E+03  0.12857804189E+03 -0.15485249351E+03  0.30236998632E+03  0.50400001928E-02 0. -1.
</event>
<event>
 5   0  0.2933851E-02  0.6941027E+03  0.7818609E-02  0.9727371E-01
        2   -1    0    0  501    0  0.00000000000E+00  0.00000000000E+00  0.17049305521E+04  0.17049305521E+04  0.25500000920E-02 0. -1.
       -2   -1    0    0    0  501  0.00000000000E+00  0.00000000000E+00 -0.70644902595E+02  0.70644902641E+02  0.25500000920E-02 0.  1.
    10030    2    1    2    0    0  0.00000000000E+00  0.00000000000E+00  0.16342856495E+04  0.17755754548E+04  0.69410273830E+03 0.  0.
        2    1    3    3  502    0 -0.33604986357E+02 -0.11825116445E+03 -0.13081743755E+02  0.12362752536E+03  0.25500000920E-02 0.  1.
       -2    1    3    3    0  502  0.33604986357E+02  0.11825116445E+03  0.16473673933E+04  0.16519479294E+04  0.25500000920E-02 0. -1.
</event>
<event>
 5   0  0.1884172E-02  0.6961460E+03  0.7818609E-02  0.9723846E-01
        1   -1    0    0  501    0  0.00000000000E+00  0.00000000000E+00  0.56759127894E+03  0.56759127897E+03  0.50400001928E-02 0.  1.
       -1   -1    0    0    0  501  0.00000000000E+00  0.00000000000E+00 -0.21345433504E+03  0.21345433510E+03  0.50400001928E-02 0. -1.
    10030    2    1    2    0    0  0.00000000000E+00  0.00000000000E+00  0.35413694390E+03  0.78104561407E+03  0.69614601645E+03 0.  0.
        3    1    3    3  502    0 -0.67770915192E+02  0.27539802926E+03 -0.49327349797E+02  0.28787179283E+03  0.10100000352E+00 0.  1.
       -3    1    3    3    0  502  0.67770915192E+02 -0.27539802926E+03  0.40346429370E+03  0.49317382124E+03  0.10100000352E+00 0. -1.
</event>
<event>
 5   0  0.1233912E-02  0.6152990E+03  0.7818609E-02  0.9874164E-01
        3   -1    0    0  501    0  0.00000000000E+00  0.00000000000E+00  0.80943611879E+03  0.80943612509E+03  0.10100000352E+00 0.  1.
       -3   -1    0    0    0  501  0.00000000000E+00  0.00000000000E+00 -0.11693102657E+03  0.11693107019E+03  0.10100000352E+00 0. -1.
    10030    2    1    2    0    0  0.00000000000E+00  0.00000000000E+00  0.69250509222E+03  0.92636719528E+03  0.61529901490E+03 0.  0.
        4    1    3    3  502    0  0.28755724009E+03 -0.40865418124E+02  0.19354834649E+03  0.34902968936E+03  0.12699999809E+01 0. -1.
       -4    1    3    3    0  502 -0.28755724009E+03  0.40865418124E+02  0.49895674573E+03  0.57733750592E+03  0.12699999809E+01 0.  1.
</event>
<event>
 5   0  0.1969818E-02  0.6943893E+03  0.7818609E-02  0.9726876E-01
        1   -1    0    0  501    0  0.00000000000E+00  0.00000000000E+00  0.18453091907E+03  0.18453091914E+03  0.50400001928E-02 0. -1.
       -1   -1    0    0    0  501  0.00000000000E+00  0.00000000000E+00 -0.65324620639E+03  0.65324620641E+03  0.50400001928E-02 0.  1.
    10030    2    1    2    0    0  0.00000000000E+00  0.00000000000E+00 -0.46871528732E+03  0.83777712555E+03  0.69438929393E+03 0.  0.
        1    1    3    3  502    0  0.29810137480E+03  0.14283130379E+03 -0.10622520751E+03  0.34720167876E+03  0.50400001928E-02 0. -1.
       -1    1    3    3    0  502 -0.29810137480E+03 -0.14283130379E+03 -0.36249007982E+03  0.49057544679E+03  0.50400001928E-02 0.  1.
</event>
<event>
 5   0  0.1858013E-02  0.6976317E+03  0.7818609E-02  0.9721291E-01
       -1   -1    0    0    0  501  0.00000000000E+00  0.00000000000E+00  0.12078769011E+04  0.12078769011E+04  0.50400001928E-02 0.  1.
        1   -1    0    0  501    0  0.00000000000E+00  0.00000000000E+00 -0.10073253937E+03  0.10073253950E+03  0.50400001928E-02 0. -1.
    10030    2    1    2    0    0  0.00000000000E+00  0.00000000000E+00  0.11071443617E+04  0.13086094406E+04  0.69763172973E+03 0.  0.
        2    1    3    3  502    0 -0.63964057564E+01  0.15429265852E+03  0.11402633775E+04  0.11506727200E+04  0.25500000920E-02 0.  1.
       -2    1    3    3    0  502  0.63964057564E+01 -0.15429265852E+03 -0.33119015834E+02  0.15793672055E+03  0.25500000920E-02 0. -1.
</event>
<event>
 5   0  0.2933851E-02  0.7070285E+03  0.7818609E-02  0.9705287E-01
       -2   -1    0    0    0  501  0.00000000000E+00  0.00000000000E+00  0.94328151855E+02  0.94328151889E+02  0.25500000920E-02 0. -1.
        2   -1    0    0  501    0  0.00000000000E+00  0.00000000000E+00 -0.13248677139E+04  0.13248677139E+04  0.25500000920E-02 0.  1.
    10030    2    1    2    0    0  0.00000000000E+00  0.00000000000E+00 -0.12305395620E+04  0.14191958658E+04  0.70702849427E+03 0.  0.
        2    1    3    3  502    0 -0.17908213528E+03 -0.22209747437E+03 -0.19626185058E+03  0.34628949348E+03  0.25500000920E-02 0.  1.
       -2    1    3    3    0  502  0.17908213528E+03  0.22209747437E+03 -0.10342777114E+04  0.10729063723E+04  0.25500000920E-02 0. -1.
</event>
<event>
 5   0  0.3113940E-02  0.6954804E+03  0.7818609E-02  0.9724993E-01
        2   -1    0    0  501    0  0.00000000000E+00  0.00000000000E+00  0.27566630635E+04  0.27566630635E+04  0.25500000920E-02 0.  1.
       -2   -1    0    0    0  501  0.00000000000E+00  0.00000000000E+00 -0.43865811129E+02  0.43865811203E+02  0.25500000920E-02 0. -1.
    10030    2    1    2    0    0  0.00000000000E+00  0.00000000000E+00  0.27127972524E+04  0.28005288747E+04  0.69548044227E+03 0.  0.
        5    1    3    3  502    0 -0.23538790404E+03 -0.17940918715E+03  0.62151817391E+03  0.68840544180E+03  0.46999998093E+01 0. -1.
       -5    1    3    3    0  502  0.23538790404E+03  0.17940918715E+03  0.20912790785E+04  0.21121234329E+04  0.46999998093E+01 0.  1.
</event>
<event>
 5   0  0.1969818E-02  0.6995922E+03  0.7818609E-02  0.9717930E-01
        1   -1    0    0  501    0  0.00000000000E+00  0.00000000000E+00  0.81678408399E+03  0.81678408401E+03  0.50400001928E-02 0. -1.
       -1   -1    0    0    0  501  0.00000000000E+00  0.00000000000E+00 -0.14980375300E+03  0.14980375308E+03  0.50400001928E-02 0.  1.
    10030    2    1    2    0    0  0.00000000000E+00  0.00000000000E+00  0.66698033100E+03  0.96658783709E+03  0.69959222757E+03 0.  0.
        1    1    3    3  502    0  0.18779656398E+03 -0.25947858882E+03  0.52771143295E+03  0.61731357023E+03  0.50400001928E-02 0. -1.
       -1    1    3    3    0  502 -0.18779656398E+03  0.25947858882E+03  0.13926889804E+03  0.34927426685E+03  0.50400001928E-02 0.  1.
</event>
<event>
 5   0  0.3290656E-02  0.7007083E+03  0.7818609E-02  0.9716022E-01
        2   -1    0    0  501    0  0.00000000000E+00  0.00000000000E+00  0.75977607416E+03  0.75977607416E+03  0.25500000920E-02 0. -1.
       -2   -1    0    0    0  501  0.00000000000E+00  0.00000000000E+00 -0.16155815209E+03  0.16155815211E+03  0.25500000920E-02 0.  1.
    10030    2    1    2    0    0  0.00000000000E+00  0.00000000000E+00  0.59821792207E+03  0.92133422627E+03  0.70070826612E+03 0.  0.
        1    1    3    3  502    0  0.36035358104E+02  0.24192757113E+03 -0.30710381740E+02  0.24651698578E+03  0.50400001928E-02 0.  1.
       -1    1    3    3    0  502 -0.36035358104E+02 -0.24192757113E+03  0.62892830381E+03  0.67481724049E+03  0.50400001928E-02 0. -1.
</event>
<event>
 5   0  0.1969818E-02  0.7003291E+03  0.7818609E-02  0.9716670E-01
       -1   -1    0    0    0  501  0.00000000000E+00  0.00000000000E+00  0.14928898939E+03  0.14928898947E+03  0.50400001928E-02 0.  1.
        1   -1    0    0  501    0  0.00000000000E+00  0.00000000000E+00 -0.82132778668E+03  0.82132778670E+03  0.50400001928E-02 0. -1.
    10030    2    1    2    0    0  0.00000000000E+00  0.00000000000E+00 -0.67203879730E+03  0.97061677617E+03  0.70032905203E+03 0.  0.
        1    1    3    3  502    0  0.33384496098E+03 -0.10458492157E+03 -0.35679614754E+03  0.49969386099E+03  0.50400001928E-02 0. -1.
       -1    1    3    3    0  502 -0.33384496098E+03  0.10458492157E+03 -0.31524264976E+03  0.47092291518E+03  0.50400001928E-02 0.  1.
</event>
<event>
 5   0  0.3113940E-02  0.7043196E+03  0.7818609E-02  0.9709874E-01
        2   -1    0    0  501    0  0.00000000000E+00  0.00000000000E+00  0.10128087272E+04  0.10128087272E+04  0.25500000920E-02 0.  1.
       -2   -1    0    0    0  501  0.00000000000E+00  0.00000000000E+00 -0.12244810314E+03  0.12244810317E+03  0.25500000920E-02 0. -1.
    10030    2    1    2    0    0  0.00000000000E+00  0.00000000000E+00  0.89036062410E+03  0.11352568304E+04  0.70431955109E+03 0.  0.
        5    1    3    3  502    0 -0.35538993196E+02  0.33532485019E+03  0.60867491250E+03  0.69585416166E+03  0.46999998093E+01 0.  1.
       -5    1    3    3    0  502  0.35538993196E+02 -0.33532485019E+03  0.28168571160E+03  0.43940266875E+03  0.46999998093E+01 0. -1.
</event>
<event>
 5   0  0.3183963E-02  0.7024304E+03  0.7818609E-02  0.9713085E-01
        2   -1    0    0  501    0  0.00000000000E+00  0.00000000000E+00  0.98372316978E+03  0.98372316978E+03  0.25500000920E-02 0. -1.
       -2   -1    0    0    0  501  0.00000000000E+00  0.00000000000E+00 -0.12539310391E+03  0.12539310394E+03  0.25500000920E-02 0.  1.
    10030    2    1    2    0    0  0.00000000000E+00  0.00000000000E+00  0.85833006587E+03  0.11091162737E+04  0.70243035715E+03 0.  0.
        4    1    3    3  502    0 -0.13982346727E+03  0.27370527600E+03  0.16080841396E+03  0.34688058321E+03  0.12699999809E+01 0.  1.
       -4    1    3    3    0  502  0.13982346727E+03 -0.27370527600E+03  0.69752165191E+03  0.76223569051E+03  0.12699999809E+01 0. -1.
</event>
<event>
 5   0  0.3113940E-02  0.6868880E+03  0.7818609E-02  0.9739922E-01
       -2   -1    0    0    0  501  0.00000000000E+00  0.00000000000E+00  0.19921007393E+03  0.19921007395E+03  0.25500000920E-02 0. -1.
        2   -1    0    0  501    0  0.00000000000E+00  0.00000000000E+00 -0.59210745396E+03  0.59210745397E+03  0.25500000920E-02 0.  1.
    10030    2    1    2    0    0  0.00000000000E+00  0.00000000000E+00 -0.39289738003E+03  0.79131752791E+03  0.68688796666E+03 0.  0.
        5    1    3    3  502    0 -0.18684603426E+03  0.14787162044E+03 -0.48133927948E+03  0.53710990367E+03  0.46999998093E+01 0.  1.
       -5    1    3    3    0  502  0.18684603426E+03 -0.14787162044E+03  0.88441899445E+02  0.25420762425E+03  0.46999998093E+01 0. -1.
</event>
<event>
 5   0  0.3113940E-02  0.8355004E+03  0.7818609E-02  0.9510007E-01
        2   -1    0    0  501    0  0.00000000000E+00  0.00000000000E+00  0.41971932777E+03  0.41971932778E+03  0.25500000920E-02 0. -1.
       -2   -1    0    0    0  501  0.00000000000E+00  0.00000000000E+00 -0.41579031090E+03  0.41579031091E+03  0.25500000920E-02 0.  1.
    10030    2    1    2    0    0  0.00000000000E+00  0.00000000000E+00  0.39290168745E+01  0.83550963869E+03  0.83550040046E+03 0.  0.
        5    1    3    3  502    0 -0.86265123829E+01 -0.37455184358E+03 -0.18277962354E+03  0.41688605281E+03  0.46999998093E+01 0.  1.
       -5    1    3    3    0  502  0.86265123829E+01  0.37455184358E+03  0.18670864042E+03  0.41862358588E+03  0.46999998093E+01 0. -1.
</event>
<event>
 5   0  0.1233912E-02  0.7008139E+03  0.7818609E-02  0.9715841E-01
       -4   -1    0    0    0  501  0.00000000000E+00  0.00000000000E+00  0.33193254430E+03  0.33193497385E+03  0.12699999809E+01 0.  1.
        4   -1    0    0  501    0  0.00000000000E+00  0.00000000000E+00 -0.36990472932E+03  0.36990690947E+03  0.12699999809E+01 0. -1.
    10030    2    1    2    0    0  0.00000000000E+00  0.00000000000E+00 -0.37972185016E+02  0.70184188332E+03  0.70081391421E+03 0.  0.
        1    1    3    3  502    0 -0.20399329887E+03 -0.43506701703E+02  0.26299206835E+03  0.33566490301E+03  0.50400001928E-02 0.  1.
       -1    1    3    3    0  502  0.20399329887E+03  0.43506701703E+02 -0.30096425336E+03  0.36617698030E+03  0.50400001928E-02 0. -1.
</event>
<event>
 5   0  0.3184443E-02  0.6889992E+03  0.7818609E-02  0.9736232E-01
        2   -1    0    0  501    0  0.00000000000E+00  0.00000000000E+00  0.13666283417E+03  0.13666283419E+03  0.25500000920E-02 0.  1.
       -2   -1    0    0    0  501  0.00000000000E+00  0.00000000000E+00 -0.86841452231E+03  0.86841452231E+03  0.25500000920E-02 0. -1.
    10030    2    1    2    0    0  0.00000000000E+00  0.00000000000E+00 -0.73175168814E+03  0.10050773565E+04  0.68899924489E+03 0.  0.
        3    1    3    3  502    0  0.26069173638E+03 -0.82612642714E+02 -0.60251446941E+02  0.28002727941E+03  0.10100000352E+00 0.  1.
       -3    1    3    3    0  502 -0.26069173638E+03  0.82612642714E+02 -0.67150024120E+03  0.72505007709E+03  0.10100000352E+00 0. -1.
</event>
<event>
 5   0  0.1858013E-02  0.7005824E+03  0.7818609E-02  0.9716237E-01
       -1   -1    0    0    0  501  0.00000000000E+00  0.00000000000E+00  0.17363416160E+03  0.17363416168E+03  0.50400001928E-02 0.  1.
        1   -1    0    0  501    0  0.00000000000E+00  0.00000000000E+00 -0.70668068820E+03  0.70668068822E+03  0.50400001928E-02 0. -1.
    10030    2    1    2    0    0  0.00000000000E+00  0.00000000000E+00 -0.53304652660E+03  0.88031484990E+03  0.70058235449E+03 0.  0.
        2    1    3    3  502    0  0.78737426688E+02  0.13306311697E+03  0.12843761708E+03  0.20100148494E+03  0.25500000920E-02 0.  1.
       -2    1    3    3    0  502 -0.78737426688E+02 -0.13306311697E+03 -0.66148414368E+03  0.67931336496E+03  0.25500000920E-02 0. -1.
</event>
<event>
 5   0  0.3183963E-02  0.7002386E+03  0.7818609E-02  0.9716824E-01
       -2   -1    0    0    0  501  0.00000000000E+00  0.00000000000E+00  0.15063837768E+03  0.15063837770E+03  0.25500000920E-02 0.  1.
        2   -1    0    0  501    0  0.00000000000E+00  0.00000000000E+00 -0.81376030572E+03  0.81376030573E+03  0.25500000920E-02 0. -1.
    10030    2    1    2    0    0  0.00000000000E+00  0.00000000000E+00 -0.66312192804E+03  0.96439868343E+03  0.70023862301E+03 0.  0.
        4    1    3    3  502    0  0.20289506743E+02 -0.30392854181E+03 -0.93821162608E+02  0.31872911079E+03  0.12699999809E+01 0.  1.
       -4    1    3    3    0  502 -0.20289506743E+02  0.30392854181E+03 -0.56930076543E+03  0.64566957264E+03  0.12699999809E+01 0. -1.
</event>
<event>
 5   0  0.1884172E-02  0.7096538E+03  0.7818609E-02  0.9700864E-01
       -1   -1    0    0    0  501  0.00000000000E+00  0.00000000000E+00  0.14834539308E+03  0.14834539317E+03  0.50400001928E-02 0.  1.
        1   -1    0    0  501    0  0.00000000000E+00  0.00000000000E+00 -0.84870946664E+03  0.84870946666E+03  0.50400001928E-02 0. -1.
    10030    2    1    2    0    0  0.00000000000E+00  0.00000000000E+00 -0.70036407356E+03  0.99705485983E+03  0.70965382967E+03 0.  0.
        3    1    3    3  502    0  0.19617769099E+02  0.12770399877E+03  0.11412112571E+03  0.17238564238E+03  0.10100000352E+00 0.  1.
       -3    1    3    3    0  502 -0.19617769099E+02 -0.12770399877E+03 -0.81448519927E+03  0.82466921744E+03  0.10100000352E+00 0. -1.
</event>
<event>
 5   0  0.3184443E-02  0.7095985E+03  0.7818609E-02  0.9700957E-01
        2   -1    0    0  501    0  0.00000000000E+00  0.00000000000E+00  0.19823944002E+04  0.19823944002E+04  0.25500000920E-02 0.  1.
       -2   -1    0    0    0  501  0.00000000000E+00  0.00000000000E+00 -0.63500234817E+02  0.63500234868E+02  0.25500000920E-02 0. -1.
    10030    2    1    2    0    0  0.00000000000E+00  0.00000000000E+00  0.19188941653E+04  0.20458946350E+04  0.70959850610E+03 0.  0.
        3    1    3    3  502    0 -0.24942403040E+03 -0.21374162575E+03  0.57279370300E+03  0.66029574125E+03  0.10100000352E+00 0. -1.
       -3    1    3    3    0  502  0.24942403040E+03  0.21374162575E+03  0.13461004623E+04  0.13855988938E+04  0.10100000352E+00 0.  1.
</event>
<event>
 5   0  0.1951465E-02  0.7009613E+03  0.7818609E-02  0.9715590E-01
       -1   -1    0    0    0  501  0.00000000000E+00  0.00000000000E+00  0.90749854740E+02  0.90749854880E+02  0.50400001928E-02 0. -1.
        1   -1    0    0  501    0  0.00000000000E+00  0.00000000000E+00 -0.13535746209E+04  0.13535746209E+04  0.50400001928E-02 0.  1.
    10030    2    1    2    0    0  0.00000000000E+00  0.00000000000E+00 -0.12628247661E+04  0.14443244758E+04  0.70096134082E+03 0.  0.
        4    1    3    3  502    0  0.48029219831E+02  0.49437375996E+02  0.76642056930E+02  0.10308480923E+03  0.12699999809E+01 0. -1.
       -4    1    3    3    0  502 -0.48029219831E+02 -0.49437375996E+02 -0.13394668231E+04  0.13412396665E+04  0.12699999809E+01 0.  1.
</event>
<event>
 5   0  0.3290656E-02  0.7075726E+03  0.7818609E-02  0.9704369E-01
        2   -1    0    0  501    0  0.00000000000E+00  0.00000000000E+00  0.15205156055E+04  0.15205156055E+04  0.25500000920E-02 0. -1.
       -2   -1    0    0    0  501  0.00000000000E+00  0.00000000000E+00 -0.82317298785E+02  0.82317298825E+02  0.25500000920E-02 0.  1.
    10030    2    1    2    0    0  0.00000000000E+00  0.00000000000E+00  0.14381983067E+04  0.16028329043E+04  0.70757257561E+03 0.  0.
        1    1    3    3  502    0 -0.20287583349E+02 -0.27614660356E+03  0.22024782433E+03  0.35380451783E+03  0.50400001928E-02 0.  1.
       -1    1    3    3    0  502  0.20287583349E+02  0.27614660356E+03  0.12179504824E+04  0.12490283865E+04  0.50400001928E-02 0. -1.
</event>
<event>
 5   0  0.1839038E-02  0.6990545E+03  0.7818609E-02  0.9718851E-01
       -1   -1    0    0    0  501  0.00000000000E+00  0.00000000000E+00  0.15654497888E+03  0.15654497896E+03  0.50400001928E-02 0.  1.
        1   -1    0    0  501    0  0.00000000000E+00  0.00000000000E+00 -0.78041018056E+03  0.78041018057E+03  0.50400001928E-02 0. -1.
    10030    2    1    2    0    0  0.00000000000E+00  0.00000000000E+00 -0.62386520168E+03  0.93695515953E+03  0.69905449080E+03 0.  0.
        5    1    3    3  502    0 -0.83643971702E+02 -0.93032381509E+02 -0.74932794348E+03  0.75971428504E+03  0.46999998093E+01 0. -1.
       -5    1    3    3    0  502  0.83643971702E+02  0.93032381509E+02  0.12546274180E+03  0.17724087449E+03  0.46999998093E+01 0.  1.
</event>
<event>
 5   0  0.1951465E-02  0.7003347E+03  0.7818609E-02  0.9716660E-01
       -1   -1    0    0    0  501  0.00000000000E+00  0.00000000000E+00  0.64009986832E+02  0.64009987031E+02  0.50400001928E-02 0. -1.
        1   -1    0    0  501    0  0.00000000000E+00  0.00000000000E+00 -0.19155942106E+04  0.19155942107E+04  0.50400001928E-02 0.  1.
    10030    2    1    2    0    0  0.00000000000E+00  0.00000000000E+00 -0.18515842238E+04  0.19796041977E+04  0.70033466401E+03 0.  0.
        4    1    3    3  502    0  0.77062115822E+02 -0.25400440572E+02 -0.18886479087E+04  0.18903905120E+04  0.12699999809E+01 0.  1.
       -4    1    3    3    0  502 -0.77062115822E+02  0.25400440572E+02  0.37063684856E+02  0.89213685673E+02  0.12699999809E+01 0. -1.
</event>
<event>
 5   0  0.3184443E-02  0.6993165E+03  0.7818609E-02  0.9718402E-01
        2   -1    0    0  501    0  0.00000000000E+00  0.00000000000E+00  0.88843953818E+03  0.88843953819E+03  0.25500000920E-02 0. -1.
       -2   -1    0    0    0  501  0.00000000000E+00  0.00000000000E+00 -0.13761306017E+03  0.13761306019E+03  0.25500000920E-02 0.  1.
    10030    2    1    2    0    0  0.00000000000E+00  0.00000000000E+00  0.75082647801E+03  0.10260525984E+04  0.69931647668E+03 0.  0.
        3    1    3    3  502    0  0.35131756267E+02  0.18428617395E+03  0.80834381830E+03  0.82982852024E+03  0.10100000352E+00 0. -1.
       -3    1    3    3    0  502 -0.35131756267E+02 -0.18428617395E+03 -0.57517340287E+02  0.19622407814E+03  0.10100000352E+00 0.  1.
</event>
<event>
 5   0  0.1839038E-02  0.6830468E+03  0.7818609E-02  0.9746672E-01
        1   -1    0    0  501    0  0.00000000000E+00  0.00000000000E+00  0.68566829981E+03  0.68566829983E+03  0.50400001928E-02 0. -1.
       -1   -1    0    0    0  501  0.00000000000E+00  0.00000000000E+00 -0.17010883425E+03  0.17010883433E+03  0.50400001928E-02 0.  1.
    10030    2    1    2    0    0  0.00000000000E+00  0.00000000000E+00  0.51555946556E+03  0.85577713416E+03  0.68304680719E+03 0.  0.
        5    1    3    3  502    0 -0.12656506384E+02 -0.15649710946E+03 -0.12216513794E+03  0.19899231983E+03  0.46999998093E+01 0.  1.
       -5    1    3    3    0  502  0.12656506384E+02  0.15649710946E+03  0.63772460350E+03  0.65678481433E+03  0.46999998093E+01 0. -1.
</event>
<event>
 5   0  0.1884172E-02  0.7033435E+03  0.7818609E-02  0.9711531E-01
        1   -1    0    0  501    0  0.00000000000E+00  0.00000000000E+00  0.91033061380E+02  0.91033061520E+02  0.50400001928E-02 0. -1.
       -1   -1    0    0    0  501  0.00000000000E+00  0.00000000000E+00 -0.13585505920E+04  0.13585505920E+04  0.50400001928E-02 0.  1.
    10030    2    1    2    0    0  0.00000000000E+00  0.00000000000E+00 -0.12675175306E+04  0.14495836535E+04  0.70334349940E+03 0.  0.
        3    1    3    3  502    0  0.28014015854E+03 -0.14435038937E+03 -0.31210261669E+03  0.44353533894E+03  0.10100000352E+00 0. -1.
       -3    1    3    3    0  502 -0.28014015854E+03  0.14435038937E+03 -0.95541491393E+03  0.10060483146E+04  0.10100000352E+00 0.  1.
</event>
<event>
 5   0  0.1858013E-02  0.7023041E+03  0.7818609E-02  0.9713300E-01
        1   -1    0    0  501    0  0.00000000000E+00  0.00000000000E+00  0.52387359091E+03  0.52387359094E+03  0.50400001928E-02 0. -1.
       -1   -1    0    0    0  501  0.00000000000E+00  0.00000000000E+00 -0.23537694022E+03  0.23537694028E+03  0.50400001928E-02 0.  1.
    10030    2    1    2    0    0  0.00000000000E+00  0.00000000000E+00  0.28849665069E+03  0.75925053121E+03  0.70230410200E+03 0.  0.
        2    1    3    3  502    0  0.87007558280E+02  0.17561827444E+03  0.45924260569E+03  0.49931539572E+03  0.25500000920E-02 0. -1.
       -2    1    3    3    0  502 -0.87007558280E+02 -0.17561827444E+03 -0.17074595499E+03  0.25993513550E+03  0.25500000920E-02 0.  1.
</event>
<event>
 5   0  0.2933851E-02  0.6989823E+03  0.7818609E-02  0.9718974E-01
        2   -1    0    0  501    0  0.00000000000E+00  0.00000000000E+00  0.40174562363E+03  0.40174562364E+03  0.25500000920E-02 0.  1.
       -2   -1    0    0    0  501  0.00000000000E+00  0.00000000000E+00 -0.30403332166E+03  0.30403332167E+03  0.25500000920E-02 0. -1.
    10030    2    1    2    0    0  0.00000000000E+00  0.00000000000E+00  0.97712301969E+02  0.70577894531E+03  0.69898227852E+03 0.  0.
        2    1    3    3  502    0 -0.14590846913E+02  0.90435806757E+02 -0.29169555696E+03  0.30574143637E+03  0.25500000920E-02 0. -1.
       -2    1    3    3    0  502  0.14590846913E+02 -0.90435806757E+02  0.38940785893E+03  0.40003750894E+03  0.25500000920E-02 0.  1.
</event>
<event>
 5   0  0.1858013E-02  0.6872398E+03  0.7818609E-02  0.9739306E-01
        1   -1    0    0  501    0  0.00000000000E+00  0.00000000000E+00  0.79680509128E+03  0.79680509130E+03  0.50400001928E-02 0. -1.
       -1   -1    0    0    0  501  0.00000000000E+00  0.00000000000E+00 -0.14818507338E+03  0.14818507346E+03  0.50400001928E-02 0.  1.
    10030    2    1    2    0    0  0.00000000000E+00  0.00000000000E+00  0.64862001790E+03  0.94499016476E+03  0.68723975720E+03 0.  0.
        2    1    3    3  502    0 -0.31108923780E+03  0.99247970529E+02  0.17718624540E+03  0.37151263652E+03  0.25500000920E-02 0.  1.
       -2    1    3    3    0  502  0.31108923780E+03 -0.99247970529E+02  0.47143377251E+03  0.57347752824E+03  0.25500000920E-02 0. -1.
</event>
<event>
 5   0  0.1858013E-02  0.7000867E+03  0.7818609E-02  0.9717084E-01
       -1   -1    0    0    0  501  0.00000000000E+00  0.00000000000E+00  0.11654677078E+03  0.11654677089E+03  0.50400001928E-02 0. -1.
        1   -1    0    0  501    0  0.00000000000E+00  0.00000000000E+00 -0.10513404341E+04  0.10513404341E+04  0.50400001928E-02 0.  1.
    10030    2    1    2    0    0  0.00000000000E+00  0.00000000000E+00 -0.93479366328E+03  0.11678872050E+04  0.70008665935E+03 0.  0.
        2    1    3    3  502    0 -0.20289715003E+03 -0.10865019542E+03 -0.27426582624E+02  0.23178510715E+03  0.25500000920E-02 0. -1.
       -2    1    3    3    0  502  0.20289715003E+03  0.10865019542E+03 -0.90736708066E+03  0.93610209781E+03  0.25500000920E-02 0.  1.
</event>
<event>
 5   0  0.1884172E-02  0.7003686E+03  0.7818609E-02  0.9716602E-01
        1   -1    0    0  501    0  0.00000000000E+00  0.00000000000E+00  0.19811280576E+04  0.19811280576E+04  0.50400001928E-02 0. -1.
       -1   -1    0    0    0  501  0.00000000000E+00  0.00000000000E+00 -0.61898604010E+02  0.61898604215E+02  0.50400001928E-02 0.  1.
    10030    2    1    2    0    0  0.00000000000E+00  0.00000000000E+00  0.19192294536E+04  0.20430266618E+04  0.70036864963E+03 0.  0.
        3    1    3    3  502    0 -0.39995935613E+02  0.13943761071E+01 -0.55205806250E+02  0.68185851869E+02  0.10100000352E+00 0.  1.
       -3    1    3    3    0  502  0.39995935613E+02 -0.13943761071E+01  0.19744352599E+04  0.19748408100E+04  0.10100000352E+00 0. -1.
</event>
<event>
 5   0  0.3290656E-02  0.7090718E+03  0.7818609E-02  0.9701843E-01
       -2   -1    0    0    0  501  0.00000000000E+00  0.00000000000E+00  0.17267153806E+03  0.17267153808E+03  0.25500000920E-02 0. -1.
        2   -1    0    0  501    0  0.00000000000E+00  0.00000000000E+00 -0.72794692781E+03  0.72794692782E+03  0.25500000920E-02 0.  1.
    10030    2    1    2    0    0  0.00000000000E+00  0.00000000000E+00 -0.55527538975E+03  0.90061846589E+03  0.70907183179E+03 0.  0.
        1    1    3    3  502    0  0.29077911008E+03 -0.18167672994E+03 -0.39220934900E+03  0.52094826857E+03  0.50400001928E-02 0.  1.
       -1    1    3    3    0  502 -0.29077911008E+03  0.18167672994E+03 -0.16306604075E+03  0.37967019732E+03  0.50400001928E-02 0. -1.
</event>
<event>
 5   0  0.1233912E-02  0.6999342E+03  0.7818609E-02  0.9717345E-01
        3   -1    0    0  501    0  0.00000000000E+00  0.00000000000E+00  0.44382334239E+03  0.44382335388E+03  0.10100000352E+00 0.  1.
       -3   -1    0    0    0  501  0.00000000000E+00  0.00000000000E+00 -0.27595878620E+03  0.27595880468E+03  0.10100000352E+00 0. -1.
    10030    2    1    2    0    0  0.00000000000E+00  0.00000000000E+00  0.16786455619E+03  0.71978215856E+03  0.69993417301E+03 0.  0.
        3    1    3    3  502    0  0.14678813950E+03 -0.34234714118E+01  0.41061729461E+03  0.43607917961E+03  0.10100000352E+00 0.  1.
       -3    1    3    3    0  502 -0.14678813950E+03  0.34234714118E+01 -0.24275273842E+03  0.28370297895E+03  0.10100000352E+00 0. -1.
</event>
<event>
 5   0  0.3183963E-02  0.6956505E+03  0.7818609E-02  0.9724699E-01
       -2   -1    0    0    0  501  0.00000000000E+00  0.00000000000E+00  0.59956175843E+02  0.59956175898E+02  0.25500000920E-02 0. -1.
        2   -1    0    0  501    0  0.00000000000E+00  0.00000000000E+00 -0.20178473065E+04  0.20178473065E+04  0.25500000920E-02 0.  1.
    10030    2    1    2    0    0  0.00000000000E+00  0.00000000000E+00 -0.19578911307E+04  0.20778034824E+04  0.69565050993E+03 0.  0.
        4    1    3    3  502    0 -0.11316821876E+03  0.16356316152E+03 -0.12666780602E+03  0.23580988004E+03  0.12699999809E+01 0. -1.
       -4    1    3    3    0  502  0.11316821876E+03 -0.16356316152E+03 -0.18312233246E+04  0.18419936024E+04  0.12699999809E+01 0.  1.
</event>
<event>
 5   0  0.1969818E-02  0.7010227E+03  0.7818609E-02  0.9715485E-01
       -1   -1    0    0    0  501  0.00000000000E+00  0.00000000000E+00  0.16040144569E+03  0.16040144577E+03  0.50400001928E-02 0.  1.
        1   -1    0    0  501    0  0.00000000000E+00  0.00000000000E+00 -0.76594198846E+03  0.76594198848E+03  0.50400001928E-02 0. -1.
    10030    2    1    2    0    0  0.00000000000E+00  0.00000000000E+00 -0.60554054277E+03  0.92634343424E+03  0.70102268809E+03 0.  0.
        1    1    3    3  502    0 -0.20392333072E+03 -0.15475831385E+03 -0.61914785450E+03  0.66998427316E+03  0.50400001928E-02 0. -1.
       -1    1    3    3    0  502  0.20392333072E+03  0.15475831385E+03  0.13607311731E+02  0.25635916109E+03  0.50400001928E-02 0.  1.
</event>
<event>
 5   0  0.3290656E-02  0.7035576E+03  0.7818609E-02  0.9711168E-01
        2   -1    0    0  501    0  0.00000000000E+00  0.00000000000E+00  0.32454375363E+03  0.32454375364E+03  0.25500000920E-02 0. -1.
       -2   -1    0    0    0  501  0.00000000000E+00  0.00000000000E+00 -0.38129931562E+03  0.38129931563E+03  0.25500000920E-02 0.  1.
    10030    2    1    2    0    0  0.00000000000E+00  0.00000000000E+00 -0.56755561983E+02  0.70584306927E+03  0.70355756312E+03 0.  0.
        1    1    3    3  502    0 -0.47697947031E+02 -0.75256686625E+02 -0.36979143815E+03  0.38037398805E+03  0.50400001928E-02 0.  1.
       -1    1    3    3    0  502  0.47697947031E+02  0.75256686625E+02  0.31303587617E+03  0.32546908121E+03  0.50400001928E-02 0. -1.
</event>
<event>
 5   0  0.3183963E-02  0.7010595E+03  0.7818609E-02  0.9715422E-01
       -2   -1    0    0    0  501  0.00000000000E+00  0.00000000000E+00  0.71201116622E+02  0.71201116668E+02  0.25500000920E-02 0.  1.
        2   -1    0    0  501    0  0.00000000000E+00  0.00000000000E+00 -0.17256905617E+04  0.17256905617E+04  0.25500000920E-02 0. -1.
    10030    2    1    2    0    0  0.00000000000E+00  0.00000000000E+00 -0.16544894451E+04  0.17968916784E+04  0.70105946961E+03 0.  0.
        4    1    3    3  502    0  0.92905607433E+02 -0.32886255448E+03 -0.62726555455E+03  0.71431486086E+03  0.12699999809E+01 0. -1.
       -4    1    3    3    0  502 -0.92905607433E+02  0.32886255448E+03 -0.10272238905E+04  0.10825768175E+04  0.12699999809E+01 0.  1.
</event>
<event>
 5   0  0.3113940E-02  0.6972747E+03  0.7818609E-02  0.9721904E-01
        2   -1    0    0  501    0  0.00000000000E+00  0.00000000000E+00  0.10889343831E+04  0.10889343831E+04  0.25500000920E-02 0. -1.
       -2   -1    0    0    0  501  0.00000000000E+00  0.00000000000E+00 -0.11162106460E+03  0.11162106463E+03  0.25500000920E-02 0.  1.
    10030    2    1    2    0    0  0.00000000000E+00  0.00000000000E+00  0.97731331847E+03  0.12005554477E+04  0.69727473822E+03 0.  0.
        5    1    3    3  502    0 -0.22419465127E+03  0.25029739521E+03  0.64845716137E+03  0.73036347652E+03  0.46999998093E+01 0. -1.
       -5    1    3    3    0  502  0.22419465127E+03 -0.25029739521E+03  0.32885615710E+03  0.47019197119E+03  0.46999998093E+01 0.  1.
</event>
<event>
 5   0  0.3290656E-02  0.7218602E+03  0.7818609E-02  0.9680562E-01
        2   -1    0    0  501    0  0.00000000000E+00  0.00000000000E+00  0.14741922010E+04  0.14741922010E+04  0.25500000920E-02 0.  1.
       -2   -1    0    0    0  501  0.00000000000E+00  0.00000000000E+00 -0.88367401777E+02  0.88367401814E+02  0.25500000920E-02 0. -1.
    10030    2    1    2    0    0  0.00000000000E+00  0.00000000000E+00  0.13858247992E+04  0.15625596028E+04  0.72186019298E+03 0.  0.
        1    1    3    3  502    0 -0.24777672765E+03  0.48390509521E+02  0.12512675071E+04  0.12764816186E+04  0.50400001928E-02 0.  1.
       -1    1    3    3    0  502  0.24777672765E+03 -0.48390509521E+02  0.13455729208E+03  0.28607798422E+03  0.50400001928E-02 0. -1.
</event>
<event>
 5   0  0.3113940E-02  0.7022729E+03  0.7818609E-02  0.9713353E-01
        2   -1    0    0  501    0  0.00000000000E+00  0.00000000000E+00  0.85494033591E+03  0.85494033591E+03  0.25500000920E-02 0. -1.
       -2   -1    0    0    0  501  0.00000000000E+00  0.00000000000E+00 -0.14421686391E+03  0.14421686393E+03  0.25500000920E-02 0.  1.
    10030    2    1    2    0    0  0.00000000000E+00  0.00000000000E+00  0.71072347200E+03  0.99915719984E+03  0.70227292155E+03 0.  0.
        5    1    3    3  502    0  0.10385698018E+02 -0.20380990262E+03  0.76185045844E+03  0.78872336732E+03  0.46999998093E+01 0. -1.
       -5    1    3    3    0  502 -0.10385698018E+02  0.20380990262E+03 -0.51126986442E+02  0.21043383252E+03  0.46999998093E+01 0.  1.
</event>
<event>
 5   0  0.3290656E-02  0.6988745E+03  0.7818609E-02  0.9719159E-01
       -2   -1    0    0    0  501  0.00000000000E+00  0.00000000000E+00  0.19294258782E+03  0.19294258784E+03  0.25500000920E-02 0.  1.
        2   -1    0    0  501    0  0.00000000000E+00  0.00000000000E+00 -0.63286381494E+03  0.63286381494E+03  0.25500000920E-02 0. -1.
    10030    2    1    2    0    0  0.00000000000E+00  0.00000000000E+00 -0.43992122711E+03  0.82580640278E+03  0.69887447286E+03 0.  0.
        1    1    3    3  502    0  0.32484733218E+03 -0.68002155912E+01 -0.68020435265E+02  0.33196206379E+03  0.50400001928E-02 0.  1.
       -1    1    3    3    0  502 -0.32484733218E+03  0.68002155912E+01 -0.37190079185E+03  0.49384433900E+03  0.50400001928E-02 0. -1.
</event>
<event>
 5   0  0.1951465E-02  0.7057504E+03  0.7818609E-02  0.9707449E-01
        1   -1    0    0  501    0  0.00000000000E+00  0.00000000000E+00  0.38118750919E+03  0.38118750922E+03  0.50400001928E-02 0. -1.
       -1   -1    0    0    0  501  0.00000000000E+00  0.00000000000E+00 -0.32666573633E+03  0.32666573637E+03  0.50400001928E-02 0.  1.
    10030    2    1    2    0    0  0.00000000000E+00  0.00000000000E+00  0.54521772858E+02  0.70785324559E+03  0.70575037625E+03 0.  0.
        4    1    3    3  502    0 -0.13601790117E+03  0.80035903416E+02  0.34381604876E+03  0.37830900539E+03  0.12699999809E+01 0. -1.
       -4    1    3    3    0  502  0.13601790117E+03 -0.80035903416E+02 -0.28929427590E+03  0.32954424020E+03  0.12699999809E+01 0.  1.
</event>
<event>
 5   0  0.1884172E-02  0.7051301E+03  0.7818609E-02  0.9708499E-01
       -1   -1    0    0    0  501  0.00000000000E+00  0.00000000000E+00  0.49649513834E+03  0.49649513836E+03  0.50400001928E-02 0.  1.
        1   -1    0    0  501    0  0.00000000000E+00  0.00000000000E+00 -0.25035919870E+03  0.25035919876E+03  0.50400001928E-02 0. -1.
    10030    2    1    2    0    0  0.00000000000E+00  0.00000000000E+00  0.24613593963E+03  0.74685433712E+03  0.70513012990E+03 0.  0.
        3    1    3    3  502    0 -0.22866059154E+03 -0.26815137128E+03  0.13424164972E+03  0.37710960577E+03  0.10100000352E+00 0. -1.
       -3    1    3    3    0  502  0.22866059154E+03  0.26815137128E+03  0.11189428991E+03  0.36974473135E+03  0.10100000352E+00 0.  1.
</event>
<event>
 5   0  0.3290656E-02  0.7677173E+03  0.7818609E-02  0.9607957E-01
        2   -1    0    0  501    0  0.00000000000E+00  0.00000000000E+00  0.16081258714E+03  0.16081258716E+03  0.25500000920E-02 0.  1.
       -2   -1    0    0    0  501  0.00000000000E+00  0.00000000000E+00 -0.91626826314E+03  0.91626826315E+03  0.25500000920E-02 0. -1.
    10030    2    1    2    0    0  0.00000000000E+00  0.00000000000E+00 -0.75545567601E+03  0.10770808503E+04  0.76771731756E+03 0.  0.
        1    1    3    3  502    0  0.34361367225E+02  0.22602691052E+02 -0.91316805135E+03  0.91409380002E+03  0.50400001928E-02 0. -1.
       -1    1    3    3    0  502 -0.34361367225E+02 -0.22602691052E+02  0.15771237534E+03  0.16298705029E+03  0.50400001928E-02 0.  1.
</event>
<event>
 5   0  0.1858013E-02  0.7070191E+03  0.7818609E-02  0.9705303E-01
       -1   -1    0    0    0  501  0.00000000000E+00  0.00000000000E+00  0.11900806242E+04  0.11900806243E+04  0.50400001928E-02 0. -1.
        1   -1    0    0  501    0  0.00000000000E+00  0.00000000000E+00 -0.10500886179E+03  0.10500886191E+03  0.50400001928E-02 0.  1.
    10030    2    1    2    0    0  0.00000000000E+00  0.00000000000E+00  0.10850717625E+04  0.12950894862E+04  0.70701912810E+03 0.  0.
        2    1    3    3  502    0 -0.30237352580E+03  0.12375562548E+03  0.78981541815E+03  0.85472428227E+03  0.25500000920E-02 0. -1.
       -2    1    3    3    0  502  0.30237352580E+03 -0.12375562548E+03  0.29525634430E+03  0.44036520390E+03  0.25500000920E-02 0.  1.
</event>
<event>
 5   0  0.2933851E-02  0.6979288E+03  0.7818609E-02  0.9720781E-01
       -2   -1    0    0    0  501  0.00000000000E+00  0.00000000000E+00  0.49498173170E+02  0.49498173236E+02  0.25500000920E-02 0.  1.
        2   -1    0    0  501    0  0.00000000000E+00  0.00000000000E+00 -0.24602150156E+04  0.24602150156E+04  0.25500000920E-02 0. -1.
    10030    2    1    2    0    0  0.00000000000E+00  0.00000000000E+00 -0.24107168424E+04  0.25097131888E+04  0.69792878995E+03 0.  0.
        2    1    3    3  502    0  0.20199614323E+03  0.35754949382E+01 -0.22285352690E+04  0.22376739422E+04  0.25500000920E-02 0. -1.
       -2    1    3    3    0  502 -0.20199614323E+03 -0.35754949382E+01 -0.18218157337E+03  0.27203924667E+03  0.25500000920E-02 0.  1.
</event>
<event>
 5   0  0.1951465E-02  0.7026460E+03  0.7818609E-02  0.9712718E-01
       -1   -1    0    0    0  501  0.00000000000E+00  0.00000000000E+00  0.56607690336E+02  0.56607690560E+02  0.50400001928E-02 0.  1.
        1   -1    0    0  501    0  0.00000000000E+00  0.00000000000E+00 -0.21804077525E+04  0.21804077525E+04  0.50400001928E-02 0. -1.
    10030    2    1    2    0    0  0.00000000000E+00  0.00000000000E+00 -0.21238000622E+04  0.22370154431E+04  0.70264599086E+03 0.  0.
        4    1    3    3  502    0 -0.12693736867E+03 -0.12814979309E+03 -0.20217255647E+04  0.20297564723E+04  0.12699999809E+01 0. -1.
       -4    1    3    3    0  502  0.12693736867E+03  0.12814979309E+03 -0.10207449750E+03  0.20725897079E+03  0.12699999809E+01 0.  1.
</event>
<event>
 5   0  0.3113940E-02  0.6567087E+03  0.7818609E-02  0.9794272E-01
       -2   -1    0    0    0  501  0.00000000000E+00  0.00000000000E+00  0.60401885331E+03  0.60401885331E+03  0.25500000920E-02 0.  1.
        2   -1    0    0  501    0  0.00000000000E+00  0.00000000000E+00 -0.17849867738E+03  0.17849867740E+03  0.25500000920E-02 0. -1.
    10030    2    1    2    0    0  0.00000000000E+00  0.00000000000E+00  0.42552017593E+03  0.78251753071E+03  0.65670866124E+03 0.  0.
        5    1    3    3  502    0 -0.16316423209E+03  0.96749314403E+02 -0.10655414002E+03  0.21762093471E+03  0.46999998093E+01 0. -1.
       -5    1    3    3    0  502  0.16316423209E+03 -0.96749314403E+02  0.53207431595E+03  0.56489659599E+03  0.46999998093E+01 0.  1.
</event>
<event>
 5   0  0.1951465E-02  0.6920343E+03  0.7818609E-02  0.9730952E-01
        1   -1    0    0  501    0  0.00000000000E+00  0.00000000000E+00  0.12628354831E+04  0.12628354831E+04  0.50400001928E-02 0. -1.
       -1   -1    0    0    0  501  0.00000000000E+00  0.00000000000E+00 -0.94808761724E+02  0.94808761858E+02  0.50400001928E-02 0.  1.
    10030    2    1    2    0    0  0.00000000000E+00  0.00000000000E+00  0.11680267214E+04  0.13576442450E+04  0.69203430121E+03 0.  0.
        4    1    3    3  502    0 -0.32530575215E+02  0.24903968911E+03  0.10509390619E+04  0.10805339096E+04  0.12699999809E+01 0. -1.
       -4    1    3    3    0  502  0.32530575215E+02 -0.24903968911E+03  0.11708765952E+03  0.27711033540E+03  0.12699999809E+01 0.  1.
</event>
<event>
 5   0  0.3290656E-02  0.7069355E+03  0.7818609E-02  0.9705445E-01
       -2   -1    0    0    0  501  0.00000000000E+00  0.00000000000E+00  0.43074706463E+03  0.43074706464E+03  0.25500000920E-02 0. -1.
        2   -1    0    0  501    0  0.00000000000E+00  0.00000000000E+00 -0.29005292053E+03  0.29005292054E+03  0.25500000920E-02 0.  1.
    10030    2    1    2    0    0  0.00000000000E+00  0.00000000000E+00  0.14069414410E+03  0.72079998518E+03  0.70693548252E+03 0.  0.
        1    1    3    3  502    0 -0.25022707665E+03 -0.14126032453E+03 -0.13953303018E+03  0.31943314748E+03  0.50400001928E-02 0.  1.
       -1    1    3    3    0  502  0.25022707665E+03  0.14126032453E+03  0.28022717427E+03  0.40136683770E+03  0.50400001928E-02 0. -1.
</event>
<event>
 5   0  0.1858013E-02  0.6921066E+03  0.7818609E-02  0.9730827E-01
        1   -1    0    0  501    0  0.00000000000E+00  0.00000000000E+00  0.10454473791E+04  0.10454473791E+04  0.50400001928E-02 0. -1.
       -1   -1    0    0    0  501  0.00000000000E+00  0.00000000000E+00 -0.11454702794E+03  0.11454702805E+03  0.50400001928E-02 0.  1.
    10030    2    1    2    0    0  0.00000000000E+00  0.00000000000E+00  0.93090035111E+03  0.11599944071E+04  0.69210661089E+03 0.  0.
        2    1    3    3  502    0  0.33344051275E+03 -0.55652204515E+02  0.58944439694E+03  0.67950308352E+03  0.25500000920E-02 0.  1.
       -2    1    3    3    0  502 -0.33344051275E+03  0.55652204515E+02  0.34145595417E+03  0.48049132360E+03  0.25500000920E-02 0. -1.
</event>
<event>
 5   0  0.1858013E-02  0.7024312E+03  0.7818609E-02  0.9713084E-01
       -1   -1    0    0    0  501  0.00000000000E+00  0.00000000000E+00  0.25545289833E+03  0.25545289838E+03  0.50400001928E-02 0.  1.
        1   -1    0    0  501    0  0.00000000000E+00  0.00000000000E+00 -0.48287724835E+03  0.48287724837E+03  0.50400001928E-02 0. -1.
    10030    2    1    2    0    0  0.00000000000E+00  0.00000000000E+00 -0.22742435001E+03  0.73833014676E+03  0.70243118569E+03 0.  0.
        2    1    3    3  502    0 -0.88175294782E+02  0.28200670481E+03 -0.31328335075E+03  0.43063804062E+03  0.25500000920E-02 0. -1.
       -2    1    3    3    0  502  0.88175294782E+02 -0.28200670481E+03  0.85859000737E+02  0.30769210614E+03  0.25500000920E-02 0.  1.
</event>
<event>
 5   0  0.1884172E-02  0.7009975E+03  0.7818609E-02  0.9715528E-01
       -1   -1    0    0    0  501  0.00000000000E+00  0.00000000000E+00  0.15833764013E+03  0.15833764021E+03  0.50400001928E-02 0.  1.
        1   -1    0    0  501    0  0.00000000000E+00  0.00000000000E+00 -0.77586966335E+03  0.77586966337E+03  0.50400001928E-02 0. -1.
    10030    2    1    2    0    0  0.00000000000E+00  0.00000000000E+00 -0.61753202322E+03  0.93420730358E+03  0.70099749383E+03 0.  0.
        3    1    3    3  502    0  0.48535162800E+02  0.26368660230E+03 -0.79128320171E+01  0.26823293864E+03  0.10100000352E+00 0.  1.
       -3    1    3    3    0  502 -0.48535162800E+02 -0.26368660230E+03 -0.60961919121E+03  0.66597436494E+03  0.10100000352E+00 0. -1.
</event>
<event>
 5   0  0.1839038E-02  0.6992871E+03  0.7818609E-02  0.9718452E-01
        1   -1    0    0  501    0  0.00000000000E+00  0.00000000000E+00  0.52861473946E+03  0.52861473948E+03  0.50400001928E-02 0.  1.
       -1   -1    0    0    0  501  0.00000000000E+00  0.00000000000E+00 -0.23126600141E+03  0.23126600146E+03  0.50400001928E-02 0. -1.
    10030    2    1    2    0    0  0.00000000000E+00  0.00000000000E+00  0.29734873805E+03  0.75988074095E+03  0.69928711445E+03 0.  0.
        5    1    3    3  502    0  0.25099295767E+03 -0.96777403441E+02  0.39132905314E+03  0.47489351274E+03  0.46999998093E+01 0.  1.
       -5    1    3    3    0  502 -0.25099295767E+03  0.96777403441E+02 -0.93980315088E+02  0.28498722820E+03  0.46999998093E+01 0. -1.
</event>
<event>
 5   0  0.1951465E-02  0.7013518E+03  0.7818609E-02  0.9714923E-01
        1   -1    0    0  501    0  0.00000000000E+00  0.00000000000E+00  0.48045807953E+03  0.48045807955E+03  0.50400001928E-02 0. -1.
       -1   -1    0    0    0  501  0.00000000000E+00  0.00000000000E+00 -0.25595067659E+03  0.25595067664E+03  0.50400001928E-02 0.  1.
    10030    2    1    2    0    0  0.00000000000E+00  0.00000000000E+00  0.22450740293E+03  0.73640875620E+03  0.70135175357E+03 0.  0.
        4    1    3    3  502    0  0.14790254202E+03  0.16828894876E+03 -0.17100028443E+03  0.28184932568E+03  0.12699999809E+01 0.  1.
       -4    1    3    3    0  502 -0.14790254202E+03 -0.16828894876E+03  0.39550768736E+03  0.45455943052E+03  0.12699999809E+01 0. -1.
</event>
<event>
 5   0  0.3183963E-02  0.6908726E+03  0.7818609E-02  0.9732970E-01
       -2   -1    0    0    0  501  0.00000000000E+00  0.00000000000E+00  0.36381459322E+03  0.36381459323E+03  0.25500000920E-02 0.  1.
        2   -1    0    0  501    0  0.00000000000E+00  0.00000000000E+00 -0.32798636963E+03  0.32798636964E+03  0.25500000920E-02 0. -1.
    10030    2    1    2    0    0  0.00000000000E+00  0.00000000000E+00  0.35828223592E+02  0.69180096287E+03  0.69087257192E+03 0.  0.
        4    1    3    3  502    0  0.10978550243E+03  0.18992584791E+03 -0.24927760826E+03  0.33206267952E+03  0.12699999809E+01 0. -1.
       -4    1    3    3    0  502 -0.10978550243E+03 -0.18992584791E+03  0.28510583186E+03  0.35973828335E+03  0.12699999809E+01 0.  1.
</event>
<event>
 5   0  0.3290656E-02  0.6786168E+03  0.7818609E-02  0.9754516E-01
       -2   -1    0    0    0  501  0.00000000000E+00  0.00000000000E+00  0.52588073143E+03  0.52588073143E+03  0.25500000920E-02 0.  1.
        2   -1    0    0  501    0  0.00000000000E+00  0.00000000000E+00 -0.21892830622E+03  0.21892830624E+03  0.25500000920E-02 0. -1.
    10030    2    1    2    0    0  0.00000000000E+00  0.00000000000E+00  0.30695242520E+03  0.74480903767E+03  0.67861676318E+03 0.  0.
        1    1    3    3  502    0 -0.12228163185E+03  0.31561379569E+03  0.17957164886E+03  0.38315903045E+03  0.50400001928E-02 0. -1.
       -1    1    3    3    0  502  0.12228163185E+03 -0.31561379569E+03  0.12738077634E+03  0.36165000722E+03  0.50400001928E-02 0.  1.
</event>
<event>
 5   0  0.3113940E-02  0.6995836E+03  0.7818609E-02  0.9717945E-01
        2   -1    0    0  501    0  0.00000000000E+00  0.00000000000E+00  0.34559874881E+03  0.34559874882E+03  0.25500000920E-02 0. -1.
       -2   -1    0    0    0  501  0.00000000000E+00  0.00000000000E+00 -0.35403574708E+03  0.35403574709E+03  0.25500000920E-02 0.  1.
    10030    2    1    2    0    0  0.00000000000E+00  0.00000000000E+00 -0.84369982744E+01  0.69963449590E+03  0.69958362254E+03 0.  0.
        5    1    3    3  502    0  0.10194653836E+03  0.28530625786E+03  0.17054964889E+03  0.34770969240E+03  0.46999998093E+01 0.  1.
       -5    1    3    3    0  502 -0.10194653836E+03 -0.28530625786E+03 -0.17898664716E+03  0.35192480350E+03  0.46999998093E+01 0. -1.
</event>
<event>
 5   0  0.2933851E-02  0.6846834E+03  0.7818609E-02  0.9743790E-01
        2   -1    0    0  501    0  0.00000000000E+00  0.00000000000E+00  0.11521168801E+04  0.11521168801E+04  0.25500000920E-02 0.  1.
       -2   -1    0    0    0  501  0.00000000000E+00  0.00000000000E+00 -0.10172392174E+03  0.10172392177E+03  0.25500000920E-02 0. -1.
    10030    2    1    2    0    0  0.00000000000E+00  0.00000000000E+00  0.10503929584E+04  0.12538408019E+04  0.68468342283E+03 0.  0.
        2    1    3    3  502    0 -0.32886876121E+03  0.11178578992E+02  0.69813501953E+03  0.77179798408E+03  0.25500000920E-02 0.  1.
       -2    1    3    3    0  502  0.32886876121E+03 -0.11178578992E+02  0.35225793885E+03  0.48204281783E+03  0.25500000920E-02 0. -1.
</event>
<event>
 5   0  0.1858013E-02  0.6939012E+03  0.7818609E-02  0.9727719E-01
        1   -1    0    0  501    0  0.00000000000E+00  0.00000000000E+00  0.23619375347E+03  0.23619375352E+03  0.50400001928E-02 0.  1.
       -1   -1    0    0    0  501  0.00000000000E+00  0.00000000000E+00 -0.50964399010E+03  0.50964399012E+03  0.50400001928E-02 0. -1.
    10030    2    1    2    0    0  0.00000000000E+00  0.00000000000E+00 -0.27345023663E+03  0.74583774365E+03  0.69390122347E+03 0.  0.
        2    1    3    3  502    0  0.28564685608E+03 -0.99057878274E+02  0.46214171829E+02  0.30584692138E+03  0.25500000920E-02 0. -1.
       -2    1    3    3    0  502 -0.28564685608E+03  0.99057878274E+02 -0.31966440846E+03  0.43999082226E+03  0.25500000920E-02 0.  1.
</event>
<event>
 5   0  0.1969818E-02  0.7308080E+03  0.7818609E-02  0.9665950E-01
       -1   -1    0    0    0  501  0.00000000000E+00  0.00000000000E+00  0.13561133884E+03  0.13561133894E+03  0.50400001928E-02 0.  1.
        1   -1    0    0  501    0  0.00000000000E+00  0.00000000000E+00 -0.98457902540E+03  0.98457902541E+03  0.50400001928E-02 0. -1.
    10030    2    1    2    0    0  0.00000000000E+00  0.00000000000E+00 -0.84896768655E+03  0.11201903643E+04  0.73080799090E+03 0.  0.
        1    1    3    3  502    0  0.27810683358E+03  0.24022938135E+02 -0.63053798480E+02  0.28617528539E+03  0.50400001928E-02 0.  1.
       -1    1    3    3    0  502 -0.27810683358E+03 -0.24022938135E+02 -0.78591388807E+03  0.83401507896E+03  0.50400001928E-02 0. -1.
</event>
<event>
 5   0  0.3113940E-02  0.6988621E+03  0.7818609E-02  0.9719180E-01
       -2   -1    0    0    0  501  0.00000000000E+00  0.00000000000E+00  0.38626799832E+03  0.38626799833E+03  0.25500000920E-02 0.  1.
        2   -1    0    0  501    0  0.00000000000E+00  0.00000000000E+00 -0.31610706835E+03  0.31610706836E+03  0.25500000920E-02 0. -1.
    10030    2    1    2    0    0  0.00000000000E+00  0.00000000000E+00  0.70160929971E+02  0.70237506669E+03  0.69886205951E+03 0.  0.
        5    1    3    3  502    0  0.59774348746E+01 -0.26284194338E+03  0.26636404156E+03  0.37429067523E+03  0.46999998093E+01 0.  1.
       -5    1    3    3    0  502 -0.59774348746E+01  0.26284194338E+03 -0.19620311159E+03  0.32808439146E+03  0.46999998093E+01 0. -1.
</event>
<event>
 5   0  0.3290656E-02  0.7008828E+03  0.7818609E-02  0.9715724E-01
       -2   -1    0    0    0  501  0.00000000000E+00  0.00000000000E+00  0.10282873243E+03  0.10282873246E+03  0.25500000920E-02 0.  1.
        2   -1    0    0  501    0  0.00000000000E+00  0.00000000000E+00 -0.11943079289E+04  0.11943079289E+04  0.25500000920E-02 0. -1.
    10030    2    1    2    0    0  0.00000000000E+00  0.00000000000E+00 -0.10914791965E+04  0.12971366614E+04  0.70088278757E+03 0.  0.
        1    1    3    3  502    0 -0.95119641357E+02  0.21523964705E+03 -0.10263327811E+04  0.10529647807E+04  0.50400001928E-02 0. -1.
       -1    1    3    3    0  502  0.95119641357E+02 -0.21523964705E+03 -0.65146415369E+02  0.24417188064E+03  0.50400001928E-02 0.  1.
</event>
<event>
 5   0  0.1839038E-02  0.6985454E+03  0.7818609E-02  0.9719723E-01
        1   -1    0    0  501    0  0.00000000000E+00  0.00000000000E+00  0.57172810763E+03  0.57172810765E+03  0.50400001928E-02 0.  1.
       -1   -1    0    0    0  501  0.00000000000E+00  0.00000000000E+00 -0.21337315563E+03  0.21337315569E+03  0.50400001928E-02 0. -1.
    10030    2    1    2    0    0  0.00000000000E+00  0.00000000000E+00  0.35835495200E+03  0.78510126334E+03  0.69854543308E+03 0.  0.
        5    1    3    3  502    0  0.94808820761E+02  0.14063629737E+02  0.55662148486E+03  0.56483277666E+03  0.46999998093E+01 0.  1.
       -5    1    3    3    0  502 -0.94808820761E+02 -0.14063629737E+02 -0.19826653287E+03  0.22026848669E+03  0.46999998093E+01 0. -1.
</event>
<event>
 5   0  0.1884172E-02  0.6986470E+03  0.7818609E-02  0.9719549E-01
        1   -1    0    0  501    0  0.00000000000E+00  0.00000000000E+00  0.22869236105E+03  0.22869236111E+03  0.50400001928E-02 0. -1.
       -1   -1    0    0    0  501  0.00000000000E+00  0.00000000000E+00 -0.53358536067E+03  0.53358536070E+03  0.50400001928E-02 0.  1.
    10030    2    1    2    0    0  0.00000000000E+00  0.00000000000E+00 -0.30489299962E+03  0.76227772180E+03  0.69864696660E+03 0.  0.
        3    1    3    3  502    0  0.92874278888E+01  0.75395671453E+02 -0.52446399637E+03  0.52993703143E+03  0.10100000352E+00 0.  1.
       -3    1    3    3    0  502 -0.92874278888E+01 -0.75395671453E+02  0.21957099675E+03  0.23234069038E+03  0.10100000352E+00 0. -1.
</event>
<event>
 5   0  0.3113940E-02  0.6989866E+03  0.7818609E-02  0.9718967E-01
       -2   -1    0    0    0  501  0.00000000000E+00  0.00000000000E+00  0.87103972179E+02  0.87103972216E+02  0.25500000920E-02 0. -1.
        2   -1    0    0  501    0  0.00000000000E+00  0.00000000000E+00 -0.14022962168E+04  0.14022962168E+04  0.25500000920E-02 0.  1.
    10030    2    1    2    0    0  0.00000000000E+00  0.00000000000E+00 -0.13151922446E+04  0.14894001890E+04  0.69898661127E+03 0.  0.
        5    1    3    3  502    0  0.24453291183E+03 -0.21684663612E+03 -0.39399056460E+03  0.51192720534E+03  0.46999998093E+01 0.  1.
       -5    1    3    3    0  502 -0.24453291183E+03  0.21684663612E+03 -0.92120167999E+03  0.97747298366E+03  0.46999998093E+01 0. -1.
</event>
<event>
 5   0  0.1884172E-02  0.7006172E+03  0.7818609E-02  0.9716177E-01
       -1   -1    0    0    0  501  0.00000000000E+00  0.00000000000E+00  0.31680989542E+03  0.31680989546E+03  0.50400001928E-02 0. -1.
        1   -1    0    0  501    0  0.00000000000E+00  0.00000000000E+00 -0.38734940658E+03  0.38734940661E+03  0.50400001928E-02 0.  1.
    10030    2    1    2    0    0  0.00000000000E+00  0.00000000000E+00 -0.70539511153E+02  0.70415930207E+03  0.70061722792E+03 0.  0.
        3    1    3    3  502    0  0.87387713001E+02 -0.28201768565E+03  0.15421862744E+03  0.33309755726E+03  0.10100000352E+00 0. -1.
       -3    1    3    3    0  502 -0.87387713001E+02  0.28201768565E+03 -0.22475813859E+03  0.37106174482E+03  0.10100000352E+00 0.  1.
</event>
<event>
 5   0  0.3113940E-02  0.7094266E+03  0.7818609E-02  0.9701246E-01
        2   -1    0    0  501    0  0.00000000000E+00  0.00000000000E+00  0.76493126688E+03  0.76493126689E+03  0.25500000920E-02 0. -1.
       -2   -1    0    0    0  501  0.00000000000E+00  0.00000000000E+00 -0.16448734566E+03  0.16448734568E+03  0.25500000920E-02 0.  1.
    10030    2    1    2    0    0  0.00000000000E+00  0.00000000000E+00  0.60044392122E+03  0.92941861257E+03  0.70942656764E+03 0.  0.
        5    1    3    3  502    0 -0.33661296556E+02 -0.31812649883E+03  0.50089325107E+03  0.59435148785E+03  0.46999998093E+01 0. -1.
       -5    1    3    3    0  502  0.33661296556E+02  0.31812649883E+03  0.99550670150E+02  0.33506712472E+03  0.46999998093E+01 0.  1.
</event>
<event>
 5   0  0.1858013E-02  0.6924336E+03  0.7818609E-02  0.9730260E-01
        1   -1    0    0  501    0  0.00000000000E+00  0.00000000000E+00  0.10812520932E+04  0.10812520932E+04  0.50400001928E-02 0.  1.
       -1   -1    0    0    0  501  0.00000000000E+00  0.00000000000E+00 -0.11085858674E+03  0.11085858686E+03  0.50400001928E-02 0. -1.
    10030    2    1    2    0    0  0.00000000000E+00  0.00000000000E+00  0.97039350646E+03  0.11921106801E+04  0.69243361860E+03 0.  0.
        2    1    3    3  502    0  0.34334731265E+03  0.44427728672E+02  0.48139400550E+03  0.59295985422E+03  0.25500000920E-02 0. -1.
       -2    1    3    3    0  502 -0.34334731265E+03 -0.44427728672E+02  0.48899950097E+03  0.59915082586E+03  0.25500000920E-02 0.  1.
</event>
<event>
 5   0  0.3290656E-02  0.6964807E+03  0.7818609E-02  0.9723270E-01
       -2   -1    0    0    0  501  0.00000000000E+00  0.00000000000E+00  0.47646202176E+03  0.47646202176E+03  0.25500000920E-02 0.  1.
        2   -1    0    0  501    0  0.00000000000E+00  0.00000000000E+00 -0.25452467138E+03  0.25452467139E+03  0.25500000920E-02 0. -1.
    10030    2    1    2    0    0  0.00000000000E+00  0.00000000000E+00  0.22193735038E+03  0.73098669316E+03  0.69648069469E+03 0.  0.
        1    1    3    3  502    0  0.19667323821E+02 -0.32623004936E+02 -0.25233144783E+03  0.25519056344E+03  0.50400001928E-02 0. -1.
       -1    1    3    3    0  502 -0.19667323821E+02  0.32623004936E+02  0.47426879821E+03  0.47579612972E+03  0.50400001928E-02 0.  1.
</event>
<event>
 5   0  0.1858013E-02  0.6962480E+03  0.7818609E-02  0.9723670E-01
        1   -1    0    0  501    0  0.00000000000E+00  0.00000000000E+00  0.36738937302E+03  0.36738937306E+03  0.50400001928E-02 0.  1.
       -1   -1    0    0    0  501  0.00000000000E+00  0.00000000000E+00 -0.32986888996E+03  0.32986889000E+03  0.50400001928E-02 0. -1.
    10030    2    1    2    0    0  0.00000000000E+00  0.00000000000E+00  0.37520483064E+02  0.69725826305E+03  0.69624801525E+03 0.  0.
        2    1    3    3  502    0  0.17306542761E+03  0.98447450369E+02 -0.26721808023E+03  0.33324022135E+03  0.25500000920E-02 0. -1.
       -2    1    3    3    0  502 -0.17306542761E+03 -0.98447450369E+02  0.30473856329E+03  0.36401804170E+03  0.25500000920E-02 0.  1.
</event>
<event>
 5   0  0.3183963E-02  0.6602847E+03  0.7818609E-02  0.9787670E-01
        2   -1    0    0  501    0  0.00000000000E+00  0.00000000000E+00  0.34917187545E+03  0.34917187546E+03  0.25500000920E-02 0. -1.
       -2   -1    0    0    0  501  0.00000000000E+00  0.00000000000E+00 -0.31214994702E+03  0.31214994703E+03  0.25500000920E-02 0.  1.
    10030    2    1    2    0    0  0.00000000000E+00  0.00000000000E+00  0.37021928434E+02  0.66132182249E+03  0.66028473382E+03 0.  0.
        4    1    3    3  502    0 -0.28188478864E+03 -0.17177971225E+03  0.23525415569E+02  0.33094162882E+03  0.12699999809E+01 0. -1.
       -4    1    3    3    0  502  0.28188478864E+03  0.17177971225E+03  0.13496512865E+02  0.33038019367E+03  0.12699999809E+01 0.  1.
</event>
<event>
 5   0  0.1951465E-02  0.6726857E+03  0.7818609E-02  0.9765118E-01
        1   -1    0    0  501    0  0.00000000000E+00  0.00000000000E+00  0.42397973737E+03  0.42397973740E+03  0.50400001928E-02 0. -1.
       -1   -1    0    0    0  501  0.00000000000E+00  0.00000000000E+00 -0.26682059954E+03  0.26682059959E+03  0.50400001928E-02 0.  1.
    10030    2    1    2    0    0  0.00000000000E+00  0.00000000000E+00  0.15715913783E+03  0.69080033699E+03  0.67268574460E+03 0.  0.
        4    1    3    3  502    0 -0.31294255307E+03  0.41506200768E+02  0.19776131508E+03  0.37251437135E+03  0.12699999809E+01 0. -1.
       -4    1    3    3    0  502  0.31294255307E+03 -0.41506200768E+02 -0.40602177257E+02  0.31828596563E+03  0.12699999809E+01 0.  1.
</event>
<event>
 5   0  0.1233912E-02  0.5800162E+03  0.7818609E-02  0.9947756E-01
        4   -1    0    0  501    0  0.00000000000E+00  0.00000000000E+00  0.99788064536E+03  0.99788145353E+03  0.12699999809E+01 0. -1.
       -4   -1    0    0    0  501  0.00000000000E+00  0.00000000000E+00 -0.84277699086E+02  0.84287267503E+02  0.12699999809E+01 0.  1.
    10030    2    1    2    0    0  0.00000000000E+00  0.00000000000E+00  0.91360294628E+03  0.10821687210E+04  0.58001620437E+03 0.  0.
        3    1    3    3  502    0 -0.27496461302E+02 -0.14702996127E+03  0.92036140233E+03  0.93243712174E+03  0.10100000352E+00 0. -1.
       -3    1    3    3    0  502  0.27496461302E+02  0.14702996127E+03 -0.67584560543E+01  0.14973159929E+03  0.10100000352E+00 0.  1.
</event>
<event>
 5   0  0.1839038E-02  0.6873707E+03  0.7818609E-02  0.9739077E-01
        1   -1    0    0  501    0  0.00000000000E+00  0.00000000000E+00  0.68262704626E+03  0.68262704628E+03  0.50400001928E-02 0. -1.
       -1   -1    0    0    0  501  0.00000000000E+00  0.00000000000E+00 -0.17303683185E+03  0.17303683192E+03  0.50400001928E-02 0.  1.
    10030    2    1    2    0    0  0.00000000000E+00  0.00000000000E+00  0.50959021441E+03  0.85566387820E+03  0.68737070481E+03 0.  0.
        5    1    3    3  502    0 -0.10127243545E+03  0.43863697928E+02 -0.15033623057E+03  0.18655616419E+03  0.46999998093E+01 0.  1.
       -5    1    3    3    0  502  0.10127243545E+03 -0.43863697928E+02  0.65992644498E+03  0.66910771402E+03  0.46999998093E+01 0. -1.
</event>
<event>
 5   0  0.1858013E-02  0.7019814E+03  0.7818609E-02  0.9713850E-01
       -1   -1    0    0    0  501  0.00000000000E+00  0.00000000000E+00  0.12457640242E+03  0.12457640252E+03  0.50400001928E-02 0. -1.
        1   -1    0    0  501    0  0.00000000000E+00  0.00000000000E+00 -0.98890700955E+03  0.98890700956E+03  0.50400001928E-02 0.  1.
    10030    2    1    2    0    0  0.00000000000E+00  0.00000000000E+00 -0.86433060713E+03  0.11134834121E+04  0.70198141753E+03 0.  0.
        2    1    3    3  502    0  0.55413645569E+02 -0.15593970265E+03 -0.92313635153E+03  0.93785317961E+03  0.25500000920E-02 0.  1.
       -2    1    3    3    0  502 -0.55413645569E+02  0.15593970265E+03  0.58805744402E+02  0.17563023247E+03  0.25500000920E-02 0. -1.
</event>
<event>
 5   0  0.1884172E-02  0.6984097E+03  0.7818609E-02  0.9719956E-01
       -1   -1    0    0    0  501  0.00000000000E+00  0.00000000000E+00  0.16875287461E+03  0.16875287469E+03  0.50400001928E-02 0.  1.
        1   -1    0    0  501    0  0.00000000000E+00  0.00000000000E+00 -0.72261904894E+03  0.72261904896E+03  0.50400001928E-02 0. -1.
    10030    2    1    2    0    0  0.00000000000E+00  0.00000000000E+00 -0.55386617433E+03  0.89137192365E+03  0.69840974163E+03 0.  0.
        3    1    3    3  502    0 -0.77040522410E+02 -0.32964914759E+03 -0.38627922968E+03  0.51362968770E+03  0.10100000352E+00 0.  1.
       -3    1    3    3    0  502  0.77040522410E+02  0.32964914759E+03 -0.16758694464E+03  0.37774223595E+03  0.10100000352E+00 0. -1.
</event>
<event>
 5   0  0.1839038E-02  0.6863907E+03  0.7818609E-02  0.9740793E-01
        1   -1    0    0  501    0  0.00000000000E+00  0.00000000000E+00  0.31075057365E+03  0.31075057370E+03  0.50400001928E-02 0.  1.
       -1   -1    0    0    0  501  0.00000000000E+00  0.00000000000E+00 -0.37902756469E+03  0.37902756473E+03  0.50400001928E-02 0. -1.
    10030    2    1    2    0    0  0.00000000000E+00  0.00000000000E+00 -0.68276991039E+02  0.68977813842E+03  0.68639065607E+03 0.  0.
        5    1    3    3  502    0  0.43518347783E+02  0.32226999888E+03  0.75988577540E+02  0.33398825232E+03  0.46999998093E+01 0. -1.
       -5    1    3    3    0  502 -0.43518347783E+02 -0.32226999888E+03 -0.14426556858E+03  0.35578988610E+03  0.46999998093E+01 0.  1.
</event>
<event>
 5   0  0.1839038E-02  0.6968965E+03  0.7818609E-02  0.9722554E-01
       -1   -1    0    0    0  501  0.00000000000E+00  0.00000000000E+00  0.25711808078E+03  0.25711808083E+03  0.50400001928E-02 0.  1.
        1   -1    0    0  501    0  0.00000000000E+00  0.00000000000E+00 -0.47221953018E+03  0.47221953021E+03  0.50400001928E-02 0. -1.
    10030    2    1    2    0    0  0.00000000000E+00  0.00000000000E+00 -0.21510144941E+03  0.72933761104E+03  0.69689648969E+03 0.  0.
        5    1    3    3  502    0  0.17363578305E+03  0.30198570359E+03 -0.11490187892E+03  0.36683686035E+03  0.46999998093E+01 0. -1.
       -5    1    3    3    0  502 -0.17363578305E+03 -0.30198570359E+03 -0.10019957048E+03  0.36250075069E+03  0.46999998093E+01 0.  1.
</event>
<event>
 5   0  0.1839038E-02  0.7016093E+03  0.7818609E-02  0.9714484E-01
        1   -1    0    0  501    0  0.00000000000E+00  0.00000000000E+00  0.86665233798E+03  0.86665233800E+03  0.50400001928E-02 0. -1.
       -1   -1    0    0    0  501  0.00000000000E+00  0.00000000000E+00 -0.14199915256E+03  0.14199915265E+03  0.50400001928E-02 0.  1.
    10030    2    1    2    0    0  0.00000000000E+00  0.00000000000E+00  0.72465318542E+03  0.10086514906E+04  0.70160928617E+03 0.  0.
        5    1    3    3  502    0 -0.34253605597E+03 -0.15155750672E+02  0.46876101156E+03  0.58079223684E+03  0.46999998093E+01 0.  1.
       -5    1    3    3    0  502  0.34253605597E+03  0.15155750672E+02  0.25589217386E+03  0.42785925380E+03  0.46999998093E+01 0. -1.
</event>
<event>
 5   0  0.3183963E-02  0.6968938E+03  0.7818609E-02  0.9722559E-01
        2   -1    0    0  501    0  0.00000000000E+00  0.00000000000E+00  0.19577298695E+04  0.19577298695E+04  0.25500000920E-02 0. -1.
       -2   -1    0    0    0  501  0.00000000000E+00  0.00000000000E+00 -0.62018375182E+02  0.62018375234E+02  0.25500000920E-02 0.  1.
    10030    2    1    2    0    0  0.00000000000E+00  0.00000000000E+00  0.18957114943E+04  0.20197482447E+04  0.69689375260E+03 0.  0.
        4    1    3    3  502    0 -0.11343626184E+02  0.29425388046E+03  0.14877302679E+04  0.15165938767E+04  0.12699999809E+01 0. -1.
       -4    1    3    3    0  502  0.11343626184E+02 -0.29425388046E+03  0.40798122639E+03  0.50315436797E+03  0.12699999809E+01 0.  1.
</event>
<event>
 5   0  0.1951465E-02  0.6986748E+03  0.7818609E-02  0.9719501E-01
       -1   -1    0    0    0  501  0.00000000000E+00  0.00000000000E+00  0.15247854127E+03  0.15247854135E+03  0.50400001928E-02 0.  1.
        1   -1    0    0  501    0  0.00000000000E+00  0.00000000000E+00 -0.80035275019E+03  0.80035275020E+03  0.50400001928E-02 0. -1.
    10030    2    1    2    0    0  0.00000000000E+00  0.00000000000E+00 -0.64787420892E+03  0.95283129156E+03  0.69867480246E+03 0.  0.
        4    1    3    3  502    0  0.11932067714E+03 -0.19128465734E+03  0.39981787312E+02  0.22897030450E+03  0.12699999809E+01 0.  1.
       -4    1    3    3    0  502 -0.11932067714E+03  0.19128465734E+03 -0.68785599623E+03  0.72386098705E+03  0.12699999809E+01 0. -1.
</event>
<event>
 5   0  0.3184443E-02  0.6969925E+03  0.7818609E-02  0.9722389E-01
        2   -1    0    0  501    0  0.00000000000E+00  0.00000000000E+00  0.14763385933E+03  0.14763385935E+03  0.25500000920E-02 0.  1.
       -2   -1    0    0    0  501  0.00000000000E+00  0.00000000000E+00 -0.82264079040E+03  0.82264079041E+03  0.25500000920E-02 0. -1.
    10030    2    1    2    0    0  0.00000000000E+00  0.00000000000E+00 -0.67500693107E+03  0.97027464976E+03  0.69699249564E+03 0.  0.
        3    1    3    3  502    0  0.17150977826E+03 -0.67105791393E+02 -0.74936109361E+03  0.77166109795E+03  0.10100000352E+00 0. -1.
       -3    1    3    3    0  502 -0.17150977826E+03  0.67105791393E+02  0.74354162536E+02  0.19861355181E+03  0.10100000352E+00 0.  1.
</event>
<event>
 5   0  0.3290656E-02  0.7147283E+03  0.7818609E-02  0.9692371E-01
        2   -1    0    0  501    0  0.00000000000E+00  0.00000000000E+00  0.11749932963E+04  0.11749932963E+04  0.25500000920E-02 0. -1.
       -2   -1    0    0    0  501  0.00000000000E+00  0.00000000000E+00 -0.10868925858E+03  0.10868925861E+03  0.25500000920E-02 0.  1.
    10030    2    1    2    0    0  0.00000000000E+00  0.00000000000E+00  0.10663040377E+04  0.12836825549E+04  0.71472834067E+03 0.  0.
        1    1    3    3  502    0  0.53748377063E+01 -0.15017520951E+03  0.11154900462E+04  0.11255663133E+04  0.50400001928E-02 0. -1.
       -1    1    3    3    0  502 -0.53748377063E+01  0.15017520951E+03 -0.49186008426E+02  0.15811624168E+03  0.50400001928E-02 0.  1.
</event>
<event>
 5   0  0.1951465E-02  0.6968474E+03  0.7818609E-02  0.9722639E-01
        1   -1    0    0  501    0  0.00000000000E+00  0.00000000000E+00  0.57878283935E+03  0.57878283937E+03  0.50400001928E-02 0.  1.
       -1   -1    0    0    0  501  0.00000000000E+00  0.00000000000E+00 -0.20974892307E+03  0.20974892313E+03  0.50400001928E-02 0. -1.
    10030    2    1    2    0    0  0.00000000000E+00  0.00000000000E+00  0.36903391628E+03  0.78853176251E+03  0.69684740734E+03 0.  0.
        4    1    3    3  502    0 -0.12823766610E+03 -0.54771650795E+02  0.54582757509E+03  0.56335973176E+03  0.12699999809E+01 0.  1.
       -4    1    3    3    0  502  0.12823766610E+03  0.54771650795E+02 -0.17679365881E+03  0.22517203075E+03  0.12699999809E+01 0. -1.
</event>
<event>
 5   0  0.3290656E-02  0.6863515E+03  0.7818609E-02  0.9740862E-01
        2   -1    0    0  501    0  0.00000000000E+00  0.00000000000E+00  0.18127070950E+04  0.18127070950E+04  0.25500000920E-02 0. -1.
       -2   -1    0    0    0  501  0.00000000000E+00  0.00000000000E+00 -0.64968906303E+02  0.64968906353E+02  0.25500000920E-02 0.  1.
    10030    2    1    2    0    0  0.00000000000E+00  0.00000000000E+00  0.17477381887E+04  0.18776760014E+04  0.68635150603E+03 0.  0.
        1    1    3    3  502    0 -0.22542305949E+02  0.27695372262E+03  0.14248198010E+04  0.14516621458E+04  0.50400001928E-02 0. -1.
       -1    1    3    3    0  502  0.22542305949E+02 -0.27695372262E+03  0.32291838769E+03  0.42601385560E+03  0.50400001928E-02 0.  1.
</event>
<event>
 5   0  0.3184443E-02  0.6794511E+03  0.7818609E-02  0.9753033E-01
       -2   -1    0    0    0  501  0.00000000000E+00  0.00000000000E+00  0.60345340659E+03  0.60345340660E+03  0.25500000920E-02 0.  1.
        2   -1    0    0  501    0  0.00000000000E+00  0.00000000000E+00 -0.19125495254E+03  0.19125495256E+03  0.25500000920E-02 0. -1.
    10030    2    1    2    0    0  0.00000000000E+00  0.00000000000E+00  0.41219845405E+03  0.79470835915E+03  0.67945110978E+03 0.  0.
        3    1    3    3  502    0 -0.21218976823E+03  0.11192804072E+03 -0.75248075500E+02  0.25142527142E+03  0.10100000352E+00 0.  1.
       -3    1    3    3    0  502  0.21218976823E+03 -0.11192804072E+03  0.48744652955E+03  0.54328308773E+03  0.10100000352E+00 0. -1.
</event>
<event>
 5   0  0.1858013E-02  0.7210218E+03  0.7818609E-02  0.9681942E-01
       -1   -1    0    0    0  501  0.00000000000E+00  0.00000000000E+00  0.19428209787E+03  0.19428209794E+03  0.50400001928E-02 0.  1.
        1   -1    0    0  501    0  0.00000000000E+00  0.00000000000E+00 -0.66896593627E+03  0.66896593629E+03  0.50400001928E-02 0. -1.
    10030    2    1    2    0    0  0.00000000000E+00  0.00000000000E+00 -0.47468383840E+03  0.86324803423E+03  0.72102179035E+03 0.  0.
        2    1    3    3  502    0 -0.18015229036E+02 -0.69221472654E+02 -0.66038526076E+03  0.66424758441E+03  0.25500000920E-02 0. -1.
       -2    1    3    3    0  502  0.18015229036E+02  0.69221472654E+02  0.18570142236E+03  0.19900044982E+03  0.25500000920E-02 0.  1.
</event>
<event>
 5   0  0.3184443E-02  0.7090040E+03  0.7818609E-02  0.9701957E-01
       -2   -1    0    0    0  501  0.00000000000E+00  0.00000000000E+00  0.32825812598E+03  0.32825812599E+03  0.25500000920E-02 0. -1.
        2   -1    0    0  501    0  0.00000000000E+00  0.00000000000E+00 -0.38284406258E+03  0.38284406259E+03  0.25500000920E-02 0.  1.
    10030    2    1    2    0    0  0.00000000000E+00  0.00000000000E+00 -0.54585936598E+02  0.71110218858E+03  0.70900401841E+03 0.  0.
        3    1    3    3  502    0  0.97147725076E+02 -0.17357362580E+03 -0.32159989300E+03  0.37814281091E+03  0.10100000352E+00 0.  1.
       -3    1    3    3    0  502 -0.97147725076E+02  0.17357362580E+03  0.26701395641E+03  0.33295937767E+03  0.10100000352E+00 0. -1.
</event>
<event>
 5   0  0.1951465E-02  0.6990822E+03  0.7818609E-02  0.9718803E-01
        1   -1    0    0  501    0  0.00000000000E+00  0.00000000000E+00  0.94209424787E+03  0.94209424789E+03  0.50400001928E-02 0.  1.
       -1   -1    0    0    0  501  0.00000000000E+00  0.00000000000E+00 -0.12968870450E+03  0.12968870460E+03  0.50400001928E-02 0. -1.
    10030    2    1    2    0    0  0.00000000000E+00  0.00000000000E+00  0.81240554337E+03  0.10717829525E+04  0.69908220570E+03 0.  0.
        4    1    3    3  502    0 -0.26193997465E+03 -0.20852885902E+03  0.56013174528E+03  0.65256878590E+03  0.12699999809E+01 0. -1.
       -4    1    3    3    0  502  0.26193997465E+03  0.20852885902E+03  0.25227379809E+03  0.41921416658E+03  0.12699999809E+01 0.  1.
</event>
<event>
 5   0  0.1233912E-02  0.6939444E+03  0.7818609E-02  0.9727644E-01
       -4   -1    0    0    0  501  0.00000000000E+00  0.00000000000E+00  0.42503595560E+03  0.42503785297E+03  0.12699999809E+01 0.  1.
        4   -1    0    0  501    0  0.00000000000E+00  0.00000000000E+00 -0.28324199715E+03  0.28324484434E+03  0.12699999809E+01 0. -1.
    10030    2    1    2    0    0  0.00000000000E+00  0.00000000000E+00  0.14179395846E+03  0.70828269731E+03  0.69394441611E+03 0.  0.
        5    1    3    3  502    0  0.10267998652E+03  0.32932332483E+03  0.33110543761E+02  0.34657673034E+03  0.46999998093E+01 0.  1.
       -5    1    3    3    0  502 -0.10267998652E+03 -0.32932332483E+03  0.10868341470E+03  0.36170596697E+03  0.46999998093E+01 0. -1.
</event>
<event>
 5   0  0.1951465E-02  0.6918772E+03  0.7818609E-02  0.9731225E-01
        1   -1    0    0  501    0  0.00000000000E+00  0.00000000000E+00  0.91257238550E+03  0.91257238551E+03  0.50400001928E-02 0. -1.
       -1   -1    0    0    0  501  0.00000000000E+00  0.00000000000E+00 -0.13113865274E+03  0.13113865283E+03  0.50400001928E-02 0.  1.
    10030    2    1    2    0    0  0.00000000000E+00  0.00000000000E+00  0.78143373276E+03  0.10437110383E+04  0.69187719493E+03 0.  0.
        4    1    3    3  502    0 -0.76060426625E+02  0.10525163527E+03 -0.92972362560E+02  0.15971402044E+03  0.12699999809E+01 0.  1.
       -4    1    3    3    0  502  0.76060426625E+02 -0.10525163527E+03  0.87440609532E+03  0.88399701790E+03  0.12699999809E+01 0. -1.
</event>
<event>
 5   0  0.3290656E-02  0.7154238E+03  0.7818609E-02  0.9691213E-01
        2   -1    0    0  501    0  0.00000000000E+00  0.00000000000E+00  0.60636838476E+03  0.60636838477E+03  0.25500000920E-02 0.  1.
       -2   -1    0    0    0  501  0.00000000000E+00  0.00000000000E+00 -0.21102319030E+03  0.21102319032E+03  0.25500000920E-02 0. -1.
    10030    2    1    2    0    0  0.00000000000E+00  0.00000000000E+00  0.39534519446E+03  0.81739157508E+03  0.71542376549E+03 0.  0.
        1    1    3    3  502    0 -0.16668063478E+02 -0.26689368889E+03  0.46912270474E+03  0.53998720136E+03  0.50400001928E-02 0.  1.
       -1    1    3    3    0  502  0.16668063478E+02  0.26689368889E+03 -0.73777510280E+02  0.27740437372E+03  0.50400001928E-02 0. -1.
</event>
<event>
 5   0  0.1969818E-02  0.7101366E+03  0.7818609E-02  0.9700053E-01
        1   -1    0    0  501    0  0.00000000000E+00  0.00000000000E+00  0.51346193976E+03  0.51346193978E+03  0.50400001928E-02 0.  1.
       -1   -1    0    0    0  501  0.00000000000E+00  0.00000000000E+00 -0.24553623338E+03  0.24553623343E+03  0.50400001928E-02 0. -1.
    10030    2    1    2    0    0  0.00000000000E+00  0.00000000000E+00  0.26792570638E+03  0.75899817321E+03  0.71013663671E+03 0.  0.
        1    1    3    3  502    0 -0.10412069201E+03 -0.11180486984E+03 -0.20860911032E+03  0.25857147631E+03  0.50400001928E-02 0. -1.
       -1    1    3    3    0  502  0.10412069201E+03  0.11180486984E+03  0.47653481670E+03  0.50042669691E+03  0.50400001928E-02 0.  1.
</event>
<event>
 5   0  0.1858013E-02  0.7021627E+03  0.7818609E-02  0.9713541E-01
       -1   -1    0    0    0  501  0.00000000000E+00  0.00000000000E+00  0.22932485589E+03  0.22932485594E+03  0.50400001928E-02 0.  1.
        1   -1    0    0  501    0  0.00000000000E+00  0.00000000000E+00 -0.53748252696E+03  0.53748252698E+03  0.50400001928E-02 0. -1.
    10030    2    1    2    0    0  0.00000000000E+00  0.00000000000E+00 -0.30815767107E+03  0.76680738293E+03  0.70216266796E+03 0.  0.
        2    1    3    3  502    0 -0.14373053857E+03 -0.28439781443E+03 -0.31501500128E+03  0.44807927379E+03  0.25500000920E-02 0. -1.
       -2    1    3    3    0  502  0.14373053857E+03  0.28439781443E+03  0.68573302036E+01  0.31872810913E+03  0.25500000920E-02 0.  1.
</event>
<event>
 5   0  0.2933851E-02  0.7039940E+03  0.7818609E-02  0.9710426E-01
        2   -1    0    0  501    0  0.00000000000E+00  0.00000000000E+00  0.59500531846E+03  0.59500531846E+03  0.25500000920E-02 0. -1.
       -2   -1    0    0    0  501  0.00000000000E+00  0.00000000000E+00 -0.20823659779E+03  0.20823659781E+03  0.25500000920E-02 0.  1.
    10030    2    1    2    0    0  0.00000000000E+00  0.00000000000E+00  0.38676872066E+03  0.80324191627E+03  0.70399398632E+03 0.  0.
        2    1    3    3  502    0  0.68220318695E+02  0.42396240677E+02  0.58440953614E+03  0.58990334720E+03  0.25500000920E-02 0. -1.
       -2    1    3    3    0  502 -0.68220318695E+02 -0.42396240677E+02 -0.19764081547E+03  0.21333856907E+03  0.25500000920E-02 0.  1.
</event>
<event>
 5   0  0.2933851E-02  0.6859314E+03  0.7818609E-02  0.9741599E-01
       -2   -1    0    0    0  501  0.00000000000E+00  0.00000000000E+00  0.21122503139E+03  0.21122503140E+03  0.25500000920E-02 0.  1.
        2   -1    0    0  501    0  0.00000000000E+00  0.00000000000E+00 -0.55687270690E+03  0.55687270691E+03  0.25500000920E-02 0. -1.
    10030    2    1    2    0    0  0.00000000000E+00  0.00000000000E+00 -0.34564767552E+03  0.76809773831E+03  0.68593135226E+03 0.  0.
        2    1    3    3  502    0  0.56705573470E+02 -0.33487699981E+03 -0.11950348651E+03  0.36005445471E+03  0.25500000920E-02 0. -1.
       -2    1    3    3    0  502 -0.56705573470E+02  0.33487699981E+03 -0.22614418900E+03  0.40804328360E+03  0.25500000920E-02 0.  1.
</event>
<event>
 5   0  0.1233912E-02  0.7020123E+03  0.7818609E-02  0.9713797E-01
        4   -1    0    0  501    0  0.00000000000E+00  0.00000000000E+00  0.31419315611E+03  0.31419572284E+03  0.12699999809E+01 0.  1.
       -4   -1    0    0    0  501  0.00000000000E+00  0.00000000000E+00 -0.39212723075E+03  0.39212928735E+03  0.12699999809E+01 0. -1.
    10030    2    1    2    0    0  0.00000000000E+00  0.00000000000E+00 -0.77934074633E+02  0.70632501018E+03  0.70201232184E+03 0.  0.
        4    1    3    3  502    0 -0.22919908945E+03 -0.14305712361E+03 -0.26441084151E+03  0.37803739131E+03  0.12699999809E+01 0. -1.
       -4    1    3    3    0  502  0.22919908945E+03  0.14305712361E+03  0.18647676688E+03  0.32828761887E+03  0.12699999809E+01 0.  1.
</event>
<event>
 5   0  0.3290656E-02  0.6963898E+03  0.7818609E-02  0.9723426E-01
        2   -1    0    0  501    0  0.00000000000E+00  0.00000000000E+00  0.58564631647E+03  0.58564631648E+03  0.25500000920E-02 0.  1.
       -2   -1    0    0    0  501  0.00000000000E+00  0.00000000000E+00 -0.20701863751E+03  0.20701863753E+03  0.25500000920E-02 0. -1.
    10030    2    1    2    0    0  0.00000000000E+00  0.00000000000E+00  0.37862767896E+03  0.79266495400E+03  0.69638984056E+03 0.  0.
        1    1    3    3  502    0 -0.27040256390E+03  0.12347575504E+03 -0.17070155662E+02  0.29775022903E+03  0.50400001928E-02 0. -1.
       -1    1    3    3    0  502  0.27040256390E+03 -0.12347575504E+03  0.39569783462E+03  0.49491472498E+03  0.50400001928E-02 0.  1.
</event>
<event>
 5   0  0.1884172E-02  0.6999106E+03  0.7818609E-02  0.9717385E-01
       -1   -1    0    0    0  501  0.00000000000E+00  0.00000000000E+00  0.53070432799E+03  0.53070432801E+03  0.50400001928E-02 0.  1.
        1   -1    0    0  501    0  0.00000000000E+00  0.00000000000E+00 -0.23076639121E+03  0.23076639127E+03  0.50400001928E-02 0. -1.
    10030    2    1    2    0    0  0.00000000000E+00  0.00000000000E+00  0.29993793678E+03  0.76147071928E+03  0.69991063030E+03 0.  0.
        3    1    3    3  502    0 -0.21786494157E+02  0.28205679756E+03  0.37409288106E+03  0.46901618548E+03  0.10100000352E+00 0.  1.
       -3    1    3    3    0  502  0.21786494157E+02 -0.28205679756E+03 -0.74154944287E+02  0.29245453380E+03  0.10100000352E+00 0. -1.
</event>
<event>
 5   0  0.3183963E-02  0.7075049E+03  0.7818609E-02  0.9704483E-01
       -2   -1    0    0    0  501  0.00000000000E+00  0.00000000000E+00  0.78367602229E+02  0.78367602271E+02  0.25500000920E-02 0. -1.
        2   -1    0    0  501    0  0.00000000000E+00  0.00000000000E+00 -0.15968436352E+04  0.15968436352E+04  0.25500000920E-02 0.  1.
    10030    2    1    2    0    0  0.00000000000E+00  0.00000000000E+00 -0.15184760330E+04  0.16752112375E+04  0.70750493105E+03 0.  0.
        4    1    3    3  502    0 -0.17029195050E+02 -0.31582005764E+03 -0.38406069292E+03  0.49753043227E+03  0.12699999809E+01 0. -1.
       -4    1    3    3    0  502  0.17029195050E+02  0.31582005764E+03 -0.11344153401E+04  0.11776808052E+04  0.12699999809E+01 0.  1.
</event>
<event>
 5   0  0.3113940E-02  0.7291018E+03  0.7818609E-02  0.9668719E-01
       -2   -1    0    0    0  501  0.00000000000E+00  0.00000000000E+00  0.20615255092E+03  0.20615255094E+03  0.25500000920E-02 0.  1.
        2   -1    0    0  501    0  0.00000000000E+00  0.00000000000E+00 -0.64465536372E+03  0.64465536373E+03  0.25500000920E-02 0. -1.
    10030    2    1    2    0    0  0.00000000000E+00  0.00000000000E+00 -0.43850281280E+03  0.85080791466E+03  0.72910176986E+03 0.  0.
        5    1    3    3  502    0 -0.28287264698E+02 -0.44496491233E+02 -0.64014655794E+03  0.64233154423E+03  0.46999998093E+01 0. -1.
       -5    1    3    3    0  502  0.28287264698E+02  0.44496491233E+02  0.20164374514E+03  0.20847637043E+03  0.46999998093E+01 0.  1.
</event>
<event>
 5   0  0.3184443E-02  0.6984233E+03  0.7818609E-02  0.9719932E-01
        2   -1    0    0  501    0  0.00000000000E+00  0.00000000000E+00  0.12301019128E+04  0.12301019128E+04  0.25500000920E-02 0.  1.
       -2   -1    0    0    0  501  0.00000000000E+00  0.00000000000E+00 -0.99137139886E+02  0.99137139919E+02  0.25500000920E-02 0. -1.
    10030    2    1    2    0    0  0.00000000000E+00  0.00000000000E+00  0.11309647729E+04  0.13292390527E+04  0.69842332558E+03 0.  0.
        3    1    3    3  502    0 -0.34570851485E+03 -0.46913481868E+02  0.53639870502E+03  0.63987407587E+03  0.10100000352E+00 0.  1.
       -3    1    3    3    0  502  0.34570851485E+03  0.46913481868E+02  0.59456606792E+03  0.68936497688E+03  0.10100000352E+00 0. -1.
</event>
<event>
 5   0  0.1969818E-02  0.6984139E+03  0.7818609E-02  0.9719949E-01
        1   -1    0    0  501    0  0.00000000000E+00  0.00000000000E+00  0.57266415622E+03  0.57266415624E+03  0.50400001928E-02 0.  1.
       -1   -1    0    0    0  501  0.00000000000E+00  0.00000000000E+00 -0.21294416256E+03  0.21294416262E+03  0.50400001928E-02 0. -1.
    10030    2    1    2    0    0  0.00000000000E+00  0.00000000000E+00  0.35971999365E+03  0.78560831886E+03  0.69841388648E+03 0.  0.
        1    1    3    3  502    0 -0.14880616271E+03  0.64468742799E+01 -0.17542171217E+03  0.23012521238E+03  0.50400001928E-02 0. -1.
       -1    1    3    3    0  502  0.14880616271E+03 -0.64468742799E+01  0.53514170582E+03  0.55548310648E+03  0.50400001928E-02 0.  1.
</event>
<event>
 5   0  0.1233912E-02  0.6976286E+03  0.7818609E-02  0.9721296E-01
       -4   -1    0    0    0  501  0.00000000000E+00  0.00000000000E+00  0.37070035443E+03  0.37070252990E+03  0.12699999809E+01 0.  1.
        4   -1    0    0  501    0  0.00000000000E+00  0.00000000000E+00 -0.32821602035E+03  0.32821847741E+03  0.12699999809E+01 0. -1.
    10030    2    1    2    0    0  0.00000000000E+00  0.00000000000E+00  0.42484334078E+02  0.69892100731E+03  0.69762859447E+03 0.  0.
        3    1    3    3  502    0  0.17962516877E+03 -0.29672433053E+03  0.58200536801E+02  0.35170704040E+03  0.10100000352E+00 0.  1.
       -3    1    3    3    0  502 -0.17962516877E+03  0.29672433053E+03 -0.15716202723E+02  0.34721396691E+03  0.10100000352E+00 0. -1.
</event>
<event>
 5   0  0.1858013E-02  0.6969588E+03  0.7818609E-02  0.9722447E-01
       -1   -1    0    0    0  501  0.00000000000E+00  0.00000000000E+00  0.26236560795E+03  0.26236560800E+03  0.50400001928E-02 0.  1.
        1   -1    0    0  501    0  0.00000000000E+00  0.00000000000E+00 -0.46285747267E+03  0.46285747270E+03  0.50400001928E-02 0. -1.
    10030    2    1    2    0    0  0.00000000000E+00  0.00000000000E+00 -0.20049186472E+03  0.72522308069E+03  0.69695877134E+03 0.  0.
        2    1    3    3  502    0  0.22128281238E+03 -0.14716547201E+03  0.13431557646E+03  0.29776573559E+03  0.25500000920E-02 0.  1.
       -2    1    3    3    0  502 -0.22128281238E+03  0.14716547201E+03 -0.33480744118E+03  0.42745734510E+03  0.25500000920E-02 0. -1.
</event>
<event>
 5   0  0.2933851E-02  0.6985081E+03  0.7818609E-02  0.9719787E-01
        2   -1    0    0  501    0  0.00000000000E+00  0.00000000000E+00  0.54522829074E+03  0.54522829074E+03  0.25500000920E-02 0.  1.
       -2   -1    0    0    0  501  0.00000000000E+00  0.00000000000E+00 -0.22371985972E+03  0.22371985973E+03  0.25500000920E-02 0. -1.
    10030    2    1    2    0    0  0.00000000000E+00  0.00000000000E+00  0.32150843102E+03  0.76894815048E+03  0.69850811513E+03 0.  0.
        2    1    3    3  502    0  0.27578049290E+03  0.20021055080E+03  0.76633258963E+02  0.34930187704E+03  0.25500000920E-02 0.  1.
       -2    1    3    3    0  502 -0.27578049290E+03 -0.20021055080E+03  0.24487517205E+03  0.41964627344E+03  0.25500000920E-02 0. -1.
</event>
<event>
 5   0  0.3183963E-02  0.7090610E+03  0.7818609E-02  0.9701861E-01
        2   -1    0    0  501    0  0.00000000000E+00  0.00000000000E+00  0.66770883808E+03  0.66770883808E+03  0.25500000920E-02 0.  1.
       -2   -1    0    0    0  501  0.00000000000E+00  0.00000000000E+00 -0.18824356225E+03  0.18824356227E+03  0.25500000920E-02 0. -1.
    10030    2    1    2    0    0  0.00000000000E+00  0.00000000000E+00  0.47946527583E+03  0.85595240035E+03  0.70906104176E+03 0.  0.
        4    1    3    3  502    0  0.41673142870E+02 -0.31512620234E+03  0.50207618236E+02  0.32181297685E+03  0.12699999809E+01 0. -1.
       -4    1    3    3    0  502 -0.41673142870E+02  0.31512620234E+03  0.42925765759E+03  0.53413942350E+03  0.12699999809E+01 0.  1.
</event>
<event>
 5   0  0.3113940E-02  0.7040297E+03  0.7818609E-02  0.9710366E-01
       -2   -1    0    0    0  501  0.00000000000E+00  0.00000000000E+00  0.75758354266E+02  0.75758354309E+02  0.25500000920E-02 0. -1.
        2   -1    0    0  501    0  0.00000000000E+00  0.00000000000E+00 -0.16356538074E+04  0.16356538074E+04  0.25500000920E-02 0.  1.
    10030    2    1    2    0    0  0.00000000000E+00  0.00000000000E+00 -0.15598954531E+04  0.17114121617E+04  0.70402966026E+03 0.  0.
        5    1    3    3  502    0 -0.25997452123E+02  0.32818559923E+03 -0.47720111230E+03  0.57976257782E+03  0.46999998093E+01 0. -1.
       -5    1    3    3    0  502  0.25997452123E+02 -0.32818559923E+03 -0.10826943408E+04  0.11316495838E+04  0.46999998093E+01 0.  1.
</event>
<event>
 5   0  0.1951465E-02  0.7594055E+03  0.7818609E-02  0.9620709E-01
        1   -1    0    0  501    0  0.00000000000E+00  0.00000000000E+00  0.11062338829E+04  0.11062338829E+04  0.50400001928E-02 0. -1.
       -1   -1    0    0    0  501  0.00000000000E+00  0.00000000000E+00 -0.13032882343E+03  0.13032882353E+03  0.50400001928E-02 0.  1.
    10030    2    1    2    0    0  0.00000000000E+00  0.00000000000E+00  0.97590505950E+03  0.12365627065E+04  0.75940545289E+03 0.  0.
        4    1    3    3  502    0  0.99843698784E+01 -0.24849501702E+03  0.20752076436E+02  0.24956306357E+03  0.12699999809E+01 0.  1.
       -4    1    3    3    0  502 -0.99843698784E+01  0.24849501702E+03  0.95515298307E+03  0.98699964290E+03  0.12699999809E+01 0. -1.
</event>
<event>
 5   0  0.1951465E-02  0.7014948E+03  0.7818609E-02  0.9714679E-01
        1   -1    0    0  501    0  0.00000000000E+00  0.00000000000E+00  0.82880255232E+03  0.82880255234E+03  0.50400001928E-02 0. -1.
       -1   -1    0    0    0  501  0.00000000000E+00  0.00000000000E+00 -0.14843551970E+03  0.14843551979E+03  0.50400001928E-02 0.  1.
    10030    2    1    2    0    0  0.00000000000E+00  0.00000000000E+00  0.68036703262E+03  0.97723807213E+03  0.70149479722E+03 0.  0.
        4    1    3    3  502    0 -0.13661742149E+03  0.25321377733E+03  0.61963606967E+03  0.68317787481E+03  0.12699999809E+01 0. -1.
       -4    1    3    3    0  502  0.13661742149E+03 -0.25321377733E+03  0.60730962949E+02  0.29406019732E+03  0.12699999809E+01 0.  1.
</event>
<event>
 5   0  0.2933851E-02  0.6989341E+03  0.7818609E-02  0.9719057E-01
        2   -1    0    0  501    0  0.00000000000E+00  0.00000000000E+00  0.39220799351E+03  0.39220799352E+03  0.25500000920E-02 0.  1.
       -2   -1    0    0    0  501  0.00000000000E+00  0.00000000000E+00 -0.31138379554E+03  0.31138379555E+03  0.25500000920E-02 0. -1.
    10030    2    1    2    0    0  0.00000000000E+00  0.00000000000E+00  0.80824197971E+02  0.70359178907E+03  0.69893408464E+03 0.  0.
        2    1    3    3  502    0  0.11869833074E+03  0.28693490425E+03 -0.12098813685E+03  0.33325525092E+03  0.25500000920E-02 0.  1.
       -2    1    3    3    0  502 -0.11869833074E+03 -0.28693490425E+03  0.20181233482E+03  0.37033653815E+03  0.25500000920E-02 0. -1.
</event>
<event>
 5   0  0.3290656E-02  0.6995984E+03  0.7818609E-02  0.9717919E-01
       -2   -1    0    0    0  501  0.00000000000E+00  0.00000000000E+00  0.13205981472E+03  0.13205981475E+03  0.25500000920E-02 0. -1.
        2   -1    0    0  501    0  0.00000000000E+00  0.00000000000E+00 -0.92654601088E+03  0.92654601089E+03  0.25500000920E-02 0.  1.
    10030    2    1    2    0    0  0.00000000000E+00  0.00000000000E+00 -0.79448619616E+03  0.10586058256E+04  0.69959844066E+03 0.  0.
        1    1    3    3  502    0  0.18619931422E+03  0.15457426329E+03 -0.77943592848E+03  0.81613954329E+03  0.50400001928E-02 0.  1.
       -1    1    3    3    0  502 -0.18619931422E+03 -0.15457426329E+03 -0.15050267679E+02  0.24246628234E+03  0.50400001928E-02 0. -1.
</event>
<event>
 5   0  0.3290656E-02  0.7015419E+03  0.7818609E-02  0.9714599E-01
       -2   -1    0    0    0  501  0.00000000000E+00  0.00000000000E+00  0.29713741322E+03  0.29713741323E+03  0.25500000920E-02 0. -1.
        2   -1    0    0  501    0  0.00000000000E+00  0.00000000000E+00 -0.41408533553E+03  0.41408533554E+03  0.25500000920E-02 0.  1.
    10030    2    1    2    0    0  0.00000000000E+00  0.00000000000E+00 -0.11694792231E+03  0.71122274877E+03  0.70154186036E+03 0.  0.
        1    1    3    3  502    0 -0.15661707143E+03 -0.30446685722E+03  0.18809688271E+02  0.34290345377E+03  0.50400001928E-02 0. -1.
       -1    1    3    3    0  502  0.15661707143E+03  0.30446685722E+03 -0.13575761058E+03  0.36831929500E+03  0.50400001928E-02 0.  1.
</event>
<event>
 5   0  0.1858013E-02  0.7047312E+03  0.7818609E-02  0.9709175E-01
        1   -1    0    0  501    0  0.00000000000E+00  0.00000000000E+00  0.53596528473E+03  0.53596528475E+03  0.50400001928E-02 0. -1.
       -1   -1    0    0    0  501  0.00000000000E+00  0.00000000000E+00 -0.23165959315E+03  0.23165959321E+03  0.50400001928E-02 0.  1.
    10030    2    1    2    0    0  0.00000000000E+00  0.00000000000E+00  0.30430569157E+03  0.76762487796E+03  0.70473115394E+03 0.  0.
        2    1    3    3  502    0  0.20598054114E+03 -0.10262470387E+00  0.46355788409E+03  0.50726118102E+03  0.25500000920E-02 0. -1.
       -2    1    3    3    0  502 -0.20598054114E+03  0.10262470387E+00 -0.15925219252E+03  0.26036369694E+03  0.25500000920E-02 0.  1.
</event>
<event>
 5   0  0.3113940E-02  0.7734350E+03  0.7818609E-02  0.9599285E-01
       -2   -1    0    0    0  501  0.00000000000E+00  0.00000000000E+00  0.13073267465E+03  0.13073267468E+03  0.25500000920E-02 0.  1.
        2   -1    0    0  501    0  0.00000000000E+00  0.00000000000E+00 -0.11439405354E+04  0.11439405354E+04  0.25500000920E-02 0. -1.
    10030    2    1    2    0    0  0.00000000000E+00  0.00000000000E+00 -0.10132078608E+04  0.12746732101E+04  0.77343495099E+03 0.  0.
        5    1    3    3  502    0 -0.28069551272E+03 -0.20169425963E+03 -0.22087550513E+03  0.41021777630E+03  0.46999998093E+01 0.  1.
       -5    1    3    3    0  502  0.28069551272E+03  0.20169425963E+03 -0.79233235563E+03  0.86445543379E+03  0.46999998093E+01 0. -1.
</event>
<event>
 5   0  0.1951465E-02  0.7027947E+03  0.7818609E-02  0.9712465E-01
       -1   -1    0    0    0  501  0.00000000000E+00  0.00000000000E+00  0.18512559600E+03  0.18512559606E+03  0.50400001928E-02 0. -1.
        1   -1    0    0  501    0  0.00000000000E+00  0.00000000000E+00 -0.66700711617E+03  0.66700711619E+03  0.50400001928E-02 0.  1.
    10030    2    1    2    0    0  0.00000000000E+00  0.00000000000E+00 -0.48188152018E+03  0.85213271226E+03  0.70279467827E+03 0.  0.
        4    1    3    3  502    0  0.21502353280E+03 -0.15139825835E+03 -0.52353697994E+03  0.58587467478E+03  0.12699999809E+01 0.  1.
       -4    1    3    3    0  502 -0.21502353280E+03  0.15139825835E+03  0.41655459761E+02  0.26625803747E+03  0.12699999809E+01 0. -1.
</event>
<event>
 5   0  0.1969818E-02  0.6970924E+03  0.7818609E-02  0.9722218E-01
       -1   -1    0    0    0  501  0.00000000000E+00  0.00000000000E+00  0.14904807849E+03  0.14904807858E+03  0.50400001928E-02 0. -1.
        1   -1    0    0  501    0  0.00000000000E+00  0.00000000000E+00 -0.81506891769E+03  0.81506891770E+03  0.50400001928E-02 0.  1.
    10030    2    1    2    0    0  0.00000000000E+00  0.00000000000E+00 -0.66602083919E+03  0.96411699628E+03  0.69709240727E+03 0.  0.
        1    1    3    3  502    0 -0.98778422594E+02 -0.10745573764E+03  0.10474454370E+03  0.17965336563E+03  0.50400001928E-02 0. -1.
       -1    1    3    3    0  502  0.98778422594E+02  0.10745573764E+03 -0.77076538289E+03  0.78446363065E+03  0.50400001928E-02 0.  1.
</event>
<event>
 5   0  0.1969818E-02  0.6939220E+03  0.7818609E-02  0.9727683E-01
       -1   -1    0    0    0  501  0.00000000000E+00  0.00000000000E+00  0.10344386648E+03  0.10344386660E+03  0.50400001928E-02 0. -1.
        1   -1    0    0  501    0  0.00000000000E+00  0.00000000000E+00 -0.11637416232E+04  0.11637416232E+04  0.50400001928E-02 0.  1.
    10030    2    1    2    0    0  0.00000000000E+00  0.00000000000E+00 -0.10602977567E+04  0.12671854898E+04  0.69392199322E+03 0.  0.
        1    1    3    3  502    0 -0.44744902973E+02 -0.24205677827E+03 -0.83632084892E+02  0.25997676030E+03  0.50400001928E-02 0. -1.
       -1    1    3    3    0  502  0.44744902973E+02  0.24205677827E+03 -0.97666567182E+03  0.10072087295E+04  0.50400001928E-02 0.  1.
</event>
<event>
 5   0  0.1858013E-02  0.6946085E+03  0.7818609E-02  0.9726497E-01
        1   -1    0    0  501    0  0.00000000000E+00  0.00000000000E+00  0.92166535726E+03  0.92166535727E+03  0.50400001928E-02 0. -1.
       -1   -1    0    0    0  501  0.00000000000E+00  0.00000000000E+00 -0.13087205846E+03  0.13087205856E+03  0.50400001928E-02 0.  1.
    10030    2    1    2    0    0  0.00000000000E+00  0.00000000000E+00  0.79079329879E+03  0.10525374158E+04  0.69460850146E+03 0.  0.
        2    1    3    3  502    0  0.26833929105E+03 -0.13367442723E+03  0.12969905144E+03  0.32664456457E+03  0.25500000920E-02 0.  1.
       -2    1    3    3    0  502 -0.26833929105E+03  0.13367442723E+03  0.66109424735E+03  0.72589285125E+03  0.25500000920E-02 0. -1.
</event>
<event>
 5   0  0.1233912E-02  0.7155097E+03  0.7818609E-02  0.9691070E-01
       -3   -1    0    0    0  501  0.00000000000E+00  0.00000000000E+00  0.17803728968E+03  0.17803731833E+03  0.10100000352E+00 0. -1.
        3   -1    0    0  501    0  0.00000000000E+00  0.00000000000E+00 -0.71888599385E+03  0.71888600095E+03  0.10100000352E+00 0.  1.
    10030    2    1    2    0    0  0.00000000000E+00  0.00000000000E+00 -0.54084870417E+03  0.89692331928E+03  0.71550969236E+03 0.  0.
        3    1    3    3  502    0 -0.10177148387E+03 -0.32875122606E+03 -0.14789899908E+03  0.37457833319E+03  0.10100000352E+00 0. -1.
       -3    1    3    3    0  502  0.10177148387E+03  0.32875122606E+03 -0.39294970509E+03  0.52234498609E+03  0.10100000352E+00 0.  1.
</event>
<event>
 5   0  0.1969818E-02  0.6375419E+03  0.7818609E-02  0.9830441E-01
       -1   -1    0    0    0  501  0.00000000000E+00  0.00000000000E+00  0.29895926188E+03  0.29895926193E+03  0.50400001928E-02 0.  1.
        1   -1    0    0  501    0  0.00000000000E+00  0.00000000000E+00 -0.33989558075E+03  0.33989558079E+03  0.50400001928E-02 0. -1.
    10030    2    1    2    0    0  0.00000000000E+00  0.00000000000E+00 -0.40936318865E+02  0.63885484272E+03  0.63754194204E+03 0.  0.
        1    1    3    3  502    0  0.15184059606E+03 -0.27915782830E+03 -0.45625082114E+02  0.32103941792E+03  0.50400001928E-02 0. -1.
       -1    1    3    3    0  502 -0.15184059606E+03  0.27915782830E+03  0.46887632487E+01  0.31781542480E+03  0.50400001928E-02 0.  1.
</event>
<event>
 5   0  0.3184443E-02  0.7031500E+03  0.7818609E-02  0.9711860E-01
       -2   -1    0    0    0  501  0.00000000000E+00  0.00000000000E+00  0.84308339652E+02  0.84308339690E+02  0.25500000920E-02 0.  1.
        2   -1    0    0  501    0  0.00000000000E+00  0.00000000000E+00 -0.14661061825E+04  0.14661061825E+04  0.25500000920E-02 0. -1.
    10030    2    1    2    0    0  0.00000000000E+00  0.00000000000E+00 -0.13817978428E+04  0.15504145222E+04  0.70314999261E+03 0.  0.
        3    1    3    3  502    0 -0.20055599975E+03 -0.28503045164E+03 -0.58889975222E+03  0.68430110022E+03  0.10100000352E+00 0.  1.
       -3    1    3    3    0  502  0.20055599975E+03  0.28503045164E+03 -0.79289809059E+03  0.86611342193E+03  0.10100000352E+00 0. -1.
</event>
<event>
 5   0  0.1884172E-02  0.7028409E+03  0.7818609E-02  0.9712386E-01
       -1   -1    0    0    0  501  0.00000000000E+00  0.00000000000E+00  0.10532639054E+03  0.10532639066E+03  0.50400001928E-02 0.  1.
        1   -1    0    0  501    0  0.00000000000E+00  0.00000000000E+00 -0.11725109589E+04  0.11725109590E+04  0.50400001928E-02 0. -1.
    10030    2    1    2    0    0  0.00000000000E+00  0.00000000000E+00 -0.10671845684E+04  0.12778373496E+04  0.70284094148E+03 0.  0.
        3    1    3    3  502    0  0.44212525273E+02 -0.34822671335E+03 -0.50318341346E+03  0.61352273720E+03  0.10100000352E+00 0.  1.
       -3    1    3    3    0  502 -0.44212525273E+02  0.34822671335E+03 -0.56400115495E+03  0.66431461242E+03  0.10100000352E+00 0. -1.
</event>
<event>
 5   0  0.3183963E-02  0.6859414E+03  0.7818609E-02  0.9741581E-01
        2   -1    0    0  501    0  0.00000000000E+00  0.00000000000E+00  0.96232252067E+03  0.96232252067E+03  0.25500000920E-02 0. -1.
       -2   -1    0    0    0  501  0.00000000000E+00  0.00000000000E+00 -0.12223438963E+03  0.12223438966E+03  0.25500000920E-02 0.  1.
    10030    2    1    2    0    0  0.00000000000E+00  0.00000000000E+00  0.84008813103E+03  0.10845569103E+04  0.68594141429E+03 0.  0.
        4    1    3    3  502    0  0.22042789736E+03  0.23421161828E+03  0.60834865322E+03  0.68813751304E+03  0.12699999809E+01 0. -1.
       -4    1    3    3    0  502 -0.22042789736E+03 -0.23421161828E+03  0.23173947781E+03  0.39641939729E+03  0.12699999809E+01 0.  1.
</event>
<event>
 5   0  0.3184443E-02  0.6996146E+03  0.7818609E-02  0.9717891E-01
       -2   -1    0    0    0  501  0.00000000000E+00  0.00000000000E+00  0.10150476984E+03  0.10150476987E+03  0.25500000920E-02 0. -1.
        2   -1    0    0  501    0  0.00000000000E+00  0.00000000000E+00 -0.12055114032E+04  0.12055114032E+04  0.25500000920E-02 0.  1.
    10030    2    1    2    0    0  0.00000000000E+00  0.00000000000E+00 -0.11040066334E+04  0.13070161731E+04  0.69961462978E+03 0.  0.
        3    1    3    3  502    0  0.12476319282E+03  0.59759843421E+02  0.48231177286E+02  0.14650375365E+03  0.10100000352E+00 0. -1.
       -3    1    3    3    0  502 -0.12476319282E+03 -0.59759843421E+02 -0.11522378107E+04  0.11605124195E+04  0.10100000352E+00 0.  1.
</event>
<event>
 5   0  0.2933851E-02  0.7020873E+03  0.7818609E-02  0.9713669E-01
       -2   -1    0    0    0  501  0.00000000000E+00  0.00000000000E+00  0.31777081903E+03  0.31777081904E+03  0.25500000920E-02 0.  1.
        2   -1    0    0  501    0  0.00000000000E+00  0.00000000000E+00 -0.38780035877E+03  0.38780035878E+03  0.25500000920E-02 0. -1.
    10030    2    1    2    0    0  0.00000000000E+00  0.00000000000E+00 -0.70029539745E+02  0.70557117782E+03  0.70208728128E+03 0.  0.
        2    1    3    3  502    0  0.22928078007E+03  0.85783060657E+02  0.21783505344E+03  0.32768967044E+03  0.25500000920E-02 0.  1.
       -2    1    3    3    0  502 -0.22928078007E+03 -0.85783060657E+02 -0.28786459318E+03  0.37788150738E+03  0.25500000920E-02 0. -1.
</event>
<event>
 5   0  0.1839038E-02  0.6301402E+03  0.7818609E-02  0.9844775E-01
        1   -1    0    0  501    0  0.00000000000E+00  0.00000000000E+00  0.21546784498E+03  0.21546784504E+03  0.50400001928E-02 0. -1.
       -1   -1    0    0    0  501  0.00000000000E+00  0.00000000000E+00 -0.46071455118E+03  0.46071455121E+03  0.50400001928E-02 0.  1.
    10030    2    1    2    0    0  0.00000000000E+00  0.00000000000E+00 -0.24524670620E+03  0.67618239625E+03  0.63014021145E+03 0.  0.
        5    1    3    3  502    0 -0.21714698345E+03 -0.21754838660E+03 -0.48535363358E+02  0.31121999362E+03  0.46999998093E+01 0.  1.
       -5    1    3    3    0  502  0.21714698345E+03  0.21754838660E+03 -0.19671134284E+03  0.36496240263E+03  0.46999998093E+01 0. -1.
</event>
<event>
 5   0  0.1969818E-02  0.6969287E+03  0.7818609E-02  0.9722499E-01
       -1   -1    0    0    0  501  0.00000000000E+00  0.00000000000E+00  0.80332510232E+02  0.80332510390E+02  0.50400001928E-02 0.  1.
        1   -1    0    0  501    0  0.00000000000E+00  0.00000000000E+00 -0.15115599341E+04  0.15115599341E+04  0.50400001928E-02 0. -1.
    10030    2    1    2    0    0  0.00000000000E+00  0.00000000000E+00 -0.14312274239E+04  0.15918924445E+04  0.69692870225E+03 0.  0.
        1    1    3    3  502    0  0.30672939596E+03 -0.13541078425E+03 -0.49881872817E+03  0.60103171832E+03  0.50400001928E-02 0.  1.
       -1    1    3    3    0  502 -0.30672939596E+03  0.13541078425E+03 -0.93240869571E+03  0.99086072619E+03  0.50400001928E-02 0. -1.
</event>
<event>
 5   0  0.3183963E-02  0.6974917E+03  0.7818609E-02  0.9721531E-01
       -2   -1    0    0    0  501  0.00000000000E+00  0.00000000000E+00  0.10784034515E+03  0.10784034518E+03  0.25500000920E-02 0.  1.
        2   -1    0    0  501    0  0.00000000000E+00  0.00000000000E+00 -0.11278124480E+04  0.11278124480E+04  0.25500000920E-02 0. -1.
    10030    2    1    2    0    0  0.00000000000E+00  0.00000000000E+00 -0.10199721029E+04  0.12356527932E+04  0.69749174526E+03 0.  0.
        4    1    3    3  502    0 -0.23256600360E+03  0.25872639820E+03 -0.55322735191E+03  0.65352001573E+03  0.12699999809E+01 0. -1.
       -4    1    3    3    0  502  0.23256600360E+03 -0.25872639820E+03 -0.46674475094E+03  0.58213277746E+03  0.12699999809E+01 0.  1.
</event>
<event>
 5   0  0.3183963E-02  0.7003262E+03  0.7818609E-02  0.9716675E-01
       -2   -1    0    0    0  501  0.00000000000E+00  0.00000000000E+00  0.16227908312E+03  0.16227908314E+03  0.25500000920E-02 0.  1.
        2   -1    0    0  501    0  0.00000000000E+00  0.00000000000E+00 -0.75557610255E+03  0.75557610256E+03  0.25500000920E-02 0. -1.
    10030    2    1    2    0    0  0.00000000000E+00  0.00000000000E+00 -0.59329701943E+03  0.91785518570E+03  0.70032620160E+03 0.  0.
        4    1    3    3  502    0 -0.31094571157E+03 -0.14371445693E+03 -0.39180557598E+03  0.52043664643E+03  0.12699999809E+01 0.  1.
       -4    1    3    3    0  502  0.31094571157E+03  0.14371445693E+03 -0.20149144344E+03  0.39741853927E+03  0.12699999809E+01 0. -1.
</event>
<event>
 5   0  0.1233912E-02  0.7008280E+03  0.7818609E-02  0.9715817E-01
        4   -1    0    0  501    0  0.00000000000E+00  0.00000000000E+00  0.13346046488E+03  0.13346650736E+03  0.12699999809E+01 0. -1.
       -4   -1    0    0    0  501  0.00000000000E+00  0.00000000000E+00 -0.92002030693E+03  0.92002118348E+03  0.12699999809E+01 0.  1.
    10030    2    1    2    0    0  0.00000000000E+00  0.00000000000E+00 -0.78655984205E+03  0.10534876908E+04  0.70082803142E+03 0.  0.
        2    1    3    3  502    0 -0.20927022843E+03  0.27825455411E+03 -0.45284849450E+03  0.57121920868E+03  0.25500000920E-02 0. -1.
       -2    1    3    3    0  502  0.20927022843E+03 -0.27825455411E+03 -0.33371134755E+03  0.48226848216E+03  0.25500000920E-02 0.  1.
</event>
<event>
 5   0  0.3184443E-02  0.7040521E+03  0.7818609E-02  0.9710328E-01
        2   -1    0    0  501    0  0.00000000000E+00  0.00000000000E+00  0.22433913982E+04  0.22433913982E+04  0.25500000920E-02 0.  1.
       -2   -1    0    0    0  501  0.00000000000E+00  0.00000000000E+00 -0.55238842312E+02  0.55238842370E+02  0.25500000920E-02 0. -1.
    10030    2    1    2    0    0  0.00000000000E+00  0.00000000000E+00  0.21881525559E+04  0.22986302406E+04  0.70405211102E+03 0.  0.
        3    1    3    3  502    0 -0.31246276268E+03 -0.21734015343E+02  0.56948979247E+03  0.64994151999E+03  0.10100000352E+00 0. -1.
       -3    1    3    3    0  502  0.31246276268E+03  0.21734015343E+02  0.16186627634E+04  0.16486887206E+04  0.10100000352E+00 0.  1.
</event>
<event>
 5   0  0.3183963E-02  0.7054136E+03  0.7818609E-02  0.9708019E-01
       -2   -1    0    0    0  501  0.00000000000E+00  0.00000000000E+00  0.32487459890E+03  0.32487459891E+03  0.25500000920E-02 0.  1.
        2   -1    0    0  501    0  0.00000000000E+00  0.00000000000E+00 -0.38292340102E+03  0.38292340103E+03  0.25500000920E-02 0. -1.
    10030    2    1    2    0    0  0.00000000000E+00  0.00000000000E+00 -0.58048802124E+02  0.70779799994E+03  0.70541359874E+03 0.  0.
        4    1    3    3  502    0  0.19139364029E+03  0.83018324056E+02 -0.31437432896E+03  0.37730147003E+03  0.12699999809E+01 0. -1.
       -4    1    3    3    0  502 -0.19139364029E+03 -0.83018324056E+02  0.25632552684E+03  0.33049652991E+03  0.12699999809E+01 0.  1.
</event>
<event>
 5   0  0.1233912E-02  0.6963094E+03  0.7818609E-02  0.9723565E-01
       -3   -1    0    0    0  501  0.00000000000E+00  0.00000000000E+00  0.14137973400E+04  0.14137973436E+04  0.10100000352E+00 0.  1.
        3   -1    0    0  501    0  0.00000000000E+00  0.00000000000E+00 -0.85734809033E+02  0.85734868524E+02  0.10100000352E+00 0. -1.
    10030    2    1    2    0    0  0.00000000000E+00  0.00000000000E+00  0.13280625310E+04  0.14995322121E+04  0.69630939177E+03 0.  0.
        3    1    3    3  502    0  0.59737347507E+02  0.26427398110E+03  0.11348767084E+04  0.11667709463E+04  0.10100000352E+00 0.  1.
       -3    1    3    3    0  502 -0.59737347507E+02 -0.26427398110E+03  0.19318582261E+03  0.33276126583E+03  0.10100000352E+00 0. -1.
</event>
<event>
 5   0  0.1839038E-02  0.7015379E+03  0.7818609E-02  0.9714606E-01
        1   -1    0    0  501    0  0.00000000000E+00  0.00000000000E+00  0.83587649806E+03  0.83587649807E+03  0.50400001928E-02 0. -1.
       -1   -1    0    0    0  501  0.00000000000E+00  0.00000000000E+00 -0.14719740801E+03  0.14719740809E+03  0.50400001928E-02 0.  1.
    10030    2    1    2    0    0  0.00000000000E+00  0.00000000000E+00  0.68867909005E+03  0.98307390617E+03  0.70153789342E+03 0.  0.
        5    1    3    3  502    0 -0.13601766196E+02  0.34329025815E+03  0.24541486719E+03  0.42223661189E+03  0.46999998093E+01 0. -1.
       -5    1    3    3    0  502  0.13601766196E+02 -0.34329025815E+03  0.44326422286E+03  0.56083729428E+03  0.46999998093E+01 0.  1.
</event>
<event>
 5   0  0.1858013E-02  0.6529141E+03  0.7818609E-02  0.9801326E-01
       -1   -1    0    0    0  501  0.00000000000E+00  0.00000000000E+00  0.78802441955E+02  0.78802442116E+02  0.50400001928E-02 0.  1.
        1   -1    0    0  501    0  0.00000000000E+00  0.00000000000E+00 -0.13524224985E+04  0.13524224985E+04  0.50400001928E-02 0. -1.
    10030    2    1    2    0    0  0.00000000000E+00  0.00000000000E+00 -0.12736200565E+04  0.14312249406E+04  0.65291406956E+03 0.  0.
        2    1    3    3  502    0  0.15818548436E+03 -0.27663093144E+03 -0.79222789677E+03  0.85391589757E+03  0.25500000920E-02 0.  1.
       -2    1    3    3    0  502 -0.15818548436E+03  0.27663093144E+03 -0.48139215976E+03  0.57730904304E+03  0.25500000920E-02 0. -1.
</event>
<event>
 5   0  0.1233912E-02  0.6977611E+03  0.7818609E-02  0.9721069E-01
       -3   -1    0    0    0  501  0.00000000000E+00  0.00000000000E+00  0.36133730679E+03  0.36133732091E+03  0.10100000352E+00 0.  1.
        3   -1    0    0  501    0  0.00000000000E+00  0.00000000000E+00 -0.33685321950E+03  0.33685323465E+03  0.10100000352E+00 0. -1.
    10030    2    1    2    0    0  0.00000000000E+00  0.00000000000E+00  0.24484087288E+02  0.69819055555E+03  0.69776112054E+03 0.  0.
        3    1    3    3  502    0  0.24361273122E+03  0.22254640977E+03  0.12564125772E+03  0.35307195182E+03  0.10100000352E+00 0.  1.
       -3    1    3    3    0  502 -0.24361273122E+03 -0.22254640977E+03 -0.10115717043E+03  0.34511860374E+03  0.10100000352E+00 0. -1.
</event>
<event>
 5   0  0.3183963E-02  0.7015517E+03  0.7818609E-02  0.9714582E-01
       -2   -1    0    0    0  501  0.00000000000E+00  0.00000000000E+00  0.68332580929E+03  0.68332580929E+03  0.25500000920E-02 0. -1.
        2   -1    0    0  501    0  0.00000000000E+00  0.00000000000E+00 -0.18006591028E+03  0.18006591030E+03  0.25500000920E-02 0.  1.
    10030    2    1    2    0    0  0.00000000000E+00  0.00000000000E+00  0.50325989900E+03  0.86339171959E+03  0.70155166276E+03 0.  0.
        4    1    3    3  502    0 -0.34744485626E+03  0.40187998537E+02  0.21885877207E+03  0.41259396309E+03  0.12699999809E+01 0.  1.
       -4    1    3    3    0  502  0.34744485626E+03 -0.40187998537E+02  0.28440112693E+03  0.45079775650E+03  0.12699999809E+01 0. -1.
</event>
<event>
 5   0  0.3184443E-02  0.6903147E+03  0.7818609E-02  0.9733940E-01
       -2   -1    0    0    0  501  0.00000000000E+00  0.00000000000E+00  0.50006507515E+02  0.50006507580E+02  0.25500000920E-02 0.  1.
        2   -1    0    0  501    0  0.00000000000E+00  0.00000000000E+00 -0.23823620739E+04  0.23823620739E+04  0.25500000920E-02 0. -1.
    10030    2    1    2    0    0  0.00000000000E+00  0.00000000000E+00 -0.23323555664E+04  0.24323685815E+04  0.69031473121E+03 0.  0.
        3    1    3    3  502    0 -0.34210518281E+03 -0.27598560762E+01 -0.13272638108E+04  0.13706468570E+04  0.10100000352E+00 0.  1.
       -3    1    3    3    0  502  0.34210518281E+03  0.27598560762E+01 -0.10050917556E+04  0.10617217245E+04  0.10100000352E+00 0. -1.
</event>
<event>
 5   0  0.1233912E-02  0.6938673E+03  0.7818609E-02  0.9727778E-01
       -3   -1    0    0    0  501  0.00000000000E+00  0.00000000000E+00  0.50013947255E+03  0.50013948275E+03  0.10100000352E+00 0. -1.
        3   -1    0    0  501    0  0.00000000000E+00  0.00000000000E+00 -0.24065874570E+03  0.24065876689E+03  0.10100000352E+00 0.  1.
    10030    2    1    2    0    0  0.00000000000E+00  0.00000000000E+00  0.25948072685E+03  0.74079824965E+03  0.69386727771E+03 0.  0.
        2    1    3    3  502    0 -0.10812014046E+03  0.16125787586E+03 -0.17722867512E+03  0.26287653108E+03  0.25500000920E-02 0.  1.
       -2    1    3    3    0  502  0.10812014046E+03 -0.16125787586E+03  0.43670940197E+03  0.47792171857E+03  0.25500000920E-02 0. -1.
</event>
<event>
 5   0  0.2933851E-02  0.6964157E+03  0.7818609E-02  0.9723381E-01
        2   -1    0    0  501    0  0.00000000000E+00  0.00000000000E+00  0.45766676953E+03  0.45766676953E+03  0.25500000920E-02 0. -1.
       -2   -1    0    0    0  501  0.00000000000E+00  0.00000000000E+00 -0.26492794333E+03  0.26492794334E+03  0.25500000920E-02 0.  1.
    10030    2    1    2    0    0  0.00000000000E+00  0.00000000000E+00  0.19273882620E+03  0.72259471287E+03  0.69641572638E+03 0.  0.
        2    1    3    3  502    0 -0.33946914283E+03 -0.77297182786E+02  0.90269420925E+02  0.35967029591E+03  0.25500000920E-02 0. -1.
       -2    1    3    3    0  502  0.33946914283E+03  0.77297182786E+02  0.10246940528E+03  0.36292441696E+03  0.25500000920E-02 0.  1.
</event>
<event>
 5   0  0.1233912E-02  0.6988547E+03  0.7818609E-02  0.9719193E-01
        3   -1    0    0  501    0  0.00000000000E+00  0.00000000000E+00  0.70803046597E+03  0.70803047318E+03  0.10100000352E+00 0. -1.
       -3   -1    0    0    0  501  0.00000000000E+00  0.00000000000E+00 -0.17244942234E+03  0.17244945192E+03  0.10100000352E+00 0.  1.
    10030    2    1    2    0    0  0.00000000000E+00  0.00000000000E+00  0.53558104363E+03  0.88047992510E+03  0.69885466601E+03 0.  0.
        5    1    3    3  502    0 -0.17067639144E+03 -0.19526057715E+02 -0.11552602947E+03  0.20707498885E+03  0.46999998093E+01 0.  1.
       -5    1    3    3    0  502  0.17067639144E+03  0.19526057715E+02  0.65110707309E+03  0.67340493624E+03  0.46999998093E+01 0. -1.
</event>
<event>
 5   0  0.3183963E-02  0.7054832E+03  0.7818609E-02  0.9707901E-01
        2   -1    0    0  501    0  0.00000000000E+00  0.00000000000E+00  0.25211125133E+04  0.25211125133E+04  0.25500000920E-02 0.  1.
       -2   -1    0    0    0  501  0.00000000000E+00  0.00000000000E+00 -0.49353867592E+02  0.49353867658E+02  0.25500000920E-02 0. -1.
    10030    2    1    2    0    0  0.00000000000E+00  0.00000000000E+00  0.24717586457E+04  0.25704663810E+04  0.70548324786E+03 0.  0.
        4    1    3    3  502    0 -0.17123771196E+03 -0.26046358046E+03  0.18374676164E+04  0.18637200662E+04  0.12699999809E+01 0.  1.
       -4    1    3    3    0  502  0.17123771196E+03  0.26046358046E+03  0.63429102931E+03  0.70674631482E+03  0.12699999809E+01 0. -1.
</event>
<event>
 5   0  0.1969818E-02  0.7202619E+03  0.7818609E-02  0.9683196E-01
        1   -1    0    0  501    0  0.00000000000E+00  0.00000000000E+00  0.34593298695E+03  0.34593298699E+03  0.50400001928E-02 0. -1.
       -1   -1    0    0    0  501  0.00000000000E+00  0.00000000000E+00 -0.37491162779E+03  0.37491162782E+03  0.50400001928E-02 0.  1.
    10030    2    1    2    0    0  0.00000000000E+00  0.00000000000E+00 -0.28978640836E+02  0.72084461481E+03  0.72026189479E+03 0.  0.
        1    1    3    3  502    0 -0.12913545688E+03  0.22085905867E+03 -0.26814971540E+03  0.37061969715E+03  0.50400001928E-02 0.  1.
       -1    1    3    3    0  502  0.12913545688E+03 -0.22085905867E+03  0.23917107456E+03  0.35022491766E+03  0.50400001928E-02 0. -1.
</event>
<event>
 5   0  0.2933851E-02  0.7219869E+03  0.7818609E-02  0.9680353E-01
       -2   -1    0    0    0  501  0.00000000000E+00  0.00000000000E+00  0.58282977390E+02  0.58282977445E+02  0.25500000920E-02 0. -1.
        2   -1    0    0  501    0  0.00000000000E+00  0.00000000000E+00 -0.22359232300E+04  0.22359232300E+04  0.25500000920E-02 0.  1.
    10030    2    1    2    0    0  0.00000000000E+00  0.00000000000E+00 -0.21776402526E+04  0.22942062074E+04  0.72198687834E+03 0.  0.
        2    1    3    3  502    0 -0.25849830380E+03 -0.25165141565E+03 -0.11298170849E+04  0.11860170545E+04  0.25500000920E-02 0. -1.
       -2    1    3    3    0  502  0.25849830380E+03  0.25165141565E+03 -0.10478231677E+04  0.11081891530E+04  0.25500000920E-02 0.  1.
</event>
<event>
 5   0  0.1839038E-02  0.6931687E+03  0.7818609E-02  0.9728986E-01
       -1   -1    0    0    0  501  0.00000000000E+00  0.00000000000E+00  0.22075503607E+03  0.22075503613E+03  0.50400001928E-02 0.  1.
        1   -1    0    0  501    0  0.00000000000E+00  0.00000000000E+00 -0.54413577077E+03  0.54413577080E+03  0.50400001928E-02 0. -1.
    10030    2    1    2    0    0  0.00000000000E+00  0.00000000000E+00 -0.32338073470E+03  0.76489080692E+03  0.69316870020E+03 0.  0.
        5    1    3    3  502    0 -0.89391992210E+02  0.24143102442E+03 -0.41768291132E+03  0.49067399792E+03  0.46999998093E+01 0. -1.
       -5    1    3    3    0  502  0.89391992210E+02 -0.24143102442E+03  0.94302176620E+02  0.27421680900E+03  0.46999998093E+01 0.  1.
</event>
<event>
 5   0  0.1233912E-02  0.7021589E+03  0.7818609E-02  0.9713547E-01
       -3   -1    0    0    0  501  0.00000000000E+00  0.00000000000E+00  0.23524972284E+03  0.23524974452E+03  0.10100000352E+00 0. -1.
        3   -1    0    0  501    0  0.00000000000E+00  0.00000000000E+00 -0.52394010328E+03  0.52394011301E+03  0.10100000352E+00 0.  1.
    10030    2    1    2    0    0  0.00000000000E+00  0.00000000000E+00 -0.28869038044E+03  0.75918985753E+03  0.70215888802E+03 0.  0.
        1    1    3    3  502    0 -0.21750537029E+02  0.27516136730E+03 -0.37892287379E+03  0.46879569988E+03  0.50400001928E-02 0.  1.
       -1    1    3    3    0  502  0.21750537029E+02 -0.27516136730E+03  0.90232493352E+02  0.29039415765E+03  0.50400001928E-02 0. -1.
</event>
<event>
 5   0  0.1884172E-02  0.7009871E+03  0.7818609E-02  0.9715546E-01
        1   -1    0    0  501    0  0.00000000000E+00  0.00000000000E+00  0.16706240010E+04  0.16706240010E+04  0.50400001928E-02 0. -1.
       -1   -1    0    0    0  501  0.00000000000E+00  0.00000000000E+00 -0.73532850773E+02  0.73532850946E+02  0.50400001928E-02 0.  1.
    10030    2    1    2    0    0  0.00000000000E+00  0.00000000000E+00  0.15970911503E+04  0.17441568520E+04  0.70098714831E+03 0.  0.
        3    1    3    3  502    0  0.51067579533E+02 -0.34530789525E+03  0.87723920131E+03  0.94413667799E+03  0.10100000352E+00 0. -1.
       -3    1    3    3    0  502 -0.51067579533E+02  0.34530789525E+03  0.71985194894E+03  0.80002017399E+03  0.10100000352E+00 0.  1.
</event>
<event>
 5   0  0.3113940E-02  0.7038339E+03  0.7818609E-02  0.9710698E-01
       -2   -1    0    0    0  501  0.00000000000E+00  0.00000000000E+00  0.50971045143E+03  0.50971045144E+03  0.25500000920E-02 0.  1.
        2   -1    0    0  501    0  0.00000000000E+00  0.00000000000E+00 -0.24297232678E+03  0.24297232679E+03  0.25500000920E-02 0. -1.
    10030    2    1    2    0    0  0.00000000000E+00  0.00000000000E+00  0.26673812465E+03  0.75268277823E+03  0.70383388488E+03 0.  0.
        5    1    3    3  502    0 -0.30674927839E+03  0.15810286111E+03  0.59806736515E+02  0.35027213737E+03  0.46999998093E+01 0. -1.
       -5    1    3    3    0  502  0.30674927839E+03 -0.15810286111E+03  0.20693138814E+03  0.40241064087E+03  0.46999998093E+01 0.  1.
</event>
<event>
 5   0  0.1839038E-02  0.7043354E+03  0.7818609E-02  0.9709847E-01
        1   -1    0    0  501    0  0.00000000000E+00  0.00000000000E+00  0.15117852009E+04  0.15117852009E+04  0.50400001928E-02 0. -1.
       -1   -1    0    0    0  501  0.00000000000E+00  0.00000000000E+00 -0.82036843476E+02  0.82036843631E+02  0.50400001928E-02 0.  1.
    10030    2    1    2    0    0  0.00000000000E+00  0.00000000000E+00  0.14297483574E+04  0.15938220446E+04  0.70433539178E+03 0.  0.
        5    1    3    3  502    0  0.15629482377E+03  0.29657805588E+02  0.14257635777E+04  0.14346189484E+04  0.46999998093E+01 0. -1.
       -5    1    3    3    0  502 -0.15629482377E+03 -0.29657805588E+02  0.39847796876E+01  0.15920309619E+03  0.46999998093E+01 0.  1.
</event>
<event>
 5   0  0.3184443E-02  0.7114915E+03  0.7818609E-02  0.9697780E-01
       -2   -1    0    0    0  501  0.00000000000E+00  0.00000000000E+00  0.23095966042E+04  0.23095966042E+04  0.25500000920E-02 0.  1.
        2   -1    0    0  501    0  0.00000000000E+00  0.00000000000E+00 -0.54795297610E+02  0.54795297670E+02  0.25500000920E-02 0. -1.
    10030    2    1    2    0    0  0.00000000000E+00  0.00000000000E+00  0.22548013066E+04  0.23643919019E+04  0.71149148515E+03 0.  0.
        3    1    3    3  502    0 -0.19396470124E+03 -0.85282114025E+02  0.17777248135E+03  0.27658345870E+03  0.10100000352E+00 0. -1.
       -3    1    3    3    0  502  0.19396470124E+03  0.85282114025E+02  0.20770288253E+04  0.20878084432E+04  0.10100000352E+00 0.  1.
</event>
<event>
 5   0  0.1969818E-02  0.6804910E+03  0.7818609E-02  0.9751189E-01
       -1   -1    0    0    0  501  0.00000000000E+00  0.00000000000E+00  0.10163079919E+03  0.10163079931E+03  0.50400001928E-02 0. -1.
        1   -1    0    0  501    0  0.00000000000E+00  0.00000000000E+00 -0.11390937478E+04  0.11390937478E+04  0.50400001928E-02 0.  1.
    10030    2    1    2    0    0  0.00000000000E+00  0.00000000000E+00 -0.10374629486E+04  0.12407245471E+04  0.68049102278E+03 0.  0.
        1    1    3    3  502    0 -0.10782015943E+03  0.19016691625E+03 -0.43354291758E+02  0.22286371947E+03  0.50400001928E-02 0. -1.
       -1    1    3    3    0  502  0.10782015943E+03 -0.19016691625E+03 -0.99410865686E+03  0.10178608277E+04  0.50400001928E-02 0.  1.
</event>
<event>
 5   0  0.1884172E-02  0.7060604E+03  0.7818609E-02  0.9706924E-01
       -1   -1    0    0    0  501  0.00000000000E+00  0.00000000000E+00  0.86582967506E+02  0.86582967653E+02  0.50400001928E-02 0.  1.
        1   -1    0    0  501    0  0.00000000000E+00  0.00000000000E+00 -0.14394322289E+04  0.14394322289E+04  0.50400001928E-02 0. -1.
    10030    2    1    2    0    0  0.00000000000E+00  0.00000000000E+00 -0.13528492614E+04  0.15260151965E+04  0.70606037708E+03 0.  0.
        3    1    3    3  502    0  0.34408710696E+03  0.49256413840E+02 -0.54304935958E+03  0.64476720498E+03  0.10100000352E+00 0.  1.
       -3    1    3    3    0  502 -0.34408710696E+03 -0.49256413840E+02 -0.80979990180E+03  0.88124799156E+03  0.10100000352E+00 0. -1.
</event>
<event>
 5   0  0.3184443E-02  0.7109633E+03  0.7818609E-02  0.9698665E-01
       -2   -1    0    0    0  501  0.00000000000E+00  0.00000000000E+00  0.25578800752E+03  0.25578800753E+03  0.25500000920E-02 0. -1.
        2   -1    0    0  501    0  0.00000000000E+00  0.00000000000E+00 -0.49403095306E+03  0.49403095307E+03  0.25500000920E-02 0.  1.
    10030    2    1    2    0    0  0.00000000000E+00  0.00000000000E+00 -0.23824294554E+03  0.74981896060E+03  0.71096327091E+03 0.  0.
        3    1    3    3  502    0 -0.47264914739E+02 -0.21207308631E+03 -0.41584860155E+03  0.46918976514E+03  0.10100000352E+00 0.  1.
       -3    1    3    3    0  502  0.47264914739E+02  0.21207308631E+03  0.17760565601E+03  0.28062919547E+03  0.10100000352E+00 0. -1.
</event>
<event>
 5   0  0.3113940E-02  0.7008817E+03  0.7818609E-02  0.9715725E-01
       -2   -1    0    0    0  501  0.00000000000E+00  0.00000000000E+00  0.27008732064E+03  0.27008732066E+03  0.25500000920E-02 0. -1.
        2   -1    0    0  501    0  0.00000000000E+00  0.00000000000E+00 -0.45470036838E+03  0.45470036839E+03  0.25500000920E-02 0.  1.
    10030    2    1    2    0    0  0.00000000000E+00  0.00000000000E+00 -0.18461304774E+03  0.72478768904E+03  0.70088174237E+03 0.  0.
        5    1    3    3  502    0  0.12678061744E+03 -0.26042169861E+03  0.11163561265E+03  0.31044707452E+03  0.46999998093E+01 0. -1.
       -5    1    3    3    0  502 -0.12678061744E+03  0.26042169861E+03 -0.29624866039E+03  0.41434061453E+03  0.46999998093E+01 0.  1.
</event>
<event>
 5   0  0.3113940E-02  0.6965190E+03  0.7818609E-02  0.9723204E-01
        2   -1    0    0  501    0  0.00000000000E+00  0.00000000000E+00  0.67761792564E+03  0.67761792565E+03  0.25500000920E-02 0. -1.
       -2   -1    0    0    0  501  0.00000000000E+00  0.00000000000E+00 -0.17898682295E+03  0.17898682297E+03  0.25500000920E-02 0.  1.
    10030    2    1    2    0    0  0.00000000000E+00  0.00000000000E+00  0.49863110270E+03  0.85660474861E+03  0.69651900101E+03 0.  0.
        5    1    3    3  502    0 -0.32131734120E+03  0.65197196454E+02  0.10501484696E+03  0.34430468521E+03  0.46999998093E+01 0. -1.
       -5    1    3    3    0  502  0.32131734120E+03 -0.65197196454E+02  0.39361625574E+03  0.51230006340E+03  0.46999998093E+01 0.  1.
</event>
<event>
 5   0  0.1951465E-02  0.6891204E+03  0.7818609E-02  0.9736021E-01
        1   -1    0    0  501    0  0.00000000000E+00  0.00000000000E+00  0.73432802195E+03  0.73432802197E+03  0.50400001928E-02 0.  1.
       -1   -1    0    0    0  501  0.00000000000E+00  0.00000000000E+00 -0.16167399296E+03  0.16167399304E+03  0.50400001928E-02 0. -1.
    10030    2    1    2    0    0  0.00000000000E+00  0.00000000000E+00  0.57265402900E+03  0.89600201501E+03  0.68912043503E+03 0.  0.
        4    1    3    3  502    0  0.88879306041E+02 -0.11216591385E+03  0.69385433087E+03  0.70846042136E+03  0.12699999809E+01 0.  1.
       -4    1    3    3    0  502 -0.88879306041E+02  0.11216591385E+03 -0.12120030187E+03  0.18754159364E+03  0.12699999809E+01 0. -1.
</event>
<event>
 5   0  0.1839038E-02  0.6988245E+03  0.7818609E-02  0.9719245E-01
       -1   -1    0    0    0  501  0.00000000000E+00  0.00000000000E+00  0.11510830038E+03  0.11510830049E+03  0.50400001928E-02 0. -1.
        1   -1    0    0  501    0  0.00000000000E+00  0.00000000000E+00 -0.10606440470E+04  0.10606440470E+04  0.50400001928E-02 0.  1.
    10030    2    1    2    0    0  0.00000000000E+00  0.00000000000E+00 -0.94553574657E+03  0.11757523475E+04  0.69882453771E+03 0.  0.
        5    1    3    3  502    0  0.10174885535E+03  0.32592355192E+03 -0.59740542754E+03  0.68810923996E+03  0.46999998093E+01 0. -1.
       -5    1    3    3    0  502 -0.10174885535E+03 -0.32592355192E+03 -0.34813031903E+03  0.48764310750E+03  0.46999998093E+01 0.  1.
</event>
<event>
 5   0  0.1858013E-02  0.6984000E+03  0.7818609E-02  0.9719972E-01
       -1   -1    0    0    0  501  0.00000000000E+00  0.00000000000E+00  0.19811292204E+03  0.19811292211E+03  0.50400001928E-02 0. -1.
        1   -1    0    0  501    0  0.00000000000E+00  0.00000000000E+00 -0.61551070543E+03  0.61551070545E+03  0.50400001928E-02 0.  1.
    10030    2    1    2    0    0  0.00000000000E+00  0.00000000000E+00 -0.41739778338E+03  0.81362362755E+03  0.69839995542E+03 0.  0.
        2    1    3    3  502    0 -0.26128959804E+01  0.24889438593E+03 -0.49402536135E+03  0.55318740065E+03  0.25500000920E-02 0.  1.
       -2    1    3    3    0  502  0.26128959804E+01 -0.24889438593E+03  0.76627577969E+02  0.26043622690E+03  0.25500000920E-02 0. -1.
</event>
<event>
 5   0  0.1884172E-02  0.6955576E+03  0.7818609E-02  0.9724860E-01
        1   -1    0    0  501    0  0.00000000000E+00  0.00000000000E+00  0.11528801694E+04  0.11528801694E+04  0.50400001928E-02 0.  1.
       -1   -1    0    0    0  501  0.00000000000E+00  0.00000000000E+00 -0.10491123162E+03  0.10491123174E+03  0.50400001928E-02 0. -1.
    10030    2    1    2    0    0  0.00000000000E+00  0.00000000000E+00  0.10479689378E+04  0.12577914012E+04  0.69555755640E+03 0.  0.
        3    1    3    3  502    0 -0.13652539770E+03  0.29928257092E+03  0.31986973469E+03  0.45883101339E+03  0.10100000352E+00 0. -1.
       -3    1    3    3    0  502  0.13652539770E+03 -0.29928257092E+03  0.72809920312E+03  0.79896038779E+03  0.10100000352E+00 0.  1.
</event>
<event>
 5   0  0.1233912E-02  0.7104694E+03  0.7818609E-02  0.9699494E-01
        3   -1    0    0  501    0  0.00000000000E+00  0.00000000000E+00  0.18954631060E+03  0.18954633751E+03  0.10100000352E+00 0. -1.
       -3   -1    0    0    0  501  0.00000000000E+00  0.00000000000E+00 -0.66575637003E+03  0.66575637769E+03  0.10100000352E+00 0.  1.
    10030    2    1    2    0    0  0.00000000000E+00  0.00000000000E+00 -0.47621005943E+03  0.85530271520E+03  0.71046936171E+03 0.  0.
        3    1    3    3  502    0  0.35007489331E+03  0.60130432410E+02 -0.23226062856E+03  0.42439734873E+03  0.10100000352E+00 0.  1.
       -3    1    3    3    0  502 -0.35007489331E+03 -0.60130432410E+02 -0.24394943087E+03  0.43090536647E+03  0.10100000352E+00 0. -1.
</event>
<event>
 5   0  0.1951465E-02  0.7009878E+03  0.7818609E-02  0.9715544E-01
       -1   -1    0    0    0  501  0.00000000000E+00  0.00000000000E+00  0.27511656985E+03  0.27511656989E+03  0.50400001928E-02 0.  1.
        1   -1    0    0  501    0  0.00000000000E+00  0.00000000000E+00 -0.44652341625E+03  0.44652341628E+03  0.50400001928E-02 0. -1.
    10030    2    1    2    0    0  0.00000000000E+00  0.00000000000E+00 -0.17140684640E+03  0.72163998617E+03  0.70098784772E+03 0.  0.
        4    1    3    3  502    0  0.16195964676E+03  0.27935465874E+03  0.54599846500E+02  0.32749459336E+03  0.12699999809E+01 0.  1.
       -4    1    3    3    0  502 -0.16195964676E+03 -0.27935465874E+03 -0.22600669290E+03  0.39414539282E+03  0.12699999809E+01 0. -1.
</event>
<event>
 5   0  0.3184443E-02  0.6988543E+03  0.7818609E-02  0.9719193E-01
       -2   -1    0    0    0  501  0.00000000000E+00  0.00000000000E+00  0.13504864151E+03  0.13504864153E+03  0.25500000920E-02 0. -1.
        2   -1    0    0  501    0  0.00000000000E+00  0.00000000000E+00 -0.90411376488E+03  0.90411376488E+03  0.25500000920E-02 0.  1.
    10030    2    1    2    0    0  0.00000000000E+00  0.00000000000E+00 -0.76906512337E+03  0.10391624064E+04  0.69885430736E+03 0.  0.
        3    1    3    3  502    0  0.25468070761E+03  0.20643364418E+03 -0.20472691045E+03  0.38651032372E+03  0.10100000352E+00 0. -1.
       -3    1    3    3    0  502 -0.25468070761E+03 -0.20643364418E+03 -0.56433821292E+03  0.65265208269E+03  0.10100000352E+00 0.  1.
</event>
<event>
 5   0  0.3113940E-02  0.7011566E+03  0.7818609E-02  0.9715256E-01
        2   -1    0    0  501    0  0.00000000000E+00  0.00000000000E+00  0.59732644021E+03  0.59732644022E+03  0.25500000920E-02 0. -1.
       -2   -1    0    0    0  501  0.00000000000E+00  0.00000000000E+00 -0.20575874549E+03  0.20575874550E+03  0.25500000920E-02 0.  1.
    10030    2    1    2    0    0  0.00000000000E+00  0.00000000000E+00  0.39156769473E+03  0.80308518572E+03  0.70115658449E+03 0.  0.
        5    1    3    3  502    0  0.15281967199E+02 -0.14124323270E+03 -0.17127147264E+03  0.22257402508E+03  0.46999998093E+01 0.  1.
       -5    1    3    3    0  502 -0.15281967199E+02  0.14124323270E+03  0.56283916736E+03  0.58051116064E+03  0.46999998093E+01 0. -1.
</event>
<event>
 5   0  0.3113940E-02  0.7020066E+03  0.7818609E-02  0.9713807E-01
        2   -1    0    0  501    0  0.00000000000E+00  0.00000000000E+00  0.13960577389E+03  0.13960577392E+03  0.25500000920E-02 0. -1.
       -2   -1    0    0    0  501  0.00000000000E+00  0.00000000000E+00 -0.88250862810E+03  0.88250862810E+03  0.25500000920E-02 0.  1.
    10030    2    1    2    0    0  0.00000000000E+00  0.00000000000E+00 -0.74290285421E+03  0.10221144020E+04  0.70200655270E+03 0.  0.
        5    1    3    3  502    0 -0.20311596830E+03 -0.27310303687E+03 -0.49619028888E+03  0.60172107998E+03  0.46999998093E+01 0. -1.
       -5    1    3    3    0  502  0.20311596830E+03  0.27310303687E+03 -0.24671256533E+03  0.42039332203E+03  0.46999998093E+01 0.  1.
</event>
<event>
 5   0  0.1969818E-02  0.7000711E+03  0.7818609E-02  0.9717111E-01
       -1   -1    0    0    0  501  0.00000000000E+00  0.00000000000E+00  0.29293140180E+03  0.29293140185E+03  0.50400001928E-02 0. -1.
        1   -1    0    0  501    0  0.00000000000E+00  0.00000000000E+00 -0.41827163240E+03  0.41827163243E+03  0.50400001928E-02 0.  1.
    10030    2    1    2    0    0  0.00000000000E+00  0.00000000000E+00 -0.12534023059E+03  0.71120303427E+03  0.70007112678E+03 0.  0.
        1    1    3    3  502    0 -0.97784667397E+02  0.31200609504E+03  0.64277901476E+02  0.33322858996E+03  0.50400001928E-02 0. -1.
       -1    1    3    3    0  502  0.97784667397E+02 -0.31200609504E+03 -0.18961813207E+03  0.37797444432E+03  0.50400001928E-02 0.  1.
</event>
<event>
 5   0  0.3290656E-02  0.7175256E+03  0.7818609E-02  0.9687722E-01
        2   -1    0    0  501    0  0.00000000000E+00  0.00000000000E+00  0.49401219662E+03  0.49401219663E+03  0.25500000920E-02 0.  1.
       -2   -1    0    0    0  501  0.00000000000E+00  0.00000000000E+00 -0.26054162991E+03  0.26054162992E+03  0.25500000920E-02 0. -1.
    10030    2    1    2    0    0  0.00000000000E+00  0.00000000000E+00  0.23347056671E+03  0.75455382655E+03  0.71752558954E+03 0.  0.
        1    1    3    3  502    0  0.17013718726E+03  0.17076017390E+03  0.39616377979E+03  0.46373639055E+03  0.50400001928E-02 0.  1.
       -1    1    3    3    0  502 -0.17013718726E+03 -0.17076017390E+03 -0.16269321308E+03  0.29081743600E+03  0.50400001928E-02 0. -1.
</event>
<event>
 5   0  0.3290656E-02  0.6982551E+03  0.7818609E-02  0.9720221E-01
        2   -1    0    0  501    0  0.00000000000E+00  0.00000000000E+00  0.34205824710E+03  0.34205824711E+03  0.25500000920E-02 0.  1.
       -2   -1    0    0    0  501  0.00000000000E+00  0.00000000000E+00 -0.35634291997E+03  0.35634291998E+03  0.25500000920E-02 0. -1.
    10030    2    1    2    0    0  0.00000000000E+00  0.00000000000E+00 -0.14284672867E+02  0.69840116709E+03  0.69825506680E+03 0.  0.
        1    1    3    3  502    0 -0.57984738511E+01  0.13648485021E+03 -0.32850117114E+03  0.35577346177E+03  0.50400001928E-02 0. -1.
       -1    1    3    3    0  502  0.57984738511E+01 -0.13648485021E+03  0.31421649828E+03  0.34262770532E+03  0.50400001928E-02 0.  1.
</event>
<event>
 5   0  0.1884172E-02  0.6975557E+03  0.7818609E-02  0.9721421E-01
       -1   -1    0    0    0  501  0.00000000000E+00  0.00000000000E+00  0.10158103775E+03  0.10158103788E+03  0.50400001928E-02 0.  1.
        1   -1    0    0  501    0  0.00000000000E+00  0.00000000000E+00 -0.11975266506E+04  0.11975266506E+04  0.50400001928E-02 0. -1.
    10030    2    1    2    0    0  0.00000000000E+00  0.00000000000E+00 -0.10959456129E+04  0.12991076885E+04  0.69755573254E+03 0.  0.
        3    1    3    3  502    0 -0.10525768966E+03 -0.17117744617E+03 -0.10788795632E+04  0.10974342903E+04  0.10100000352E+00 0. -1.
       -3    1    3    3    0  502  0.10525768966E+03  0.17117744617E+03 -0.17066049645E+02  0.20167339825E+03  0.10100000352E+00 0.  1.
</event>
<event>
 5   0  0.3183963E-02  0.6962411E+03  0.7818609E-02  0.9723682E-01
        2   -1    0    0  501    0  0.00000000000E+00  0.00000000000E+00  0.33572453905E+03  0.33572453906E+03  0.25500000920E-02 0. -1.
       -2   -1    0    0    0  501  0.00000000000E+00  0.00000000000E+00 -0.36097423067E+03  0.36097423068E+03  0.25500000920E-02 0.  1.
    10030    2    1    2    0    0  0.00000000000E+00  0.00000000000E+00 -0.25249691622E+02  0.69669876974E+03  0.69624107092E+03 0.  0.
        4    1    3    3  502    0  0.17834933367E+03  0.24721383802E+01 -0.31177236790E+03  0.35919106138E+03  0.12699999809E+01 0.  1.
       -4    1    3    3    0  502 -0.17834933367E+03 -0.24721383802E+01  0.28652267627E+03  0.33750770837E+03  0.12699999809E+01 0. -1.
</event>
<event>
 5   0  0.1858013E-02  0.7018666E+03  0.7818609E-02  0.9714045E-01
        1   -1    0    0  501    0  0.00000000000E+00  0.00000000000E+00  0.70657391812E+03  0.70657391814E+03  0.50400001928E-02 0.  1.
       -1   -1    0    0    0  501  0.00000000000E+00  0.00000000000E+00 -0.17429767217E+03  0.17429767224E+03  0.50400001928E-02 0. -1.
    10030    2    1    2    0    0  0.00000000000E+00  0.00000000000E+00  0.53227624595E+03  0.88087159038E+03  0.70186662317E+03 0.  0.
        2    1    3    3  502    0 -0.11320056069E+02 -0.27078097545E+03 -0.13664905910E+02  0.27136176959E+03  0.25500000920E-02 0. -1.
       -2    1    3    3    0  502  0.11320056069E+02  0.27078097545E+03  0.54594115186E+03  0.60950982079E+03  0.25500000920E-02 0.  1.
</event>
<event>
 5   0  0.2933851E-02  0.7029630E+03  0.7818609E-02  0.9712178E-01
       -2   -1    0    0    0  501  0.00000000000E+00  0.00000000000E+00  0.12520153380E+03  0.12520153382E+03  0.25500000920E-02 0.  1.
        2   -1    0    0  501    0  0.00000000000E+00  0.00000000000E+00 -0.98672310124E+03  0.98672310124E+03  0.25500000920E-02 0. -1.
    10030    2    1    2    0    0  0.00000000000E+00  0.00000000000E+00 -0.86152156744E+03  0.11119246351E+04  0.70296300251E+03 0.  0.
        2    1    3    3  502    0  0.31458716631E+03  0.40335697408E+02 -0.19114928318E+03  0.37031081831E+03  0.25500000920E-02 0.  1.
       -2    1    3    3    0  502 -0.31458716631E+03 -0.40335697408E+02 -0.67037228426E+03  0.74161381675E+03  0.25500000920E-02 0. -1.
</event>
<event>
 5   0  0.1969818E-02  0.6868001E+03  0.7818609E-02  0.9740076E-01
       -1   -1    0    0    0  501  0.00000000000E+00  0.00000000000E+00  0.13537361857E+03  0.13537361867E+03  0.50400001928E-02 0.  1.
        1   -1    0    0  501    0  0.00000000000E+00  0.00000000000E+00 -0.87109732020E+03  0.87109732021E+03  0.50400001928E-02 0. -1.
    10030    2    1    2    0    0  0.00000000000E+00  0.00000000000E+00 -0.73572370162E+03  0.10064709389E+04  0.68680010606E+03 0.  0.
        1    1    3    3  502    0  0.17380261348E+03 -0.22693376959E+03 -0.64674931540E+03  0.70710038979E+03  0.50400001928E-02 0. -1.
       -1    1    3    3    0  502 -0.17380261348E+03  0.22693376959E+03 -0.88974386221E+02  0.29937054910E+03  0.50400001928E-02 0.  1.
</event>
<event>
 5   0  0.2933851E-02  0.7031460E+03  0.7818609E-02  0.9711867E-01
       -2   -1    0    0    0  501  0.00000000000E+00  0.00000000000E+00  0.21125257262E+03  0.21125257264E+03  0.25500000920E-02 0.  1.
        2   -1    0    0  501    0  0.00000000000E+00  0.00000000000E+00 -0.58509853470E+03  0.58509853471E+03  0.25500000920E-02 0. -1.
    10030    2    1    2    0    0  0.00000000000E+00  0.00000000000E+00 -0.37384596208E+03  0.79635110734E+03  0.70314598968E+03 0.  0.
        2    1    3    3  502    0  0.47782826649E+02 -0.18204190687E+03  0.14939251660E+03  0.24029269319E+03  0.25500000920E-02 0.  1.
       -2    1    3    3    0  502 -0.47782826649E+02  0.18204190687E+03 -0.52323847867E+03  0.55605841415E+03  0.25500000920E-02 0. -1.
</event>
<event>
 5   0  0.3113940E-02  0.7166345E+03  0.7818609E-02  0.9689200E-01
       -2   -1    0    0    0  501  0.00000000000E+00  0.00000000000E+00  0.11298509854E+03  0.11298509857E+03  0.25500000920E-02 0.  1.
        2   -1    0    0  501    0  0.00000000000E+00  0.00000000000E+00 -0.11363554657E+04  0.11363554657E+04  0.25500000920E-02 0. -1.
    10030    2    1    2    0    0  0.00000000000E+00  0.00000000000E+00 -0.10233703672E+04  0.12493405643E+04  0.71663445158E+03 0.  0.
        5    1    3    3  502    0  0.66048447083E+02  0.23253401112E+03 -0.50654897199E+02  0.24702727035E+03  0.46999998093E+01 0.  1.
       -5    1    3    3    0  502 -0.66048447083E+02 -0.23253401112E+03 -0.97271546999E+03  0.10023132940E+04  0.46999998093E+01 0. -1.
</event>
<event>
 5   0  0.3113940E-02  0.7005384E+03  0.7818609E-02  0.9716312E-01
        2   -1    0    0  501    0  0.00000000000E+00  0.00000000000E+00  0.11116769268E+04  0.11116769268E+04  0.25500000920E-02 0.  1.
       -2   -1    0    0    0  501  0.00000000000E+00  0.00000000000E+00 -0.11036344509E+03  0.11036344512E+03  0.25500000920E-02 0. -1.
    10030    2    1    2    0    0  0.00000000000E+00  0.00000000000E+00  0.10013134817E+04  0.12220403719E+04  0.70053835153E+03 0.  0.
        5    1    3    3  502    0 -0.22550609766E+03 -0.95760841456E+02  0.64049598425E+02  0.25327372523E+03  0.46999998093E+01 0. -1.
       -5    1    3    3    0  502  0.22550609766E+03  0.95760841456E+02  0.93726388327E+03  0.96876664667E+03  0.46999998093E+01 0.  1.
</event>
<event>
 5   0  0.1233912E-02  0.6940735E+03  0.7818609E-02  0.9727421E-01
        4   -1    0    0  501    0  0.00000000000E+00  0.00000000000E+00  0.29712980154E+03  0.29713251566E+03  0.12699999809E+01 0.  1.
       -4   -1    0    0    0  501  0.00000000000E+00  0.00000000000E+00 -0.40532066308E+03  0.40532265274E+03  0.12699999809E+01 0. -1.
    10030    2    1    2    0    0  0.00000000000E+00  0.00000000000E+00 -0.10819086154E+03  0.70245516840E+03  0.69407348393E+03 0.  0.
        2    1    3    3  502    0 -0.81749299150E+02 -0.32944745352E+03  0.18998100106E+02  0.33996985213E+03  0.25500000920E-02 0.  1.
       -2    1    3    3    0  502  0.81749299150E+02  0.32944745352E+03 -0.12718896164E+03  0.36248531627E+03  0.25500000920E-02 0. -1.
</event>
<event>
 5   0  0.1969818E-02  0.7062471E+03  0.7818609E-02  0.9706608E-01
        1   -1    0    0  501    0  0.00000000000E+00  0.00000000000E+00  0.38654751838E+03  0.38654751842E+03  0.50400001928E-02 0. -1.
       -1   -1    0    0    0  501  0.00000000000E+00  0.00000000000E+00 -0.32258966675E+03  0.32258966679E+03  0.50400001928E-02 0.  1.
    10030    2    1    2    0    0  0.00000000000E+00  0.00000000000E+00  0.63957851635E+02  0.70913718520E+03  0.70624708187E+03 0.  0.
        1    1    3    3  502    0  0.31356014598E+03 -0.27388476249E+02 -0.12875783108E+03  0.34007157021E+03  0.50400001928E-02 0.  1.
       -1    1    3    3    0  502 -0.31356014598E+03  0.27388476249E+02  0.19271568272E+03  0.36906561499E+03  0.50400001928E-02 0. -1.
</event>
<event>
 5   0  0.1884172E-02  0.6997078E+03  0.7818609E-02  0.9717732E-01
        1   -1    0    0  501    0  0.00000000000E+00  0.00000000000E+00  0.52255217285E+03  0.52255217287E+03  0.50400001928E-02 0.  1.
       -1   -1    0    0    0  501  0.00000000000E+00  0.00000000000E+00 -0.23423070104E+03  0.23423070109E+03  0.50400001928E-02 0. -1.
    10030    2    1    2    0    0  0.00000000000E+00  0.00000000000E+00  0.28832147181E+03  0.75678287396E+03  0.69970782989E+03 0.  0.
        3    1    3    3  502    0 -0.16086874564E+03  0.36507870717E+02  0.47784943297E+03  0.50552118526E+03  0.10100000352E+00 0.  1.
       -3    1    3    3    0  502  0.16086874564E+03 -0.36507870717E+02 -0.18952796116E+03  0.25126168871E+03  0.10100000352E+00 0. -1.
</event>
<event>
 5   0  0.1884172E-02  0.7086946E+03  0.7818609E-02  0.9702478E-01
        1   -1    0    0  501    0  0.00000000000E+00  0.00000000000E+00  0.20262386131E+03  0.20262386137E+03  0.50400001928E-02 0. -1.
       -1   -1    0    0    0  501  0.00000000000E+00  0.00000000000E+00 -0.61968032884E+03  0.61968032886E+03  0.50400001928E-02 0.  1.
    10030    2    1    2    0    0  0.00000000000E+00  0.00000000000E+00 -0.41705646754E+03  0.82230419024E+03  0.70869463393E+03 0.  0.
        3    1    3    3  502    0  0.43948893406E+02  0.11802803867E+03  0.17577713391E+03  0.21623999203E+03  0.10100000352E+00 0. -1.
       -3    1    3    3    0  502 -0.43948893406E+02 -0.11802803867E+03 -0.59283360145E+03  0.60606419821E+03  0.10100000352E+00 0.  1.
</event>
<event>
 5   0  0.3290656E-02  0.7056745E+03  0.7818609E-02  0.9707577E-01
        2   -1    0    0  501    0  0.00000000000E+00  0.00000000000E+00  0.72123084251E+03  0.72123084251E+03  0.25500000920E-02 0. -1.
       -2   -1    0    0    0  501  0.00000000000E+00  0.00000000000E+00 -0.17261340591E+03  0.17261340593E+03  0.25500000920E-02 0.  1.
    10030    2    1    2    0    0  0.00000000000E+00  0.00000000000E+00  0.54861743660E+03  0.89384424844E+03  0.70567446371E+03 0.  0.
        1    1    3    3  502    0 -0.26033243331E+03  0.29397474828E+02 -0.25052790529E+02  0.26318212267E+03  0.50400001928E-02 0.  1.
       -1    1    3    3    0  502  0.26033243331E+03 -0.29397474828E+02  0.57367022713E+03  0.63066212576E+03  0.50400001928E-02 0. -1.
</event>
<event>
 5   0  0.1839038E-02  0.6858217E+03  0.7818609E-02  0.9741791E-01
        1   -1    0    0  501    0  0.00000000000E+00  0.00000000000E+00  0.61290704205E+03  0.61290704207E+03  0.50400001928E-02 0. -1.
       -1   -1    0    0    0  501  0.00000000000E+00  0.00000000000E+00 -0.19185268313E+03  0.19185268320E+03  0.50400001928E-02 0.  1.
    10030    2    1    2    0    0  0.00000000000E+00  0.00000000000E+00  0.42105435892E+03  0.80475972527E+03  0.68582172775E+03 0.  0.
        5    1    3    3  502    0 -0.14819680671E+02 -0.15000974184E+03  0.57190221732E+03  0.59145311036E+03  0.46999998093E+01 0. -1.
       -5    1    3    3    0  502  0.14819680671E+02  0.15000974184E+03 -0.15084785840E+03  0.21330661491E+03  0.46999998093E+01 0.  1.
</event>
<event>
 5   0  0.3290656E-02  0.6911375E+03  0.7818609E-02  0.9732510E-01
       -2   -1    0    0    0  501  0.00000000000E+00  0.00000000000E+00  0.16301667117E+03  0.16301667119E+03  0.25500000920E-02 0. -1.
        2   -1    0    0  501    0  0.00000000000E+00  0.00000000000E+00 -0.73254927504E+03  0.73254927505E+03  0.25500000920E-02 0.  1.
    10030    2    1    2    0    0  0.00000000000E+00  0.00000000000E+00 -0.56953260387E+03  0.89556594624E+03  0.69113745174E+03 0.  0.
        1    1    3    3  502    0 -0.33570256672E+03  0.81936243276E+02 -0.28842744338E+03  0.45011126556E+03  0.50400001928E-02 0.  1.
       -1    1    3    3    0  502  0.33570256672E+03 -0.81936243276E+02 -0.28110516049E+03  0.44545468068E+03  0.50400001928E-02 0. -1.
</event>
<event>
 5   0  0.3184443E-02  0.7017704E+03  0.7818609E-02  0.9714209E-01
       -2   -1    0    0    0  501  0.00000000000E+00  0.00000000000E+00  0.18712509023E+03  0.18712509025E+03  0.25500000920E-02 0.  1.
        2   -1    0    0  501    0  0.00000000000E+00  0.00000000000E+00 -0.65795781571E+03  0.65795781572E+03  0.25500000920E-02 0. -1.
    10030    2    1    2    0    0  0.00000000000E+00  0.00000000000E+00 -0.47083272548E+03  0.84508290597E+03  0.70177037738E+03 0.  0.
        3    1    3    3  502    0  0.26265581242E+03  0.87871712736E+02 -0.49484280596E+03  0.56707929472E+03  0.10100000352E+00 0. -1.
       -3    1    3    3    0  502 -0.26265581242E+03 -0.87871712736E+02  0.24010080471E+02  0.27800361124E+03  0.10100000352E+00 0.  1.
</event>
<event>
 5   0  0.2933851E-02  0.6919193E+03  0.7818609E-02  0.9731152E-01
        2   -1    0    0  501    0  0.00000000000E+00  0.00000000000E+00  0.11026304458E+04  0.11026304458E+04  0.25500000920E-02 0. -1.
       -2   -1    0    0    0  501  0.00000000000E+00  0.00000000000E+00 -0.10854777173E+03  0.10854777176E+03  0.25500000920E-02 0.  1.
    10030    2    1    2    0    0  0.00000000000E+00  0.00000000000E+00  0.99408267407E+03  0.12111782176E+04  0.69191929572E+03 0.  0.
        2    1    3    3  502    0  0.29850238223E+03 -0.12913830690E+03  0.29060776844E+03  0.43615736792E+03  0.25500000920E-02 0.  1.
       -2    1    3    3    0  502 -0.29850238223E+03  0.12913830690E+03  0.70347490563E+03  0.77502084963E+03  0.25500000920E-02 0. -1.
</event>
<event>
 5   0  0.1858013E-02  0.7009751E+03  0.7818609E-02  0.9715566E-01
        1   -1    0    0  501    0  0.00000000000E+00  0.00000000000E+00  0.41546791348E+03  0.41546791351E+03  0.50400001928E-02 0.  1.
       -1   -1    0    0    0  501  0.00000000000E+00  0.00000000000E+00 -0.29567030563E+03  0.29567030568E+03  0.50400001928E-02 0. -1.
    10030    2    1    2    0    0  0.00000000000E+00  0.00000000000E+00  0.11979760785E+03  0.71113821919E+03  0.70097510651E+03 0.  0.
        2    1    3    3  502    0 -0.55368939907E+02 -0.16166196132E+03 -0.25054639392E+03  0.30327183311E+03  0.25500000920E-02 0. -1.
       -2    1    3    3    0  502  0.55368939907E+02  0.16166196132E+03  0.37034400177E+03  0.40786638608E+03  0.25500000920E-02 0.  1.
</event>
<event>
 5   0  0.3113940E-02  0.7108973E+03  0.7818609E-02  0.9698776E-01
       -2   -1    0    0    0  501  0.00000000000E+00  0.00000000000E+00  0.50855738147E+02  0.50855738211E+02  0.25500000920E-02 0. -1.
        2   -1    0    0  501    0  0.00000000000E+00  0.00000000000E+00 -0.24843554101E+04  0.24843554101E+04  0.25500000920E-02 0.  1.
    10030    2    1    2    0    0  0.00000000000E+00  0.00000000000E+00 -0.24334996720E+04  0.25352111484E+04  0.71089725920E+03 0.  0.
        5    1    3    3  502    0  0.12139418370E+03  0.28137470914E+03 -0.57469910320E+03  0.65131361417E+03  0.46999998093E+01 0. -1.
       -5    1    3    3    0  502 -0.12139418370E+03 -0.28137470914E+03 -0.18588005688E+04  0.18838975342E+04  0.46999998093E+01 0.  1.
</event>
<event>
 5   0  0.1233912E-02  0.6987349E+03  0.7818609E-02  0.9719398E-01
       -3   -1    0    0    0  501  0.00000000000E+00  0.00000000000E+00  0.15167688871E+03  0.15167692234E+03  0.10100000352E+00 0.  1.
        3   -1    0    0  501    0  0.00000000000E+00  0.00000000000E+00 -0.80472120518E+03  0.80472121152E+03  0.10100000352E+00 0. -1.
    10030    2    1    2    0    0  0.00000000000E+00  0.00000000000E+00 -0.65304431647E+03  0.95639813386E+03  0.69873493627E+03 0.  0.
        2    1    3    3  502    0  0.22236878109E+03 -0.11731035843E+03 -0.65856355843E+03  0.70492237551E+03  0.25500000920E-02 0. -1.
       -2    1    3    3    0  502 -0.22236878109E+03  0.11731035843E+03  0.55192419563E+01  0.25147575835E+03  0.25500000920E-02 0.  1.
</event>
<event>
 5   0  0.3113940E-02  0.7050092E+03  0.7818609E-02  0.9708704E-01
       -2   -1    0    0    0  501  0.00000000000E+00  0.00000000000E+00  0.47874316115E+02  0.47874316183E+02  0.25500000920E-02 0. -1.
        2   -1    0    0  501    0  0.00000000000E+00  0.00000000000E+00 -0.25955359170E+04  0.25955359170E+04  0.25500000920E-02 0.  1.
    10030    2    1    2    0    0  0.00000000000E+00  0.00000000000E+00 -0.25476616009E+04  0.26434102332E+04  0.70500923985E+03 0.  0.
        5    1    3    3  502    0 -0.29707636522E+03  0.18136318008E+03 -0.10653911085E+04  0.11208154505E+04  0.46999998093E+01 0. -1.
       -5    1    3    3    0  502  0.29707636522E+03 -0.18136318008E+03 -0.14822704923E+04  0.15225947827E+04  0.46999998093E+01 0.  1.
</event>
<event>
 5   0  0.3290656E-02  0.6941700E+03  0.7818609E-02  0.9727254E-01
       -2   -1    0    0    0  501  0.00000000000E+00  0.00000000000E+00  0.61390487507E+02  0.61390487560E+02  0.25500000920E-02 0.  1.
        2   -1    0    0  501    0  0.00000000000E+00  0.00000000000E+00 -0.19623236545E+04  0.19623236545E+04  0.25500000920E-02 0. -1.
    10030    2    1    2    0    0  0.00000000000E+00  0.00000000000E+00 -0.19009331670E+04  0.20237141421E+04  0.69417002486E+03 0.  0.
        1    1    3    3  502    0  0.33442119782E+03 -0.91489935984E+02 -0.99747980379E+03  0.10560179473E+04  0.50400001928E-02 0.  1.
       -1    1    3    3    0  502 -0.33442119782E+03  0.91489935984E+02 -0.90345336323E+03  0.96769619483E+03  0.50400001928E-02 0. -1.
</event>
<event>
 5   0  0.3183963E-02  0.6972295E+03  0.7818609E-02  0.9721982E-01
       -2   -1    0    0    0  501  0.00000000000E+00  0.00000000000E+00  0.44559683617E+03  0.44559683618E+03  0.25500000920E-02 0. -1.
        2   -1    0    0  501    0  0.00000000000E+00  0.00000000000E+00 -0.27274038310E+03  0.27274038311E+03  0.25500000920E-02 0.  1.
    10030    2    1    2    0    0  0.00000000000E+00  0.00000000000E+00  0.17285645307E+03  0.71833721929E+03  0.69722952265E+03 0.  0.
        4    1    3    3  502    0 -0.14878921064E+03 -0.25340287492E+03  0.27966811140E+03  0.40566872156E+03  0.12699999809E+01 0. -1.
       -4    1    3    3    0  502  0.14878921064E+03  0.25340287492E+03 -0.10681165833E+03  0.31266849773E+03  0.12699999809E+01 0.  1.
</event>
<event>
 5   0  0.1858013E-02  0.6903378E+03  0.7818609E-02  0.9733900E-01
       -1   -1    0    0    0  501  0.00000000000E+00  0.00000000000E+00  0.87020160481E+03  0.87020160482E+03  0.50400001928E-02 0. -1.
        1   -1    0    0  501    0  0.00000000000E+00  0.00000000000E+00 -0.13691261610E+03  0.13691261619E+03  0.50400001928E-02 0.  1.
    10030    2    1    2    0    0  0.00000000000E+00  0.00000000000E+00  0.73328898871E+03  0.10071142210E+04  0.69033782542E+03 0.  0.
        2    1    3    3  502    0  0.18085223665E+02 -0.20937631419E+02 -0.13529238497E+03  0.13809232116E+03  0.25500000920E-02 0.  1.
       -2    1    3    3    0  502 -0.18085223665E+02  0.20937631419E+02  0.86858137368E+03  0.86902189986E+03  0.25500000920E-02 0. -1.
</event>
<event>
 5   0  0.1858013E-02  0.6981192E+03  0.7818609E-02  0.9720454E-01
        1   -1    0    0  501    0  0.00000000000E+00  0.00000000000E+00  0.73738682626E+03  0.73738682628E+03  0.50400001928E-02 0. -1.
       -1   -1    0    0    0  501  0.00000000000E+00  0.00000000000E+00 -0.16523566089E+03  0.16523566096E+03  0.50400001928E-02 0.  1.
    10030    2    1    2    0    0  0.00000000000E+00  0.00000000000E+00  0.57215116538E+03  0.90262248725E+03  0.69811918641E+03 0.  0.
        2    1    3    3  502    0 -0.29409704354E+03 -0.10810870816E+03  0.48496085702E+03  0.57737994133E+03  0.25500000920E-02 0. -1.
       -2    1    3    3    0  502  0.29409704354E+03  0.10810870816E+03  0.87190308359E+02  0.32524254592E+03  0.25500000920E-02 0.  1.
</event>
<event>
 5   0  0.3113940E-02  0.6938456E+03  0.7818609E-02  0.9727815E-01
        2   -1    0    0  501    0  0.00000000000E+00  0.00000000000E+00  0.98395722961E+03  0.98395722962E+03  0.25500000920E-02 0.  1.
       -2   -1    0    0    0  501  0.00000000000E+00  0.00000000000E+00 -0.12231774554E+03  0.12231774556E+03  0.25500000920E-02 0. -1.
    10030    2    1    2    0    0  0.00000000000E+00  0.00000000000E+00  0.86163948408E+03  0.11062749752E+04  0.69384560256E+03 0.  0.
        5    1    3    3  502    0 -0.25989325571E+03 -0.22793027211E+03  0.38470220349E+03  0.51721812485E+03  0.46999998093E+01 0.  1.
       -5    1    3    3    0  502  0.25989325571E+03  0.22793027211E+03  0.47693728059E+03  0.58905685033E+03  0.46999998093E+01 0. -1.
</event>
<event>
 5   0  0.3184443E-02  0.7021429E+03  0.7818609E-02  0.9713575E-01
        2   -1    0    0  501    0  0.00000000000E+00  0.00000000000E+00  0.13476274034E+04  0.13476274034E+04  0.25500000920E-02 0. -1.
       -2   -1    0    0    0  501  0.00000000000E+00  0.00000000000E+00 -0.91457889076E+02  0.91457889112E+02  0.25500000920E-02 0.  1.
    10030    2    1    2    0    0  0.00000000000E+00  0.00000000000E+00  0.12561695143E+04  0.14390852925E+04  0.70214288462E+03 0.  0.
        3    1    3    3  502    0  0.15229523805E+03  0.18483387981E+03  0.11542027204E+04  0.11787880779E+04  0.10100000352E+00 0. -1.
       -3    1    3    3    0  502 -0.15229523805E+03 -0.18483387981E+03  0.10196679391E+03  0.26029721459E+03  0.10100000352E+00 0.  1.
</event>
<event>
 5   0  0.1858013E-02  0.6921888E+03  0.7818609E-02  0.9730684E-01
        1   -1    0    0  501    0  0.00000000000E+00  0.00000000000E+00  0.24815281633E+03  0.24815281639E+03  0.50400001928E-02 0. -1.
       -1   -1    0    0    0  501  0.00000000000E+00  0.00000000000E+00 -0.48269186626E+03  0.48269186629E+03  0.50400001928E-02 0.  1.
    10030    2    1    2    0    0  0.00000000000E+00  0.00000000000E+00 -0.23453904993E+03  0.73084468268E+03  0.69218883569E+03 0.  0.
        2    1    3    3  502    0  0.29620206352E+03  0.11694592683E+03 -0.26037201956E+03  0.41134608399E+03  0.25500000920E-02 0.  1.
       -2    1    3    3    0  502 -0.29620206352E+03 -0.11694592683E+03  0.25832969628E+02  0.31949859869E+03  0.25500000920E-02 0. -1.
</event>
<event>
 5   0  0.2933851E-02  0.6884288E+03  0.7818609E-02  0.9737228E-01
       -2   -1    0    0    0  501  0.00000000000E+00  0.00000000000E+00  0.10591476954E+03  0.10591476957E+03  0.25500000920E-02 0. -1.
        2   -1    0    0  501    0  0.00000000000E+00  0.00000000000E+00 -0.11186688774E+04  0.11186688774E+04  0.25500000920E-02 0.  1.
    10030    2    1    2    0    0  0.00000000000E+00  0.00000000000E+00 -0.10127541079E+04  0.12245836470E+04  0.68842880928E+03 0.  0.
        2    1    3    3  502    0 -0.32892264844E+02  0.26402716420E+03 -0.11791459618E+03  0.29102593788E+03  0.25500000920E-02 0. -1.
       -2    1    3    3    0  502  0.32892264844E+02 -0.26402716420E+03 -0.89483951171E+03  0.93355770911E+03  0.25500000920E-02 0.  1.
</event>
<event>
 5   0  0.1858013E-02  0.6971066E+03  0.7818609E-02  0.9722193E-01
        1   -1    0    0  501    0  0.00000000000E+00  0.00000000000E+00  0.49438652386E+03  0.49438652389E+03  0.50400001928E-02 0.  1.
       -1   -1    0    0    0  501  0.00000000000E+00  0.00000000000E+00 -0.24573766681E+03  0.24573766687E+03  0.50400001928E-02 0. -1.
    10030    2    1    2    0    0  0.00000000000E+00  0.00000000000E+00  0.24864885705E+03  0.74012419075E+03  0.69710656547E+03 0.  0.
        2    1    3    3  502    0 -0.16674140395E+03  0.59127479151E+02  0.44317423058E+03  0.47718146783E+03  0.25500000920E-02 0.  1.
       -2    1    3    3    0  502  0.16674140395E+03 -0.59127479151E+02 -0.19452537353E+03  0.26294272292E+03  0.25500000920E-02 0. -1.
</event>
<event>
 5   0  0.1233912E-02  0.6970243E+03  0.7818609E-02  0.9722335E-01
       -3   -1    0    0    0  501  0.00000000000E+00  0.00000000000E+00  0.25172086554E+03  0.25172088581E+03  0.10100000352E+00 0. -1.
        3   -1    0    0  501    0  0.00000000000E+00  0.00000000000E+00 -0.48252140454E+03  0.48252141511E+03  0.10100000352E+00 0.  1.
    10030    2    1    2    0    0  0.00000000000E+00  0.00000000000E+00 -0.23080053899E+03  0.73424230092E+03  0.69702429488E+03 0.  0.
        5    1    3    3  502    0  0.23320345851E+02 -0.15454948419E+03  0.21269354938E+03  0.26398866934E+03  0.46999998093E+01 0. -1.
       -5    1    3    3    0  502 -0.23320345851E+02  0.15454948419E+03 -0.44349408837E+03  0.47025363158E+03  0.46999998093E+01 0.  1.
</event>
<event>
 5   0  0.1884172E-02  0.6474490E+03  0.7818609E-02  0.9811578E-01
       -1   -1    0    0    0  501  0.00000000000E+00  0.00000000000E+00  0.28421376241E+03  0.28421376246E+03  0.50400001928E-02 0. -1.
        1   -1    0    0  501    0  0.00000000000E+00  0.00000000000E+00 -0.36872795712E+03  0.36872795716E+03  0.50400001928E-02 0.  1.
    10030    2    1    2    0    0  0.00000000000E+00  0.00000000000E+00 -0.84514194708E+02  0.65294171961E+03  0.64744902510E+03 0.  0.
        3    1    3    3  502    0  0.27566393515E+03  0.15963362093E+03 -0.10040080547E+03  0.33399675151E+03  0.10100000352E+00 0.  1.
       -3    1    3    3    0  502 -0.27566393515E+03 -0.15963362093E+03  0.15886610766E+02  0.31894496811E+03  0.10100000352E+00 0. -1.
</event>
<event>
 5   0  0.3290656E-02  0.6895393E+03  0.7818609E-02  0.9735290E-01
        2   -1    0    0  501    0  0.00000000000E+00  0.00000000000E+00  0.42256890409E+03  0.42256890410E+03  0.25500000920E-02 0.  1.
       -2   -1    0    0    0  501  0.00000000000E+00  0.00000000000E+00 -0.28129407046E+03  0.28129407048E+03  0.25500000920E-02 0. -1.
    10030    2    1    2    0    0  0.00000000000E+00  0.00000000000E+00  0.14127483363E+03  0.70386297458E+03  0.68953934505E+03 0.  0.
        1    1    3    3  502    0  0.24655405188E+03  0.23069431649E+03  0.14177992390E+03  0.36621075217E+03  0.50400001928E-02 0. -1.
       -1    1    3    3    0  502 -0.24655405188E+03 -0.23069431649E+03 -0.50509027263E+00  0.33765222241E+03  0.50400001928E-02 0.  1.
</event>
<event>
 5   0  0.1858013E-02  0.7506261E+03  0.7818609E-02  0.9634369E-01
       -1   -1    0    0    0  501  0.00000000000E+00  0.00000000000E+00  0.61734645665E+03  0.61734645667E+03  0.50400001928E-02 0.  1.
        1   -1    0    0  501    0  0.00000000000E+00  0.00000000000E+00 -0.22816991922E+03  0.22816991928E+03  0.50400001928E-02 0. -1.
    10030    2    1    2    0    0  0.00000000000E+00  0.00000000000E+00  0.38917653743E+03  0.84551637595E+03  0.75062611513E+03 0.  0.
        2    1    3    3  502    0 -0.29337196338E+03  0.23248378251E+03  0.22531427879E+03  0.43690083802E+03  0.25500000920E-02 0. -1.
       -2    1    3    3    0  502  0.29337196338E+03 -0.23248378251E+03  0.16386225864E+03  0.40861553793E+03  0.25500000920E-02 0.  1.
</event>
<event>
 5   0  0.3290656E-02  0.6784015E+03  0.7818609E-02  0.9754898E-01
        2   -1    0    0  501    0  0.00000000000E+00  0.00000000000E+00  0.96683294277E+03  0.96683294278E+03  0.25500000920E-02 0. -1.
       -2   -1    0    0    0  501  0.00000000000E+00  0.00000000000E+00 -0.11900415894E+03  0.11900415897E+03  0.25500000920E-02 0.  1.
    10030    2    1    2    0    0  0.00000000000E+00  0.00000000000E+00  0.84782878383E+03  0.10858371017E+04  0.67840147762E+03 0.  0.
        1    1    3    3  502    0  0.17471157491E+03 -0.11777855038E+03  0.84938391548E+03  0.87512796621E+03  0.50400001928E-02 0. -1.
       -1    1    3    3    0  502 -0.17471157491E+03  0.11777855038E+03 -0.15551316516E+01  0.21070913554E+03  0.50400001928E-02 0.  1.
</event>
<event>
 5   0  0.3184443E-02  0.6750492E+03  0.7818609E-02  0.9760879E-01
       -2   -1    0    0    0  501  0.00000000000E+00  0.00000000000E+00  0.56221669679E+02  0.56221669737E+02  0.25500000920E-02 0. -1.
        2   -1    0    0  501    0  0.00000000000E+00  0.00000000000E+00 -0.20263155512E+04  0.20263155512E+04  0.25500000920E-02 0.  1.
    10030    2    1    2    0    0  0.00000000000E+00  0.00000000000E+00 -0.19700938815E+04  0.20825372209E+04  0.67504916457E+03 0.  0.
        3    1    3    3  502    0 -0.12905436577E+03 -0.12329717433E+03 -0.10127955281E+03  0.20521886010E+03  0.10100000352E+00 0. -1.
       -3    1    3    3    0  502  0.12905436577E+03  0.12329717433E+03 -0.18688143287E+04  0.18773183608E+04  0.10100000352E+00 0.  1.
</event>
<event>
 5   0  0.1969818E-02  0.6708712E+03  0.7818609E-02  0.9768385E-01
       -1   -1    0    0    0  501  0.00000000000E+00  0.00000000000E+00  0.16858620321E+03  0.16858620329E+03  0.50400001928E-02 0.  1.
        1   -1    0    0  501    0  0.00000000000E+00  0.00000000000E+00 -0.66741544506E+03  0.66741544508E+03  0.50400001928E-02 0. -1.
    10030    2    1    2    0    0  0.00000000000E+00  0.00000000000E+00 -0.49882924185E+03  0.83600164836E+03  0.67087118253E+03 0.  0.
        1    1    3    3  502    0  0.20427289564E+03 -0.26495723295E+03 -0.27961360477E+03  0.43602009035E+03  0.50400001928E-02 0.  1.
       -1    1    3    3    0  502 -0.20427289564E+03  0.26495723295E+03 -0.21921563707E+03  0.39998155801E+03  0.50400001928E-02 0. -1.
</event>
<event>
 5   0  0.1969818E-02  0.6997330E+03  0.7818609E-02  0.9717689E-01
       -1   -1    0    0    0  501  0.00000000000E+00  0.00000000000E+00  0.76809391589E+02  0.76809391755E+02  0.50400001928E-02 0. -1.
        1   -1    0    0  501    0  0.00000000000E+00  0.00000000000E+00 -0.15936405623E+04  0.15936405623E+04  0.50400001928E-02 0.  1.
    10030    2    1    2    0    0  0.00000000000E+00  0.00000000000E+00 -0.15168311707E+04  0.16704499541E+04  0.69973298378E+03 0.  0.
        1    1    3    3  502    0  0.32909989463E+03  0.10221249713E+03 -0.90269085333E+03  0.96623232814E+03  0.50400001928E-02 0. -1.
       -1    1    3    3    0  502 -0.32909989463E+03 -0.10221249713E+03 -0.61414031740E+03  0.70421762595E+03  0.50400001928E-02 0.  1.
</event>
<event>
 5   0  0.3290656E-02  0.7021929E+03  0.7818609E-02  0.9713489E-01
       -2   -1    0    0    0  501  0.00000000000E+00  0.00000000000E+00  0.20425582066E+03  0.20425582068E+03  0.25500000920E-02 0.  1.
        2   -1    0    0  501    0  0.00000000000E+00  0.00000000000E+00 -0.60350162744E+03  0.60350162744E+03  0.25500000920E-02 0. -1.
    10030    2    1    2    0    0  0.00000000000E+00  0.00000000000E+00 -0.39924580678E+03  0.80775744812E+03  0.70219290851E+03 0.  0.
        1    1    3    3  502    0  0.34944234482E+03 -0.21608060583E+02 -0.22988043502E+03  0.41883394689E+03  0.50400001928E-02 0.  1.
       -1    1    3    3    0  502 -0.34944234482E+03  0.21608060583E+02 -0.16936537175E+03  0.38892350123E+03  0.50400001928E-02 0. -1.
</event>
<event>
 5   0  0.1858013E-02  0.7031808E+03  0.7818609E-02  0.9711808E-01
        1   -1    0    0  501    0  0.00000000000E+00  0.00000000000E+00  0.10634934032E+04  0.10634934032E+04  0.50400001928E-02 0. -1.
       -1   -1    0    0    0  501  0.00000000000E+00  0.00000000000E+00 -0.11623562386E+03  0.11623562397E+03  0.50400001928E-02 0.  1.
    10030    2    1    2    0    0  0.00000000000E+00  0.00000000000E+00  0.94725777929E+03  0.11797290271E+04  0.70318082813E+03 0.  0.
        2    1    3    3  502    0 -0.23138637323E+03  0.44606555435E+02  0.35859394011E+02  0.23835959105E+03  0.25500000920E-02 0.  1.
       -2    1    3    3    0  502  0.23138637323E+03 -0.44606555435E+02  0.91139838528E+03  0.94136943609E+03  0.25500000920E-02 0. -1.
</event>
<event>
 5   0  0.1969818E-02  0.7051932E+03  0.7818609E-02  0.9708392E-01
       -1   -1    0    0    0  501  0.00000000000E+00  0.00000000000E+00  0.85096828292E+02  0.85096828442E+02  0.50400001928E-02 0.  1.
        1   -1    0    0  501    0  0.00000000000E+00  0.00000000000E+00 -0.14609751079E+04  0.14609751079E+04  0.50400001928E-02 0. -1.
    10030    2    1    2    0    0  0.00000000000E+00  0.00000000000E+00 -0.13758782796E+04  0.15460719363E+04  0.70519315940E+03 0.  0.
        1    1    3    3  502    0 -0.17008360190E+02  0.23837705226E+03 -0.12563249423E+04  0.12788531049E+04  0.50400001928E-02 0. -1.
       -1    1    3    3    0  502  0.17008360190E+02 -0.23837705226E+03 -0.11955333727E+03  0.26721883137E+03  0.50400001928E-02 0.  1.
</event>
<event>
 5   0  0.3184443E-02  0.6990084E+03  0.7818609E-02  0.9718929E-01
        2   -1    0    0  501    0  0.00000000000E+00  0.00000000000E+00  0.65997317708E+03  0.65997317709E+03  0.25500000920E-02 0.  1.
       -2   -1    0    0    0  501  0.00000000000E+00  0.00000000000E+00 -0.18508811567E+03  0.18508811569E+03  0.25500000920E-02 0. -1.
    10030    2    1    2    0    0  0.00000000000E+00  0.00000000000E+00  0.47488506141E+03  0.84506129278E+03  0.69900841698E+03 0.  0.
        3    1    3    3  502    0 -0.24316698379E+03  0.11616103368E+02  0.54061511302E+03  0.59289950792E+03  0.10100000352E+00 0.  1.
       -3    1    3    3    0  502  0.24316698379E+03 -0.11616103368E+02 -0.65730051607E+02  0.25216178487E+03  0.10100000352E+00 0. -1.
</event>
<event>
 5   0  0.1951465E-02  0.7011367E+03  0.7818609E-02  0.9715290E-01
       -1   -1    0    0    0  501  0.00000000000E+00  0.00000000000E+00  0.16876385325E+03  0.16876385332E+03  0.50400001928E-02 0. -1.
        1   -1    0    0  501    0  0.00000000000E+00  0.00000000000E+00 -0.72822562648E+03  0.72822562650E+03  0.50400001928E-02 0.  1.
    10030    2    1    2    0    0  0.00000000000E+00  0.00000000000E+00 -0.55946177324E+03  0.89698947982E+03  0.70113668511E+03 0.  0.
        4    1    3    3  502    0  0.12488812551E+03  0.22352815157E+03  0.26601787900E+02  0.25743182876E+03  0.12699999809E+01 0. -1.
       -4    1    3    3    0  502 -0.12488812551E+03 -0.22352815157E+03 -0.58606356114E+03  0.63955765106E+03  0.12699999809E+01 0.  1.
</event>
<event>
 5   0  0.1951465E-02  0.6902434E+03  0.7818609E-02  0.9734064E-01
        1   -1    0    0  501    0  0.00000000000E+00  0.00000000000E+00  0.80311851310E+03  0.80311851312E+03  0.50400001928E-02 0. -1.
       -1   -1    0    0    0  501  0.00000000000E+00  0.00000000000E+00 -0.14830809029E+03  0.14830809038E+03  0.50400001928E-02 0.  1.
    10030    2    1    2    0    0  0.00000000000E+00  0.00000000000E+00  0.65481042281E+03  0.95142660349E+03  0.69024335709E+03 0.  0.
        4    1    3    3  502    0  0.78991010946E+02  0.30741265882E+03  0.51420282756E+03  0.60427500642E+03  0.12699999809E+01 0. -1.
       -4    1    3    3    0  502 -0.78991010946E+02 -0.30741265882E+03  0.14060759525E+03  0.34715159708E+03  0.12699999809E+01 0.  1.
</event>
<event>
 5   0  0.1951465E-02  0.6955945E+03  0.7818609E-02  0.9724796E-01
        1   -1    0    0  501    0  0.00000000000E+00  0.00000000000E+00  0.90122563515E+03  0.90122563517E+03  0.50400001928E-02 0.  1.
       -1   -1    0    0    0  501  0.00000000000E+00  0.00000000000E+00 -0.13422046685E+03  0.13422046694E+03  0.50400001928E-02 0. -1.
    10030    2    1    2    0    0  0.00000000000E+00  0.00000000000E+00  0.76700516831E+03  0.10354461021E+04  0.69559449549E+03 0.  0.
        4    1    3    3  502    0  0.10377320517E+03  0.83860896359E+01  0.87748173488E+03  0.88363737617E+03  0.12699999809E+01 0.  1.
       -4    1    3    3    0  502 -0.10377320517E+03 -0.83860896359E+01 -0.11047656657E+03  0.15180872594E+03  0.12699999809E+01 0. -1.
</event>
<event>
 5   0  0.2933851E-02  0.6795960E+03  0.7818609E-02  0.9752776E-01
       -2   -1    0    0    0  501  0.00000000000E+00  0.00000000000E+00  0.49061067699E+03  0.49061067700E+03  0.25500000920E-02 0.  1.
        2   -1    0    0  501    0  0.00000000000E+00  0.00000000000E+00 -0.23534485149E+03  0.23534485150E+03  0.25500000920E-02 0. -1.
    10030    2    1    2    0    0  0.00000000000E+00  0.00000000000E+00  0.25526582550E+03  0.72595552850E+03  0.67959604743E+03 0.  0.
        2    1    3    3  502    0  0.29891205188E+03 -0.12835937107E+03  0.23250408041E+03  0.39985333601E+03  0.25500000920E-02 0. -1.
       -2    1    3    3    0  502 -0.29891205188E+03  0.12835937107E+03  0.22761745088E+02  0.32610219249E+03  0.25500000920E-02 0.  1.
</event>
<event>
 5   0  0.3183963E-02  0.7024054E+03  0.7818609E-02  0.9713127E-01
       -2   -1    0    0    0  501  0.00000000000E+00  0.00000000000E+00  0.42337684319E+03  0.42337684319E+03  0.25500000920E-02 0. -1.
        2   -1    0    0  501    0  0.00000000000E+00  0.00000000000E+00 -0.29133230689E+03  0.29133230690E+03  0.25500000920E-02 0.  1.
    10030    2    1    2    0    0  0.00000000000E+00  0.00000000000E+00  0.13204453629E+03  0.71470915010E+03  0.70240544536E+03 0.  0.
        4    1    3    3  502    0 -0.15202196991E+02 -0.20475163836E+03  0.35594734928E+03  0.41091905354E+03  0.12699999809E+01 0. -1.
       -4    1    3    3    0  502  0.15202196991E+02  0.20475163836E+03 -0.22390281298E+03  0.30379009656E+03  0.12699999809E+01 0.  1.
</event>
<event>
 5   0  0.3184443E-02  0.6854308E+03  0.7818609E-02  0.9742477E-01
        2   -1    0    0  501    0  0.00000000000E+00  0.00000000000E+00  0.92240978920E+03  0.92240978921E+03  0.25500000920E-02 0. -1.
       -2   -1    0    0    0  501  0.00000000000E+00  0.00000000000E+00 -0.12733368945E+03  0.12733368947E+03  0.25500000920E-02 0.  1.
    10030    2    1    2    0    0  0.00000000000E+00  0.00000000000E+00  0.79507609976E+03  0.10497434787E+04  0.68543078909E+03 0.  0.
        3    1    3    3  502    0 -0.11123077834E+03 -0.29270560803E+03  0.61087991702E+03  0.68645694857E+03  0.10100000352E+00 0. -1.
       -3    1    3    3    0  502  0.11123077834E+03  0.29270560803E+03  0.18419618273E+03  0.36328653011E+03  0.10100000352E+00 0.  1.
</event>
<event>
 5   0  0.1884172E-02  0.7101638E+03  0.7818609E-02  0.9700007E-01
        1   -1    0    0  501    0  0.00000000000E+00  0.00000000000E+00  0.30238834951E+03  0.30238834956E+03  0.50400001928E-02 0. -1.
       -1   -1    0    0    0  501  0.00000000000E+00  0.00000000000E+00 -0.41695766501E+03  0.41695766504E+03  0.50400001928E-02 0.  1.
    10030    2    1    2    0    0  0.00000000000E+00  0.00000000000E+00 -0.11456931550E+03  0.71934601460E+03  0.71016375623E+03 0.  0.
        3    1    3    3  502    0 -0.12387151260E+03 -0.16906038641E+03  0.23305283022E+03  0.31343132863E+03  0.10100000352E+00 0. -1.
       -3    1    3    3    0  502  0.12387151260E+03  0.16906038641E+03 -0.34762214572E+03  0.40591468597E+03  0.10100000352E+00 0.  1.
</event>
<event>
 5   0  0.3113940E-02  0.6953077E+03  0.7818609E-02  0.9725290E-01
       -2   -1    0    0    0  501  0.00000000000E+00  0.00000000000E+00  0.21120951905E+03  0.21120951906E+03  0.25500000920E-02 0. -1.
        2   -1    0    0  501    0  0.00000000000E+00  0.00000000000E+00 -0.57224312500E+03  0.57224312501E+03  0.25500000920E-02 0.  1.
    10030    2    1    2    0    0  0.00000000000E+00  0.00000000000E+00 -0.36103360595E+03  0.78345264407E+03  0.69530768792E+03 0.  0.
        5    1    3    3  502    0  0.25142559784E+03  0.21066171530E+03 -0.50825905119E+02  0.33196167274E+03  0.46999998093E+01 0.  1.
       -5    1    3    3    0  502 -0.25142559784E+03 -0.21066171530E+03 -0.31020770083E+03  0.45149097133E+03  0.46999998093E+01 0. -1.
</event>
<event>
 5   0  0.1233912E-02  0.6997886E+03  0.7818609E-02  0.9717594E-01
       -3   -1    0    0    0  501  0.00000000000E+00  0.00000000000E+00  0.58969629663E+02  0.58969716156E+02  0.10100000352E+00 0. -1.
        3   -1    0    0  501    0  0.00000000000E+00  0.00000000000E+00 -0.20760842967E+04  0.20760842992E+04  0.10100000352E+00 0.  1.
    10030    2    1    2    0    0  0.00000000000E+00  0.00000000000E+00 -0.20171146671E+04  0.21350540153E+04  0.69978858831E+03 0.  0.
        3    1    3    3  502    0 -0.13409438959E+03 -0.13651343838E+03 -0.19022905132E+04  0.19118908000E+04  0.10100000352E+00 0.  1.
       -3    1    3    3    0  502  0.13409438959E+03  0.13651343838E+03 -0.11482415383E+03  0.22316321534E+03  0.10100000352E+00 0. -1.
</event>
<event>
 5   0  0.2933851E-02  0.7081726E+03  0.7818609E-02  0.9703357E-01
       -2   -1    0    0    0  501  0.00000000000E+00  0.00000000000E+00  0.18131935850E+03  0.18131935852E+03  0.25500000920E-02 0.  1.
        2   -1    0    0  501    0  0.00000000000E+00  0.00000000000E+00 -0.69147108607E+03  0.69147108607E+03  0.25500000920E-02 0. -1.
    10030    2    1    2    0    0  0.00000000000E+00  0.00000000000E+00 -0.51015172757E+03  0.87279044459E+03  0.70817256021E+03 0.  0.
        2    1    3    3  502    0  0.16569076810E+03  0.15784492502E+03 -0.58808643902E+03  0.63104208319E+03  0.25500000920E-02 0. -1.
       -2    1    3    3    0  502 -0.16569076810E+03 -0.15784492502E+03  0.77934711450E+02  0.24174836141E+03  0.25500000920E-02 0.  1.
</event>
<event>
 5   0  0.1884172E-02  0.6632937E+03  0.7818609E-02  0.9782149E-01
       -1   -1    0    0    0  501  0.00000000000E+00  0.00000000000E+00  0.12779066820E+03  0.12779066830E+03  0.50400001928E-02 0.  1.
        1   -1    0    0  501    0  0.00000000000E+00  0.00000000000E+00 -0.86070159869E+03  0.86070159871E+03  0.50400001928E-02 0. -1.
    10030    2    1    2    0    0  0.00000000000E+00  0.00000000000E+00 -0.73291093050E+03  0.98849226701E+03  0.66329369806E+03 0.  0.
        3    1    3    3  502    0  0.11328451093E+03  0.27662556668E+03 -0.58052988566E+03  0.65297017000E+03  0.10100000352E+00 0. -1.
       -3    1    3    3    0  502 -0.11328451093E+03 -0.27662556668E+03 -0.15238104483E+03  0.33552209701E+03  0.10100000352E+00 0.  1.
</event>
<event>
 5   0  0.3113940E-02  0.6767729E+03  0.7818609E-02  0.9757799E-01
        2   -1    0    0  501    0  0.00000000000E+00  0.00000000000E+00  0.18397032938E+04  0.18397032938E+04  0.25500000920E-02 0.  1.
       -2   -1    0    0    0  501  0.00000000000E+00  0.00000000000E+00 -0.62241223282E+02  0.62241223335E+02  0.25500000920E-02 0. -1.
    10030    2    1    2    0    0  0.00000000000E+00  0.00000000000E+00  0.17774620705E+04  0.19019445171E+04  0.67677288224E+03 0.  0.
        5    1    3    3  502    0 -0.24303012010E+02  0.32920542713E+03  0.68000121567E+03  0.75590382520E+03  0.46999998093E+01 0.  1.
       -5    1    3    3    0  502  0.24303012010E+02 -0.32920542713E+03  0.10974608548E+04  0.11460406919E+04  0.46999998093E+01 0. -1.
</event>
<event>
 5   0  0.1839038E-02  0.7043431E+03  0.7818609E-02  0.9709834E-01
        1   -1    0    0  501    0  0.00000000000E+00  0.00000000000E+00  0.38024155976E+03  0.38024155979E+03  0.50400001928E-02 0. -1.
       -1   -1    0    0    0  501  0.00000000000E+00  0.00000000000E+00 -0.32617372024E+03  0.32617372028E+03  0.50400001928E-02 0.  1.
    10030    2    1    2    0    0  0.00000000000E+00  0.00000000000E+00  0.54067839525E+02  0.70641528007E+03  0.70434311003E+03 0.  0.
        5    1    3    3  502    0  0.70023313527E+02 -0.18860952060E+03 -0.26282481486E+03  0.33102233914E+03  0.46999998093E+01 0.  1.
       -5    1    3    3    0  502 -0.70023313527E+02  0.18860952060E+03  0.31689265439E+03  0.37539294093E+03  0.46999998093E+01 0. -1.
</event>
<event>
 5   0  0.3113940E-02  0.7017546E+03  0.7818609E-02  0.9714236E-01
        2   -1    0    0  501    0  0.00000000000E+00  0.00000000000E+00  0.20088046896E+03  0.20088046897E+03  0.25500000920E-02 0. -1.
       -2   -1    0    0    0  501  0.00000000000E+00  0.00000000000E+00 -0.61287624132E+03  0.61287624133E+03  0.25500000920E-02 0.  1.
    10030    2    1    2    0    0  0.00000000000E+00  0.00000000000E+00 -0.41199577236E+03  0.81375671030E+03  0.70175456330E+03 0.  0.
        5    1    3    3  502    0  0.93480097676E+02  0.32293019671E+03 -0.89630488657E+02  0.34796286454E+03  0.46999998093E+01 0. -1.
       -5    1    3    3    0  502 -0.93480097676E+02 -0.32293019671E+03 -0.32236528371E+03  0.46579384576E+03  0.46999998093E+01 0.  1.
</event>
<event>
 5   0  0.3290656E-02  0.7079622E+03  0.7818609E-02  0.9703712E-01
       -2   -1    0    0    0  501  0.00000000000E+00  0.00000000000E+00  0.16903421939E+03  0.16903421941E+03  0.25500000920E-02 0. -1.
        2   -1    0    0  501    0  0.00000000000E+00  0.00000000000E+00 -0.74128543050E+03  0.74128543050E+03  0.25500000920E-02 0.  1.
    10030    2    1    2    0    0  0.00000000000E+00  0.00000000000E+00 -0.57225121110E+03  0.91031964991E+03  0.70796215747E+03 0.  0.
        1    1    3    3  502    0 -0.17435256049E+03  0.17413838842E+03 -0.61288763422E+03  0.66057115126E+03  0.50400001928E-02 0.  1.
       -1    1    3    3    0  502  0.17435256049E+03 -0.17413838842E+03  0.40636423118E+02  0.24974849866E+03  0.50400001928E-02 0. -1.
</event>
<event>
 5   0  0.3183963E-02  0.7086516E+03  0.7818609E-02  0.9702550E-01
       -2   -1    0    0    0  501  0.00000000000E+00  0.00000000000E+00  0.22388467127E+03  0.22388467128E+03  0.25500000920E-02 0. -1.
        2   -1    0    0  501    0  0.00000000000E+00  0.00000000000E+00 -0.56076530656E+03  0.56076530657E+03  0.25500000920E-02 0.  1.
    10030    2    1    2    0    0  0.00000000000E+00  0.00000000000E+00 -0.33688063530E+03  0.78464997785E+03  0.70865155422E+03 0.  0.
        4    1    3    3  502    0  0.24733580647E+03  0.21279843272E+03 -0.15468400247E+02  0.32664821817E+03  0.12699999809E+01 0. -1.
       -4    1    3    3    0  502 -0.24733580647E+03 -0.21279843272E+03 -0.32141223505E+03  0.45800175968E+03  0.12699999809E+01 0.  1.
</event>
<event>
 5   0  0.1884172E-02  0.8144770E+03  0.7818609E-02  0.9539295E-01
       -1   -1    0    0    0  501  0.00000000000E+00  0.00000000000E+00  0.13959255720E+03  0.13959255730E+03  0.50400001928E-02 0. -1.
        1   -1    0    0  501    0  0.00000000000E+00  0.00000000000E+00 -0.11880518086E+04  0.11880518087E+04  0.50400001928E-02 0.  1.
    10030    2    1    2    0    0  0.00000000000E+00  0.00000000000E+00 -0.10484592514E+04  0.13276443659E+04  0.81447698587E+03 0.  0.
        3    1    3    3  502    0  0.17830394541E+03 -0.33730723905E+03 -0.75633236139E+03  0.84711694680E+03  0.10100000352E+00 0.  1.
       -3    1    3    3    0  502 -0.17830394541E+03  0.33730723905E+03 -0.29212689005E+03  0.48052741915E+03  0.10100000352E+00 0. -1.
</event>
<event>
 5   0  0.1951465E-02  0.7449531E+03  0.7818609E-02  0.9643302E-01
       -1   -1    0    0    0  501  0.00000000000E+00  0.00000000000E+00  0.52740259959E+03  0.52740259962E+03  0.50400001928E-02 0.  1.
        1   -1    0    0  501    0  0.00000000000E+00  0.00000000000E+00 -0.26306049191E+03  0.26306049196E+03  0.50400001928E-02 0. -1.
    10030    2    1    2    0    0  0.00000000000E+00  0.00000000000E+00  0.26434210769E+03  0.79046309157E+03  0.74495311882E+03 0.  0.
        4    1    3    3  502    0  0.31344222068E+02 -0.27980313597E+03  0.39092266974E+03  0.48176176869E+03  0.12699999809E+01 0.  1.
       -4    1    3    3    0  502 -0.31344222068E+02  0.27980313597E+03 -0.12658056205E+03  0.30870132288E+03  0.12699999809E+01 0. -1.
</event>
<event>
 5   0  0.3290656E-02  0.7110481E+03  0.7818609E-02  0.9698523E-01
       -2   -1    0    0    0  501  0.00000000000E+00  0.00000000000E+00  0.40172238996E+03  0.40172238996E+03  0.25500000920E-02 0.  1.
        2   -1    0    0  501    0  0.00000000000E+00  0.00000000000E+00 -0.31463854497E+03  0.31463854498E+03  0.25500000920E-02 0. -1.
    10030    2    1    2    0    0  0.00000000000E+00  0.00000000000E+00  0.87083844981E+02  0.71636093495E+03  0.71104809476E+03 0.  0.
        1    1    3    3  502    0 -0.21693707088E+03 -0.21740951385E+03 -0.13687363853E+03  0.33624839388E+03  0.50400001928E-02 0. -1.
       -1    1    3    3    0  502  0.21693707088E+03  0.21740951385E+03  0.22395748351E+03  0.38011254107E+03  0.50400001928E-02 0.  1.
</event>
<event>
 5   0  0.1951465E-02  0.6960771E+03  0.7818609E-02  0.9723964E-01
        1   -1    0    0  501    0  0.00000000000E+00  0.00000000000E+00  0.59331236780E+03  0.59331236782E+03  0.50400001928E-02 0.  1.
       -1   -1    0    0    0  501  0.00000000000E+00  0.00000000000E+00 -0.20416031452E+03  0.20416031458E+03  0.50400001928E-02 0. -1.
    10030    2    1    2    0    0  0.00000000000E+00  0.00000000000E+00  0.38915205329E+03  0.79747268240E+03  0.69607712116E+03 0.  0.
        4    1    3    3  502    0  0.29144352733E+03 -0.83108233361E+02  0.39062548029E+03  0.49440488147E+03  0.12699999809E+01 0.  1.
       -4    1    3    3    0  502 -0.29144352733E+03  0.83108233361E+02 -0.14734269993E+01  0.30306780093E+03  0.12699999809E+01 0. -1.
</event>
<event>
 5   0  0.3183963E-02  0.7080554E+03  0.7818609E-02  0.9703555E-01
       -2   -1    0    0    0  501  0.00000000000E+00  0.00000000000E+00  0.67291399164E+02  0.67291399213E+02  0.25500000920E-02 0.  1.
        2   -1    0    0  501    0  0.00000000000E+00  0.00000000000E+00 -0.18625799628E+04  0.18625799628E+04  0.25500000920E-02 0. -1.
    10030    2    1    2    0    0  0.00000000000E+00  0.00000000000E+00 -0.17952885636E+04  0.19298713620E+04  0.70805539840E+03 0.  0.
        4    1    3    3  502    0  0.21560756986E+03 -0.24831228106E+03 -0.54030672008E+03  0.63251765016E+03  0.12699999809E+01 0.  1.
       -4    1    3    3    0  502 -0.21560756986E+03  0.24831228106E+03 -0.12549818435E+04  0.12973537118E+04  0.12699999809E+01 0. -1.
</event>
<event>
 5   0  0.3113940E-02  0.6974754E+03  0.7818609E-02  0.9721559E-01
        2   -1    0    0  501    0  0.00000000000E+00  0.00000000000E+00  0.17991654310E+04  0.17991654311E+04  0.25500000920E-02 0.  1.
       -2   -1    0    0    0  501  0.00000000000E+00  0.00000000000E+00 -0.67596884747E+02  0.67596884795E+02  0.25500000920E-02 0. -1.
    10030    2    1    2    0    0  0.00000000000E+00  0.00000000000E+00  0.17315685463E+04  0.18667623158E+04  0.69747538546E+03 0.  0.
        5    1    3    3  502    0 -0.26131236466E+03  0.21905544230E+03  0.67044973013E+03  0.75219303995E+03  0.46999998093E+01 0.  1.
       -5    1    3    3    0  502  0.26131236466E+03 -0.21905544230E+03  0.10611188162E+04  0.11145692759E+04  0.46999998093E+01 0. -1.
</event>
<event>
 5   0  0.3113940E-02  0.7049334E+03  0.7818609E-02  0.9708833E-01
       -2   -1    0    0    0  501  0.00000000000E+00  0.00000000000E+00  0.25258732563E+03  0.25258732564E+03  0.25500000920E-02 0.  1.
        2   -1    0    0  501    0  0.00000000000E+00  0.00000000000E+00 -0.49184082886E+03  0.49184082887E+03  0.25500000920E-02 0. -1.
    10030    2    1    2    0    0  0.00000000000E+00  0.00000000000E+00 -0.23925350323E+03  0.74442815451E+03  0.70493335743E+03 0.  0.
        5    1    3    3  502    0  0.60195817200E+02  0.33002563151E+03 -0.23370797515E+03  0.40887890813E+03  0.46999998093E+01 0. -1.
       -5    1    3    3    0  502 -0.60195817200E+02 -0.33002563151E+03 -0.55455280808E+01  0.33554924638E+03  0.46999998093E+01 0.  1.
</event>
<event>
 5   0  0.1951465E-02  0.7412590E+03  0.7818609E-02  0.9649164E-01
       -1   -1    0    0    0  501  0.00000000000E+00  0.00000000000E+00  0.41594367128E+03  0.41594367132E+03  0.50400001928E-02 0.  1.
        1   -1    0    0  501    0  0.00000000000E+00  0.00000000000E+00 -0.33025198249E+03  0.33025198253E+03  0.50400001928E-02 0. -1.
    10030    2    1    2    0    0  0.00000000000E+00  0.00000000000E+00  0.85691688792E+02  0.74619565385E+03  0.74125898867E+03 0.  0.
        4    1    3    3  502    0  0.31371569157E+03  0.42046725897E+02 -0.15125724711E+03  0.35080739730E+03  0.12699999809E+01 0. -1.
       -4    1    3    3    0  502 -0.31371569157E+03 -0.42046725897E+02  0.23694893590E+03  0.39538825655E+03  0.12699999809E+01 0.  1.
</event>
<event>
 5   0  0.1951465E-02  0.7031572E+03  0.7818609E-02  0.9711848E-01
        1   -1    0    0  501    0  0.00000000000E+00  0.00000000000E+00  0.20399055776E+04  0.20399055776E+04  0.50400001928E-02 0.  1.
       -1   -1    0    0    0  501  0.00000000000E+00  0.00000000000E+00 -0.60594729356E+02  0.60594729566E+02  0.50400001928E-02 0. -1.
    10030    2    1    2    0    0  0.00000000000E+00  0.00000000000E+00  0.19793108482E+04  0.21005003071E+04  0.70315724162E+03 0.  0.
        4    1    3    3  502    0 -0.14756857349E+03 -0.64929467815E+02  0.19229644101E+04  0.19297113916E+04  0.12699999809E+01 0.  1.
       -4    1    3    3    0  502  0.14756857349E+03  0.64929467815E+02  0.56346438146E+02  0.17078891552E+03  0.12699999809E+01 0. -1.
</event>
<event>
 5   0  0.1233912E-02  0.6681266E+03  0.7818609E-02  0.9773348E-01
        3   -1    0    0  501    0  0.00000000000E+00  0.00000000000E+00  0.68387788687E+03  0.68387789433E+03  0.10100000352E+00 0. -1.
       -3   -1    0    0    0  501  0.00000000000E+00  0.00000000000E+00 -0.16318450758E+03  0.16318453883E+03  0.10100000352E+00 0.  1.
    10030    2    1    2    0    0  0.00000000000E+00  0.00000000000E+00  0.52069337929E+03  0.84706243316E+03  0.66812661257E+03 0.  0.
        1    1    3    3  502    0  0.15119615589E+03 -0.29332451045E+03  0.32620911267E+03  0.46401716693E+03  0.50400001928E-02 0. -1.
       -1    1    3    3    0  502 -0.15119615589E+03  0.29332451045E+03  0.19448426662E+03  0.38304526623E+03  0.50400001928E-02 0.  1.
</event>
<event>
 5   0  0.1969818E-02  0.6984013E+03  0.7818609E-02  0.9719970E-01
       -1   -1    0    0    0  501  0.00000000000E+00  0.00000000000E+00  0.57976037006E+03  0.57976037009E+03  0.50400001928E-02 0. -1.
        1   -1    0    0  501    0  0.00000000000E+00  0.00000000000E+00 -0.21033015198E+03  0.21033015204E+03  0.50400001928E-02 0.  1.
    10030    2    1    2    0    0  0.00000000000E+00  0.00000000000E+00  0.36943021808E+03  0.79009052213E+03  0.69840127944E+03 0.  0.
        1    1    3    3  502    0  0.18415193679E+03 -0.11139646438E+03  0.49580801016E+03  0.54050595839E+03  0.50400001928E-02 0. -1.
       -1    1    3    3    0  502 -0.18415193679E+03  0.11139646438E+03 -0.12637779207E+03  0.24958456373E+03  0.50400001928E-02 0.  1.
</event>
<event>
 5   0  0.3113940E-02  0.6972637E+03  0.7818609E-02  0.9721923E-01
       -2   -1    0    0    0  501  0.00000000000E+00  0.00000000000E+00  0.14053149008E+03  0.14053149010E+03  0.25500000920E-02 0. -1.
        2   -1    0    0  501    0  0.00000000000E+00  0.00000000000E+00 -0.86488922239E+03  0.86488922240E+03  0.25500000920E-02 0.  1.
    10030    2    1    2    0    0  0.00000000000E+00  0.00000000000E+00 -0.72435773232E+03  0.10054207125E+04  0.69726371249E+03 0.  0.
        5    1    3    3  502    0 -0.23401303084E+03  0.13170327895E+03 -0.68271483826E+03  0.73364125611E+03  0.46999998093E+01 0. -1.
       -5    1    3    3    0  502  0.23401303084E+03 -0.13170327895E+03 -0.41642894053E+02  0.27177945638E+03  0.46999998093E+01 0.  1.
</event>
<event>
 5   0  0.3183963E-02  0.7015108E+03  0.7818609E-02  0.9714652E-01
       -2   -1    0    0    0  501  0.00000000000E+00  0.00000000000E+00  0.26107191313E+03  0.26107191315E+03  0.25500000920E-02 0.  1.
        2   -1    0    0  501    0  0.00000000000E+00  0.00000000000E+00 -0.47124704577E+03  0.47124704578E+03  0.25500000920E-02 0. -1.
    10030    2    1    2    0    0  0.00000000000E+00  0.00000000000E+00 -0.21017513263E+03  0.73231895892E+03  0.70151084897E+03 0.  0.
        4    1    3    3  502    0  0.16712765499E+03 -0.29973585573E+03 -0.29416064362E+02  0.34444180062E+03  0.12699999809E+01 0.  1.
       -4    1    3    3    0  502 -0.16712765499E+03  0.29973585573E+03 -0.18075906827E+03  0.38787715830E+03  0.12699999809E+01 0. -1.
</event>
<event>
 5   0  0.3290656E-02  0.6971824E+03  0.7818609E-02  0.9722063E-01
       -2   -1    0    0    0  501  0.00000000000E+00  0.00000000000E+00  0.12632550937E+03  0.12632550939E+03  0.25500000920E-02 0.  1.
        2   -1    0    0  501    0  0.00000000000E+00  0.00000000000E+00 -0.96192629766E+03  0.96192629766E+03  0.25500000920E-02 0. -1.
    10030    2    1    2    0    0  0.00000000000E+00  0.00000000000E+00 -0.83560078829E+03  0.10882518071E+04  0.69718241384E+03 0.  0.
        1    1    3    3  502    0 -0.27758653426E+02 -0.34748217105E+03 -0.41593544088E+03  0.54269392206E+03  0.50400001928E-02 0. -1.
       -1    1    3    3    0  502  0.27758653426E+02  0.34748217105E+03 -0.41966534741E+03  0.54555788499E+03  0.50400001928E-02 0.  1.
</event>
<event>
 5   0  0.3290656E-02  0.6982753E+03  0.7818609E-02  0.9720186E-01
       -2   -1    0    0    0  501  0.00000000000E+00  0.00000000000E+00  0.38796876042E+03  0.38796876043E+03  0.25500000920E-02 0. -1.
        2   -1    0    0  501    0  0.00000000000E+00  0.00000000000E+00 -0.31419309555E+03  0.31419309556E+03  0.25500000920E-02 0.  1.
    10030    2    1    2    0    0  0.00000000000E+00  0.00000000000E+00  0.73775664869E+02  0.70216185600E+03  0.69827532055E+03 0.  0.
        1    1    3    3  502    0 -0.20787095311E+03  0.11203030282E+03  0.29548838582E+03  0.37825191087E+03  0.50400001928E-02 0. -1.
       -1    1    3    3    0  502  0.20787095311E+03 -0.11203030282E+03 -0.22171272095E+03  0.32390994513E+03  0.50400001928E-02 0.  1.
</event>
<event>
 5   0  0.1858013E-02  0.6469528E+03  0.7818609E-02  0.9812514E-01
       -1   -1    0    0    0  501  0.00000000000E+00  0.00000000000E+00  0.65322643773E+02  0.65322643968E+02  0.50400001928E-02 0. -1.
        1   -1    0    0  501    0  0.00000000000E+00  0.00000000000E+00 -0.16018485645E+04  0.16018485645E+04  0.50400001928E-02 0.  1.
    10030    2    1    2    0    0  0.00000000000E+00  0.00000000000E+00 -0.15365259207E+04  0.16671712085E+04  0.64695280609E+03 0.  0.
        2    1    3    3  502    0 -0.90695177417E+02  0.17314186319E+03 -0.10406063183E+03  0.22143246171E+03  0.25500000920E-02 0. -1.
       -2    1    3    3    0  502  0.90695177417E+02 -0.17314186319E+03 -0.14324652889E+04  0.14457387468E+04  0.25500000920E-02 0.  1.
</event>
<event>
 5   0  0.1839038E-02  0.7017104E+03  0.7818609E-02  0.9714312E-01
        1   -1    0    0  501    0  0.00000000000E+00  0.00000000000E+00  0.15012624153E+03  0.15012624162E+03  0.50400001928E-02 0. -1.
       -1   -1    0    0    0  501  0.00000000000E+00  0.00000000000E+00 -0.81997241450E+03  0.81997241451E+03  0.50400001928E-02 0.  1.
    10030    2    1    2    0    0  0.00000000000E+00  0.00000000000E+00 -0.66984617297E+03  0.97009865613E+03  0.70171041547E+03 0.  0.
        5    1    3    3  502    0  0.28440264660E+03 -0.20416532078E+03 -0.36611145347E+03  0.50658467206E+03  0.46999998093E+01 0.  1.
       -5    1    3    3    0  502 -0.28440264660E+03  0.20416532078E+03 -0.30373471950E+03  0.46351398407E+03  0.46999998093E+01 0. -1.
</event>
<event>
 5   0  0.3113940E-02  0.6784040E+03  0.7818609E-02  0.9754894E-01
       -2   -1    0    0    0  501  0.00000000000E+00  0.00000000000E+00  0.20707704006E+03  0.20707704008E+03  0.25500000920E-02 0.  1.
        2   -1    0    0  501    0  0.00000000000E+00  0.00000000000E+00 -0.55562889984E+03  0.55562889984E+03  0.25500000920E-02 0. -1.
    10030    2    1    2    0    0  0.00000000000E+00  0.00000000000E+00 -0.34855185978E+03  0.76270593992E+03  0.67840397392E+03 0.  0.
        5    1    3    3  502    0  0.18264665926E+03  0.54789210252E+02 -0.48962025418E+03  0.52546336028E+03  0.46999998093E+01 0. -1.
       -5    1    3    3    0  502 -0.18264665926E+03 -0.54789210252E+02  0.14106839440E+03  0.23724257964E+03  0.46999998093E+01 0.  1.
</event>
<event>
 5   0  0.1951465E-02  0.7016477E+03  0.7818609E-02  0.9714419E-01
       -1   -1    0    0    0  501  0.00000000000E+00  0.00000000000E+00  0.86901510624E+03  0.86901510625E+03  0.50400001928E-02 0. -1.
        1   -1    0    0  501    0  0.00000000000E+00  0.00000000000E+00 -0.14162856013E+03  0.14162856022E+03  0.50400001928E-02 0.  1.
    10030    2    1    2    0    0  0.00000000000E+00  0.00000000000E+00  0.72738654610E+03  0.10106436665E+04  0.70164765597E+03 0.  0.
        4    1    3    3  502    0 -0.17513438636E+03  0.27258642704E+03  0.55747920645E+03  0.64479461228E+03  0.12699999809E+01 0. -1.
       -4    1    3    3    0  502  0.17513438636E+03 -0.27258642704E+03  0.16990733965E+03  0.36584905420E+03  0.12699999809E+01 0.  1.
</event>
<event>
 5   0  0.2933851E-02  0.6945770E+03  0.7818609E-02  0.9726551E-01
       -2   -1    0    0    0  501  0.00000000000E+00  0.00000000000E+00  0.89995768572E+03  0.89995768572E+03  0.25500000920E-02 0. -1.
        2   -1    0    0  501    0  0.00000000000E+00  0.00000000000E+00 -0.13401665532E+03  0.13401665535E+03  0.25500000920E-02 0.  1.
    10030    2    1    2    0    0  0.00000000000E+00  0.00000000000E+00  0.76594103040E+03  0.10339743411E+04  0.69457704825E+03 0.  0.
        2    1    3    3  502    0  0.27194047007E+03 -0.19815479090E+03  0.51096210474E+03  0.61179997786E+03  0.25500000920E-02 0. -1.
       -2    1    3    3    0  502 -0.27194047007E+03  0.19815479090E+03  0.25497892566E+03  0.42217436322E+03  0.25500000920E-02 0.  1.
</event>
<event>
 5   0  0.1969818E-02  0.7055985E+03  0.7818609E-02  0.9707706E-01
        1   -1    0    0  501    0  0.00000000000E+00  0.00000000000E+00  0.47575947352E+03  0.47575947354E+03  0.50400001928E-02 0.  1.
       -1   -1    0    0    0  501  0.00000000000E+00  0.00000000000E+00 -0.26161811113E+03  0.26161811118E+03  0.50400001928E-02 0. -1.
    10030    2    1    2    0    0  0.00000000000E+00  0.00000000000E+00  0.21414136238E+03  0.73737758473E+03  0.70559845477E+03 0.  0.
        1    1    3    3  502    0  0.16355459476E+03  0.15325059741E+03  0.39179611553E+03  0.45137572736E+03  0.50400001928E-02 0.  1.
       -1    1    3    3    0  502 -0.16355459476E+03 -0.15325059741E+03 -0.17765475315E+03  0.28600185737E+03  0.50400001928E-02 0. -1.
</event>
<event>
 5   0  0.3184443E-02  0.7372284E+03  0.7818609E-02  0.9655603E-01
       -2   -1    0    0    0  501  0.00000000000E+00  0.00000000000E+00  0.48771649214E+03  0.48771649215E+03  0.25500000920E-02 0. -1.
        2   -1    0    0  501    0  0.00000000000E+00  0.00000000000E+00 -0.27859718218E+03  0.27859718220E+03  0.25500000920E-02 0.  1.
    10030    2    1    2    0    0  0.00000000000E+00  0.00000000000E+00  0.20911930996E+03  0.76631367434E+03  0.73722843250E+03 0.  0.
        3    1    3    3  502    0 -0.27610329542E+03 -0.23917331697E+03  0.53219505426E+02  0.36914662568E+03  0.10100000352E+00 0. -1.
       -3    1    3    3    0  502  0.27610329542E+03  0.23917331697E+03  0.15589980453E+03  0.39716704866E+03  0.10100000352E+00 0.  1.
</event>
<event>
 5   0  0.3113940E-02  0.7047980E+03  0.7818609E-02  0.9709062E-01
        2   -1    0    0  501    0  0.00000000000E+00  0.00000000000E+00  0.12523989032E+04  0.12523989032E+04  0.25500000920E-02 0.  1.
       -2   -1    0    0    0  501  0.00000000000E+00  0.00000000000E+00 -0.99157742671E+02  0.99157742704E+02  0.25500000920E-02 0. -1.
    10030    2    1    2    0    0  0.00000000000E+00  0.00000000000E+00  0.11532411605E+04  0.13515566459E+04  0.70479798010E+03 0.  0.
        5    1    3    3  502    0  0.60094558333E+02 -0.20660494955E+03  0.41510014520E+02  0.21918515557E+03  0.46999998093E+01 0. -1.
       -5    1    3    3    0  502 -0.60094558333E+02  0.20660494955E+03  0.11117311460E+04  0.11323714903E+04  0.46999998093E+01 0.  1.
</event>
<event>
 5   0  0.1969818E-02  0.6949307E+03  0.7818609E-02  0.9725941E-01
       -1   -1    0    0    0  501  0.00000000000E+00  0.00000000000E+00  0.20958179201E+03  0.20958179207E+03  0.50400001928E-02 0.  1.
        1   -1    0    0  501    0  0.00000000000E+00  0.00000000000E+00 -0.57606228260E+03  0.57606228262E+03  0.50400001928E-02 0. -1.
    10030    2    1    2    0    0  0.00000000000E+00  0.00000000000E+00 -0.36648049059E+03  0.78564407469E+03  0.69493068871E+03 0.  0.
        1    1    3    3  502    0  0.82947829020E+02 -0.52450829663E+02 -0.56006793860E+03  0.56860137860E+03  0.50400001928E-02 0. -1.
       -1    1    3    3    0  502 -0.82947829020E+02  0.52450829663E+02  0.19358744802E+03  0.21704269609E+03  0.50400001928E-02 0.  1.
</event>
<event>
 5   0  0.1951465E-02  0.6970676E+03  0.7818609E-02  0.9722260E-01
       -1   -1    0    0    0  501  0.00000000000E+00  0.00000000000E+00  0.13980450848E+03  0.13980450858E+03  0.50400001928E-02 0.  1.
        1   -1    0    0  501    0  0.00000000000E+00  0.00000000000E+00 -0.86889754787E+03  0.86889754789E+03  0.50400001928E-02 0. -1.
    10030    2    1    2    0    0  0.00000000000E+00  0.00000000000E+00 -0.72909303939E+03  0.10087020565E+04  0.69706755672E+03 0.  0.
        4    1    3    3  502    0 -0.21636243443E+03 -0.23950565895E+03 -0.55487005044E+03  0.64191747871E+03  0.12699999809E+01 0. -1.
       -4    1    3    3    0  502  0.21636243443E+03  0.23950565895E+03 -0.17422298895E+03  0.36678457775E+03  0.12699999809E+01 0.  1.
</event>
<event>
 5   0  0.1839038E-02  0.7051017E+03  0.7818609E-02  0.9708547E-01
       -1   -1    0    0    0  501  0.00000000000E+00  0.00000000000E+00  0.58191246236E+03  0.58191246238E+03  0.50400001928E-02 0.  1.
        1   -1    0    0  501    0  0.00000000000E+00  0.00000000000E+00 -0.21359246272E+03  0.21359246278E+03  0.50400001928E-02 0. -1.
    10030    2    1    2    0    0  0.00000000000E+00  0.00000000000E+00  0.36831999964E+03  0.79550492516E+03  0.70510174005E+03 0.  0.
        5    1    3    3  502    0  0.16374896601E+03 -0.30663780330E+03  0.25023090679E+03  0.42834339378E+03  0.46999998093E+01 0.  1.
       -5    1    3    3    0  502 -0.16374896601E+03  0.30663780330E+03  0.11808909285E+03  0.36716153139E+03  0.46999998093E+01 0. -1.
</event>
<event>
 5   0  0.1839038E-02  0.7046059E+03  0.7818609E-02  0.9709388E-01
        1   -1    0    0  501    0  0.00000000000E+00  0.00000000000E+00  0.11120129376E+03  0.11120129388E+03  0.50400001928E-02 0. -1.
       -1   -1    0    0    0  501  0.00000000000E+00  0.00000000000E+00 -0.11161504314E+04  0.11161504314E+04  0.50400001928E-02 0.  1.
    10030    2    1    2    0    0  0.00000000000E+00  0.00000000000E+00 -0.10049491377E+04  0.12273517253E+04  0.70460590995E+03 0.  0.
        5    1    3    3  502    0  0.28045925523E+03  0.38227086993E+02 -0.13718819493E+03  0.31458130086E+03  0.46999998093E+01 0. -1.
       -5    1    3    3    0  502 -0.28045925523E+03 -0.38227086993E+02 -0.86776094273E+03  0.91277042445E+03  0.46999998093E+01 0.  1.
</event>
<event>
 5   0  0.3113940E-02  0.6834788E+03  0.7818609E-02  0.9745910E-01
        2   -1    0    0  501    0  0.00000000000E+00  0.00000000000E+00  0.18500250346E+04  0.18500250346E+04  0.25500000920E-02 0.  1.
       -2   -1    0    0    0  501  0.00000000000E+00  0.00000000000E+00 -0.63126607229E+02  0.63126607281E+02  0.25500000920E-02 0. -1.
    10030    2    1    2    0    0  0.00000000000E+00  0.00000000000E+00  0.17868984274E+04  0.19131516419E+04  0.68347875980E+03 0.  0.
        5    1    3    3  502    0 -0.28384618732E+03 -0.18358742676E+03  0.75375250683E+03  0.82609801650E+03  0.46999998093E+01 0.  1.
       -5    1    3    3    0  502  0.28384618732E+03  0.18358742676E+03  0.10331459205E+04  0.10870536254E+04  0.46999998093E+01 0. -1.
</event>
<event>
 5   0  0.3113940E-02  0.6753726E+03  0.7818609E-02  0.9760301E-01
        2   -1    0    0  501    0  0.00000000000E+00  0.00000000000E+00  0.30725045972E+03  0.30725045973E+03  0.25500000920E-02 0.  1.
       -2   -1    0    0    0  501  0.00000000000E+00  0.00000000000E+00 -0.37113712228E+03  0.37113712229E+03  0.25500000920E-02 0. -1.
    10030    2    1    2    0    0  0.00000000000E+00  0.00000000000E+00 -0.63886662565E+02  0.67838758202E+03  0.67537264217E+03 0.  0.
        5    1    3    3  502    0 -0.14636365636E+03 -0.12378028944E+02 -0.33733086127E+03  0.36795344198E+03  0.46999998093E+01 0. -1.
       -5    1    3    3    0  502  0.14636365636E+03  0.12378028944E+02  0.27344419870E+03  0.31043414004E+03  0.46999998093E+01 0.  1.
</event>
<event>
 5   0  0.3184443E-02  0.6971450E+03  0.7818609E-02  0.9722127E-01
        2   -1    0    0  501    0  0.00000000000E+00  0.00000000000E+00  0.59614933084E+03  0.59614933085E+03  0.25500000920E-02 0.  1.
       -2   -1    0    0    0  501  0.00000000000E+00  0.00000000000E+00 -0.20381267983E+03  0.20381267985E+03  0.25500000920E-02 0. -1.
    10030    2    1    2    0    0  0.00000000000E+00  0.00000000000E+00  0.39233665101E+03  0.79996201070E+03  0.69714501421E+03 0.  0.
        3    1    3    3  502    0  0.27481437202E+03  0.19618434222E+03  0.29548724830E+03  0.44869138538E+03  0.10100000352E+00 0. -1.
       -3    1    3    3    0  502 -0.27481437202E+03 -0.19618434222E+03  0.96849402705E+02  0.35127062532E+03  0.10100000352E+00 0.  1.
</event>
<event>
 5   0  0.3113940E-02  0.7178691E+03  0.7818609E-02  0.9687152E-01
       -2   -1    0    0    0  501  0.00000000000E+00  0.00000000000E+00  0.21262129323E+03  0.21262129325E+03  0.25500000920E-02 0. -1.
        2   -1    0    0  501    0  0.00000000000E+00  0.00000000000E+00 -0.60593177313E+03  0.60593177314E+03  0.25500000920E-02 0.  1.
    10030    2    1    2    0    0  0.00000000000E+00  0.00000000000E+00 -0.39331047990E+03  0.81855306638E+03  0.71786906110E+03 0.  0.
        5    1    3    3  502    0 -0.19768524838E+03  0.28682720169E+03 -0.29515765188E+03  0.45660642847E+03  0.46999998093E+01 0.  1.
       -5    1    3    3    0  502  0.19768524838E+03 -0.28682720169E+03 -0.98152828015E+02  0.36194663792E+03  0.46999998093E+01 0. -1.
</event>
<event>
 5   0  0.1858013E-02  0.7187387E+03  0.7818609E-02  0.9685712E-01
        1   -1    0    0  501    0  0.00000000000E+00  0.00000000000E+00  0.10061677215E+04  0.10061677215E+04  0.50400001928E-02 0. -1.
       -1   -1    0    0    0  501  0.00000000000E+00  0.00000000000E+00 -0.12835467596E+03  0.12835467606E+03  0.50400001928E-02 0.  1.
    10030    2    1    2    0    0  0.00000000000E+00  0.00000000000E+00  0.87781304557E+03  0.11345223976E+04  0.71873870613E+03 0.  0.
        2    1    3    3  502    0 -0.84153373341E+02  0.11410820813E+02 -0.11228819548E+03  0.14078578028E+03  0.25500000920E-02 0.  1.
       -2    1    3    3    0  502  0.84153373341E+02 -0.11410820813E+02  0.99010124106E+03  0.99373661733E+03  0.25500000920E-02 0. -1.
</event>
<event>
 5   0  0.3184443E-02  0.7010696E+03  0.7818609E-02  0.9715405E-01
       -2   -1    0    0    0  501  0.00000000000E+00  0.00000000000E+00  0.11215653126E+03  0.11215653129E+03  0.25500000920E-02 0. -1.
        2   -1    0    0  501    0  0.00000000000E+00  0.00000000000E+00 -0.10955639885E+04  0.10955639885E+04  0.25500000920E-02 0.  1.
    10030    2    1    2    0    0  0.00000000000E+00  0.00000000000E+00 -0.98340745726E+03  0.12077205198E+04  0.70106963062E+03 0.  0.
        3    1    3    3  502    0 -0.16871119409E+03 -0.20456307851E+03 -0.96742788933E+02  0.28225643928E+03  0.10100000352E+00 0. -1.
       -3    1    3    3    0  502  0.16871119409E+03  0.20456307851E+03 -0.88666466832E+03  0.92546408053E+03  0.10100000352E+00 0.  1.
</event>
<event>
 5   0  0.2933851E-02  0.6925579E+03  0.7818609E-02  0.9730044E-01
        2   -1    0    0  501    0  0.00000000000E+00  0.00000000000E+00  0.76435368649E+02  0.76435368691E+02  0.25500000920E-02 0. -1.
       -2   -1    0    0    0  501  0.00000000000E+00  0.00000000000E+00 -0.15687648283E+04  0.15687648283E+04  0.25500000920E-02 0.  1.
    10030    2    1    2    0    0  0.00000000000E+00  0.00000000000E+00 -0.14923294597E+04  0.16452001970E+04  0.69255791964E+03 0.  0.
        2    1    3    3  502    0  0.34116362736E+03  0.22786462726E+02 -0.87621938792E+03  0.94057017776E+03  0.25500000920E-02 0.  1.
       -2    1    3    3    0  502 -0.34116362736E+03 -0.22786462726E+02 -0.61611007176E+03  0.70463001927E+03  0.25500000920E-02 0. -1.
</event>
<event>
 5   0  0.3184443E-02  0.7080574E+03  0.7818609E-02  0.9703551E-01
        2   -1    0    0  501    0  0.00000000000E+00  0.00000000000E+00  0.43658872917E+03  0.43658872918E+03  0.25500000920E-02 0. -1.
       -2   -1    0    0    0  501  0.00000000000E+00  0.00000000000E+00 -0.28708098833E+03  0.28708098835E+03  0.25500000920E-02 0.  1.
    10030    2    1    2    0    0  0.00000000000E+00  0.00000000000E+00  0.14950774084E+03  0.72366971753E+03  0.70805740974E+03 0.  0.
        3    1    3    3  502    0 -0.35516012803E+01 -0.21306802405E+03 -0.21419113905E+03  0.30213978718E+03  0.10100000352E+00 0.  1.
       -3    1    3    3    0  502  0.35516012803E+01  0.21306802405E+03  0.36369887989E+03  0.42152993035E+03  0.10100000352E+00 0. -1.
</event>
<event>
 5   0  0.1858013E-02  0.6761819E+03  0.7818609E-02  0.9758854E-01
        1   -1    0    0  501    0  0.00000000000E+00  0.00000000000E+00  0.35234390296E+03  0.35234390299E+03  0.50400001928E-02 0.  1.
       -1   -1    0    0    0  501  0.00000000000E+00  0.00000000000E+00 -0.32441455501E+03  0.32441455505E+03  0.50400001928E-02 0. -1.
    10030    2    1    2    0    0  0.00000000000E+00  0.00000000000E+00  0.27929347943E+02  0.67675845805E+03  0.67618190013E+03 0.  0.
        2    1    3    3  502    0  0.10584594846E+03 -0.25791794765E+03  0.20538793920E+03  0.34627913321E+03  0.25500000920E-02 0.  1.
       -2    1    3    3    0  502 -0.10584594846E+03  0.25791794765E+03 -0.17745859125E+03  0.33047932483E+03  0.25500000920E-02 0. -1.
</event>
<event>
 5   0  0.2933851E-02  0.6990879E+03  0.7818609E-02  0.9718793E-01
       -2   -1    0    0    0  501  0.00000000000E+00  0.00000000000E+00  0.24164705869E+03  0.24164705870E+03  0.25500000920E-02 0.  1.
        2   -1    0    0  501    0  0.00000000000E+00  0.00000000000E+00 -0.50561752734E+03  0.50561752734E+03  0.25500000920E-02 0. -1.
    10030    2    1    2    0    0  0.00000000000E+00  0.00000000000E+00 -0.26397046865E+03  0.74726458605E+03  0.69908794385E+03 0.  0.
        2    1    3    3  502    0 -0.27823046270E+03 -0.33484489297E+02 -0.35530270870E+03  0.45251896779E+03  0.25500000920E-02 0. -1.
       -2    1    3    3    0  502  0.27823046270E+03  0.33484489297E+02  0.91332240049E+02  0.29474561825E+03  0.25500000920E-02 0.  1.
</event>
<event>
 5   0  0.1951465E-02  0.6985774E+03  0.7818609E-02  0.9719668E-01
       -1   -1    0    0    0  501  0.00000000000E+00  0.00000000000E+00  0.45516298205E+03  0.45516298208E+03  0.50400001928E-02 0. -1.
        1   -1    0    0  501    0  0.00000000000E+00  0.00000000000E+00 -0.26804154163E+03  0.26804154168E+03  0.50400001928E-02 0.  1.
    10030    2    1    2    0    0  0.00000000000E+00  0.00000000000E+00  0.18712144042E+03  0.72320452376E+03  0.69857737561E+03 0.  0.
        4    1    3    3  502    0 -0.12646287138E+03 -0.23094818308E+03 -0.14403172105E+03  0.30012775725E+03  0.12699999809E+01 0.  1.
       -4    1    3    3    0  502  0.12646287138E+03  0.23094818308E+03  0.33115316147E+03  0.42307676651E+03  0.12699999809E+01 0. -1.
</event>
<event>
 5   0  0.1951465E-02  0.6073984E+03  0.7818609E-02  0.9890174E-01
        1   -1    0    0  501    0  0.00000000000E+00  0.00000000000E+00  0.58481605673E+03  0.58481605675E+03  0.50400001928E-02 0.  1.
       -1   -1    0    0    0  501  0.00000000000E+00  0.00000000000E+00 -0.15771319924E+03  0.15771319932E+03  0.50400001928E-02 0. -1.
    10030    2    1    2    0    0  0.00000000000E+00  0.00000000000E+00  0.42710285749E+03  0.74252925606E+03  0.60739842380E+03 0.  0.
        4    1    3    3  502    0 -0.23183677853E+03 -0.46493736397E+02  0.44653356766E+03  0.50527596356E+03  0.12699999809E+01 0.  1.
       -4    1    3    3    0  502  0.23183677853E+03  0.46493736397E+02 -0.19430710174E+02  0.23725329250E+03  0.12699999809E+01 0. -1.
</event>
<event>
 5   0  0.3183963E-02  0.7041273E+03  0.7818609E-02  0.9710200E-01
        2   -1    0    0  501    0  0.00000000000E+00  0.00000000000E+00  0.16397724918E+03  0.16397724920E+03  0.25500000920E-02 0. -1.
       -2   -1    0    0    0  501  0.00000000000E+00  0.00000000000E+00 -0.75589032683E+03  0.75589032683E+03  0.25500000920E-02 0.  1.
    10030    2    1    2    0    0  0.00000000000E+00  0.00000000000E+00 -0.59191307765E+03  0.91986757603E+03  0.70412730805E+03 0.  0.
        4    1    3    3  502    0 -0.87697175139E+02  0.22112795269E+03 -0.63501252395E+03  0.67810831322E+03  0.12699999809E+01 0.  1.
       -4    1    3    3    0  502  0.87697175139E+02 -0.22112795269E+03  0.43099446295E+02  0.24175926282E+03  0.12699999809E+01 0. -1.
</event>
<event>
 5   0  0.1884172E-02  0.6958172E+03  0.7818609E-02  0.9724412E-01
        1   -1    0    0  501    0  0.00000000000E+00  0.00000000000E+00  0.31761213775E+03  0.31761213779E+03  0.50400001928E-02 0.  1.
       -1   -1    0    0    0  501  0.00000000000E+00  0.00000000000E+00 -0.38109502098E+03  0.38109502101E+03  0.50400001928E-02 0. -1.
    10030    2    1    2    0    0  0.00000000000E+00  0.00000000000E+00 -0.63482883228E+02  0.69870715880E+03  0.69581722981E+03 0.  0.
        3    1    3    3  502    0  0.13028926800E+03 -0.28277664120E+03  0.12415306347E+03  0.33518937264E+03  0.10100000352E+00 0.  1.
       -3    1    3    3    0  502 -0.13028926800E+03  0.28277664120E+03 -0.18763594670E+03  0.36351778616E+03  0.10100000352E+00 0. -1.
</event>
<event>
 5   0  0.1233912E-02  0.6924212E+03  0.7818609E-02  0.9730281E-01
        4   -1    0    0  501    0  0.00000000000E+00  0.00000000000E+00  0.90134120843E+03  0.90134210316E+03  0.12699999809E+01 0. -1.
       -4   -1    0    0    0  501  0.00000000000E+00  0.00000000000E+00 -0.13297760212E+03  0.13298366654E+03  0.12699999809E+01 0.  1.
    10030    2    1    2    0    0  0.00000000000E+00  0.00000000000E+00  0.76836360631E+03  0.10343257697E+04  0.69242123477E+03 0.  0.
        3    1    3    3  502    0 -0.24516465414E+03  0.82691360551E+02  0.40553007125E+02  0.26189334726E+03  0.10100000352E+00 0.  1.
       -3    1    3    3    0  502  0.24516465414E+03 -0.82691360551E+02  0.72781059919E+03  0.77243242244E+03  0.10100000352E+00 0. -1.
</event>
<event>
 5   0  0.3184443E-02  0.7000326E+03  0.7818609E-02  0.9717176E-01
        2   -1    0    0  501    0  0.00000000000E+00  0.00000000000E+00  0.18504239738E+04  0.18504239738E+04  0.25500000920E-02 0.  1.
       -2   -1    0    0    0  501  0.00000000000E+00  0.00000000000E+00 -0.66207210530E+02  0.66207210579E+02  0.25500000920E-02 0. -1.
    10030    2    1    2    0    0  0.00000000000E+00  0.00000000000E+00  0.17842167633E+04  0.19166311844E+04  0.70003259825E+03 0.  0.
        3    1    3    3  502    0  0.15927281253E+02  0.83343519033E+02  0.18218381690E+04  0.18238130783E+04  0.10100000352E+00 0.  1.
       -3    1    3    3    0  502 -0.15927281253E+02 -0.83343519033E+02 -0.37621405685E+02  0.92818106098E+02  0.10100000352E+00 0. -1.
</event>
<event>
 5   0  0.3184443E-02  0.6839800E+03  0.7818609E-02  0.9745028E-01
       -2   -1    0    0    0  501  0.00000000000E+00  0.00000000000E+00  0.18224528901E+03  0.18224528903E+03  0.25500000920E-02 0.  1.
        2   -1    0    0  501    0  0.00000000000E+00  0.00000000000E+00 -0.64175680285E+03  0.64175680285E+03  0.25500000920E-02 0. -1.
    10030    2    1    2    0    0  0.00000000000E+00  0.00000000000E+00 -0.45951151383E+03  0.82400209188E+03  0.68397998222E+03 0.  0.
        3    1    3    3  502    0  0.20830143861E+03 -0.11338814663E+03 -0.52659262357E+03  0.57753455526E+03  0.10100000352E+00 0. -1.
       -3    1    3    3    0  502 -0.20830143861E+03  0.11338814663E+03  0.67081109734E+02  0.24646753662E+03  0.10100000352E+00 0.  1.
</event>
<event>
 5   0  0.2933851E-02  0.7178632E+03  0.7818609E-02  0.9687162E-01
       -2   -1    0    0    0  501  0.00000000000E+00  0.00000000000E+00  0.21523748028E+03  0.21523748029E+03  0.25500000920E-02 0.  1.
        2   -1    0    0  501    0  0.00000000000E+00  0.00000000000E+00 -0.59855700709E+03  0.59855700710E+03  0.25500000920E-02 0. -1.
    10030    2    1    2    0    0  0.00000000000E+00  0.00000000000E+00 -0.38331952682E+03  0.81379448739E+03  0.71786322379E+03 0.  0.
        2    1    3    3  502    0 -0.58240193376E+02 -0.34107057101E+03 -0.29986603343E+03  0.45786536509E+03  0.25500000920E-02 0. -1.
       -2    1    3    3    0  502  0.58240193376E+02  0.34107057101E+03 -0.83453493384E+02  0.35592912230E+03  0.25500000920E-02 0.  1.
</event>
<event>
 5   0  0.1969818E-02  0.7051758E+03  0.7818609E-02  0.9708422E-01
       -1   -1    0    0    0  501  0.00000000000E+00  0.00000000000E+00  0.48811317637E+03  0.48811317639E+03  0.50400001928E-02 0.  1.
        1   -1    0    0  501    0  0.00000000000E+00  0.00000000000E+00 -0.25469140047E+03  0.25469140052E+03  0.50400001928E-02 0. -1.
    10030    2    1    2    0    0  0.00000000000E+00  0.00000000000E+00  0.23342177590E+03  0.74280457691E+03  0.70517580363E+03 0.  0.
        1    1    3    3  502    0  0.31610058624E+03 -0.48991254683E+02  0.27294424004E+03  0.42049765975E+03  0.50400001928E-02 0. -1.
       -1    1    3    3    0  502 -0.31610058624E+03  0.48991254683E+02 -0.39522464140E+02  0.32230691717E+03  0.50400001928E-02 0.  1.
</event>
<event>
 5   0  0.3183963E-02  0.6458248E+03  0.7818609E-02  0.9814645E-01
       -2   -1    0    0    0  501  0.00000000000E+00  0.00000000000E+00  0.87350142219E+02  0.87350142257E+02  0.25500000920E-02 0. -1.
        2   -1    0    0  501    0  0.00000000000E+00  0.00000000000E+00 -0.11937292801E+04  0.11937292801E+04  0.25500000920E-02 0.  1.
    10030    2    1    2    0    0  0.00000000000E+00  0.00000000000E+00 -0.11063791379E+04  0.12810794224E+04  0.64582481345E+03 0.  0.
        4    1    3    3  502    0 -0.94121889941E+02  0.15795272363E+02 -0.11651086499E+04  0.11690116337E+04  0.12699999809E+01 0.  1.
       -4    1    3    3    0  502  0.94121889941E+02 -0.15795272363E+02  0.58729511943E+02  0.11206778872E+03  0.12699999809E+01 0. -1.
</event>
<event>
 5   0  0.1884172E-02  0.6333850E+03  0.7818609E-02  0.9838465E-01
       -1   -1    0    0    0  501  0.00000000000E+00  0.00000000000E+00  0.91007092638E+02  0.91007092777E+02  0.50400001928E-02 0. -1.
        1   -1    0    0  501    0  0.00000000000E+00  0.00000000000E+00 -0.11020473321E+04  0.11020473321E+04  0.50400001928E-02 0.  1.
    10030    2    1    2    0    0  0.00000000000E+00  0.00000000000E+00 -0.10110402394E+04  0.11930544249E+04  0.63338495003E+03 0.  0.
        3    1    3    3  502    0 -0.16867800943E+02 -0.13286941586E+03  0.35032923759E+02  0.13844175789E+03  0.10100000352E+00 0. -1.
       -3    1    3    3    0  502  0.16867800943E+02  0.13286941586E+03 -0.10460731632E+04  0.10546126670E+04  0.10100000352E+00 0.  1.
</event>
<event>
 5   0  0.3184443E-02  0.6989828E+03  0.7818609E-02  0.9718973E-01
       -2   -1    0    0    0  501  0.00000000000E+00  0.00000000000E+00  0.31173913299E+03  0.31173913300E+03  0.25500000920E-02 0. -1.
        2   -1    0    0  501    0  0.00000000000E+00  0.00000000000E+00 -0.39181549023E+03  0.39181549024E+03  0.25500000920E-02 0.  1.
    10030    2    1    2    0    0  0.00000000000E+00  0.00000000000E+00 -0.80076357247E+02  0.70355462324E+03  0.69898275007E+03 0.  0.
        3    1    3    3  502    0  0.25262266315E+03  0.15999871065E+03  0.14204950493E+03  0.33105266862E+03  0.10100000352E+00 0. -1.
       -3    1    3    3    0  502 -0.25262266315E+03 -0.15999871065E+03 -0.22212586218E+03  0.37250195462E+03  0.10100000352E+00 0.  1.
</event>
<event>
 5   0  0.3113940E-02  0.7000879E+03  0.7818609E-02  0.9717082E-01
        2   -1    0    0  501    0  0.00000000000E+00  0.00000000000E+00  0.36284339849E+03  0.36284339850E+03  0.25500000920E-02 0. -1.
       -2   -1    0    0    0  501  0.00000000000E+00  0.00000000000E+00 -0.33769597855E+03  0.33769597856E+03  0.25500000920E-02 0.  1.
    10030    2    1    2    0    0  0.00000000000E+00  0.00000000000E+00  0.25147419938E+02  0.70053937706E+03  0.70008787026E+03 0.  0.
        5    1    3    3  502    0  0.21136651632E+03  0.10165732473E+03  0.27254628995E+03  0.35960198284E+03  0.46999998093E+01 0. -1.
       -5    1    3    3    0  502 -0.21136651632E+03 -0.10165732473E+03 -0.24739887002E+03  0.34093739422E+03  0.46999998093E+01 0.  1.
</event>
<event>
 5   0  0.1951465E-02  0.7013602E+03  0.7818609E-02  0.9714909E-01
       -1   -1    0    0    0  501  0.00000000000E+00  0.00000000000E+00  0.26864483990E+03  0.26864483994E+03  0.50400001928E-02 0.  1.
        1   -1    0    0  501    0  0.00000000000E+00  0.00000000000E+00 -0.45776625623E+03  0.45776625625E+03  0.50400001928E-02 0. -1.
    10030    2    1    2    0    0  0.00000000000E+00  0.00000000000E+00 -0.18912141633E+03  0.72641109620E+03  0.70136022882E+03 0.  0.
        4    1    3    3  502    0  0.25718813938E+03  0.38220160538E+02  0.14914873677E+03  0.29975569768E+03  0.12699999809E+01 0. -1.
       -4    1    3    3    0  502 -0.25718813938E+03 -0.38220160538E+02 -0.33827015310E+03  0.42665539852E+03  0.12699999809E+01 0.  1.
</event>
<event>
 5   0  0.1969818E-02  0.6953425E+03  0.7818609E-02  0.9725231E-01
       -1   -1    0    0    0  501  0.00000000000E+00  0.00000000000E+00  0.12838056436E+03  0.12838056446E+03  0.50400001928E-02 0. -1.
        1   -1    0    0  501    0  0.00000000000E+00  0.00000000000E+00 -0.94153879807E+03  0.94153879808E+03  0.50400001928E-02 0.  1.
    10030    2    1    2    0    0  0.00000000000E+00  0.00000000000E+00 -0.81315823371E+03  0.10699193625E+04  0.69534245469E+03 0.  0.
        1    1    3    3  502    0  0.18358853370E+03  0.24829557351E+03 -0.65238443837E+03  0.72177620977E+03  0.50400001928E-02 0.  1.
       -1    1    3    3    0  502 -0.18358853370E+03 -0.24829557351E+03 -0.16077379534E+03  0.34814315277E+03  0.50400001928E-02 0. -1.
</event>
<event>
 5   0  0.3290656E-02  0.6915385E+03  0.7818609E-02  0.9731813E-01
       -2   -1    0    0    0  501  0.00000000000E+00  0.00000000000E+00  0.14008498305E+03  0.14008498307E+03  0.25500000920E-02 0. -1.
        2   -1    0    0  501    0  0.00000000000E+00  0.00000000000E+00 -0.85345610758E+03  0.85345610758E+03  0.25500000920E-02 0.  1.
    10030    2    1    2    0    0  0.00000000000E+00  0.00000000000E+00 -0.71337112453E+03  0.99354109065E+03  0.69153852929E+03 0.  0.
        1    1    3    3  502    0  0.21073729268E+02 -0.61659521433E+02  0.13118393257E+03  0.14647601455E+03  0.50400001928E-02 0. -1.
       -1    1    3    3    0  502 -0.21073729268E+02  0.61659521433E+02 -0.84455505710E+03  0.84706507610E+03  0.50400001928E-02 0.  1.
</event>
<event>
 5   0  0.1951465E-02  0.6897734E+03  0.7818609E-02  0.9734883E-01
       -1   -1    0    0    0  501  0.00000000000E+00  0.00000000000E+00  0.24801762799E+03  0.24801762804E+03  0.50400001928E-02 0. -1.
        1   -1    0    0  501    0  0.00000000000E+00  0.00000000000E+00 -0.47959029037E+03  0.47959029039E+03  0.50400001928E-02 0.  1.
    10030    2    1    2    0    0  0.00000000000E+00  0.00000000000E+00 -0.23157266237E+03  0.72760791844E+03  0.68977343020E+03 0.  0.
        4    1    3    3  502    0  0.35255035278E+01 -0.22714145368E+02  0.24720624856E+03  0.24827586231E+03  0.12699999809E+01 0. -1.
       -4    1    3    3    0  502 -0.35255035278E+01  0.22714145368E+02 -0.47877891094E+03  0.47933205613E+03  0.12699999809E+01 0.  1.
</event>
<event>
 5   0  0.3113940E-02  0.6658594E+03  0.7818609E-02  0.9777467E-01
        2   -1    0    0  501    0  0.00000000000E+00  0.00000000000E+00  0.93593648102E+03  0.93593648102E+03  0.25500000920E-02 0.  1.
       -2   -1    0    0    0  501  0.00000000000E+00  0.00000000000E+00 -0.11842918350E+03  0.11842918353E+03  0.25500000920E-02 0. -1.
    10030    2    1    2    0    0  0.00000000000E+00  0.00000000000E+00  0.81750729751E+03  0.10543656645E+04  0.66585942442E+03 0.  0.
        5    1    3    3  502    0 -0.46208531845E+02  0.22583881189E+03  0.78905489763E+03  0.82205116559E+03  0.46999998093E+01 0.  1.
       -5    1    3    3    0  502  0.46208531845E+02 -0.22583881189E+03  0.28452399884E+02  0.23231449896E+03  0.46999998093E+01 0. -1.
</event>
<event>
 5   0  0.1858013E-02  0.7101197E+03  0.7818609E-02  0.9700081E-01
       -1   -1    0    0    0  501  0.00000000000E+00  0.00000000000E+00  0.46471565725E+03  0.46471565728E+03  0.50400001928E-02 0.  1.
        1   -1    0    0  501    0  0.00000000000E+00  0.00000000000E+00 -0.27127880043E+03  0.27127880048E+03  0.50400001928E-02 0. -1.
    10030    2    1    2    0    0  0.00000000000E+00  0.00000000000E+00  0.19343685682E+03  0.73599445776E+03  0.71011972531E+03 0.  0.
        2    1    3    3  502    0 -0.14122889569E+03  0.97203758227E+02  0.41897094446E+03  0.45269285824E+03  0.25500000920E-02 0.  1.
       -2    1    3    3    0  502  0.14122889569E+03 -0.97203758227E+02 -0.22553408764E+03  0.28330159952E+03  0.25500000920E-02 0. -1.
</event>
<event>
 5   0  0.1839038E-02  0.6959611E+03  0.7818609E-02  0.9724164E-01
       -1   -1    0    0    0  501  0.00000000000E+00  0.00000000000E+00  0.15877032462E+03  0.15877032470E+03  0.50400001928E-02 0.  1.
        1   -1    0    0  501    0  0.00000000000E+00  0.00000000000E+00 -0.76267689964E+03  0.76267689965E+03  0.50400001928E-02 0. -1.
    10030    2    1    2    0    0  0.00000000000E+00  0.00000000000E+00 -0.60390657502E+03  0.92144722435E+03  0.69596108793E+03 0.  0.
        5    1    3    3  502    0 -0.30234847359E+03 -0.83455841639E+02 -0.10252252409E+03  0.33001884026E+03  0.46999998093E+01 0.  1.
       -5    1    3    3    0  502  0.30234847359E+03  0.83455841639E+02 -0.50138405093E+03  0.59142838409E+03  0.46999998093E+01 0. -1.
</event>
<event>
 5   0  0.1969818E-02  0.7055416E+03  0.7818609E-02  0.9707802E-01
        1   -1    0    0  501    0  0.00000000000E+00  0.00000000000E+00  0.97171208373E+03  0.97171208375E+03  0.50400001928E-02 0. -1.
       -1   -1    0    0    0  501  0.00000000000E+00  0.00000000000E+00 -0.12807006684E+03  0.12807006694E+03  0.50400001928E-02 0.  1.
    10030    2    1    2    0    0  0.00000000000E+00  0.00000000000E+00  0.84364201689E+03  0.10997821507E+04  0.70554158369E+03 0.  0.
        1    1    3    3  502    0 -0.18402422282E+03 -0.20029561351E+03  0.77198768881E+03  0.81850365856E+03  0.50400001928E-02 0. -1.
       -1    1    3    3    0  502  0.18402422282E+03  0.20029561351E+03  0.71654328080E+02  0.28127849213E+03  0.50400001928E-02 0.  1.
</event>
<event>
 5   0  0.3113940E-02  0.7035408E+03  0.7818609E-02  0.9711196E-01
       -2   -1    0    0    0  501  0.00000000000E+00  0.00000000000E+00  0.24169992381E+03  0.24169992383E+03  0.25500000920E-02 0.  1.
        2   -1    0    0  501    0  0.00000000000E+00  0.00000000000E+00 -0.51196711577E+03  0.51196711577E+03  0.25500000920E-02 0. -1.
    10030    2    1    2    0    0  0.00000000000E+00  0.00000000000E+00 -0.27026719195E+03  0.75366703960E+03  0.70354079592E+03 0.  0.
        5    1    3    3  502    0  0.14129491091E+02 -0.24895773486E+03  0.13061534752E+03  0.28153517590E+03  0.46999998093E+01 0.  1.
       -5    1    3    3    0  502 -0.14129491091E+02  0.24895773486E+03 -0.40088253947E+03  0.47213186370E+03  0.46999998093E+01 0. -1.
</event>
<event>
 5   0  0.1858013E-02  0.7051389E+03  0.7818609E-02  0.9708484E-01
        1   -1    0    0  501    0  0.00000000000E+00  0.00000000000E+00  0.70305500109E+03  0.70305500111E+03  0.50400001928E-02 0.  1.
       -1   -1    0    0    0  501  0.00000000000E+00  0.00000000000E+00 -0.17680726865E+03  0.17680726872E+03  0.50400001928E-02 0. -1.
    10030    2    1    2    0    0  0.00000000000E+00  0.00000000000E+00  0.52624773244E+03  0.87986226983E+03  0.70513894941E+03 0.  0.
        2    1    3    3  502    0 -0.34383289788E+03  0.34339070926E+02  0.17573430839E+03  0.38766323092E+03  0.25500000920E-02 0.  1.
       -2    1    3    3    0  502  0.34383289788E+03 -0.34339070926E+02  0.35051342405E+03  0.49219903891E+03  0.25500000920E-02 0. -1.
</event>
<event>
 5   0  0.1884172E-02  0.6965879E+03  0.7818609E-02  0.9723085E-01
       -1   -1    0    0    0  501  0.00000000000E+00  0.00000000000E+00  0.55142090637E+03  0.55142090639E+03  0.50400001928E-02 0. -1.
        1   -1    0    0  501    0  0.00000000000E+00  0.00000000000E+00 -0.21999287678E+03  0.21999287684E+03  0.50400001928E-02 0.  1.
    10030    2    1    2    0    0  0.00000000000E+00  0.00000000000E+00  0.33142802959E+03  0.77141378323E+03  0.69658788833E+03 0.  0.
        3    1    3    3  502    0 -0.13978317242E+03  0.21458672008E+03  0.42712528031E+03  0.49801888620E+03  0.10100000352E+00 0. -1.
       -3    1    3    3    0  502  0.13978317242E+03 -0.21458672008E+03 -0.95697250723E+02  0.27339489703E+03  0.10100000352E+00 0.  1.
</event>
<event>
 5   0  0.3184443E-02  0.6995316E+03  0.7818609E-02  0.9718034E-01
       -2   -1    0    0    0  501  0.00000000000E+00  0.00000000000E+00  0.39218641577E+03  0.39218641577E+03  0.25500000920E-02 0. -1.
        2   -1    0    0  501    0  0.00000000000E+00  0.00000000000E+00 -0.31193357839E+03  0.31193357840E+03  0.25500000920E-02 0.  1.
    10030    2    1    2    0    0  0.00000000000E+00  0.00000000000E+00  0.80252837380E+02  0.70411999417E+03  0.69953159206E+03 0.  0.
        3    1    3    3  502    0  0.25526694411E+03  0.20808883852E+03  0.15868664121E+03  0.36557302659E+03  0.10100000352E+00 0. -1.
       -3    1    3    3    0  502 -0.25526694411E+03 -0.20808883852E+03 -0.78433803831E+02  0.33854696758E+03  0.10100000352E+00 0.  1.
</event>
<event>
 5   0  0.3113940E-02  0.7065699E+03  0.7818609E-02  0.9706062E-01
        2   -1    0    0  501    0  0.00000000000E+00  0.00000000000E+00  0.47083118987E+03  0.47083118987E+03  0.25500000920E-02 0. -1.
       -2   -1    0    0    0  501  0.00000000000E+00  0.00000000000E+00 -0.26508492784E+03  0.26508492785E+03  0.25500000920E-02 0.  1.
    10030    2    1    2    0    0  0.00000000000E+00  0.00000000000E+00  0.20574626203E+03  0.73591611773E+03  0.70656988897E+03 0.  0.
        5    1    3    3  502    0  0.93522369032E+01 -0.16513542221E+03  0.42797670718E+03  0.45885000151E+03  0.46999998093E+01 0. -1.
       -5    1    3    3    0  502 -0.93522369032E+01  0.16513542221E+03 -0.22223044515E+03  0.27706611621E+03  0.46999998093E+01 0.  1.
</event>
<event>
 5   0  0.3290656E-02  0.7078720E+03  0.7818609E-02  0.9703864E-01
        2   -1    0    0  501    0  0.00000000000E+00  0.00000000000E+00  0.11251634898E+03  0.11251634901E+03  0.25500000920E-02 0.  1.
       -2   -1    0    0    0  501  0.00000000000E+00  0.00000000000E+00 -0.11133555870E+04  0.11133555870E+04  0.25500000920E-02 0. -1.
    10030    2    1    2    0    0  0.00000000000E+00  0.00000000000E+00 -0.10008392380E+04  0.12258719360E+04  0.70787203867E+03 0.  0.
        1    1    3    3  502    0  0.45528128249E+02 -0.12371417961E+03 -0.10692546968E+04  0.10773502752E+04  0.50400001928E-02 0. -1.
       -1    1    3    3    0  502 -0.45528128249E+02  0.12371417961E+03  0.68415458833E+02  0.14852166081E+03  0.50400001928E-02 0.  1.
</event>
<event>
 5   0  0.1951465E-02  0.7008260E+03  0.7818609E-02  0.9715821E-01
       -1   -1    0    0    0  501  0.00000000000E+00  0.00000000000E+00  0.63333255103E+02  0.63333255303E+02  0.50400001928E-02 0. -1.
        1   -1    0    0  501    0  0.00000000000E+00  0.00000000000E+00 -0.19387804788E+04  0.19387804789E+04  0.50400001928E-02 0.  1.
    10030    2    1    2    0    0  0.00000000000E+00  0.00000000000E+00 -0.18754472237E+04  0.20021137342E+04  0.70082602367E+03 0.  0.
        4    1    3    3  502    0 -0.47863269504E+02 -0.14310369949E+03 -0.34245085494E+02  0.15473816645E+03  0.12699999809E+01 0. -1.
       -4    1    3    3    0  502  0.47863269504E+02  0.14310369949E+03 -0.18412021382E+04  0.18473755677E+04  0.12699999809E+01 0.  1.
</event>
<event>
 5   0  0.1884172E-02  0.7069816E+03  0.7818609E-02  0.9705367E-01
       -1   -1    0    0    0  501  0.00000000000E+00  0.00000000000E+00  0.17907349834E+03  0.17907349842E+03  0.50400001928E-02 0. -1.
        1   -1    0    0  501    0  0.00000000000E+00  0.00000000000E+00 -0.69779029120E+03  0.69779029122E+03  0.50400001928E-02 0.  1.
    10030    2    1    2    0    0  0.00000000000E+00  0.00000000000E+00 -0.51871679286E+03  0.87686378964E+03  0.70698160823E+03 0.  0.
        3    1    3    3  502    0  0.84404031210E+02 -0.24302206312E+03 -0.56004159521E+03  0.61630379053E+03  0.10100000352E+00 0.  1.
       -3    1    3    3    0  502 -0.84404031210E+02  0.24302206312E+03  0.41324802355E+02  0.26055999911E+03  0.10100000352E+00 0. -1.
</event>
<event>
 5   0  0.1969818E-02  0.7006485E+03  0.7818609E-02  0.9716124E-01
        1   -1    0    0  501    0  0.00000000000E+00  0.00000000000E+00  0.23456387001E+03  0.23456387007E+03  0.50400001928E-02 0. -1.
       -1   -1    0    0    0  501  0.00000000000E+00  0.00000000000E+00 -0.52321388048E+03  0.52321388050E+03  0.50400001928E-02 0.  1.
    10030    2    1    2    0    0  0.00000000000E+00  0.00000000000E+00 -0.28865001047E+03  0.75777775057E+03  0.70064847870E+03 0.  0.
        1    1    3    3  502    0  0.93480719296E+02  0.48890931421E+02  0.21697675341E+03  0.24126309208E+03  0.50400001928E-02 0. -1.
       -1    1    3    3    0  502 -0.93480719296E+02 -0.48890931421E+02 -0.50562676388E+03  0.51651465848E+03  0.50400001928E-02 0.  1.
</event>
<event>
 5   0  0.2933851E-02  0.6995763E+03  0.7818609E-02  0.9717957E-01
       -2   -1    0    0    0  501  0.00000000000E+00  0.00000000000E+00  0.22557156222E+03  0.22557156224E+03  0.25500000920E-02 0.  1.
        2   -1    0    0  501    0  0.00000000000E+00  0.00000000000E+00 -0.54240764799E+03  0.54240764799E+03  0.25500000920E-02 0. -1.
    10030    2    1    2    0    0  0.00000000000E+00  0.00000000000E+00 -0.31683608576E+03  0.76797921023E+03  0.69957627325E+03 0.  0.
        2    1    3    3  502    0 -0.30696933277E+03 -0.10327736689E+03 -0.13381068413E+02  0.32415341857E+03  0.25500000920E-02 0.  1.
       -2    1    3    3    0  502  0.30696933277E+03  0.10327736689E+03 -0.30345501735E+03  0.44382579165E+03  0.25500000920E-02 0. -1.
</event>
<event>
 5   0  0.1969818E-02  0.7081756E+03  0.7818609E-02  0.9703352E-01
       -1   -1    0    0    0  501  0.00000000000E+00  0.00000000000E+00  0.11073727862E+04  0.11073727862E+04  0.50400001928E-02 0.  1.
        1   -1    0    0  501    0  0.00000000000E+00  0.00000000000E+00 -0.11322129365E+03  0.11322129376E+03  0.50400001928E-02 0. -1.
    10030    2    1    2    0    0  0.00000000000E+00  0.00000000000E+00  0.99415149256E+03  0.12205940800E+04  0.70817562646E+03 0.  0.
        1    1    3    3  502    0  0.91077389162E+02  0.33655247092E+03  0.60354085923E+03  0.69701092193E+03  0.50400001928E-02 0. -1.
       -1    1    3    3    0  502 -0.91077389162E+02 -0.33655247092E+03  0.39061063333E+03  0.52358315805E+03  0.50400001928E-02 0.  1.
</event>
<event>
 5   0  0.1233912E-02  0.7042210E+03  0.7818609E-02  0.9710041E-01
       -4   -1    0    0    0  501  0.00000000000E+00  0.00000000000E+00  0.20808943257E+03  0.20809330803E+03  0.12699999809E+01 0.  1.
        4   -1    0    0  501    0  0.00000000000E+00  0.00000000000E+00 -0.59580003898E+03  0.59580139254E+03  0.12699999809E+01 0. -1.
    10030    2    1    2    0    0  0.00000000000E+00  0.00000000000E+00 -0.38771060641E+03  0.80389470057E+03  0.70422097049E+03 0.  0.
        1    1    3    3  502    0 -0.81955801032E+02  0.28168704477E+03  0.28429498414E+02  0.29474154936E+03  0.50400001928E-02 0.  1.
       -1    1    3    3    0  502  0.81955801032E+02 -0.28168704477E+03 -0.41614010482E+03  0.50915315121E+03  0.50400001928E-02 0. -1.
</event>
<event>
 5   0  0.1951465E-02  0.7064342E+03  0.7818609E-02  0.9706292E-01
       -1   -1    0    0    0  501  0.00000000000E+00  0.00000000000E+00  0.18339517289E+03  0.18339517296E+03  0.50400001928E-02 0.  1.
        1   -1    0    0  501    0  0.00000000000E+00  0.00000000000E+00 -0.68029221449E+03  0.68029221451E+03  0.50400001928E-02 0. -1.
    10030    2    1    2    0    0  0.00000000000E+00  0.00000000000E+00 -0.49689704160E+03  0.86368738746E+03  0.70643416771E+03 0.  0.
        4    1    3    3  502    0  0.48313641699E+02  0.48020668276E+02  0.17528561511E+03  0.18806076763E+03  0.12699999809E+01 0.  1.
       -4    1    3    3    0  502 -0.48313641699E+02 -0.48020668276E+02 -0.67218265671E+03  0.67562661984E+03  0.12699999809E+01 0. -1.
</event>
<event>
 5   0  0.3184443E-02  0.6958013E+03  0.7818609E-02  0.9724440E-01
        2   -1    0    0  501    0  0.00000000000E+00  0.00000000000E+00  0.97810068123E+03  0.97810068123E+03  0.25500000920E-02 0.  1.
       -2   -1    0    0    0  501  0.00000000000E+00  0.00000000000E+00 -0.12374478076E+03  0.12374478079E+03  0.25500000920E-02 0. -1.
    10030    2    1    2    0    0  0.00000000000E+00  0.00000000000E+00  0.85435590046E+03  0.11018454620E+04  0.69580127732E+03 0.  0.
        3    1    3    3  502    0 -0.13574009241E+03 -0.12976592617E+03  0.89094925017E+03  0.91052465362E+03  0.10100000352E+00 0.  1.
       -3    1    3    3    0  502  0.13574009241E+03  0.12976592617E+03 -0.36593349705E+02  0.19132080840E+03  0.10100000352E+00 0. -1.
</event>
<event>
 5   0  0.3184443E-02  0.7088122E+03  0.7818609E-02  0.9702280E-01
       -2   -1    0    0    0  501  0.00000000000E+00  0.00000000000E+00  0.68094436727E+02  0.68094436775E+02  0.25500000920E-02 0.  1.
        2   -1    0    0  501    0  0.00000000000E+00  0.00000000000E+00 -0.18445511806E+04  0.18445511806E+04  0.25500000920E-02 0. -1.
    10030    2    1    2    0    0  0.00000000000E+00  0.00000000000E+00 -0.17764567439E+04  0.19126456174E+04  0.70881217176E+03 0.  0.
        3    1    3    3  502    0 -0.20013132402E+03 -0.18565562587E+03 -0.27835174788E+03  0.38987211239E+03  0.10100000352E+00 0.  1.
       -3    1    3    3    0  502  0.20013132402E+03  0.18565562587E+03 -0.14981049960E+04  0.15227735050E+04  0.10100000352E+00 0. -1.
</event>
<event>
 5   0  0.1858013E-02  0.7026393E+03  0.7818609E-02  0.9712729E-01
       -1   -1    0    0    0  501  0.00000000000E+00  0.00000000000E+00  0.16308645539E+03  0.16308645547E+03  0.50400001928E-02 0. -1.
        1   -1    0    0  501    0  0.00000000000E+00  0.00000000000E+00 -0.75681022834E+03  0.75681022835E+03  0.50400001928E-02 0.  1.
    10030    2    1    2    0    0  0.00000000000E+00  0.00000000000E+00 -0.59372377295E+03  0.91989668382E+03  0.70263930316E+03 0.  0.
        2    1    3    3  502    0 -0.43797328799E+02 -0.87322406669E+02  0.14494687744E+03  0.17479418184E+03  0.25500000920E-02 0. -1.
       -2    1    3    3    0  502  0.43797328799E+02  0.87322406669E+02 -0.73867065039E+03  0.74510250199E+03  0.25500000920E-02 0.  1.
</event>
<event>
 5   0  0.1233912E-02  0.7016164E+03  0.7818609E-02  0.9714472E-01
       -3   -1    0    0    0  501  0.00000000000E+00  0.00000000000E+00  0.16445566149E+03  0.16445569250E+03  0.10100000352E+00 0.  1.
        3   -1    0    0  501    0  0.00000000000E+00  0.00000000000E+00 -0.74832564411E+03  0.74832565093E+03  0.10100000352E+00 0. -1.
    10030    2    1    2    0    0  0.00000000000E+00  0.00000000000E+00 -0.58386998263E+03  0.91278134343E+03  0.70161643674E+03 0.  0.
        4    1    3    3  502    0 -0.19549121992E+03  0.17609765645E+03 -0.59379794110E+03  0.64948041496E+03  0.12699999809E+01 0. -1.
       -4    1    3    3    0  502  0.19549121992E+03 -0.17609765645E+03  0.99279584718E+01  0.26330092846E+03  0.12699999809E+01 0.  1.
</event>
<event>
 5   0  0.1839038E-02  0.7016013E+03  0.7818609E-02  0.9714498E-01
       -1   -1    0    0    0  501  0.00000000000E+00  0.00000000000E+00  0.63990215930E+03  0.63990215932E+03  0.50400001928E-02 0.  1.
        1   -1    0    0  501    0  0.00000000000E+00  0.00000000000E+00 -0.19231234457E+03  0.19231234463E+03  0.50400001928E-02 0. -1.
    10030    2    1    2    0    0  0.00000000000E+00  0.00000000000E+00  0.44758981473E+03  0.83221450395E+03  0.70160126734E+03 0.  0.
        5    1    3    3  502    0 -0.87494356163E+02 -0.36924053973E+02 -0.17673605469E+03  0.20068973852E+03  0.46999998093E+01 0. -1.
       -5    1    3    3    0  502  0.87494356163E+02  0.36924053973E+02  0.62432586942E+03  0.63152476543E+03  0.46999998093E+01 0.  1.
</event>
<event>
 5   0  0.3113940E-02  0.6949028E+03  0.7818609E-02  0.9725989E-01
       -2   -1    0    0    0  501  0.00000000000E+00  0.00000000000E+00  0.66622256571E+02  0.66622256620E+02  0.25500000920E-02 0.  1.
        2   -1    0    0  501    0  0.00000000000E+00  0.00000000000E+00 -0.18120444501E+04  0.18120444501E+04  0.25500000920E-02 0. -1.
    10030    2    1    2    0    0  0.00000000000E+00  0.00000000000E+00 -0.17454221935E+04  0.18786667067E+04  0.69490284305E+03 0.  0.
        5    1    3    3  502    0 -0.23934737087E+03  0.20720870449E+03 -0.12595829947E+04  0.12987663460E+04  0.46999998093E+01 0. -1.
       -5    1    3    3    0  502  0.23934737087E+03 -0.20720870449E+03 -0.48583919884E+03  0.57990036066E+03  0.46999998093E+01 0.  1.
</event>
<event>
 5   0  0.3290656E-02  0.6975353E+03  0.7818609E-02  0.9721456E-01
        2   -1    0    0  501    0  0.00000000000E+00  0.00000000000E+00  0.39384606560E+03  0.39384606561E+03  0.25500000920E-02 0.  1.
       -2   -1    0    0    0  501  0.00000000000E+00  0.00000000000E+00 -0.30884880425E+03  0.30884880426E+03  0.25500000920E-02 0. -1.
    10030    2    1    2    0    0  0.00000000000E+00  0.00000000000E+00  0.84997261351E+02  0.70269486988E+03  0.69753533653E+03 0.  0.
        1    1    3    3  502    0  0.33384792761E+03 -0.42517824746E+01  0.14407285741E+03  0.36363375076E+03  0.50400001928E-02 0.  1.
       -1    1    3    3    0  502 -0.33384792761E+03  0.42517824746E+01 -0.59075596058E+02  0.33906111912E+03  0.50400001928E-02 0. -1.
</event>
<event>
 5   0  0.1839038E-02  0.6990374E+03  0.7818609E-02  0.9718880E-01
       -1   -1    0    0    0  501  0.00000000000E+00  0.00000000000E+00  0.47219550612E+03  0.47219550615E+03  0.50400001928E-02 0. -1.
        1   -1    0    0  501    0  0.00000000000E+00  0.00000000000E+00 -0.25871339952E+03  0.25871339957E+03  0.50400001928E-02 0.  1.
    10030    2    1    2    0    0  0.00000000000E+00  0.00000000000E+00  0.21348210661E+03  0.73090890572E+03  0.69903735137E+03 0.  0.
        5    1    3    3  502    0 -0.19144334657E+03 -0.56548302205E+02 -0.19320571366E+03  0.27784672612E+03  0.46999998093E+01 0.  1.
       -5    1    3    3    0  502  0.19144334657E+03  0.56548302205E+02  0.40668782027E+03  0.45306217959E+03  0.46999998093E+01 0. -1.
</event>
<event>
 5   0  0.1858013E-02  0.7378057E+03  0.7818609E-02  0.9654678E-01
        1   -1    0    0  501    0  0.00000000000E+00  0.00000000000E+00  0.10843231395E+03  0.10843231407E+03  0.50400001928E-02 0.  1.
       -1   -1    0    0    0  501  0.00000000000E+00  0.00000000000E+00 -0.12550622391E+04  0.12550622391E+04  0.50400001928E-02 0. -1.
    10030    2    1    2    0    0  0.00000000000E+00  0.00000000000E+00 -0.11466299252E+04  0.13634945532E+04  0.73780567314E+03 0.  0.
        2    1    3    3  502    0 -0.25508558490E+03  0.26515561468E+03 -0.52396338857E+03  0.64024510009E+03  0.25500000920E-02 0.  1.
       -2    1    3    3    0  502  0.25508558490E+03 -0.26515561468E+03 -0.62266653658E+03  0.72324945310E+03  0.25500000920E-02 0. -1.
</event>
<event>
 5   0  0.3183963E-02  0.6929414E+03  0.7818609E-02  0.9729380E-01
       -2   -1    0    0    0  501  0.00000000000E+00  0.00000000000E+00  0.22559948271E+03  0.22559948272E+03  0.25500000920E-02 0.  1.
        2   -1    0    0  501    0  0.00000000000E+00  0.00000000000E+00 -0.53210199585E+03  0.53210199585E+03  0.25500000920E-02 0. -1.
    10030    2    1    2    0    0  0.00000000000E+00  0.00000000000E+00 -0.30650251314E+03  0.75770147857E+03  0.69294136842E+03 0.  0.
        4    1    3    3  502    0 -0.18135671582E+03 -0.17020830205E+03  0.11049451713E+03  0.27216130452E+03  0.12699999809E+01 0.  1.
       -4    1    3    3    0  502  0.18135671582E+03  0.17020830205E+03 -0.41699703027E+03  0.48554017405E+03  0.12699999809E+01 0. -1.
</event>
<event>
 5   0  0.3184443E-02  0.6523083E+03  0.7818609E-02  0.9802458E-01
        2   -1    0    0  501    0  0.00000000000E+00  0.00000000000E+00  0.86539798381E+03  0.86539798381E+03  0.25500000920E-02 0.  1.
       -2   -1    0    0    0  501  0.00000000000E+00  0.00000000000E+00 -0.12292207397E+03  0.12292207400E+03  0.25500000920E-02 0. -1.
    10030    2    1    2    0    0  0.00000000000E+00  0.00000000000E+00  0.74247590984E+03  0.98832005781E+03  0.65230825534E+03 0.  0.
        3    1    3    3  502    0 -0.28755626602E+03  0.14649538896E+03  0.44273775247E+03  0.54787428556E+03  0.10100000352E+00 0. -1.
       -3    1    3    3    0  502  0.28755626602E+03 -0.14649538896E+03  0.29973815737E+03  0.44044577225E+03  0.10100000352E+00 0.  1.
</event>
<event>
 5   0  0.3113940E-02  0.7003324E+03  0.7818609E-02  0.9716664E-01
        2   -1    0    0  501    0  0.00000000000E+00  0.00000000000E+00  0.17426994848E+04  0.17426994848E+04  0.25500000920E-02 0.  1.
       -2   -1    0    0    0  501  0.00000000000E+00  0.00000000000E+00 -0.70360027617E+02  0.70360027664E+02  0.25500000920E-02 0. -1.
    10030    2    1    2    0    0  0.00000000000E+00  0.00000000000E+00  0.16723394572E+04  0.18130595124E+04  0.70033244655E+03 0.  0.
        5    1    3    3  502    0  0.34193414772E+03  0.59519048501E+02  0.71661013029E+03  0.79624973930E+03  0.46999998093E+01 0.  1.
       -5    1    3    3    0  502 -0.34193414772E+03 -0.59519048501E+02  0.95572932688E+03  0.10168097731E+04  0.46999998093E+01 0. -1.
</event>
<event>
 5   0  0.3113940E-02  0.7041734E+03  0.7818609E-02  0.9710122E-01
        2   -1    0    0  501    0  0.00000000000E+00  0.00000000000E+00  0.67133965530E+03  0.67133965531E+03  0.25500000920E-02 0. -1.
       -2   -1    0    0    0  501  0.00000000000E+00  0.00000000000E+00 -0.18465326508E+03  0.18465326509E+03  0.25500000920E-02 0.  1.
    10030    2    1    2    0    0  0.00000000000E+00  0.00000000000E+00  0.48668639023E+03  0.85599292040E+03  0.70417344266E+03 0.  0.
        5    1    3    3  502    0  0.20474019405E+03 -0.25359028547E+03  0.40514305436E+03  0.51998996571E+03  0.46999998093E+01 0. -1.
       -5    1    3    3    0  502 -0.20474019405E+03  0.25359028547E+03  0.81543335866E+02  0.33600295469E+03  0.46999998093E+01 0.  1.
</event>
<event>
 5   0  0.3113940E-02  0.7036726E+03  0.7818609E-02  0.9710972E-01
        2   -1    0    0  501    0  0.00000000000E+00  0.00000000000E+00  0.63573687842E+03  0.63573687843E+03  0.25500000920E-02 0. -1.
       -2   -1    0    0    0  501  0.00000000000E+00  0.00000000000E+00 -0.19471702910E+03  0.19471702911E+03  0.25500000920E-02 0.  1.
    10030    2    1    2    0    0  0.00000000000E+00  0.00000000000E+00  0.44101984933E+03  0.83045390754E+03  0.70367264054E+03 0.  0.
        5    1    3    3  502    0 -0.23446070039E+03 -0.12431529593E+03  0.49307724772E+03  0.55997622721E+03  0.46999998093E+01 0.  1.
       -5    1    3    3    0  502  0.23446070039E+03  0.12431529593E+03 -0.52057398391E+02  0.27047768033E+03  0.46999998093E+01 0. -1.
</event>
<event>
 5   0  0.1839038E-02  0.6975044E+03  0.7818609E-02  0.9721510E-01
        1   -1    0    0  501    0  0.00000000000E+00  0.00000000000E+00  0.80378582736E+03  0.80378582738E+03  0.50400001928E-02 0.  1.
       -1   -1    0    0    0  501  0.00000000000E+00  0.00000000000E+00 -0.15131902011E+03  0.15131902019E+03  0.50400001928E-02 0. -1.
    10030    2    1    2    0    0  0.00000000000E+00  0.00000000000E+00  0.65246680726E+03  0.95510484757E+03  0.69750436219E+03 0.  0.
        5    1    3    3  502    0  0.11096641970E+03 -0.12305600518E+02 -0.12614110547E+03  0.16851896805E+03  0.46999998093E+01 0. -1.
       -5    1    3    3    0  502 -0.11096641970E+03  0.12305600518E+02  0.77860791272E+03  0.78658587952E+03  0.46999998093E+01 0.  1.
</event>
<event>
 5   0  0.3290656E-02  0.6806253E+03  0.7818609E-02  0.9750951E-01
        2   -1    0    0  501    0  0.00000000000E+00  0.00000000000E+00  0.46544682571E+03  0.46544682572E+03  0.25500000920E-02 0.  1.
       -2   -1    0    0    0  501  0.00000000000E+00  0.00000000000E+00 -0.24882048809E+03  0.24882048811E+03  0.25500000920E-02 0. -1.
    10030    2    1    2    0    0  0.00000000000E+00  0.00000000000E+00  0.21662633762E+03  0.71426731383E+03  0.68062531943E+03 0.  0.
        1    1    3    3  502    0 -0.33694236101E+03  0.99812904454E+01  0.15734432518E+03  0.37200405575E+03  0.50400001928E-02 0.  1.
       -1    1    3    3    0  502  0.33694236101E+03 -0.99812904454E+01  0.59282012439E+02  0.34226325808E+03  0.50400001928E-02 0. -1.
</event>
<event>
 5   0  0.1858013E-02  0.7067212E+03  0.7818609E-02  0.9705807E-01
       -1   -1    0    0    0  501  0.00000000000E+00  0.00000000000E+00  0.41923030328E+03  0.41923030331E+03  0.50400001928E-02 0. -1.
        1   -1    0    0  501    0  0.00000000000E+00  0.00000000000E+00 -0.29784037850E+03  0.29784037854E+03  0.50400001928E-02 0.  1.
    10030    2    1    2    0    0  0.00000000000E+00  0.00000000000E+00  0.12138992478E+03  0.71707068185E+03  0.70672119604E+03 0.  0.
        2    1    3    3  502    0 -0.32601282656E+02 -0.23666647943E+03 -0.20348274894E+03  0.31381379071E+03  0.25500000920E-02 0.  1.
       -2    1    3    3    0  502  0.32601282656E+02  0.23666647943E+03  0.32487267372E+03  0.40325689114E+03  0.25500000920E-02 0. -1.
</event>
<event>
 5   0  0.1858013E-02  0.6944239E+03  0.7818609E-02  0.9726816E-01
        1   -1    0    0  501    0  0.00000000000E+00  0.00000000000E+00  0.79486220382E+03  0.79486220383E+03  0.50400001928E-02 0. -1.
       -1   -1    0    0    0  501  0.00000000000E+00  0.00000000000E+00 -0.15166922256E+03  0.15166922264E+03  0.50400001928E-02 0.  1.
    10030    2    1    2    0    0  0.00000000000E+00  0.00000000000E+00  0.64319298126E+03  0.94653142647E+03  0.69442388363E+03 0.  0.
        2    1    3    3  502    0 -0.70625619793E+02  0.33587563360E+03  0.39314941532E+03  0.52188780613E+03  0.25500000920E-02 0. -1.
       -2    1    3    3    0  502  0.70625619793E+02 -0.33587563360E+03  0.25004356594E+03  0.42464362034E+03  0.25500000920E-02 0.  1.
</event>
<event>
 5   0  0.1884172E-02  0.7050228E+03  0.7818609E-02  0.9708681E-01
        1   -1    0    0  501    0  0.00000000000E+00  0.00000000000E+00  0.13746365100E+04  0.13746365100E+04  0.50400001928E-02 0.  1.
       -1   -1    0    0    0  501  0.00000000000E+00  0.00000000000E+00 -0.90397929544E+02  0.90397929684E+02  0.50400001928E-02 0. -1.
    10030    2    1    2    0    0  0.00000000000E+00  0.00000000000E+00  0.12842385805E+04  0.14650344397E+04  0.70502282089E+03 0.  0.
        3    1    3    3  502    0 -0.20836534176E+03  0.10216981669E+03  0.90727518813E+02  0.24917118605E+03  0.10100000352E+00 0. -1.
       -3    1    3    3    0  502  0.20836534176E+03 -0.10216981669E+03  0.11935110617E+04  0.12158632537E+04  0.10100000352E+00 0.  1.
</event>
<event>
 5   0  0.3290656E-02  0.7031228E+03  0.7818609E-02  0.9711907E-01
        2   -1    0    0  501    0  0.00000000000E+00  0.00000000000E+00  0.51212490923E+03  0.51212490923E+03  0.25500000920E-02 0.  1.
       -2   -1    0    0    0  501  0.00000000000E+00  0.00000000000E+00 -0.24133842750E+03  0.24133842751E+03  0.25500000920E-02 0. -1.
    10030    2    1    2    0    0  0.00000000000E+00  0.00000000000E+00  0.27078648173E+03  0.75346333675E+03  0.70312280658E+03 0.  0.
        1    1    3    3  502    0  0.25803521922E+03  0.23728112901E+03  0.16396511806E+03  0.38700008851E+03  0.50400001928E-02 0.  1.
       -1    1    3    3    0  502 -0.25803521922E+03 -0.23728112901E+03  0.10682136367E+03  0.36646324823E+03  0.50400001928E-02 0. -1.
</event>
<event>
 5   0  0.1951465E-02  0.6988666E+03  0.7818609E-02  0.9719172E-01
        1   -1    0    0  501    0  0.00000000000E+00  0.00000000000E+00  0.15066306593E+04  0.15066306593E+04  0.50400001928E-02 0. -1.
       -1   -1    0    0    0  501  0.00000000000E+00  0.00000000000E+00 -0.81044180867E+02  0.81044181024E+02  0.50400001928E-02 0.  1.
    10030    2    1    2    0    0  0.00000000000E+00  0.00000000000E+00  0.14255864784E+04  0.15876748403E+04  0.69886664761E+03 0.  0.
        4    1    3    3  502    0 -0.72801298979E+02  0.17840771239E+03  0.50566151349E+02  0.19921819579E+03  0.12699999809E+01 0.  1.
       -4    1    3    3    0  502  0.72801298979E+02 -0.17840771239E+03  0.13750203271E+04  0.13884566445E+04  0.12699999809E+01 0. -1.
</event>
<event>
 5   0  0.1951465E-02  0.6998994E+03  0.7818609E-02  0.9717404E-01
        1   -1    0    0  501    0  0.00000000000E+00  0.00000000000E+00  0.12308395676E+04  0.12308395676E+04  0.50400001928E-02 0. -1.
       -1   -1    0    0    0  501  0.00000000000E+00  0.00000000000E+00 -0.99496960457E+02  0.99496960584E+02  0.50400001928E-02 0.  1.
    10030    2    1    2    0    0  0.00000000000E+00  0.00000000000E+00  0.11313426071E+04  0.13303365282E+04  0.69989940957E+03 0.  0.
        4    1    3    3  502    0  0.12996998714E+03 -0.72359744677E+02 -0.36405964840E+02  0.15315070154E+03  0.12699999809E+01 0.  1.
       -4    1    3    3    0  502 -0.12996998714E+03  0.72359744677E+02  0.11677485720E+04  0.11771858267E+04  0.12699999809E+01 0. -1.
</event>
<event>
 5   0  0.1839038E-02  0.6998896E+03  0.7818609E-02  0.9717421E-01
        1   -1    0    0  501    0  0.00000000000E+00  0.00000000000E+00  0.86380275334E+03  0.86380275335E+03  0.50400001928E-02 0.  1.
       -1   -1    0    0    0  501  0.00000000000E+00  0.00000000000E+00 -0.14177005731E+03  0.14177005740E+03  0.50400001928E-02 0. -1.
    10030    2    1    2    0    0  0.00000000000E+00  0.00000000000E+00  0.72203269603E+03  0.10055728108E+04  0.69988960814E+03 0.  0.
        5    1    3    3  502    0 -0.23244189312E+03 -0.19665400463E+03  0.11325455227E+03  0.32488569501E+03  0.46999998093E+01 0. -1.
       -5    1    3    3    0  502  0.23244189312E+03  0.19665400463E+03  0.60877814376E+03  0.68068711574E+03  0.46999998093E+01 0.  1.
</event>
<event>
 5   0  0.2933851E-02  0.6932112E+03  0.7818609E-02  0.9728913E-01
        2   -1    0    0  501    0  0.00000000000E+00  0.00000000000E+00  0.96425572218E+03  0.96425572219E+03  0.25500000920E-02 0.  1.
       -2   -1    0    0    0  501  0.00000000000E+00  0.00000000000E+00 -0.12458877834E+03  0.12458877837E+03  0.25500000920E-02 0. -1.
    10030    2    1    2    0    0  0.00000000000E+00  0.00000000000E+00  0.83966694384E+03  0.10888445006E+04  0.69321120144E+03 0.  0.
        2    1    3    3  502    0 -0.17837876076E+03  0.81506265070E+02  0.86872359178E+03  0.89058572437E+03  0.25500000920E-02 0.  1.
       -2    1    3    3    0  502  0.17837876076E+03 -0.81506265070E+02 -0.29056647937E+02  0.19825877618E+03  0.25500000920E-02 0. -1.
</event>
<event>
 5   0  0.3183963E-02  0.7125138E+03  0.7818609E-02  0.9696068E-01
        2   -1    0    0  501    0  0.00000000000E+00  0.00000000000E+00  0.16890686755E+03  0.16890686757E+03  0.25500000920E-02 0. -1.
       -2   -1    0    0    0  501  0.00000000000E+00  0.00000000000E+00 -0.75141404143E+03  0.75141404144E+03  0.25500000920E-02 0.  1.
    10030    2    1    2    0    0  0.00000000000E+00  0.00000000000E+00 -0.58250717388E+03  0.92032090901E+03  0.71251383701E+03 0.  0.
        4    1    3    3  502    0  0.24076884618E+03  0.38064509126E+02 -0.62683208396E+03  0.67256123776E+03  0.12699999809E+01 0.  1.
       -4    1    3    3    0  502 -0.24076884618E+03 -0.38064509126E+02  0.44324910082E+02  0.24775967125E+03  0.12699999809E+01 0. -1.
</event>
<event>
 5   0  0.3113940E-02  0.7181641E+03  0.7818609E-02  0.9686664E-01
        2   -1    0    0  501    0  0.00000000000E+00  0.00000000000E+00  0.11287583321E+04  0.11287583321E+04  0.25500000920E-02 0.  1.
       -2   -1    0    0    0  501  0.00000000000E+00  0.00000000000E+00 -0.11423165121E+03  0.11423165124E+03  0.25500000920E-02 0. -1.
    10030    2    1    2    0    0  0.00000000000E+00  0.00000000000E+00  0.10145266809E+04  0.12429899834E+04  0.71816412642E+03 0.  0.
        5    1    3    3  502    0 -0.20025761614E+03 -0.13926859332E+02 -0.79791559325E+01  0.20095478885E+03  0.46999998093E+01 0. -1.
       -5    1    3    3    0  502  0.20025761614E+03  0.13926859332E+02  0.10225058368E+04  0.10420351945E+04  0.46999998093E+01 0.  1.
</event>
<event>
 5   0  0.3184443E-02  0.7042436E+03  0.7818609E-02  0.9710002E-01
        2   -1    0    0  501    0  0.00000000000E+00  0.00000000000E+00  0.26771128207E+03  0.26771128208E+03  0.25500000920E-02 0.  1.
       -2   -1    0    0    0  501  0.00000000000E+00  0.00000000000E+00 -0.46314738095E+03  0.46314738095E+03  0.25500000920E-02 0. -1.
    10030    2    1    2    0    0  0.00000000000E+00  0.00000000000E+00 -0.19543609887E+03  0.73085866304E+03  0.70424364860E+03 0.  0.
        3    1    3    3  502    0  0.15201202463E+03  0.25917897790E+03 -0.28825505738E+03  0.41638009862E+03  0.10100000352E+00 0. -1.
       -3    1    3    3    0  502 -0.15201202463E+03 -0.25917897790E+03  0.92818958508E+02  0.31447856442E+03  0.10100000352E+00 0.  1.
</event>
<event>
 5   0  0.3113940E-02  0.6926972E+03  0.7818609E-02  0.9729803E-01
        2   -1    0    0  501    0  0.00000000000E+00  0.00000000000E+00  0.21062530509E+04  0.21062530509E+04  0.25500000920E-02 0. -1.
       -2   -1    0    0    0  501  0.00000000000E+00  0.00000000000E+00 -0.56952958395E+02  0.56952958452E+02  0.25500000920E-02 0.  1.
    10030    2    1    2    0    0  0.00000000000E+00  0.00000000000E+00  0.20493000925E+04  0.21632060094E+04  0.69269717031E+03 0.  0.
        5    1    3    3  502    0  0.30865867030E+03 -0.67074757369E+02  0.58117934079E+03  0.66148372163E+03  0.46999998093E+01 0.  1.
       -5    1    3    3    0  502 -0.30865867030E+03  0.67074757369E+02  0.14681207517E+04  0.15017222877E+04  0.46999998093E+01 0. -1.
</event>
<event>
 5   0  0.2933851E-02  0.7025183E+03  0.7818609E-02  0.9712935E-01
        2   -1    0    0  501    0  0.00000000000E+00  0.00000000000E+00  0.13282067387E+03  0.13282067389E+03  0.25500000920E-02 0.  1.
       -2   -1    0    0    0  501  0.00000000000E+00  0.00000000000E+00 -0.92894426313E+03  0.92894426314E+03  0.25500000920E-02 0. -1.
    10030    2    1    2    0    0  0.00000000000E+00  0.00000000000E+00 -0.79612358926E+03  0.10617649370E+04  0.70251833579E+03 0.  0.
        2    1    3    3  502    0 -0.97125017485E+02 -0.33330248259E+03 -0.47887682778E+03  0.59147851197E+03  0.25500000920E-02 0. -1.
       -2    1    3    3    0  502  0.97125017485E+02  0.33330248259E+03 -0.31724676148E+03  0.47028642506E+03  0.25500000920E-02 0.  1.
</event>
<event>
 5   0  0.1969818E-02  0.6923519E+03  0.7818609E-02  0.9730401E-01
       -1   -1    0    0    0  501  0.00000000000E+00  0.00000000000E+00  0.49190458285E+03  0.49190458287E+03  0.50400001928E-02 0.  1.
        1   -1    0    0  501    0  0.00000000000E+00  0.00000000000E+00 -0.24362002105E+03  0.24362002111E+03  0.50400001928E-02 0. -1.
    10030    2    1    2    0    0  0.00000000000E+00  0.00000000000E+00  0.24828456179E+03  0.73552460398E+03  0.69235194766E+03 0.  0.
        1    1    3    3  502    0 -0.33669575194E+03  0.78669139946E+02  0.10620946754E+03  0.36170888015E+03  0.50400001928E-02 0.  1.
       -1    1    3    3    0  502  0.33669575194E+03 -0.78669139946E+02  0.14207509425E+03  0.37381572383E+03  0.50400001928E-02 0. -1.
</event>
<event>
 5   0  0.1951465E-02  0.6929912E+03  0.7818609E-02  0.9729294E-01
       -1   -1    0    0    0  501  0.00000000000E+00  0.00000000000E+00  0.86715250856E+02  0.86715251002E+02  0.50400001928E-02 0. -1.
        1   -1    0    0  501    0  0.00000000000E+00  0.00000000000E+00 -0.13845223518E+04  0.13845223518E+04  0.50400001928E-02 0.  1.
    10030    2    1    2    0    0  0.00000000000E+00  0.00000000000E+00 -0.12978071009E+04  0.14712376028E+04  0.69299120677E+03 0.  0.
        4    1    3    3  502    0 -0.18274542762E+02 -0.13866982563E+03 -0.13219202344E+04  0.13292998151E+04  0.12699999809E+01 0.  1.
       -4    1    3    3    0  502  0.18274542762E+02  0.13866982563E+03  0.24113133508E+02  0.14193778764E+03  0.12699999809E+01 0. -1.
</event>
<event>
 5   0  0.3183963E-02  0.6864107E+03  0.7818609E-02  0.9740758E-01
        2   -1    0    0  501    0  0.00000000000E+00  0.00000000000E+00  0.17902306287E+03  0.17902306289E+03  0.25500000920E-02 0.  1.
       -2   -1    0    0    0  501  0.00000000000E+00  0.00000000000E+00 -0.65795938113E+03  0.65795938113E+03  0.25500000920E-02 0. -1.
    10030    2    1    2    0    0  0.00000000000E+00  0.00000000000E+00 -0.47893631826E+03  0.83698244402E+03  0.68641067492E+03 0.  0.
        4    1    3    3  502    0 -0.28068782010E+03 -0.15440765794E+03 -0.38960767315E+03  0.50440373616E+03  0.12699999809E+01 0.  1.
       -4    1    3    3    0  502  0.28068782010E+03  0.15440765794E+03 -0.89328645113E+02  0.33257870785E+03  0.12699999809E+01 0. -1.
</event>
<event>
 5   0  0.3183963E-02  0.7172688E+03  0.7818609E-02  0.9688148E-01
        2   -1    0    0  501    0  0.00000000000E+00  0.00000000000E+00  0.14826786731E+04  0.14826786731E+04  0.25500000920E-02 0. -1.
       -2   -1    0    0    0  501  0.00000000000E+00  0.00000000000E+00 -0.86747481787E+02  0.86747481825E+02  0.25500000920E-02 0.  1.
    10030    2    1    2    0    0  0.00000000000E+00  0.00000000000E+00  0.13959311913E+04  0.15694261549E+04  0.71726882330E+03 0.  0.
        4    1    3    3  502    0 -0.47586070517E+02  0.30742492424E+03  0.30751815558E+03  0.43742833363E+03  0.12699999809E+01 0.  1.
       -4    1    3    3    0  502  0.47586070517E+02 -0.30742492424E+03  0.10884130357E+04  0.11319978212E+04  0.12699999809E+01 0. -1.
</event>
<event>
 5   0  0.1858013E-02  0.7031574E+03  0.7818609E-02  0.9711848E-01
       -1   -1    0    0    0  501  0.00000000000E+00  0.00000000000E+00  0.22244078557E+03  0.22244078563E+03  0.50400001928E-02 0. -1.
        1   -1    0    0  501    0  0.00000000000E+00  0.00000000000E+00 -0.55568759630E+03  0.55568759632E+03  0.50400001928E-02 0.  1.
    10030    2    1    2    0    0  0.00000000000E+00  0.00000000000E+00 -0.33324681073E+03  0.77812838195E+03  0.70315740907E+03 0.  0.
        2    1    3    3  502    0 -0.59233125044E+02 -0.31011320875E+03  0.45590856057E+01  0.31575235646E+03  0.25500000920E-02 0.  1.
       -2    1    3    3    0  502  0.59233125044E+02  0.31011320875E+03 -0.33780589633E+03  0.46237602549E+03  0.25500000920E-02 0. -1.
</event>
<event>
 5   0  0.1233912E-02  0.6968498E+03  0.7818609E-02  0.9722635E-01
        4   -1    0    0  501    0  0.00000000000E+00  0.00000000000E+00  0.57122859138E+03  0.57123000316E+03  0.12699999809E+01 0.  1.
       -4   -1    0    0    0  501  0.00000000000E+00  0.00000000000E+00 -0.21252067605E+03  0.21252447071E+03  0.12699999809E+01 0. -1.
    10030    2    1    2    0    0  0.00000000000E+00  0.00000000000E+00  0.35870791533E+03  0.78375447386E+03  0.69684984522E+03 0.  0.
        5    1    3    3  502    0  0.10267264202E+03 -0.60736705678E+02  0.54750944195E+03  0.56037424804E+03  0.46999998093E+01 0.  1.
       -5    1    3    3    0  502 -0.10267264202E+03  0.60736705678E+02 -0.18880152663E+03  0.22338022583E+03  0.46999998093E+01 0. -1.
</event>
<event>
 5   0  0.2933851E-02  0.7018015E+03  0.7818609E-02  0.9714156E-01
        2   -1    0    0  501    0  0.00000000000E+00  0.00000000000E+00  0.35137530093E+03  0.35137530094E+03  0.25500000920E-02 0. -1.
       -2   -1    0    0    0  501  0.00000000000E+00  0.00000000000E+00 -0.35042679542E+03  0.35042679543E+03  0.25500000920E-02 0.  1.
    10030    2    1    2    0    0  0.00000000000E+00  0.00000000000E+00  0.94850550159E+00  0.70180209637E+03  0.70180145540E+03 0.  0.
        2    1    3    3  502    0  0.17707418895E+03 -0.30276349106E+03  0.10977632389E+02  0.35091524380E+03  0.25500000920E-02 0. -1.
       -2    1    3    3    0  502 -0.17707418895E+03  0.30276349106E+03 -0.10029126887E+02  0.35088685257E+03  0.25500000920E-02 0.  1.
</event>
<event>
 5   0  0.3184443E-02  0.7032590E+03  0.7818609E-02  0.9711675E-01
       -2   -1    0    0    0  501  0.00000000000E+00  0.00000000000E+00  0.96234166638E+02  0.96234166672E+02  0.25500000920E-02 0. -1.
        2   -1    0    0  501    0  0.00000000000E+00  0.00000000000E+00 -0.12848172132E+04  0.12848172132E+04  0.25500000920E-02 0.  1.
    10030    2    1    2    0    0  0.00000000000E+00  0.00000000000E+00 -0.11885830465E+04  0.13810513799E+04  0.70325902431E+03 0.  0.
        3    1    3    3  502    0 -0.19136230767E+03 -0.29178884910E+02 -0.17819116028E+02  0.19439256987E+03  0.10100000352E+00 0. -1.
       -3    1    3    3    0  502  0.19136230767E+03  0.29178884910E+02 -0.11707639305E+04  0.11866588100E+04  0.10100000352E+00 0.  1.
</event>
<event>
 5   0  0.1233912E-02  0.6966861E+03  0.7818609E-02  0.9722916E-01
        3   -1    0    0  501    0  0.00000000000E+00  0.00000000000E+00  0.16474240345E+03  0.16474243441E+03  0.10100000352E+00 0. -1.
       -3   -1    0    0    0  501  0.00000000000E+00  0.00000000000E+00 -0.73656113168E+03  0.73656113861E+03  0.10100000352E+00 0.  1.
    10030    2    1    2    0    0  0.00000000000E+00  0.00000000000E+00 -0.57181872823E+03  0.90130357302E+03  0.69668606472E+03 0.  0.
        3    1    3    3  502    0 -0.12610032948E+03 -0.26230055198E+03 -0.53354412915E+03  0.60776000248E+03  0.10100000352E+00 0.  1.
       -3    1    3    3    0  502  0.12610032948E+03  0.26230055198E+03 -0.38274599086E+02  0.29354357054E+03  0.10100000352E+00 0. -1.
</event>
<event>
 5   0  0.2933851E-02  0.6968562E+03  0.7818609E-02  0.9722624E-01
       -2   -1    0    0    0  501  0.00000000000E+00  0.00000000000E+00  0.15025882940E+03  0.15025882942E+03  0.25500000920E-02 0.  1.
        2   -1    0    0  501    0  0.00000000000E+00  0.00000000000E+00 -0.80795335785E+03  0.80795335785E+03  0.25500000920E-02 0. -1.
    10030    2    1    2    0    0  0.00000000000E+00  0.00000000000E+00 -0.65769452845E+03  0.95821218727E+03  0.69685615666E+03 0.  0.
        2    1    3    3  502    0 -0.29110109542E+03  0.56146103710E+01 -0.59202035377E+03  0.65974197296E+03  0.25500000920E-02 0. -1.
       -2    1    3    3    0  502  0.29110109542E+03 -0.56146103710E+01 -0.65674174675E+02  0.29847021431E+03  0.25500000920E-02 0.  1.
</event>
<event>
 5   0  0.3290656E-02  0.7055690E+03  0.7818609E-02  0.9707756E-01
        2   -1    0    0  501    0  0.00000000000E+00  0.00000000000E+00  0.57165515385E+03  0.57165515386E+03  0.25500000920E-02 0.  1.
       -2   -1    0    0    0  501  0.00000000000E+00  0.00000000000E+00 -0.21771326777E+03  0.21771326779E+03  0.25500000920E-02 0. -1.
    10030    2    1    2    0    0  0.00000000000E+00  0.00000000000E+00  0.35394188608E+03  0.78936842165E+03  0.70556902311E+03 0.  0.
        1    1    3    3  502    0 -0.15362914096E+03 -0.23382134346E+03  0.41739577940E+03  0.50248738322E+03  0.50400001928E-02 0.  1.
       -1    1    3    3    0  502  0.15362914096E+03  0.23382134346E+03 -0.63453893320E+02  0.28688103843E+03  0.50400001928E-02 0. -1.
</event>
<event>
 5   0  0.1884172E-02  0.6988156E+03  0.7818609E-02  0.9719260E-01
       -1   -1    0    0    0  501  0.00000000000E+00  0.00000000000E+00  0.69365564057E+03  0.69365564058E+03  0.50400001928E-02 0.  1.
        1   -1    0    0  501    0  0.00000000000E+00  0.00000000000E+00 -0.17600350756E+03  0.17600350763E+03  0.50400001928E-02 0. -1.
    10030    2    1    2    0    0  0.00000000000E+00  0.00000000000E+00  0.51765213301E+03  0.86965914821E+03  0.69881564326E+03 0.  0.
        3    1    3    3  502    0  0.20486482806E+03 -0.10194017471E+03 -0.69782516263E+02  0.23923002899E+03  0.10100000352E+00 0. -1.
       -3    1    3    3    0  502 -0.20486482806E+03  0.10194017471E+03  0.58743464927E+03  0.63042911922E+03  0.10100000352E+00 0.  1.
</event>
<event>
 5   0  0.3113940E-02  0.7148261E+03  0.7818609E-02  0.9692208E-01
       -2   -1    0    0    0  501  0.00000000000E+00  0.00000000000E+00  0.19258582721E+03  0.19258582723E+03  0.25500000920E-02 0.  1.
        2   -1    0    0  501    0  0.00000000000E+00  0.00000000000E+00 -0.66330986614E+03  0.66330986614E+03  0.25500000920E-02 0. -1.
    10030    2    1    2    0    0  0.00000000000E+00  0.00000000000E+00 -0.47072403892E+03  0.85589569337E+03  0.71482607473E+03 0.  0.
        5    1    3    3  502    0 -0.13164497835E+03 -0.28746510843E+03 -0.43483965124E+03  0.53765621096E+03  0.46999998093E+01 0.  1.
       -5    1    3    3    0  502  0.13164497835E+03  0.28746510843E+03 -0.35884387683E+02  0.31823948241E+03  0.46999998093E+01 0. -1.
</event>
<event>
 5   0  0.3183963E-02  0.7067208E+03  0.7818609E-02  0.9705807E-01
        2   -1    0    0  501    0  0.00000000000E+00  0.00000000000E+00  0.59413744923E+03  0.59413744923E+03  0.25500000920E-02 0. -1.
       -2   -1    0    0    0  501  0.00000000000E+00  0.00000000000E+00 -0.21015941601E+03  0.21015941602E+03  0.25500000920E-02 0.  1.
    10030    2    1    2    0    0  0.00000000000E+00  0.00000000000E+00  0.38397803322E+03  0.80429686526E+03  0.70672082003E+03 0.  0.
        4    1    3    3  502    0  0.30788006609E+03 -0.15310476444E+03  0.28466137721E+03  0.44639099069E+03  0.12699999809E+01 0.  1.
       -4    1    3    3    0  502 -0.30788006609E+03  0.15310476444E+03  0.99316656009E+02  0.35790587457E+03  0.12699999809E+01 0. -1.
</event>
<event>
 5   0  0.2933851E-02  0.7039160E+03  0.7818609E-02  0.9710559E-01
       -2   -1    0    0    0  501  0.00000000000E+00  0.00000000000E+00  0.34181822617E+03  0.34181822618E+03  0.25500000920E-02 0.  1.
        2   -1    0    0  501    0  0.00000000000E+00  0.00000000000E+00 -0.36239861054E+03  0.36239861055E+03  0.25500000920E-02 0. -1.
    10030    2    1    2    0    0  0.00000000000E+00  0.00000000000E+00 -0.20580384370E+02  0.70421683673E+03  0.70391604678E+03 0.  0.
        2    1    3    3  502    0  0.22347707496E+03 -0.11418831957E+03 -0.25716167026E+03  0.35932311367E+03  0.25500000920E-02 0. -1.
       -2    1    3    3    0  502 -0.22347707496E+03  0.11418831957E+03  0.23658128589E+03  0.34489372305E+03  0.25500000920E-02 0.  1.
</event>
<event>
 5   0  0.1884172E-02  0.6900545E+03  0.7818609E-02  0.9734393E-01
        1   -1    0    0  501    0  0.00000000000E+00  0.00000000000E+00  0.14076903410E+04  0.14076903410E+04  0.50400001928E-02 0. -1.
       -1   -1    0    0    0  501  0.00000000000E+00  0.00000000000E+00 -0.84566762520E+02  0.84566762670E+02  0.50400001928E-02 0.  1.
    10030    2    1    2    0    0  0.00000000000E+00  0.00000000000E+00  0.13231235785E+04  0.14922571037E+04  0.69005453376E+03 0.  0.
        3    1    3    3  502    0  0.44584051775E+02 -0.26086761217E+03  0.11402764169E+04  0.11705853091E+04  0.10100000352E+00 0. -1.
       -3    1    3    3    0  502 -0.44584051775E+02  0.26086761217E+03  0.18284716167E+03  0.32167179466E+03  0.10100000352E+00 0.  1.
</event>
<event>
 5   0  0.1839038E-02  0.7018082E+03  0.7818609E-02  0.9714145E-01
       -1   -1    0    0    0  501  0.00000000000E+00  0.00000000000E+00  0.55186156529E+03  0.55186156531E+03  0.50400001928E-02 0. -1.
        1   -1    0    0  501    0  0.00000000000E+00  0.00000000000E+00 -0.22312422837E+03  0.22312422843E+03  0.50400001928E-02 0.  1.
    10030    2    1    2    0    0  0.00000000000E+00  0.00000000000E+00  0.32873733692E+03  0.77498579374E+03  0.70180819588E+03 0.  0.
        5    1    3    3  502    0 -0.28640942556E+03  0.86176031092E+02  0.36695010310E+03  0.47342489959E+03  0.46999998093E+01 0. -1.
       -5    1    3    3    0  502  0.28640942556E+03 -0.86176031092E+02 -0.38212766182E+02  0.30156089415E+03  0.46999998093E+01 0.  1.
</event>
<event>
 5   0  0.3290656E-02  0.7011171E+03  0.7818609E-02  0.9715324E-01
       -2   -1    0    0    0  501  0.00000000000E+00  0.00000000000E+00  0.78378786255E+03  0.78378786255E+03  0.25500000920E-02 0. -1.
        2   -1    0    0  501    0  0.00000000000E+00  0.00000000000E+00 -0.15679151429E+03  0.15679151431E+03  0.25500000920E-02 0.  1.
    10030    2    1    2    0    0  0.00000000000E+00  0.00000000000E+00  0.62699634826E+03  0.94057937686E+03  0.70111706828E+03 0.  0.
        1    1    3    3  502    0 -0.20831332772E+03  0.45940362769E+02  0.68669421490E+03  0.71906460366E+03  0.50400001928E-02 0. -1.
       -1    1    3    3    0  502  0.20831332772E+03 -0.45940362769E+02 -0.59697866641E+02  0.22151477319E+03  0.50400001928E-02 0.  1.
</event>
<event>
 5   0  0.3113940E-02  0.6958161E+03  0.7818609E-02  0.9724414E-01
       -2   -1    0    0    0  501  0.00000000000E+00  0.00000000000E+00  0.20987272988E+03  0.20987272989E+03  0.25500000920E-02 0. -1.
        2   -1    0    0  501    0  0.00000000000E+00  0.00000000000E+00 -0.57673049408E+03  0.57673049409E+03  0.25500000920E-02 0.  1.
    10030    2    1    2    0    0  0.00000000000E+00  0.00000000000E+00 -0.36685776421E+03  0.78660322398E+03  0.69581607686E+03 0.  0.
        5    1    3    3  502    0  0.24420356875E+03 -0.10268166410E+03  0.71465221293E+02  0.27442353213E+03  0.46999998093E+01 0. -1.
       -5    1    3    3    0  502 -0.24420356875E+03  0.10268166410E+03 -0.43832298550E+03  0.51217969185E+03  0.46999998093E+01 0.  1.
</event>
<event>
 5   0  0.3113940E-02  0.7323201E+03  0.7818609E-02  0.9663503E-01
        2   -1    0    0  501    0  0.00000000000E+00  0.00000000000E+00  0.22259153034E+04  0.22259153034E+04  0.25500000920E-02 0. -1.
       -2   -1    0    0    0  501  0.00000000000E+00  0.00000000000E+00 -0.60232837526E+02  0.60232837580E+02  0.25500000920E-02 0.  1.
    10030    2    1    2    0    0  0.00000000000E+00  0.00000000000E+00  0.21656824659E+04  0.22861481410E+04  0.73232013459E+03 0.  0.
        5    1    3    3  502    0  0.17755430338E+03  0.54925779753E+01  0.83403840806E+02  0.19630076343E+03  0.46999998093E+01 0.  1.
       -5    1    3    3    0  502 -0.17755430338E+03 -0.54925779753E+01  0.20822786251E+04  0.20898473776E+04  0.46999998093E+01 0. -1.
</event>
<event>
 5   0  0.1951465E-02  0.6981049E+03  0.7818609E-02  0.9720479E-01
       -1   -1    0    0    0  501  0.00000000000E+00  0.00000000000E+00  0.10276866691E+04  0.10276866691E+04  0.50400001928E-02 0.  1.
        1   -1    0    0  501    0  0.00000000000E+00  0.00000000000E+00 -0.11855521525E+03  0.11855521535E+03  0.50400001928E-02 0. -1.
    10030    2    1    2    0    0  0.00000000000E+00  0.00000000000E+00  0.90913145389E+03  0.11462418845E+04  0.69810490424E+03 0.  0.
        4    1    3    3  502    0 -0.28088970583E+03 -0.94006778914E+02  0.75776689124E+03  0.81360222202E+03  0.12699999809E+01 0.  1.
       -4    1    3    3    0  502  0.28088970583E+03  0.94006778914E+02  0.15136456265E+03  0.33263966248E+03  0.12699999809E+01 0. -1.
</event>
<event>
 5   0  0.1951465E-02  0.7007891E+03  0.7818609E-02  0.9715884E-01
        1   -1    0    0  501    0  0.00000000000E+00  0.00000000000E+00  0.89406329271E+03  0.89406329272E+03  0.50400001928E-02 0. -1.
       -1   -1    0    0    0  501  0.00000000000E+00  0.00000000000E+00 -0.13732400680E+03  0.13732400690E+03  0.50400001928E-02 0.  1.
    10030    2    1    2    0    0  0.00000000000E+00  0.00000000000E+00  0.75673928590E+03  0.10313872996E+04  0.70078913732E+03 0.  0.
        4    1    3    3  502    0 -0.78176494583E+02 -0.91576656530E+02  0.86265608355E+03  0.87101950594E+03  0.12699999809E+01 0. -1.
       -4    1    3    3    0  502  0.78176494583E+02  0.91576656530E+02 -0.10591679765E+03  0.16036779368E+03  0.12699999809E+01 0.  1.
</event>
<event>
 5   0  0.1858013E-02  0.7236879E+03  0.7818609E-02  0.9677559E-01
       -1   -1    0    0    0  501  0.00000000000E+00  0.00000000000E+00  0.64120890144E+02  0.64120890342E+02  0.50400001928E-02 0. -1.
        1   -1    0    0  501    0  0.00000000000E+00  0.00000000000E+00 -0.20419407263E+04  0.20419407263E+04  0.50400001928E-02 0.  1.
    10030    2    1    2    0    0  0.00000000000E+00  0.00000000000E+00 -0.19778198362E+04  0.21060616167E+04  0.72368793608E+03 0.  0.
        2    1    3    3  502    0  0.17347498994E+03  0.13416960594E+03 -0.15132412015E+03  0.26644707662E+03  0.25500000920E-02 0. -1.
       -2    1    3    3    0  502 -0.17347498994E+03 -0.13416960594E+03 -0.18264957160E+04  0.18396145400E+04  0.25500000920E-02 0.  1.
</event>
<event>
 5   0  0.3290656E-02  0.7013908E+03  0.7818609E-02  0.9714857E-01
        2   -1    0    0  501    0  0.00000000000E+00  0.00000000000E+00  0.14458117291E+03  0.14458117293E+03  0.25500000920E-02 0.  1.
       -2   -1    0    0    0  501  0.00000000000E+00  0.00000000000E+00 -0.85064503265E+03  0.85064503265E+03  0.25500000920E-02 0. -1.
    10030    2    1    2    0    0  0.00000000000E+00  0.00000000000E+00 -0.70606385974E+03  0.99522620558E+03  0.70139077998E+03 0.  0.
        1    1    3    3  502    0  0.26972672600E+03  0.79883639750E+02 -0.65017332448E+03  0.70842025275E+03  0.50400001928E-02 0. -1.
       -1    1    3    3    0  502 -0.26972672600E+03 -0.79883639750E+02 -0.55890535257E+02  0.28680595283E+03  0.50400001928E-02 0.  1.
</event>
<event>
 5   0  0.3113940E-02  0.6997582E+03  0.7818609E-02  0.9717646E-01
       -2   -1    0    0    0  501  0.00000000000E+00  0.00000000000E+00  0.64437491753E+02  0.64437491804E+02  0.25500000920E-02 0. -1.
        2   -1    0    0  501    0  0.00000000000E+00  0.00000000000E+00 -0.18997541289E+04  0.18997541289E+04  0.25500000920E-02 0.  1.
    10030    2    1    2    0    0  0.00000000000E+00  0.00000000000E+00 -0.18353166371E+04  0.19641916207E+04  0.69975821843E+03 0.  0.
        5    1    3    3  502    0 -0.94129199146E+02 -0.17696770203E+03 -0.17225037914E+04  0.17341335805E+04  0.46999998093E+01 0.  1.
       -5    1    3    3    0  502  0.94129199146E+02  0.17696770203E+03 -0.11281284576E+03  0.23005804020E+03  0.46999998093E+01 0. -1.
</event>
<event>
 5   0  0.3184443E-02  0.6434182E+03  0.7818609E-02  0.9819208E-01
       -2   -1    0    0    0  501  0.00000000000E+00  0.00000000000E+00  0.83270574594E+02  0.83270574634E+02  0.25500000920E-02 0. -1.
        2   -1    0    0  501    0  0.00000000000E+00  0.00000000000E+00 -0.12428970285E+04  0.12428970285E+04  0.25500000920E-02 0.  1.
    10030    2    1    2    0    0  0.00000000000E+00  0.00000000000E+00 -0.11596264539E+04  0.13261676032E+04  0.64341821471E+03 0.  0.
        3    1    3    3  502    0 -0.23743641081E+03  0.89341161614E+02 -0.98757741212E+03  0.10196406462E+04  0.10100000352E+00 0. -1.
       -3    1    3    3    0  502  0.23743641081E+03 -0.89341161614E+02 -0.17204904183E+03  0.30652695694E+03  0.10100000352E+00 0.  1.
</event>
<event>
 5   0  0.1951465E-02  0.7077209E+03  0.7818609E-02  0.9704119E-01
        1   -1    0    0  501    0  0.00000000000E+00  0.00000000000E+00  0.10808213188E+04  0.10808213188E+04  0.50400001928E-02 0.  1.
       -1   -1    0    0    0  501  0.00000000000E+00  0.00000000000E+00 -0.11585375780E+03  0.11585375791E+03  0.50400001928E-02 0. -1.
    10030    2    1    2    0    0  0.00000000000E+00  0.00000000000E+00  0.96496756098E+03  0.11966750767E+04  0.70772088104E+03 0.  0.
        4    1    3    3  502    0  0.21047151257E+03  0.22050125538E+03  0.17861070812E+03  0.35330222074E+03  0.12699999809E+01 0. -1.
       -4    1    3    3    0  502 -0.21047151257E+03 -0.22050125538E+03  0.78635685286E+03  0.84337285596E+03  0.12699999809E+01 0.  1.
</event>
<event>
 5   0  0.3290656E-02  0.7024245E+03  0.7818609E-02  0.9713095E-01
       -2   -1    0    0    0  501  0.00000000000E+00  0.00000000000E+00  0.53414660866E+02  0.53414660927E+02  0.25500000920E-02 0. -1.
        2   -1    0    0  501    0  0.00000000000E+00  0.00000000000E+00 -0.23092917417E+04  0.23092917417E+04  0.25500000920E-02 0.  1.
    10030    2    1    2    0    0  0.00000000000E+00  0.00000000000E+00 -0.22558770809E+04  0.23627064027E+04  0.70242447366E+03 0.  0.
        1    1    3    3  502    0 -0.86771528488E+00 -0.18331068245E+03 -0.21356096930E+04  0.21434626939E+04  0.50400001928E-02 0.  1.
       -1    1    3    3    0  502  0.86771528488E+00  0.18331068245E+03 -0.12026738788E+03  0.21924370879E+03  0.50400001928E-02 0. -1.
</event>
<event>
 5   0  0.1951465E-02  0.6607410E+03  0.7818609E-02  0.9786831E-01
       -1   -1    0    0    0  501  0.00000000000E+00  0.00000000000E+00  0.42634846772E+03  0.42634846775E+03  0.50400001928E-02 0.  1.
        1   -1    0    0  501    0  0.00000000000E+00  0.00000000000E+00 -0.25599875166E+03  0.25599875171E+03  0.50400001928E-02 0. -1.
    10030    2    1    2    0    0  0.00000000000E+00  0.00000000000E+00  0.17034971606E+03  0.68234721945E+03  0.66074102501E+03 0.  0.
        4    1    3    3  502    0  0.25910316503E+03  0.12739582754E+03 -0.80633521925E+02  0.29977912662E+03  0.12699999809E+01 0. -1.
       -4    1    3    3    0  502 -0.25910316503E+03 -0.12739582754E+03  0.25098323799E+03  0.38256809283E+03  0.12699999809E+01 0.  1.
</event>
<event>
 5   0  0.3184443E-02  0.7023154E+03  0.7818609E-02  0.9713281E-01
        2   -1    0    0  501    0  0.00000000000E+00  0.00000000000E+00  0.73660714950E+03  0.73660714951E+03  0.25500000920E-02 0.  1.
       -2   -1    0    0    0  501  0.00000000000E+00  0.00000000000E+00 -0.16740499497E+03  0.16740499498E+03  0.25500000920E-02 0. -1.
    10030    2    1    2    0    0  0.00000000000E+00  0.00000000000E+00  0.56920215454E+03  0.90401214449E+03  0.70231535983E+03 0.  0.
        3    1    3    3  502    0  0.94062974285E+02  0.31174145773E+03  0.45381189378E+03  0.55854796100E+03  0.10100000352E+00 0.  1.
       -3    1    3    3    0  502 -0.94062974285E+02 -0.31174145773E+03  0.11539026076E+03  0.34546418350E+03  0.10100000352E+00 0. -1.
</event>
<event>
 5   0  0.3183963E-02  0.6999978E+03  0.7818609E-02  0.9717236E-01
       -2   -1    0    0    0  501  0.00000000000E+00  0.00000000000E+00  0.19153256928E+03  0.19153256930E+03  0.25500000920E-02 0. -1.
        2   -1    0    0  501    0  0.00000000000E+00  0.00000000000E+00 -0.63957386767E+03  0.63957386768E+03  0.25500000920E-02 0.  1.
    10030    2    1    2    0    0  0.00000000000E+00  0.00000000000E+00 -0.44804129839E+03  0.83110643698E+03  0.69999778894E+03 0.  0.
        4    1    3    3  502    0  0.36927346397E+02 -0.34675759317E+03 -0.18853738103E+03  0.39642453793E+03  0.12699999809E+01 0.  1.
       -4    1    3    3    0  502 -0.36927346397E+02  0.34675759317E+03 -0.25950391736E+03  0.43468189904E+03  0.12699999809E+01 0. -1.
</event>
<event>
 5   0  0.1969818E-02  0.7012078E+03  0.7818609E-02  0.9715169E-01
       -1   -1    0    0    0  501  0.00000000000E+00  0.00000000000E+00  0.17040009501E+03  0.17040009508E+03  0.50400001928E-02 0. -1.
        1   -1    0    0  501    0  0.00000000000E+00  0.00000000000E+00 -0.72137916728E+03  0.72137916729E+03  0.50400001928E-02 0.  1.
    10030    2    1    2    0    0  0.00000000000E+00  0.00000000000E+00 -0.55097907227E+03  0.89177926238E+03  0.70120775432E+03 0.  0.
        1    1    3    3  502    0  0.81030774293E+02  0.23480025325E+03 -0.59017622010E+03  0.64031641874E+03  0.50400001928E-02 0.  1.
       -1    1    3    3    0  502 -0.81030774293E+02 -0.23480025325E+03  0.39197147831E+02  0.25146284364E+03  0.50400001928E-02 0. -1.
</event>
<event>
 5   0  0.3290656E-02  0.6984137E+03  0.7818609E-02  0.9719949E-01
       -2   -1    0    0    0  501  0.00000000000E+00  0.00000000000E+00  0.22734478436E+03  0.22734478437E+03  0.25500000920E-02 0.  1.
        2   -1    0    0  501    0  0.00000000000E+00  0.00000000000E+00 -0.53638975745E+03  0.53638975745E+03  0.25500000920E-02 0. -1.
    10030    2    1    2    0    0  0.00000000000E+00  0.00000000000E+00 -0.30904497309E+03  0.76373454182E+03  0.69841367039E+03 0.  0.
        1    1    3    3  502    0  0.29824103610E+03 -0.16950011963E+03 -0.83087369232E+02  0.35296107026E+03  0.50400001928E-02 0.  1.
       -1    1    3    3    0  502 -0.29824103610E+03  0.16950011963E+03 -0.22595760386E+03  0.41077347156E+03  0.50400001928E-02 0. -1.
</event>
<event>
 5   0  0.1839038E-02  0.6465534E+03  0.7818609E-02  0.9813268E-01
       -1   -1    0    0    0  501  0.00000000000E+00  0.00000000000E+00  0.77620750050E+02  0.77620750213E+02  0.50400001928E-02 0. -1.
        1   -1    0    0  501    0  0.00000000000E+00  0.00000000000E+00 -0.13463903872E+04  0.13463903872E+04  0.50400001928E-02 0.  1.
    10030    2    1    2    0    0  0.00000000000E+00  0.00000000000E+00 -0.12687696372E+04  0.14240111374E+04  0.64655342189E+03 0.  0.
        5    1    3    3  502    0 -0.86272213259E+02 -0.16640516982E+03 -0.12143995016E+04  0.12287887592E+04  0.46999998093E+01 0.  1.
       -5    1    3    3    0  502  0.86272213259E+02  0.16640516982E+03 -0.54370135597E+02  0.19522237824E+03  0.46999998093E+01 0. -1.
</event>
<event>
 5   0  0.1839038E-02  0.6973427E+03  0.7818609E-02  0.9721787E-01
       -1   -1    0    0    0  501  0.00000000000E+00  0.00000000000E+00  0.91366861284E+03  0.91366861286E+03  0.50400001928E-02 0. -1.
        1   -1    0    0  501    0  0.00000000000E+00  0.00000000000E+00 -0.13305886070E+03  0.13305886079E+03  0.50400001928E-02 0.  1.
    10030    2    1    2    0    0  0.00000000000E+00  0.00000000000E+00  0.78060975215E+03  0.10467274736E+04  0.69734268401E+03 0.  0.
        5    1    3    3  502    0  0.12661972556E+03  0.31603449998E+03  0.27758559038E+03  0.43930195772E+03  0.46999998093E+01 0.  1.
       -5    1    3    3    0  502 -0.12661972556E+03 -0.31603449998E+03  0.50302416177E+03  0.60742551592E+03  0.46999998093E+01 0. -1.
</event>
<event>
 5   0  0.1951465E-02  0.6997603E+03  0.7818609E-02  0.9717642E-01
        1   -1    0    0  501    0  0.00000000000E+00  0.00000000000E+00  0.23545718508E+03  0.23545718514E+03  0.50400001928E-02 0.  1.
       -1   -1    0    0    0  501  0.00000000000E+00  0.00000000000E+00 -0.51990817232E+03  0.51990817235E+03  0.50400001928E-02 0. -1.
    10030    2    1    2    0    0  0.00000000000E+00  0.00000000000E+00 -0.28445098724E+03  0.75536535749E+03  0.69976028692E+03 0.  0.
        4    1    3    3  502    0 -0.53771144988E+02 -0.19920393112E+03  0.16278911902E+03  0.26282209263E+03  0.12699999809E+01 0.  1.
       -4    1    3    3    0  502  0.53771144988E+02  0.19920393112E+03 -0.44724010626E+03  0.49254326485E+03  0.12699999809E+01 0. -1.
</event>
<event>
 5   0  0.1884172E-02  0.7031144E+03  0.7818609E-02  0.9711921E-01
       -1   -1    0    0    0  501  0.00000000000E+00  0.00000000000E+00  0.31198843911E+03  0.31198843915E+03  0.50400001928E-02 0.  1.
        1   -1    0    0  501    0  0.00000000000E+00  0.00000000000E+00 -0.39614442233E+03  0.39614442236E+03  0.50400001928E-02 0. -1.
    10030    2    1    2    0    0  0.00000000000E+00  0.00000000000E+00 -0.84155983214E+02  0.70813286151E+03  0.70311444306E+03 0.  0.
        3    1    3    3  502    0 -0.12568640524E+03  0.30558993116E+03 -0.16297724056E+03  0.36843434915E+03  0.10100000352E+00 0. -1.
       -3    1    3    3    0  502  0.12568640524E+03 -0.30558993116E+03  0.78821257348E+02  0.33969851236E+03  0.10100000352E+00 0.  1.
</event>
<event>
 5   0  0.1884172E-02  0.6892277E+03  0.7818609E-02  0.9735834E-01
       -1   -1    0    0    0  501  0.00000000000E+00  0.00000000000E+00  0.55755994661E+03  0.55755994663E+03  0.50400001928E-02 0. -1.
        1   -1    0    0  501    0  0.00000000000E+00  0.00000000000E+00 -0.21299721761E+03  0.21299721767E+03  0.50400001928E-02 0.  1.
    10030    2    1    2    0    0  0.00000000000E+00  0.00000000000E+00  0.34456272900E+03  0.77055716431E+03  0.68922773395E+03 0.  0.
        3    1    3    3  502    0 -0.32935062614E+03 -0.26435007198E+02  0.62808231421E+02  0.33632652093E+03  0.10100000352E+00 0. -1.
       -3    1    3    3    0  502  0.32935062614E+03  0.26435007198E+02  0.28175449757E+03  0.43423064338E+03  0.10100000352E+00 0.  1.
</event>
<event>
 5   0  0.1951465E-02  0.7094596E+03  0.7818609E-02  0.9701190E-01
       -1   -1    0    0    0  501  0.00000000000E+00  0.00000000000E+00  0.16461281012E+03  0.16461281020E+03  0.50400001928E-02 0.  1.
        1   -1    0    0  501    0  0.00000000000E+00  0.00000000000E+00 -0.76441952467E+03  0.76441952468E+03  0.50400001928E-02 0. -1.
    10030    2    1    2    0    0  0.00000000000E+00  0.00000000000E+00 -0.59980671454E+03  0.92903233488E+03  0.70945964258E+03 0.  0.
        4    1    3    3  502    0 -0.21621336493E+02 -0.33891291473E+03 -0.16570629378E+03  0.37787515751E+03  0.12699999809E+01 0.  1.
       -4    1    3    3    0  502  0.21621336493E+02  0.33891291473E+03 -0.43410042076E+03  0.55115717737E+03  0.12699999809E+01 0. -1.
</event>
<event>
 5   0  0.1884172E-02  0.6995489E+03  0.7818609E-02  0.9718004E-01
        1   -1    0    0  501    0  0.00000000000E+00  0.00000000000E+00  0.39046255982E+03  0.39046255985E+03  0.50400001928E-02 0.  1.
       -1   -1    0    0    0  501  0.00000000000E+00  0.00000000000E+00 -0.31332626134E+03  0.31332626138E+03  0.50400001928E-02 0. -1.
    10030    2    1    2    0    0  0.00000000000E+00  0.00000000000E+00  0.77136298482E+02  0.70378882123E+03  0.69954892348E+03 0.  0.
        3    1    3    3  502    0  0.13632595781E+03  0.18164606170E+03 -0.22905559638E+03  0.32256245122E+03  0.10100000352E+00 0. -1.
       -3    1    3    3    0  502 -0.13632595781E+03 -0.18164606170E+03  0.30619189486E+03  0.38122637000E+03  0.10100000352E+00 0.  1.
</event>
<event>
 5   0  0.1969818E-02  0.6984468E+03  0.7818609E-02  0.9719892E-01
        1   -1    0    0  501    0  0.00000000000E+00  0.00000000000E+00  0.29318588754E+03  0.29318588758E+03  0.50400001928E-02 0. -1.
       -1   -1    0    0    0  501  0.00000000000E+00  0.00000000000E+00 -0.41597149693E+03  0.41597149696E+03  0.50400001928E-02 0.  1.
    10030    2    1    2    0    0  0.00000000000E+00  0.00000000000E+00 -0.12278560939E+03  0.70915738454E+03  0.69844676975E+03 0.  0.
        1    1    3    3  502    0  0.46385606650E+02 -0.20061634114E+02  0.28945334554E+03  0.29383215096E+03  0.50400001928E-02 0. -1.
       -1    1    3    3    0  502 -0.46385606650E+02  0.20061634114E+02 -0.41223895493E+03  0.41532523358E+03  0.50400001928E-02 0.  1.
</event>
<event>
 5   0  0.1839038E-02  0.7032172E+03  0.7818609E-02  0.9711746E-01
        1   -1    0    0  501    0  0.00000000000E+00  0.00000000000E+00  0.17121430546E+04  0.17121430546E+04  0.50400001928E-02 0. -1.
       -1   -1    0    0    0  501  0.00000000000E+00  0.00000000000E+00 -0.72206937424E+02  0.72206937600E+02  0.50400001928E-02 0.  1.
    10030    2    1    2    0    0  0.00000000000E+00  0.00000000000E+00  0.16399361172E+04  0.17843499922E+04  0.70321719708E+03 0.  0.
        5    1    3    3  502    0  0.19235706313E+03 -0.12835144877E+02  0.15659860234E+04  0.15778150386E+04  0.46999998093E+01 0. -1.
       -5    1    3    3    0  502 -0.19235706313E+03  0.12835144877E+02  0.73950093785E+02  0.20653495358E+03  0.46999998093E+01 0.  1.
</event>
<event>
 5   0  0.3184443E-02  0.7040585E+03  0.7818609E-02  0.9710317E-01
        2   -1    0    0  501    0  0.00000000000E+00  0.00000000000E+00  0.67191133671E+03  0.67191133671E+03  0.25500000920E-02 0. -1.
       -2   -1    0    0    0  501  0.00000000000E+00  0.00000000000E+00 -0.18443593955E+03  0.18443593957E+03  0.25500000920E-02 0.  1.
    10030    2    1    2    0    0  0.00000000000E+00  0.00000000000E+00  0.48747539715E+03  0.85634727628E+03  0.70405851658E+03 0.  0.
        3    1    3    3  502    0 -0.28266955932E+03 -0.20973326718E+03  0.23659713321E+03  0.42410887372E+03  0.10100000352E+00 0.  1.
       -3    1    3    3    0  502  0.28266955932E+03  0.20973326718E+03  0.25087826395E+03  0.43223840256E+03  0.10100000352E+00 0. -1.
</event>
<event>
 5   0  0.2933851E-02  0.7117907E+03  0.7818609E-02  0.9697278E-01
       -2   -1    0    0    0  501  0.00000000000E+00  0.00000000000E+00  0.17954275463E+03  0.17954275465E+03  0.25500000920E-02 0. -1.
        2   -1    0    0  501    0  0.00000000000E+00  0.00000000000E+00 -0.70546704120E+03  0.70546704120E+03  0.25500000920E-02 0.  1.
    10030    2    1    2    0    0  0.00000000000E+00  0.00000000000E+00 -0.52592428657E+03  0.88500979585E+03  0.71179068802E+03 0.  0.
        2    1    3    3  502    0 -0.13113386467E+03  0.44828823525E+02  0.14461579699E+03  0.20029838399E+03  0.25500000920E-02 0. -1.
       -2    1    3    3    0  502  0.13113386467E+03 -0.44828823525E+02 -0.67054008355E+03  0.68471141187E+03  0.25500000920E-02 0.  1.
</event>
<event>
 5   0  0.1839038E-02  0.6959495E+03  0.7818609E-02  0.9724184E-01
        1   -1    0    0  501    0  0.00000000000E+00  0.00000000000E+00  0.17319460837E+03  0.17319460845E+03  0.50400001928E-02 0.  1.
       -1   -1    0    0    0  501  0.00000000000E+00  0.00000000000E+00 -0.69913516322E+03  0.69913516324E+03  0.50400001928E-02 0. -1.
    10030    2    1    2    0    0  0.00000000000E+00  0.00000000000E+00 -0.52594055485E+03  0.87232977169E+03  0.69594954080E+03 0.  0.
        5    1    3    3  502    0 -0.17044945287E+03 -0.30079361191E+03 -0.31207143713E+03  0.46576870313E+03  0.46999998093E+01 0.  1.
       -5    1    3    3    0  502  0.17044945287E+03  0.30079361191E+03 -0.21386911772E+03  0.40656106856E+03  0.46999998093E+01 0. -1.
</event>
<event>
 5   0  0.3184443E-02  0.7019759E+03  0.7818609E-02  0.9713859E-01
       -2   -1    0    0    0  501  0.00000000000E+00  0.00000000000E+00  0.77398058717E+02  0.77398058759E+02  0.25500000920E-02 0. -1.
        2   -1    0    0  501    0  0.00000000000E+00  0.00000000000E+00 -0.15916748308E+04  0.15916748308E+04  0.25500000920E-02 0.  1.
    10030    2    1    2    0    0  0.00000000000E+00  0.00000000000E+00 -0.15142767720E+04  0.16690728895E+04  0.70197590285E+03 0.  0.
        3    1    3    3  502    0  0.59977552288E+02  0.11748161365E+02 -0.15789254013E+04  0.15801078315E+04  0.10100000352E+00 0.  1.
       -3    1    3    3    0  502 -0.59977552288E+02 -0.11748161365E+02  0.64648629290E+02  0.88965057995E+02  0.10100000352E+00 0. -1.
</event>
<event>
 5   0  0.3290656E-02  0.6755227E+03  0.7818609E-02  0.9760032E-01
       -2   -1    0    0    0  501  0.00000000000E+00  0.00000000000E+00  0.29167434162E+03  0.29167434163E+03  0.25500000920E-02 0.  1.
        2   -1    0    0  501    0  0.00000000000E+00  0.00000000000E+00 -0.39113049854E+03  0.39113049855E+03  0.25500000920E-02 0. -1.
    10030    2    1    2    0    0  0.00000000000E+00  0.00000000000E+00 -0.99456156919E+02  0.68280484018E+03  0.67552270326E+03 0.  0.
        1    1    3    3  502    0  0.33234337593E+03  0.57809761684E+02 -0.32555448037E+02  0.33890108482E+03  0.50400001928E-02 0.  1.
       -1    1    3    3    0  502 -0.33234337593E+03 -0.57809761684E+02 -0.66900708881E+02  0.34390375535E+03  0.50400001928E-02 0. -1.
</event>
<event>
 5   0  0.3183963E-02  0.7347812E+03  0.7818609E-02  0.9659534E-01
        2   -1    0    0  501    0  0.00000000000E+00  0.00000000000E+00  0.29121648352E+03  0.29121648353E+03  0.25500000920E-02 0.  1.
       -2   -1    0    0    0  501  0.00000000000E+00  0.00000000000E+00 -0.46348968343E+03  0.46348968344E+03  0.25500000920E-02 0. -1.
    10030    2    1    2    0    0  0.00000000000E+00  0.00000000000E+00 -0.17227319991E+03  0.75470616697E+03  0.73478115317E+03 0.  0.
        4    1    3    3  502    0  0.27514046919E+03  0.14088136130E+03 -0.29007657685E+03  0.42390549547E+03  0.12699999809E+01 0. -1.
       -4    1    3    3    0  502 -0.27514046919E+03 -0.14088136130E+03  0.11780337693E+03  0.33080067150E+03  0.12699999809E+01 0.  1.
</event>
<event>
 5   0  0.2933851E-02  0.7026202E+03  0.7818609E-02  0.9712762E-01
        2   -1    0    0  501    0  0.00000000000E+00  0.00000000000E+00  0.28134350950E+03  0.28134350951E+03  0.25500000920E-02 0.  1.
       -2   -1    0    0    0  501  0.00000000000E+00  0.00000000000E+00 -0.43867648379E+03  0.43867648379E+03  0.25500000920E-02 0. -1.
    10030    2    1    2    0    0  0.00000000000E+00  0.00000000000E+00 -0.15733297429E+03  0.72001999330E+03  0.70262018613E+03 0.  0.
        2    1    3    3  502    0  0.23966214747E+03 -0.13476266546E+03  0.14542640714E+03  0.31104302087E+03  0.25500000920E-02 0.  1.
       -2    1    3    3    0  502 -0.23966214747E+03  0.13476266546E+03 -0.30275938142E+03  0.40897697243E+03  0.25500000920E-02 0. -1.
</event>
<event>
 5   0  0.1839038E-02  0.7172469E+03  0.7818609E-02  0.9688184E-01
        1   -1    0    0  501    0  0.00000000000E+00  0.00000000000E+00  0.11300748212E+03  0.11300748223E+03  0.50400001928E-02 0. -1.
       -1   -1    0    0    0  501  0.00000000000E+00  0.00000000000E+00 -0.11380731441E+04  0.11380731441E+04  0.50400001928E-02 0.  1.
    10030    2    1    2    0    0  0.00000000000E+00  0.00000000000E+00 -0.10250656620E+04  0.12510806264E+04  0.71724690467E+03 0.  0.
        5    1    3    3  502    0  0.13188219232E+03 -0.21701114468E+03 -0.95415636242E+03  0.98738199472E+03  0.46999998093E+01 0.  1.
       -5    1    3    3    0  502 -0.13188219232E+03  0.21701114468E+03 -0.70909299589E+02  0.26369863165E+03  0.46999998093E+01 0. -1.
</event>
<event>
 5   0  0.2933851E-02  0.7042932E+03  0.7818609E-02  0.9709918E-01
        2   -1    0    0  501    0  0.00000000000E+00  0.00000000000E+00  0.15210742604E+03  0.15210742606E+03  0.25500000920E-02 0. -1.
       -2   -1    0    0    0  501  0.00000000000E+00  0.00000000000E+00 -0.81526079266E+03  0.81526079267E+03  0.25500000920E-02 0.  1.
    10030    2    1    2    0    0  0.00000000000E+00  0.00000000000E+00 -0.66315336662E+03  0.96736821873E+03  0.70429317968E+03 0.  0.
        2    1    3    3  502    0  0.27770829072E+03  0.33523094866E+02 -0.62540157971E+03  0.68510789554E+03  0.25500000920E-02 0.  1.
       -2    1    3    3    0  502 -0.27770829072E+03 -0.33523094866E+02 -0.37751786916E+02  0.28226032319E+03  0.25500000920E-02 0. -1.
</event>
<event>
 5   0  0.1839038E-02  0.6033076E+03  0.7818609E-02  0.9898568E-01
       -1   -1    0    0    0  501  0.00000000000E+00  0.00000000000E+00  0.45313097764E+03  0.45313097767E+03  0.50400001928E-02 0.  1.
        1   -1    0    0  501    0  0.00000000000E+00  0.00000000000E+00 -0.20081392973E+03  0.20081392980E+03  0.50400001928E-02 0. -1.
    10030    2    1    2    0    0  0.00000000000E+00  0.00000000000E+00  0.25231704791E+03  0.65394490746E+03  0.60330759098E+03 0.  0.
        5    1    3    3  502    0 -0.88812554853E+02  0.26153919487E+03 -0.51831074603E+01  0.27629581060E+03  0.46999998093E+01 0. -1.
       -5    1    3    3    0  502  0.88812554853E+02 -0.26153919487E+03  0.25750015537E+03  0.37764909687E+03  0.46999998093E+01 0.  1.
</event>
<event>
 5   0  0.1858013E-02  0.7005312E+03  0.7818609E-02  0.9716324E-01
       -1   -1    0    0    0  501  0.00000000000E+00  0.00000000000E+00  0.51966557245E+03  0.51966557248E+03  0.50400001928E-02 0.  1.
        1   -1    0    0  501    0  0.00000000000E+00  0.00000000000E+00 -0.23608645213E+03  0.23608645219E+03  0.50400001928E-02 0. -1.
    10030    2    1    2    0    0  0.00000000000E+00  0.00000000000E+00  0.28357912032E+03  0.75575202467E+03  0.70053123079E+03 0.  0.
        2    1    3    3  502    0  0.47566489420E+02  0.21776004208E+03 -0.14970142601E+03  0.26850050986E+03  0.25500000920E-02 0. -1.
       -2    1    3    3    0  502 -0.47566489420E+02 -0.21776004208E+03  0.43328054633E+03  0.48725151480E+03  0.25500000920E-02 0.  1.
</event>
<event>
 5   0  0.1858013E-02  0.7123111E+03  0.7818609E-02  0.9696407E-01
        1   -1    0    0  501    0  0.00000000000E+00  0.00000000000E+00  0.13197138643E+04  0.13197138643E+04  0.50400001928E-02 0. -1.
       -1   -1    0    0    0  501  0.00000000000E+00  0.00000000000E+00 -0.96116881953E+02  0.96116882085E+02  0.50400001928E-02 0.  1.
    10030    2    1    2    0    0  0.00000000000E+00  0.00000000000E+00  0.12235969824E+04  0.14158307464E+04  0.71231111688E+03 0.  0.
        2    1    3    3  502    0 -0.94188098167E+02  0.11173226148E+03  0.12573782566E+04  0.12658418449E+04  0.25500000920E-02 0. -1.
       -2    1    3    3    0  502  0.94188098167E+02 -0.11173226148E+03 -0.33781274214E+02  0.14998890154E+03  0.25500000920E-02 0.  1.
</event>
<event>
 5   0  0.1858013E-02  0.7043869E+03  0.7818609E-02  0.9709759E-01
        1   -1    0    0  501    0  0.00000000000E+00  0.00000000000E+00  0.44708469962E+03  0.44708469965E+03  0.50400001928E-02 0.  1.
       -1   -1    0    0    0  501  0.00000000000E+00  0.00000000000E+00 -0.27744236406E+03  0.27744236410E+03  0.50400001928E-02 0. -1.
    10030    2    1    2    0    0  0.00000000000E+00  0.00000000000E+00  0.16964233556E+03  0.72452706375E+03  0.70438692782E+03 0.  0.
        2    1    3    3  502    0  0.76227574936E+02 -0.51815218384E+02  0.43445905113E+03  0.44412850297E+03  0.25500000920E-02 0.  1.
       -2    1    3    3    0  502 -0.76227574936E+02  0.51815218384E+02 -0.26481671557E+03  0.28039856078E+03  0.25500000920E-02 0. -1.
</event>
<event>
 5   0  0.3290656E-02  0.6976773E+03  0.7818609E-02  0.9721213E-01
        2   -1    0    0  501    0  0.00000000000E+00  0.00000000000E+00  0.60880775005E+03  0.60880775005E+03  0.25500000920E-02 0.  1.
       -2   -1    0    0    0  501  0.00000000000E+00  0.00000000000E+00 -0.19987987571E+03  0.19987987573E+03  0.25500000920E-02 0. -1.
    10030    2    1    2    0    0  0.00000000000E+00  0.00000000000E+00  0.40892787434E+03  0.80868762578E+03  0.69767733923E+03 0.  0.
        1    1    3    3  502    0  0.27658799333E+03 -0.20015934914E+03  0.28743362964E+03  0.44629897443E+03  0.50400001928E-02 0.  1.
       -1    1    3    3    0  502 -0.27658799333E+03  0.20015934914E+03  0.12149424470E+03  0.36238865135E+03  0.50400001928E-02 0. -1.
</event>
<event>
 5   0  0.3183963E-02  0.7139722E+03  0.7818609E-02  0.9693632E-01
       -2   -1    0    0    0  501  0.00000000000E+00  0.00000000000E+00  0.12674595898E+03  0.12674595900E+03  0.25500000920E-02 0. -1.
        2   -1    0    0  501    0  0.00000000000E+00  0.00000000000E+00 -0.10054685039E+04  0.10054685039E+04  0.25500000920E-02 0.  1.
    10030    2    1    2    0    0  0.00000000000E+00  0.00000000000E+00 -0.87872254491E+03  0.11322144629E+04  0.71397218367E+03 0.  0.
        4    1    3    3  502    0 -0.19371577107E+03 -0.14285980718E+03 -0.21291906732E+02  0.24163957180E+03  0.12699999809E+01 0. -1.
       -4    1    3    3    0  502  0.19371577107E+03  0.14285980718E+03 -0.85743063818E+03  0.89057489110E+03  0.12699999809E+01 0.  1.
</event>
<event>
 5   0  0.1884172E-02  0.6998674E+03  0.7818609E-02  0.9717459E-01
       -1   -1    0    0    0  501  0.00000000000E+00  0.00000000000E+00  0.23196449813E+03  0.23196449819E+03  0.50400001928E-02 0. -1.
        1   -1    0    0  501    0  0.00000000000E+00  0.00000000000E+00 -0.52789802606E+03  0.52789802608E+03  0.50400001928E-02 0.  1.
    10030    2    1    2    0    0  0.00000000000E+00  0.00000000000E+00 -0.29593352792E+03  0.75986252427E+03  0.69986741804E+03 0.  0.
        3    1    3    3  502    0 -0.65401739121E+02 -0.34375841168E+03 -0.15070430095E+03  0.38099741417E+03  0.10100000352E+00 0. -1.
       -3    1    3    3    0  502  0.65401739121E+02  0.34375841168E+03 -0.14522922697E+03  0.37886511010E+03  0.10100000352E+00 0.  1.
</event>
<event>
 5   0  0.3184443E-02  0.6888428E+03  0.7818609E-02  0.9736505E-01
       -2   -1    0    0    0  501  0.00000000000E+00  0.00000000000E+00  0.29850767108E+03  0.29850767109E+03  0.25500000920E-02 0. -1.
        2   -1    0    0  501    0  0.00000000000E+00  0.00000000000E+00 -0.39739710939E+03  0.39739710940E+03  0.25500000920E-02 0.  1.
    10030    2    1    2    0    0  0.00000000000E+00  0.00000000000E+00 -0.98889438316E+02  0.69590478049E+03  0.68884275600E+03 0.  0.
        3    1    3    3  502    0 -0.28475085196E+03 -0.19313437388E+03 -0.65165141534E+02  0.35018629319E+03  0.10100000352E+00 0. -1.
       -3    1    3    3    0  502  0.28475085196E+03  0.19313437388E+03 -0.33724296782E+02  0.34571848730E+03  0.10100000352E+00 0.  1.
</event>
<event>
 5   0  0.1884172E-02  0.7001835E+03  0.7818609E-02  0.9716918E-01
       -1   -1    0    0    0  501  0.00000000000E+00  0.00000000000E+00  0.46704406339E+03  0.46704406342E+03  0.50400001928E-02 0.  1.
        1   -1    0    0  501    0  0.00000000000E+00  0.00000000000E+00 -0.26242544640E+03  0.26242544644E+03  0.50400001928E-02 0. -1.
    10030    2    1    2    0    0  0.00000000000E+00  0.00000000000E+00  0.20461861699E+03  0.72946950986E+03  0.70018353836E+03 0.  0.
        3    1    3    3  502    0  0.55955959899E+02  0.31453864120E+03 -0.46852437575E+02  0.32289439042E+03  0.10100000352E+00 0. -1.
       -3    1    3    3    0  502 -0.55955959899E+02 -0.31453864120E+03  0.25147105457E+03  0.40657511944E+03  0.10100000352E+00 0.  1.
</event>
<event>
 5   0  0.1858013E-02  0.6944147E+03  0.7818609E-02  0.9726832E-01
        1   -1    0    0  501    0  0.00000000000E+00  0.00000000000E+00  0.10332690593E+04  0.10332690593E+04  0.50400001928E-02 0.  1.
       -1   -1    0    0    0  501  0.00000000000E+00  0.00000000000E+00 -0.11667141062E+03  0.11667141072E+03  0.50400001928E-02 0. -1.
    10030    2    1    2    0    0  0.00000000000E+00  0.00000000000E+00  0.91659764865E+03  0.11499404700E+04  0.69441474281E+03 0.  0.
        2    1    3    3  502    0 -0.10937713559E+03  0.24311687460E+03  0.82667190575E+03  0.86859404342E+03  0.25500000920E-02 0.  1.
       -2    1    3    3    0  502  0.10937713559E+03 -0.24311687460E+03  0.89925742894E+02  0.28134642657E+03  0.25500000920E-02 0. -1.
</event>
<event>
 5   0  0.2933851E-02  0.7017327E+03  0.7818609E-02  0.9714274E-01
       -2   -1    0    0    0  501  0.00000000000E+00  0.00000000000E+00  0.58735389751E+03  0.58735389751E+03  0.25500000920E-02 0. -1.
        2   -1    0    0  501    0  0.00000000000E+00  0.00000000000E+00 -0.20959626269E+03  0.20959626271E+03  0.25500000920E-02 0.  1.
    10030    2    1    2    0    0  0.00000000000E+00  0.00000000000E+00  0.37775763481E+03  0.79695016022E+03  0.70173266079E+03 0.  0.
        2    1    3    3  502    0  0.82186436688E+02 -0.22486728947E+03 -0.10241442917E+03  0.26040089009E+03  0.25500000920E-02 0.  1.
       -2    1    3    3    0  502 -0.82186436688E+02  0.22486728947E+03  0.48017206398E+03  0.53654927014E+03  0.25500000920E-02 0. -1.
</event>
<event>
 5   0  0.1839038E-02  0.7009165E+03  0.7818609E-02  0.9715666E-01
        1   -1    0    0  501    0  0.00000000000E+00  0.00000000000E+00  0.13594570192E+04  0.13594570192E+04  0.50400001928E-02 0. -1.
       -1   -1    0    0    0  501  0.00000000000E+00  0.00000000000E+00 -0.90345622404E+02  0.90345622545E+02  0.50400001928E-02 0.  1.
    10030    2    1    2    0    0  0.00000000000E+00  0.00000000000E+00  0.12691113968E+04  0.14498026418E+04  0.70091651612E+03 0.  0.
        5    1    3    3  502    0 -0.10970940904E+03 -0.17663085339E+03  0.12180030638E+04  0.12356326987E+04  0.46999998093E+01 0. -1.
       -5    1    3    3    0  502  0.10970940904E+03  0.17663085339E+03  0.51108333039E+02  0.21416994304E+03  0.46999998093E+01 0.  1.
</event>
<event>
 5   0  0.1969818E-02  0.6860490E+03  0.7818609E-02  0.9741392E-01
       -1   -1    0    0    0  501  0.00000000000E+00  0.00000000000E+00  0.20680109462E+03  0.20680109468E+03  0.50400001928E-02 0.  1.
        1   -1    0    0  501    0  0.00000000000E+00  0.00000000000E+00 -0.56898064619E+03  0.56898064622E+03  0.50400001928E-02 0. -1.
    10030    2    1    2    0    0  0.00000000000E+00  0.00000000000E+00 -0.36217955158E+03  0.77578174089E+03  0.68604903755E+03 0.  0.
        1    1    3    3  502    0  0.22364021625E+03  0.25815429319E+03 -0.21697782131E+03  0.40464547493E+03  0.50400001928E-02 0.  1.
       -1    1    3    3    0  502 -0.22364021625E+03 -0.25815429319E+03 -0.14520173026E+03  0.37113626596E+03  0.50400001928E-02 0. -1.
</event>
<event>
 5   0  0.3183963E-02  0.6967943E+03  0.7818609E-02  0.9722730E-01
       -2   -1    0    0    0  501  0.00000000000E+00  0.00000000000E+00  0.38138671670E+03  0.38138671671E+03  0.25500000920E-02 0. -1.
        2   -1    0    0  501    0  0.00000000000E+00  0.00000000000E+00 -0.31826116686E+03  0.31826116687E+03  0.25500000920E-02 0.  1.
    10030    2    1    2    0    0  0.00000000000E+00  0.00000000000E+00  0.63125549839E+02  0.69964788358E+03  0.69679432113E+03 0.  0.
        4    1    3    3  502    0  0.26632034924E+03 -0.97734821983E+02 -0.17150378261E+03  0.33150231401E+03  0.12699999809E+01 0.  1.
       -4    1    3    3    0  502 -0.26632034924E+03  0.97734821983E+02  0.23462933245E+03  0.36814556957E+03  0.12699999809E+01 0. -1.
</event>
<event>
 5   0  0.1969818E-02  0.7055528E+03  0.7818609E-02  0.9707783E-01
       -1   -1    0    0    0  501  0.00000000000E+00  0.00000000000E+00  0.40089873167E+03  0.40089873170E+03  0.50400001928E-02 0. -1.
        1   -1    0    0  501    0  0.00000000000E+00  0.00000000000E+00 -0.31043052107E+03  0.31043052111E+03  0.50400001928E-02 0.  1.
    10030    2    1    2    0    0  0.00000000000E+00  0.00000000000E+00  0.90468210599E+02  0.71132925282E+03  0.70555283912E+03 0.  0.
        1    1    3    3  502    0 -0.64900982372E+01 -0.13197174843E+03  0.37500921307E+03  0.39760605337E+03  0.50400001928E-02 0. -1.
       -1    1    3    3    0  502  0.64900982372E+01  0.13197174843E+03 -0.28454100247E+03  0.31372319945E+03  0.50400001928E-02 0.  1.
</event>
<event>
 5   0  0.3183963E-02  0.7115170E+03  0.7818609E-02  0.9697737E-01
       -2   -1    0    0    0  501  0.00000000000E+00  0.00000000000E+00  0.12650345264E+03  0.12650345267E+03  0.25500000920E-02 0.  1.
        2   -1    0    0  501    0  0.00000000000E+00  0.00000000000E+00 -0.10004793797E+04  0.10004793797E+04  0.25500000920E-02 0. -1.
    10030    2    1    2    0    0  0.00000000000E+00  0.00000000000E+00 -0.87397592706E+03  0.11269828324E+04  0.71151695930E+03 0.  0.
        4    1    3    3  502    0 -0.27692370604E+03  0.22100900126E+03 -0.48784042123E+03  0.60292753054E+03  0.12699999809E+01 0. -1.
       -4    1    3    3    0  502  0.27692370604E+03 -0.22100900126E+03 -0.38613550584E+03  0.52405530183E+03  0.12699999809E+01 0.  1.
</event>
<event>
 5   0  0.3113940E-02  0.6981063E+03  0.7818609E-02  0.9720476E-01
       -2   -1    0    0    0  501  0.00000000000E+00  0.00000000000E+00  0.29943973670E+03  0.29943973671E+03  0.25500000920E-02 0. -1.
        2   -1    0    0  501    0  0.00000000000E+00  0.00000000000E+00 -0.40688690011E+03  0.40688690012E+03  0.25500000920E-02 0.  1.
    10030    2    1    2    0    0  0.00000000000E+00  0.00000000000E+00 -0.10744716341E+03  0.70632663683E+03  0.69810631352E+03 0.  0.
        5    1    3    3  502    0  0.24181058866E+03 -0.23188443610E+03 -0.15271875745E+03  0.36822257042E+03  0.46999998093E+01 0.  1.
       -5    1    3    3    0  502 -0.24181058866E+03  0.23188443610E+03  0.45271594043E+02  0.33810406641E+03  0.46999998093E+01 0. -1.
</event>
<event>
 5   0  0.1951465E-02  0.6821257E+03  0.7818609E-02  0.9748297E-01
        1   -1    0    0  501    0  0.00000000000E+00  0.00000000000E+00  0.20070168908E+03  0.20070168915E+03  0.50400001928E-02 0.  1.
       -1   -1    0    0    0  501  0.00000000000E+00  0.00000000000E+00 -0.57958587614E+03  0.57958587616E+03  0.50400001928E-02 0. -1.
    10030    2    1    2    0    0  0.00000000000E+00  0.00000000000E+00 -0.37888418706E+03  0.78028756531E+03  0.68212569031E+03 0.  0.
        4    1    3    3  502    0 -0.94155716972E+02  0.87369263148E+01  0.18540420815E+03  0.20812968606E+03  0.12699999809E+01 0.  1.
       -4    1    3    3    0  502  0.94155716972E+02 -0.87369263148E+01 -0.56428839521E+03  0.57215787925E+03  0.12699999809E+01 0. -1.
</event>
<event>
 5   0  0.3113940E-02  0.6518542E+03  0.7818609E-02  0.9803306E-01
        2   -1    0    0  501    0  0.00000000000E+00  0.00000000000E+00  0.78419327459E+03  0.78419327459E+03  0.25500000920E-02 0. -1.
       -2   -1    0    0    0  501  0.00000000000E+00  0.00000000000E+00 -0.13546212741E+03  0.13546212744E+03  0.25500000920E-02 0.  1.
    10030    2    1    2    0    0  0.00000000000E+00  0.00000000000E+00  0.64873114718E+03  0.91965540203E+03  0.65185424534E+03 0.  0.
        5    1    3    3  502    0 -0.26159909068E+03  0.19410346395E+03  0.31053078238E+03  0.45006854563E+03  0.46999998093E+01 0.  1.
       -5    1    3    3    0  502  0.26159909068E+03 -0.19410346395E+03  0.33820036479E+03  0.46958685640E+03  0.46999998093E+01 0. -1.
</event>
<event>
 5   0  0.1233912E-02  0.7074658E+03  0.7818609E-02  0.9704549E-01
       -4   -1    0    0    0  501  0.00000000000E+00  0.00000000000E+00  0.23575420427E+03  0.23575762497E+03  0.12699999809E+01 0. -1.
        4   -1    0    0  501    0  0.00000000000E+00  0.00000000000E+00 -0.53074379534E+03  0.53074531481E+03  0.12699999809E+01 0.  1.
    10030    2    1    2    0    0  0.00000000000E+00  0.00000000000E+00 -0.29498959107E+03  0.76650293978E+03  0.70746582804E+03 0.  0.
        3    1    3    3  502    0 -0.35135381910E+03  0.13923612973E+02 -0.18922643647E+03  0.39931194279E+03  0.10100000352E+00 0. -1.
       -3    1    3    3    0  502  0.35135381910E+03 -0.13923612973E+02 -0.10576315460E+03  0.36719099699E+03  0.10100000352E+00 0.  1.
</event>
<event>
 5   0  0.2933851E-02  0.7002992E+03  0.7818609E-02  0.9716721E-01
        2   -1    0    0  501    0  0.00000000000E+00  0.00000000000E+00  0.59221457010E+03  0.59221457010E+03  0.25500000920E-02 0.  1.
       -2   -1    0    0    0  501  0.00000000000E+00  0.00000000000E+00 -0.20702759091E+03  0.20702759093E+03  0.25500000920E-02 0. -1.
    10030    2    1    2    0    0  0.00000000000E+00  0.00000000000E+00  0.38518697919E+03  0.79924216103E+03  0.70029923820E+03 0.  0.
        2    1    3    3  502    0  0.23344530529E+03  0.81823628606E+02 -0.90235988598E+02  0.26331416674E+03  0.25500000920E-02 0. -1.
       -2    1    3    3    0  502 -0.23344530529E+03 -0.81823628606E+02  0.47542296778E+03  0.53592799429E+03  0.25500000920E-02 0.  1.
</event>
<event>
 5   0  0.1839038E-02  0.6788434E+03  0.7818609E-02  0.9754113E-01
       -1   -1    0    0    0  501  0.00000000000E+00  0.00000000000E+00  0.42121302799E+03  0.42121302802E+03  0.50400001928E-02 0.  1.
        1   -1    0    0  501    0  0.00000000000E+00  0.00000000000E+00 -0.27351262976E+03  0.27351262981E+03  0.50400001928E-02 0. -1.
    10030    2    1    2    0    0  0.00000000000E+00  0.00000000000E+00  0.14770039823E+03  0.69472565783E+03  0.67884337812E+03 0.  0.
        5    1    3    3  502    0 -0.15695361759E+03 -0.73256721655E+02 -0.22484124800E+03  0.28386028631E+03  0.46999998093E+01 0. -1.
       -5    1    3    3    0  502  0.15695361759E+03  0.73256721655E+02  0.37254164623E+03  0.41086537152E+03  0.46999998093E+01 0.  1.
</event>
</LesHouchesEvents>
